 Entering Gaussian System, Link 0=g16
 Initial command:
 /prod/apps/gaussian/g16b1/l1.exe "/tmp/ubator02/1834582/Gau-184212.inp" -scrdir="/tmp/ubator02/1834582/"
 Entering Link 1 = /prod/apps/gaussian/g16b1/l1.exe PID=    184213.
  
 Copyright (c) 1988-2017, Gaussian, Inc.  All Rights Reserved.
  
 This is part of the Gaussian(R) 16 program.  It is based on
 the Gaussian(R) 09 system (copyright 2009, Gaussian, Inc.),
 the Gaussian(R) 03 system (copyright 2003, Gaussian, Inc.),
 the Gaussian(R) 98 system (copyright 1998, Gaussian, Inc.),
 the Gaussian(R) 94 system (copyright 1995, Gaussian, Inc.),
 the Gaussian 92(TM) system (copyright 1992, Gaussian, Inc.),
 the Gaussian 90(TM) system (copyright 1990, Gaussian, Inc.),
 the Gaussian 88(TM) system (copyright 1988, Gaussian, Inc.),
 the Gaussian 86(TM) system (copyright 1986, Carnegie Mellon
 University), and the Gaussian 82(TM) system (copyright 1983,
 Carnegie Mellon University). Gaussian is a federally registered
 trademark of Gaussian, Inc.
  
 This software contains proprietary and confidential information,
 including trade secrets, belonging to Gaussian, Inc.
  
 This software is provided under written license and may be
 used, copied, transmitted, or stored only in accord with that
 written license.
  
 The following legend is applicable only to US Government
 contracts under FAR:
  
                    RESTRICTED RIGHTS LEGEND
  
 Use, reproduction and disclosure by the US Government is
 subject to restrictions as set forth in subparagraphs (a)
 and (c) of the Commercial Computer Software - Restricted
 Rights clause in FAR 52.227-19.
  
 Gaussian, Inc.
 340 Quinnipiac St., Bldg. 40, Wallingford CT 06492
  
  
 ---------------------------------------------------------------
 Warning -- This program may not be used in any manner that
 competes with the business of Gaussian, Inc. or will provide
 assistance to any competitor of Gaussian, Inc.  The licensee
 of this program is prohibited from giving any competitor of
 Gaussian, Inc. access to this program.  By using this program,
 the user acknowledges that Gaussian, Inc. is engaged in the
 business of creating and licensing software in the field of
 computational chemistry and represents and warrants to the
 licensee that it is not a competitor of Gaussian, Inc. and that
 it will not use this program in any manner prohibited above.
 ---------------------------------------------------------------
  

 Cite this work as:
 Gaussian 16, Revision B.01,
 M. J. Frisch, G. W. Trucks, H. B. Schlegel, G. E. Scuseria, 
 M. A. Robb, J. R. Cheeseman, G. Scalmani, V. Barone, 
 G. A. Petersson, H. Nakatsuji, X. Li, M. Caricato, A. V. Marenich, 
 J. Bloino, B. G. Janesko, R. Gomperts, B. Mennucci, H. P. Hratchian, 
 J. V. Ortiz, A. F. Izmaylov, J. L. Sonnenberg, D. Williams-Young, 
 F. Ding, F. Lipparini, F. Egidi, J. Goings, B. Peng, A. Petrone, 
 T. Henderson, D. Ranasinghe, V. G. Zakrzewski, J. Gao, N. Rega, 
 G. Zheng, W. Liang, M. Hada, M. Ehara, K. Toyota, R. Fukuda, 
 J. Hasegawa, M. Ishida, T. Nakajima, Y. Honda, O. Kitao, H. Nakai, 
 T. Vreven, K. Throssell, J. A. Montgomery, Jr., J. E. Peralta, 
 F. Ogliaro, M. J. Bearpark, J. J. Heyd, E. N. Brothers, K. N. Kudin, 
 V. N. Staroverov, T. A. Keith, R. Kobayashi, J. Normand, 
 K. Raghavachari, A. P. Rendell, J. C. Burant, S. S. Iyengar, 
 J. Tomasi, M. Cossi, J. M. Millam, M. Klene, C. Adamo, R. Cammi, 
 J. W. Ochterski, R. L. Martin, K. Morokuma, O. Farkas, 
 J. B. Foresman, and D. J. Fox, Gaussian, Inc., Wallingford CT, 2016.
 
 ******************************************
 Gaussian 16:  ES64L-G16RevB.01 20-Dec-2017
                11-Jul-2021 
 ******************************************
 %mem=800MB
 %nproc=4
 Will use up to    4 processors via shared memory.
 %chk=SET_328_BBB304_conf1.geo_210_060.chk
 -----------------------------------------------------------
 #p b3lyp/6-31G(d) opt freq scrf=(iefpcm,read,solvent=water)
 -----------------------------------------------------------
 1/18=20,19=15,26=3,38=1,40=2/1,3;
 2/9=110,12=2,17=6,18=5,40=1/2;
 3/5=1,6=6,7=1,11=2,25=1,30=1,70=2203,71=1,72=1,74=-5/1,2,3;
 4//1;
 5/5=2,38=5,53=1/2;
 6/7=2,8=2,9=2,10=2,28=1/1;
 7//1,2,3,16;
 1/18=20,19=15,26=3/3(2);
 2/9=110/2;
 99//99;
 2/9=110/2;
 3/5=1,6=6,7=1,11=2,25=1,30=1,70=2205,71=1,72=1,74=-5/1,2,3;
 4/5=5,16=3,69=1/1;
 5/5=2,38=5,53=1/2;
 7//1,2,3,16;
 1/18=20,19=15,26=3/3(-5);
 2/9=110/2;
 6/7=2,8=2,9=2,10=2,19=2,28=1/1;
 99/9=1/99;
 Leave Link    1 at Sun Jul 11 16:13:10 2021, MaxMem=   104857600 cpu:               0.1 elap:               0.0
 (Enter /prod/apps/gaussian/g16b1/l101.exe)
 -----------------------------------------
 SET_328_BBB304_conf1.geo_210_060 geometry
 -----------------------------------------
 Symbolic Z-matrix:
 Charge =  1 Multiplicity = 1
 N                     1.417     3.984     2.716 
 H                     2.36      4.288     2.499 
 H                     1.189     3.639     3.642 
 C                     0.993     3.051     1.883 
 C                     1.614     2.637     0.661 
 C                     1.163     1.571    -0.025 
 H                     1.585     1.157    -0.932 
 H                     2.505     3.169     0.346 
 N                    -0.028     2.457     2.305 
 C                    -0.621     1.414     1.562 
 O                    -1.559     0.848     2.092 
 N                     0.054     0.918     0.476 
 C                    -0.409    -0.358    -0.025 
 O                     0.628    -1.123    -0.623 
 H                    -0.664    -1.025     0.811 
 C                    -1.552    -0.254    -1.067 
 H                    -1.574     0.703    -1.593 
 H                    -2.55     -0.367    -0.638 
 C                    -1.287    -1.362    -2.008 
 H                    -1.097    -0.911    -2.985 
 H                    -2.14     -2.044    -1.986 
 C                     0.047    -2.005    -1.622 
 H                     0.607    -1.911    -2.556 
 C                    -0.043    -3.452    -1.088 
 H                     0.958    -3.861    -0.93 
 H                    -0.483    -4.084    -1.864 
 O                    -0.873    -3.505     0.106 
 H                    -0.24     -3.575     0.843 
 H                    -0.428     2.727     3.181 
 
 ITRead=  0  0  0  0  0  0  0  0  0  0  0  0  0  0  0  0  0  0  0  0
 ITRead=  0  0  0  0  0  0  0  0  0
 MicOpt= -1 -1 -1 -1 -1 -1 -1 -1 -1 -1 -1 -1 -1 -1 -1 -1 -1 -1 -1 -1
 MicOpt= -1 -1 -1 -1 -1 -1 -1 -1 -1
 NAtoms=     29 NQM=       29 NQMF=       0 NMMI=      0 NMMIF=      0
                NMic=       0 NMicF=      0.
                    Isotopes and Nuclear Properties:
 (Nuclear quadrupole moments (NQMom) in fm**2, nuclear magnetic moments (NMagM)
  in nuclear magnetons)

  Atom         1           2           3           4           5           6           7           8           9          10
 IAtWgt=          14           1           1          12          12          12           1           1          14          12
 AtmWgt=  14.0030740   1.0078250   1.0078250  12.0000000  12.0000000  12.0000000   1.0078250   1.0078250  14.0030740  12.0000000
 NucSpn=           2           1           1           0           0           0           1           1           2           0
 AtZEff=  -0.0000000  -0.0000000  -0.0000000  -0.0000000  -0.0000000  -0.0000000  -0.0000000  -0.0000000  -0.0000000  -0.0000000
 NQMom=    2.0440000   0.0000000   0.0000000   0.0000000   0.0000000   0.0000000   0.0000000   0.0000000   2.0440000   0.0000000
 NMagM=    0.4037610   2.7928460   2.7928460   0.0000000   0.0000000   0.0000000   2.7928460   2.7928460   0.4037610   0.0000000
 AtZNuc=   7.0000000   1.0000000   1.0000000   6.0000000   6.0000000   6.0000000   1.0000000   1.0000000   7.0000000   6.0000000

  Atom        11          12          13          14          15          16          17          18          19          20
 IAtWgt=          16          14          12          16           1          12           1           1          12           1
 AtmWgt=  15.9949146  14.0030740  12.0000000  15.9949146   1.0078250  12.0000000   1.0078250   1.0078250  12.0000000   1.0078250
 NucSpn=           0           2           0           0           1           0           1           1           0           1
 AtZEff=  -0.0000000  -0.0000000  -0.0000000  -0.0000000  -0.0000000  -0.0000000  -0.0000000  -0.0000000  -0.0000000  -0.0000000
 NQMom=    0.0000000   2.0440000   0.0000000   0.0000000   0.0000000   0.0000000   0.0000000   0.0000000   0.0000000   0.0000000
 NMagM=    0.0000000   0.4037610   0.0000000   0.0000000   2.7928460   0.0000000   2.7928460   2.7928460   0.0000000   2.7928460
 AtZNuc=   8.0000000   7.0000000   6.0000000   8.0000000   1.0000000   6.0000000   1.0000000   1.0000000   6.0000000   1.0000000

  Atom        21          22          23          24          25          26          27          28          29
 IAtWgt=           1          12           1          12           1           1          16           1           1
 AtmWgt=   1.0078250  12.0000000   1.0078250  12.0000000   1.0078250   1.0078250  15.9949146   1.0078250   1.0078250
 NucSpn=           1           0           1           0           1           1           0           1           1
 AtZEff=  -0.0000000  -0.0000000  -0.0000000  -0.0000000  -0.0000000  -0.0000000  -0.0000000  -0.0000000  -0.0000000
 NQMom=    0.0000000   0.0000000   0.0000000   0.0000000   0.0000000   0.0000000   0.0000000   0.0000000   0.0000000
 NMagM=    2.7928460   0.0000000   2.7928460   0.0000000   2.7928460   2.7928460   0.0000000   2.7928460   2.7928460
 AtZNuc=   1.0000000   6.0000000   1.0000000   6.0000000   1.0000000   1.0000000   8.0000000   1.0000000   1.0000000
 Leave Link  101 at Sun Jul 11 16:13:10 2021, MaxMem=   104857600 cpu:               0.5 elap:               0.1
 (Enter /prod/apps/gaussian/g16b1/l103.exe)

 GradGradGradGradGradGradGradGradGradGradGradGradGradGradGradGradGradGrad
 Berny optimization.
 Initialization pass.
                           ----------------------------
                           !    Initial Parameters    !
                           ! (Angstroms and Degrees)  !
 --------------------------                            --------------------------
 ! Name  Definition              Value          Derivative Info.                !
 --------------------------------------------------------------------------------
 ! R1    R(1,2)                  1.0143         estimate D2E/DX2                !
 ! R2    R(1,3)                  1.0141         estimate D2E/DX2                !
 ! R3    R(1,4)                  1.3207         estimate D2E/DX2                !
 ! R4    R(4,5)                  1.4319         estimate D2E/DX2                !
 ! R5    R(4,9)                  1.2543         estimate D2E/DX2                !
 ! R6    R(5,6)                  1.3455         estimate D2E/DX2                !
 ! R7    R(5,8)                  1.0845         estimate D2E/DX2                !
 ! R8    R(6,7)                  1.0826         estimate D2E/DX2                !
 ! R9    R(6,12)                 1.381          estimate D2E/DX2                !
 ! R10   R(9,10)                 1.4112         estimate D2E/DX2                !
 ! R11   R(9,29)                 1.0001         estimate D2E/DX2                !
 ! R12   R(10,11)                1.217          estimate D2E/DX2                !
 ! R13   R(10,12)                1.3715         estimate D2E/DX2                !
 ! R14   R(12,13)                1.4469         estimate D2E/DX2                !
 ! R15   R(13,14)                1.4206         estimate D2E/DX2                !
 ! R16   R(13,15)                1.0995         estimate D2E/DX2                !
 ! R17   R(13,16)                1.5502         estimate D2E/DX2                !
 ! R18   R(14,22)                1.4538         estimate D2E/DX2                !
 ! R19   R(16,17)                1.0922         estimate D2E/DX2                !
 ! R20   R(16,18)                1.0922         estimate D2E/DX2                !
 ! R21   R(16,19)                1.4776         estimate D2E/DX2                !
 ! R22   R(19,20)                1.0927         estimate D2E/DX2                !
 ! R23   R(19,21)                1.0923         estimate D2E/DX2                !
 ! R24   R(19,22)                1.5304         estimate D2E/DX2                !
 ! R25   R(22,23)                1.0931         estimate D2E/DX2                !
 ! R26   R(22,24)                1.545          estimate D2E/DX2                !
 ! R27   R(24,25)                1.0928         estimate D2E/DX2                !
 ! R28   R(24,26)                1.0933         estimate D2E/DX2                !
 ! R29   R(24,27)                1.4551         estimate D2E/DX2                !
 ! R30   R(27,28)                0.974          estimate D2E/DX2                !
 ! A1    A(2,1,3)              120.42           estimate D2E/DX2                !
 ! A2    A(2,1,4)              112.042          estimate D2E/DX2                !
 ! A3    A(3,1,4)              105.2727         estimate D2E/DX2                !
 ! A4    A(1,4,5)              127.1071         estimate D2E/DX2                !
 ! A5    A(1,4,9)              112.5615         estimate D2E/DX2                !
 ! A6    A(5,4,9)              120.2128         estimate D2E/DX2                !
 ! A7    A(4,5,6)              121.2526         estimate D2E/DX2                !
 ! A8    A(4,5,8)              117.5396         estimate D2E/DX2                !
 ! A9    A(6,5,8)              121.0609         estimate D2E/DX2                !
 ! A10   A(5,6,7)              126.8299         estimate D2E/DX2                !
 ! A11   A(5,6,12)             117.3109         estimate D2E/DX2                !
 ! A12   A(7,6,12)             115.8558         estimate D2E/DX2                !
 ! A13   A(4,9,10)             120.9908         estimate D2E/DX2                !
 ! A14   A(4,9,29)             119.4969         estimate D2E/DX2                !
 ! A15   A(10,9,29)            119.5123         estimate D2E/DX2                !
 ! A16   A(9,10,11)            115.9961         estimate D2E/DX2                !
 ! A17   A(9,10,12)            118.5138         estimate D2E/DX2                !
 ! A18   A(11,10,12)           123.7778         estimate D2E/DX2                !
 ! A19   A(6,12,10)            120.7614         estimate D2E/DX2                !
 ! A20   A(6,12,13)            123.2523         estimate D2E/DX2                !
 ! A21   A(10,12,13)           115.8245         estimate D2E/DX2                !
 ! A22   A(12,13,14)           112.7715         estimate D2E/DX2                !
 ! A23   A(12,13,15)           110.2389         estimate D2E/DX2                !
 ! A24   A(12,13,16)           114.175          estimate D2E/DX2                !
 ! A25   A(14,13,15)            99.363          estimate D2E/DX2                !
 ! A26   A(14,13,16)           106.942          estimate D2E/DX2                !
 ! A27   A(15,13,16)           112.3832         estimate D2E/DX2                !
 ! A28   A(13,14,22)           108.9191         estimate D2E/DX2                !
 ! A29   A(13,16,17)           113.412          estimate D2E/DX2                !
 ! A30   A(13,16,18)           113.753          estimate D2E/DX2                !
 ! A31   A(13,16,19)           104.2129         estimate D2E/DX2                !
 ! A32   A(17,16,18)           105.1537         estimate D2E/DX2                !
 ! A33   A(17,16,19)           110.7279         estimate D2E/DX2                !
 ! A34   A(18,16,19)           109.6604         estimate D2E/DX2                !
 ! A35   A(16,19,20)           106.9232         estimate D2E/DX2                !
 ! A36   A(16,19,21)           108.3786         estimate D2E/DX2                !
 ! A37   A(16,19,22)           108.1053         estimate D2E/DX2                !
 ! A38   A(20,19,21)           114.2975         estimate D2E/DX2                !
 ! A39   A(20,19,22)           104.3216         estimate D2E/DX2                !
 ! A40   A(21,19,22)           114.4115         estimate D2E/DX2                !
 ! A41   A(14,22,19)           105.4729         estimate D2E/DX2                !
 ! A42   A(14,22,23)           109.2841         estimate D2E/DX2                !
 ! A43   A(14,22,24)           110.7309         estimate D2E/DX2                !
 ! A44   A(19,22,23)           101.2406         estimate D2E/DX2                !
 ! A45   A(19,22,24)           115.4617         estimate D2E/DX2                !
 ! A46   A(23,22,24)           113.936          estimate D2E/DX2                !
 ! A47   A(22,24,25)           110.3121         estimate D2E/DX2                !
 ! A48   A(22,24,26)           108.6347         estimate D2E/DX2                !
 ! A49   A(22,24,27)           110.5453         estimate D2E/DX2                !
 ! A50   A(25,24,26)           104.7689         estimate D2E/DX2                !
 ! A51   A(25,24,27)           112.9676         estimate D2E/DX2                !
 ! A52   A(26,24,27)           109.3788         estimate D2E/DX2                !
 ! A53   A(24,27,28)           104.643          estimate D2E/DX2                !
 ! D1    D(2,1,4,5)            -11.0332         estimate D2E/DX2                !
 ! D2    D(2,1,4,9)            164.9735         estimate D2E/DX2                !
 ! D3    D(3,1,4,5)           -143.6286         estimate D2E/DX2                !
 ! D4    D(3,1,4,9)             32.3782         estimate D2E/DX2                !
 ! D5    D(1,4,5,6)            172.4738         estimate D2E/DX2                !
 ! D6    D(1,4,5,8)             -3.1649         estimate D2E/DX2                !
 ! D7    D(9,4,5,6)             -3.2584         estimate D2E/DX2                !
 ! D8    D(9,4,5,8)           -178.897          estimate D2E/DX2                !
 ! D9    D(1,4,9,10)          -179.1907         estimate D2E/DX2                !
 ! D10   D(1,4,9,29)             0.8394         estimate D2E/DX2                !
 ! D11   D(5,4,9,10)            -2.8755         estimate D2E/DX2                !
 ! D12   D(5,4,9,29)           177.1546         estimate D2E/DX2                !
 ! D13   D(4,5,6,7)           -177.4047         estimate D2E/DX2                !
 ! D14   D(4,5,6,12)             1.8832         estimate D2E/DX2                !
 ! D15   D(8,5,6,7)             -1.9194         estimate D2E/DX2                !
 ! D16   D(8,5,6,12)           177.3684         estimate D2E/DX2                !
 ! D17   D(5,6,12,10)            5.5517         estimate D2E/DX2                !
 ! D18   D(5,6,12,13)         -169.6288         estimate D2E/DX2                !
 ! D19   D(7,6,12,10)         -175.0817         estimate D2E/DX2                !
 ! D20   D(7,6,12,13)            9.7378         estimate D2E/DX2                !
 ! D21   D(4,9,10,11)          175.7891         estimate D2E/DX2                !
 ! D22   D(4,9,10,12)           10.1235         estimate D2E/DX2                !
 ! D23   D(29,9,10,11)          -4.241          estimate D2E/DX2                !
 ! D24   D(29,9,10,12)        -169.9066         estimate D2E/DX2                !
 ! D25   D(9,10,12,6)          -11.4492         estimate D2E/DX2                !
 ! D26   D(9,10,12,13)         164.074          estimate D2E/DX2                !
 ! D27   D(11,10,12,6)        -175.9204         estimate D2E/DX2                !
 ! D28   D(11,10,12,13)         -0.3972         estimate D2E/DX2                !
 ! D29   D(6,12,13,14)          25.4101         estimate D2E/DX2                !
 ! D30   D(6,12,13,15)         135.4591         estimate D2E/DX2                !
 ! D31   D(6,12,13,16)         -96.9238         estimate D2E/DX2                !
 ! D32   D(10,12,13,14)       -149.9895         estimate D2E/DX2                !
 ! D33   D(10,12,13,15)        -39.9405         estimate D2E/DX2                !
 ! D34   D(10,12,13,16)         87.6766         estimate D2E/DX2                !
 ! D35   D(12,13,14,22)       -152.7378         estimate D2E/DX2                !
 ! D36   D(15,13,14,22)         90.5531         estimate D2E/DX2                !
 ! D37   D(16,13,14,22)        -26.4268         estimate D2E/DX2                !
 ! D38   D(12,13,16,17)         24.4345         estimate D2E/DX2                !
 ! D39   D(12,13,16,18)        -95.6828         estimate D2E/DX2                !
 ! D40   D(12,13,16,19)        144.9338         estimate D2E/DX2                !
 ! D41   D(14,13,16,17)       -101.0342         estimate D2E/DX2                !
 ! D42   D(14,13,16,18)        138.8485         estimate D2E/DX2                !
 ! D43   D(14,13,16,19)         19.4651         estimate D2E/DX2                !
 ! D44   D(15,13,16,17)        150.9439         estimate D2E/DX2                !
 ! D45   D(15,13,16,18)         30.8266         estimate D2E/DX2                !
 ! D46   D(15,13,16,19)        -88.5567         estimate D2E/DX2                !
 ! D47   D(13,14,22,19)         22.4039         estimate D2E/DX2                !
 ! D48   D(13,14,22,23)        130.5316         estimate D2E/DX2                !
 ! D49   D(13,14,22,24)       -103.1682         estimate D2E/DX2                !
 ! D50   D(13,16,19,20)       -117.5545         estimate D2E/DX2                !
 ! D51   D(13,16,19,21)        118.7825         estimate D2E/DX2                !
 ! D52   D(13,16,19,22)         -5.7458         estimate D2E/DX2                !
 ! D53   D(17,16,19,20)          4.7285         estimate D2E/DX2                !
 ! D54   D(17,16,19,21)       -118.9344         estimate D2E/DX2                !
 ! D55   D(17,16,19,22)        116.5373         estimate D2E/DX2                !
 ! D56   D(18,16,19,20)        120.3234         estimate D2E/DX2                !
 ! D57   D(18,16,19,21)         -3.3395         estimate D2E/DX2                !
 ! D58   D(18,16,19,22)       -127.8678         estimate D2E/DX2                !
 ! D59   D(16,19,22,14)         -9.3847         estimate D2E/DX2                !
 ! D60   D(16,19,22,23)       -123.2375         estimate D2E/DX2                !
 ! D61   D(16,19,22,24)        113.2044         estimate D2E/DX2                !
 ! D62   D(20,19,22,14)        104.1651         estimate D2E/DX2                !
 ! D63   D(20,19,22,23)         -9.6878         estimate D2E/DX2                !
 ! D64   D(20,19,22,24)       -133.2458         estimate D2E/DX2                !
 ! D65   D(21,19,22,14)       -130.227          estimate D2E/DX2                !
 ! D66   D(21,19,22,23)        115.9202         estimate D2E/DX2                !
 ! D67   D(21,19,22,24)         -7.6379         estimate D2E/DX2                !
 ! D68   D(14,22,24,25)        -65.6785         estimate D2E/DX2                !
 ! D69   D(14,22,24,26)       -179.9891         estimate D2E/DX2                !
 ! D70   D(14,22,24,27)         59.9886         estimate D2E/DX2                !
 ! D71   D(19,22,24,25)        174.5755         estimate D2E/DX2                !
 ! D72   D(19,22,24,26)         60.2649         estimate D2E/DX2                !
 ! D73   D(19,22,24,27)        -59.7574         estimate D2E/DX2                !
 ! D74   D(23,22,24,25)         57.9873         estimate D2E/DX2                !
 ! D75   D(23,22,24,26)        -56.3233         estimate D2E/DX2                !
 ! D76   D(23,22,24,27)       -176.3456         estimate D2E/DX2                !
 ! D77   D(22,24,27,28)       -102.8992         estimate D2E/DX2                !
 ! D78   D(25,24,27,28)         21.2582         estimate D2E/DX2                !
 ! D79   D(26,24,27,28)        137.526          estimate D2E/DX2                !
 --------------------------------------------------------------------------------
 Trust Radius=3.00D-01 FncErr=1.00D-07 GrdErr=1.00D-06 EigMax=2.50D+02 EigMin=1.00D-04
 Number of steps in this run=    172 maximum allowed number of steps=    174.
 GradGradGradGradGradGradGradGradGradGradGradGradGradGradGradGradGradGrad

 Leave Link  103 at Sun Jul 11 16:13:10 2021, MaxMem=   104857600 cpu:               0.1 elap:               0.0
 (Enter /prod/apps/gaussian/g16b1/l202.exe)
                          Input orientation:                          
 ---------------------------------------------------------------------
 Center     Atomic      Atomic             Coordinates (Angstroms)
 Number     Number       Type             X           Y           Z
 ---------------------------------------------------------------------
      1          7           0        1.417000    3.984000    2.716000
      2          1           0        2.360000    4.288000    2.499000
      3          1           0        1.189000    3.639000    3.642000
      4          6           0        0.993000    3.051000    1.883000
      5          6           0        1.614000    2.637000    0.661000
      6          6           0        1.163000    1.571000   -0.025000
      7          1           0        1.585000    1.157000   -0.932000
      8          1           0        2.505000    3.169000    0.346000
      9          7           0       -0.028000    2.457000    2.305000
     10          6           0       -0.621000    1.414000    1.562000
     11          8           0       -1.559000    0.848000    2.092000
     12          7           0        0.054000    0.918000    0.476000
     13          6           0       -0.409000   -0.358000   -0.025000
     14          8           0        0.628000   -1.123000   -0.623000
     15          1           0       -0.664000   -1.025000    0.811000
     16          6           0       -1.552000   -0.254000   -1.067000
     17          1           0       -1.574000    0.703000   -1.593000
     18          1           0       -2.550000   -0.367000   -0.638000
     19          6           0       -1.287000   -1.362000   -2.008000
     20          1           0       -1.097000   -0.911000   -2.985000
     21          1           0       -2.140000   -2.044000   -1.986000
     22          6           0        0.047000   -2.005000   -1.622000
     23          1           0        0.607000   -1.911000   -2.556000
     24          6           0       -0.043000   -3.452000   -1.088000
     25          1           0        0.958000   -3.861000   -0.930000
     26          1           0       -0.483000   -4.084000   -1.864000
     27          8           0       -0.873000   -3.505000    0.106000
     28          1           0       -0.240000   -3.575000    0.843000
     29          1           0       -0.428000    2.727000    3.181000
 ---------------------------------------------------------------------
                    Distance matrix (angstroms):
                    1          2          3          4          5
     1  N    0.000000
     2  H    1.014275   0.000000
     3  H    1.014142   1.760367   0.000000
     4  C    1.320664   1.943789   1.865004   0.000000
     5  C    2.465004   2.580806   3.173482   1.431894   0.000000
     6  C    3.660624   3.896854   4.210011   2.420695   1.345494
     7  H    4.618231   4.709092   5.219063   3.444115   2.174601
     8  H    2.732191   2.430760   3.579996   2.159268   1.084495
     9  N    2.142119   3.015417   2.160042   1.254337   2.330515
    10  C    3.477076   4.245492   3.543039   2.321165   2.702361
    11  O    4.368117   5.230469   4.212325   3.377809   3.913593
    12  N    4.034318   4.557090   4.326156   2.722326   2.328688
    13  C    5.449800   5.968522   5.654777   4.150584   3.678743
    14  O    6.152470   6.482718   6.417288   4.882165   4.093709
    15  H    5.748884   6.342073   5.762037   4.528643   4.315325
    16  C    6.409890   6.974945   6.696507   5.109065   4.622491
    17  H    6.186964   6.713646   6.607533   4.917842   4.357088
    18  H    6.776253   7.457741   6.953169   5.530914   5.296255
    19  C    7.629385   8.095441   7.941226   6.309742   5.615279
    20  H    7.923549   8.309916   8.357358   6.615358   5.764646
    21  H    8.431953   8.969919   8.663320   7.123474   6.558269
    22  C    7.520855   7.869845   7.801833   6.224394   5.405159
    23  H    7.949913   8.188628   8.340050   6.668970   5.661046
    24  C    8.479158   8.862764   8.612375   7.224206   6.548326
    25  H    8.663026   8.951528   8.786725   7.462569   6.722025
    26  H    9.469901   9.859452   9.631010   8.193095   7.479631
    27  O    8.254776   8.769811   8.233582   7.044205   6.649613
    28  H    7.961926   8.445656   7.868814   6.819514   6.485321
    29  H    2.280416   3.267230   1.912839   1.951671   3.244729
                    6          7          8          9         10
     6  C    0.000000
     7  H    1.082649   0.000000
     8  H    2.119483   2.554961   0.000000
     9  N    2.762676   3.843168   3.280353   0.000000
    10  C    2.392880   3.339539   3.785572   1.411222   0.000000
    11  O    3.523308   4.373190   4.995163   2.231190   1.217005
    12  N    1.381047   2.093692   3.330361   2.391754   1.371509
    13  C    2.488418   2.663440   4.590073   3.674001   2.388200
    14  O    2.810954   2.491933   4.783655   4.671180   3.573597
    15  H    3.282688   3.585690   5.277160   3.841986   2.552366
    16  C    3.433309   3.442371   5.492973   4.587208   3.249712
    17  H    3.271577   3.259190   5.145786   4.545441   3.371610
    18  H    4.232964   4.416700   6.246965   4.795488   3.425347
    19  C    4.305494   3.968819   6.360074   5.896763   4.571065
    20  H    4.475436   3.960373   6.380938   6.361626   5.129075
    21  H    5.274804   5.023240   7.361360   6.567513   5.182029
    22  C    4.072302   3.583265   6.056820   5.944443   4.719496
    23  H    4.340440   3.606450   6.150643   6.565971   5.433372
    24  C    5.273987   4.890562   7.237838   6.813880   5.570865
    25  H    5.510687   5.057021   7.310423   7.166209   6.043917
    26  H    6.170110   5.710808   8.149739   7.769959   6.479547
    27  O    5.470670   5.371541   7.484034   6.410544   5.136147
    28  H    5.403994   5.373367   7.298190   6.210267   5.054923
    29  H    3.761124   4.840851   4.103057   1.000138   2.093413
                   11         12         13         14         15
    11  O    0.000000
    12  N    2.284322   0.000000
    13  C    2.694184   1.446909   0.000000
    14  O    4.004876   2.388087   1.420633   0.000000
    15  H    2.439286   2.098332   1.099459   1.932673   0.000000
    16  C    3.345704   2.516678   1.550171   2.388451   2.215822
    17  H    3.687882   2.641471   2.222964   3.020593   3.097305
    18  H    3.148207   3.110151   2.227045   3.266718   2.467704
    19  C    4.665628   3.628627   2.389809   2.375410   2.906623
    20  H    5.392908   4.080265   3.088811   2.932510   3.822316
    21  H    5.033022   4.432666   3.111989   3.219912   3.322672
    22  C    4.951024   3.597997   2.339007   1.453783   2.717611
    23  H    5.823018   4.183548   3.138475   2.087552   3.706363
    24  C    5.558836   4.642457   3.291924   2.467936   3.143592
    25  H    6.135345   5.062894   3.867651   2.774850   3.702008
    26  H    6.413450   5.548331   4.155776   3.397341   4.067661
    27  O    4.833570   4.534221   3.183719   2.908327   2.586717
    28  H    4.781495   4.517541   3.336326   2.985780   2.585208
    29  H    2.448617   3.289655   4.449272   5.514350   4.444108
                   16         17         18         19         20
    16  C    0.000000
    17  H    1.092250   0.000000
    18  H    1.092160   1.734791   0.000000
    19  C    1.477623   2.125751   2.112367   0.000000
    20  H    2.077835   2.184076   2.813459   1.092717   0.000000
    21  H    2.096284   2.832104   2.190327   1.092345   1.835630
    22  C    2.435329   3.156223   3.224238   1.530360   2.088861
    23  H    3.102265   3.537955   4.003662   2.046690   2.021795
    24  C    3.536202   4.456794   4.000597   2.600392   3.341587
    25  H    4.396512   5.261244   4.959775   3.528046   4.141081
    26  H    4.055474   4.917224   4.426246   2.841907   3.420755
    27  O    3.522211   4.591870   3.634957   3.038559   4.041447
    28  H    4.049504   5.100484   4.221460   3.757896   4.741828
    29  H    5.309919   5.310458   5.353548   6.662096   7.190421
                   21         22         23         24         25
    21  H    0.000000
    22  C    2.217428   0.000000
    23  H    2.808665   1.093065   0.000000
    24  C    2.680723   1.545013   2.225355   0.000000
    25  H    3.743558   2.180257   2.563119   1.092816   0.000000
    26  H    2.630995   2.159098   2.527626   1.093252   1.731637
    27  O    2.848908   2.466249   3.437656   1.455110   2.133681
    28  H    3.735934   2.936579   3.878080   1.944916   2.158826
    29  H    7.238182   6.759161   7.449526   7.520148   7.888160
                   26         27         28         29
    26  H    0.000000
    27  O    2.090034   0.000000
    28  H    2.765136   0.974042   0.000000
    29  H    8.476129   6.963582   6.724343   0.000000
 Stoichiometry    C9H14N3O3(1+)
 Framework group  C1[X(C9H14N3O3)]
 Deg. of freedom    81
 Full point group                 C1      NOp   1
 Largest Abelian subgroup         C1      NOp   1
 Largest concise Abelian subgroup C1      NOp   1
                         Standard orientation:                         
 ---------------------------------------------------------------------
 Center     Atomic      Atomic             Coordinates (Angstroms)
 Number     Number       Type             X           Y           Z
 ---------------------------------------------------------------------
      1          7           0       -4.641818   -0.220237   -0.476672
      2          1           0       -4.995772   -1.107379   -0.817918
      3          1           0       -4.748367    0.622475   -1.030720
      4          6           0       -3.356514   -0.280814   -0.179218
      5          6           0       -2.546190   -1.457581   -0.084795
      6          6           0       -1.213351   -1.375945    0.080211
      7          1           0       -0.513026   -2.200461    0.123203
      8          1           0       -3.035200   -2.415583   -0.223479
      9          7           0       -2.838946    0.854176   -0.047760
     10          6           0       -1.467806    0.997004    0.254106
     11          8           0       -1.043935    2.137443    0.282957
     12          7           0       -0.665172   -0.113526    0.194615
     13          6           0        0.758988    0.139348    0.157613
     14          8           0        1.476772   -0.860655   -0.551595
     15          1           0        0.975067    1.004589   -0.485410
     16          6           0        1.418283    0.263191    1.555119
     17          1           0        0.865066   -0.252445    2.343206
     18          1           0        1.519258    1.293128    1.904185
     19          6           0        2.757616   -0.335516    1.378751
     20          1           0        2.806952   -1.204708    2.039131
     21          1           0        3.507609    0.430735    1.587528
     22          6           0        2.832535   -0.926393   -0.030948
     23          1           0        3.085298   -1.967170    0.187420
     24          6           0        3.821686   -0.229393   -0.991593
     25          1           0        3.879205   -0.773742   -1.937437
     26          1           0        4.827312   -0.298939   -0.568415
     27          8           0        3.465851    1.171064   -1.163189
     28          1           0        3.033887    1.210290   -2.035328
     29          1           0       -3.406723    1.670097   -0.158118
 ---------------------------------------------------------------------
 Rotational constants (GHZ):           1.4820141           0.3179683           0.3000379
 Leave Link  202 at Sun Jul 11 16:13:10 2021, MaxMem=   104857600 cpu:               0.1 elap:               0.0
 (Enter /prod/apps/gaussian/g16b1/l301.exe)
 Standard basis: 6-31G(d) (6D, 7F)
 Ernie: Thresh=  0.10000D-02 Tol=  0.10000D-05 Strict=F.
 There are   253 symmetry adapted cartesian basis functions of A   symmetry.
 There are   253 symmetry adapted basis functions of A   symmetry.
   253 basis functions,   476 primitive gaussians,   253 cartesian basis functions
    56 alpha electrons       56 beta electrons
       nuclear repulsion energy      1059.5709641505 Hartrees.
 IExCor=  402 DFT=T Ex+Corr=B3LYP ExCW=0 ScaHFX=  0.200000
 ScaDFX=  0.800000  0.720000  1.000000  0.810000 ScalE2=  1.000000  1.000000
 IRadAn=      5 IRanWt=     -1 IRanGd=            0 ICorTp=0 IEmpDi=  4
 NAtoms=   29 NActive=   29 NUniq=   29 SFac= 1.00D+00 NAtFMM=   60 NAOKFM=F Big=F
 Integral buffers will be    131072 words long.
 Raffenetti 2 integral format.
 Two-electron integral symmetry is turned on.
 Using the following non-standard input for PCM:
 MSTModel=DFT cav MSTCharged
 --- end of non-standard input.
 MST model for solvation energy: B3LYP parametrization.
 MST cavity parameters:
 ISph   IAn     Re0     Alpha   Atom Type   QCorr
 ------------------------------------------------
   1      7     1.55     1.25      NH         F
   2      1     0.90     1.25      NH         F
   3      1     0.90     1.25      NH         F
   4      6     1.50     1.25      C          F
   5      6     1.50     1.25      CH         F
   6      6     1.50     1.25      CH         F
   7      1     1.20     1.25      CH         F
   8      1     1.20     1.25      CH         F
   9      7     1.50     1.15      NH         T
  10      6     1.50     1.25      C          F
  11      8     1.40     1.25      O          F
  12      7     1.40     1.25      N          F
  13      6     1.50     1.25      CH         F
  14      8     1.40     1.25      O          F
  15      1     1.20     1.25      CH         F
  16      6     1.50     1.25      CH2        F
  17      1     1.20     1.25      CH2        F
  18      1     1.20     1.25      CH2        F
  19      6     1.50     1.25      CH2        F
  20      1     1.20     1.25      CH2        F
  21      1     1.20     1.25      CH2        F
  22      6     1.50     1.25      CH         F
  23      1     1.20     1.25      CH         F
  24      6     1.50     1.25      CH2        F
  25      1     1.20     1.25      CH2        F
  26      1     1.20     1.25      CH2        F
  27      8     1.45     1.25      OH         F
  28      1     0.90     1.25      OH         F
  29      1     0.90     1.15      NH         T
 ------------------------------------------------------------------------------
 Polarizable Continuum Model (PCM)
 =================================
 Model                : PCM.
 Atomic radii         : MST.
 Polarization charges : Total charges.
 Charge compensation  : None.
 Solution method      : On-the-fly selection.
 Cavity type          : Scaled VdW (van der Waals Surface) (Alpha=1.250).
 Cavity algorithm     : GePol (No added spheres)
                        Default sphere list used, NSphG=   29.
                        Lebedev-Laikov grids with approx.  5.0 points / Ang**2.
                        Smoothing algorithm: York/Karplus (Gamma=1.0000).
                        Polarization charges: spherical gaussians, with
                                              point-specific exponents (IZeta= 3).
                        Self-potential: point-specific (ISelfS= 7).
                        Self-field    : sphere-specific E.n sum rule (ISelfD= 2).
 1st derivatives      : Analytical E(r).r(x)/FMM algorithm (CHGder, D1EAlg=3).
                        Cavity 1st derivative terms included.
 Solvent              : Water, Eps=  78.355300 Eps(inf)=   1.777849
 ------------------------------------------------------------------------------
 GePol: Number of generator spheres                  =      29
 GePol: Total number of spheres                      =      29
 GePol: Number of exposed spheres                    =      29 (100.00%)
 GePol: Number of points                             =    2030
 GePol: Average weight of points                     =       0.13
 GePol: Minimum weight of points                     =   0.22D-10
 GePol: Maximum weight of points                     =    0.22001
 GePol: Number of points with low weight             =     143
 GePol: Fraction of low-weight points (<1% of avg)   =       7.04%
 GePol: Cavity surface area                          =    257.940 Ang**2
 GePol: Cavity volume                                =    241.173 Ang**3
 PCM non-electrostatic energy =         0.0010690415 Hartrees.
 Nuclear repulsion after PCM non-electrostatic terms =     1059.5720331920 Hartrees.
 Leave Link  301 at Sun Jul 11 16:13:10 2021, MaxMem=   104857600 cpu:               0.4 elap:               0.1
 (Enter /prod/apps/gaussian/g16b1/l302.exe)
 NPDir=0 NMtPBC=     1 NCelOv=     1 NCel=       1 NClECP=     1 NCelD=      1
         NCelK=      1 NCelE2=     1 NClLst=     1 CellRange=     0.0.
 One-electron integrals computed using PRISM.
 One-electron integral symmetry used in STVInt
 NBasis=   253 RedAO= T EigKep=  9.30D-04  NBF=   253
 NBsUse=   253 1.00D-06 EigRej= -1.00D+00 NBFU=   253
 Precomputing XC quadrature grid using
 IXCGrd= 4 IRadAn=           5 IRanWt=          -1 IRanGd=           0 AccXCQ= 0.00D+00.
 Generated NRdTot=       0 NPtTot=           0 NUsed=           0 NTot=          32
 NSgBfM=   252   252   252   252   252 MxSgAt=    29 MxSgA2=    29.
 Leave Link  302 at Sun Jul 11 16:13:10 2021, MaxMem=   104857600 cpu:               1.9 elap:               0.5
 (Enter /prod/apps/gaussian/g16b1/l303.exe)
 DipDrv:  MaxL=1.
 Leave Link  303 at Sun Jul 11 16:13:11 2021, MaxMem=   104857600 cpu:               0.1 elap:               0.1
 (Enter /prod/apps/gaussian/g16b1/l401.exe)
 ExpMin= 1.61D-01 ExpMax= 5.48D+03 ExpMxC= 8.25D+02 IAcc=3 IRadAn=         5 AccDes= 0.00D+00
 Harris functional with IExCor=  402 and IRadAn=       5 diagonalized for initial guess.
 HarFok:  IExCor=  402 AccDes= 0.00D+00 IRadAn=         5 IDoV= 1 UseB2=F ITyADJ=14
 ICtDFT=  3500011 ScaDFX=  1.000000  1.000000  1.000000  1.000000
 FoFCou: FMM=F IPFlag=           0 FMFlag=      100000 FMFlg1=           0
         NFxFlg=           0 DoJE=T BraDBF=F KetDBF=T FulRan=T
         wScrn=  0.000000 ICntrl=       500 IOpCl=  0 I1Cent=   200000004 NGrid=           0
         NMat0=    1 NMatS0=      1 NMatT0=    0 NMatD0=    1 NMtDS0=    0 NMtDT0=    0
 Petite list used in FoFCou.
 Harris En= -741.053003078258    
 JPrj=0 DoOrth=F DoCkMO=F.
 Leave Link  401 at Sun Jul 11 16:13:12 2021, MaxMem=   104857600 cpu:               7.5 elap:               1.9
 (Enter /prod/apps/gaussian/g16b1/l502.exe)
 Integral symmetry usage will be decided dynamically.
 Closed shell SCF:
 Using DIIS extrapolation, IDIIS=  1040.
 NGot=   104857600 LenX=   104725140 LenY=   104660690
 Requested convergence on RMS density matrix=1.00D-08 within 128 cycles.
 Requested convergence on MAX density matrix=1.00D-06.
 Requested convergence on             energy=1.00D-06.
 No special actions if energy rises.
 Fock matrices will be formed incrementally for  20 cycles.

 Cycle   1  Pass 1  IDiag  1:
 FoFJK:  IHMeth= 1 ICntrl=       0 DoSepK=F KAlg= 0 I1Cent=           0 FoldK=F
 IRaf= 850000000 NMat=       1 IRICut=       1 DoRegI=T DoRafI=F ISym2E= 0 IDoP0=0 IntGTp=1.
 FoFCou: FMM=F IPFlag=           0 FMFlag=      100000 FMFlg1=           0
         NFxFlg=           0 DoJE=F BraDBF=F KetDBF=F FulRan=T
         wScrn=  0.000000 ICntrl=         0 IOpCl=  0 I1Cent=           0 NGrid=           0
         NMat0=    1 NMatS0=      1 NMatT0=    0 NMatD0=    1 NMtDS0=    0 NMtDT0=    0
 Symmetry not used in FoFCou.
 Inv3:  Mode=1 IEnd=    12362700.
 Iteration    1 A*A^-1 deviation from unit magnitude is 2.89D-15 for   1087.
 Iteration    1 A*A^-1 deviation from orthogonality  is 2.36D-15 for   1451    920.
 Iteration    1 A^-1*A deviation from unit magnitude is 2.89D-15 for    208.
 Iteration    1 A^-1*A deviation from orthogonality  is 2.20D-12 for   1541   1499.
 E= -740.813989972874    
 DIIS: error= 2.80D-02 at cycle   1 NSaved=   1.
 NSaved= 1 IEnMin= 1 EnMin= -740.813989972874     IErMin= 1 ErrMin= 2.80D-02
 ErrMax= 2.80D-02  0.00D+00 EMaxC= 1.00D-01 BMatC= 3.96D-01 BMatP= 3.96D-01
 IDIUse=3 WtCom= 7.20D-01 WtEn= 2.80D-01
 Coeff-Com:  0.100D+01
 Coeff-En:   0.100D+01
 Coeff:      0.100D+01
 Gap=     0.171 Goal=   None    Shift=    0.000
 GapD=    0.171 DampG=1.000 DampE=0.500 DampFc=0.5000 IDamp=-1.
 Damping current iteration by 5.00D-01
 RMSDP=5.64D-03 MaxDP=2.36D-01              OVMax= 2.49D-01

 Cycle   2  Pass 1  IDiag  1:
 RMSU=  2.80D-03    CP:  9.86D-01
 E= -740.907992719863     Delta-E=       -0.094002746989 Rises=F Damp=T
 DIIS: error= 1.25D-02 at cycle   2 NSaved=   2.
 NSaved= 2 IEnMin= 2 EnMin= -740.907992719863     IErMin= 2 ErrMin= 1.25D-02
 ErrMax= 1.25D-02  0.00D+00 EMaxC= 1.00D-01 BMatC= 6.01D-02 BMatP= 3.96D-01
 IDIUse=3 WtCom= 8.75D-01 WtEn= 1.25D-01
 Coeff-Com:  0.207D+00 0.793D+00
 Coeff-En:   0.335D+00 0.665D+00
 Coeff:      0.223D+00 0.777D+00
 Gap=     0.201 Goal=   None    Shift=    0.000
 RMSDP=1.67D-03 MaxDP=8.51D-02 DE=-9.40D-02 OVMax= 1.79D-01

 Cycle   3  Pass 1  IDiag  1:
 RMSU=  1.49D-03    CP:  9.77D-01  7.39D-01
 E= -741.110197004975     Delta-E=       -0.202204285112 Rises=F Damp=F
 DIIS: error= 1.35D-02 at cycle   3 NSaved=   3.
 NSaved= 3 IEnMin= 3 EnMin= -741.110197004975     IErMin= 2 ErrMin= 1.25D-02
 ErrMax= 1.35D-02  0.00D+00 EMaxC= 1.00D-01 BMatC= 4.37D-02 BMatP= 6.01D-02
 IDIUse=3 WtCom= 8.65D-01 WtEn= 1.35D-01
 Coeff-Com:  0.549D-01 0.454D+00 0.491D+00
 Coeff-En:   0.000D+00 0.000D+00 0.100D+01
 Coeff:      0.475D-01 0.393D+00 0.560D+00
 Gap=     0.184 Goal=   None    Shift=    0.000
 RMSDP=1.07D-03 MaxDP=5.78D-02 DE=-2.02D-01 OVMax= 7.82D-02

 Cycle   4  Pass 1  IDiag  1:
 RMSU=  6.29D-04    CP:  9.83D-01  8.52D-01  4.66D-01
 E= -741.139644156770     Delta-E=       -0.029447151795 Rises=F Damp=F
 DIIS: error= 5.32D-03 at cycle   4 NSaved=   4.
 NSaved= 4 IEnMin= 4 EnMin= -741.139644156770     IErMin= 4 ErrMin= 5.32D-03
 ErrMax= 5.32D-03  0.00D+00 EMaxC= 1.00D-01 BMatC= 9.51D-03 BMatP= 4.37D-02
 IDIUse=3 WtCom= 9.47D-01 WtEn= 5.32D-02
 Coeff-Com:  0.452D-02 0.819D-01 0.330D+00 0.584D+00
 Coeff-En:   0.000D+00 0.000D+00 0.197D+00 0.803D+00
 Coeff:      0.428D-02 0.775D-01 0.323D+00 0.595D+00
 Gap=     0.182 Goal=   None    Shift=    0.000
 RMSDP=3.76D-04 MaxDP=2.04D-02 DE=-2.94D-02 OVMax= 2.54D-02

 Cycle   5  Pass 1  IDiag  1:
 RMSU=  1.52D-04    CP:  9.82D-01  8.15D-01  6.21D-01  6.32D-01
 E= -741.147005187592     Delta-E=       -0.007361030822 Rises=F Damp=F
 DIIS: error= 1.10D-03 at cycle   5 NSaved=   5.
 NSaved= 5 IEnMin= 5 EnMin= -741.147005187592     IErMin= 5 ErrMin= 1.10D-03
 ErrMax= 1.10D-03  0.00D+00 EMaxC= 1.00D-01 BMatC= 3.15D-04 BMatP= 9.51D-03
 IDIUse=3 WtCom= 9.89D-01 WtEn= 1.10D-02
 Coeff-Com: -0.101D-02 0.969D-02 0.117D+00 0.283D+00 0.591D+00
 Coeff-En:   0.000D+00 0.000D+00 0.000D+00 0.000D+00 0.100D+01
 Coeff:     -0.999D-03 0.959D-02 0.116D+00 0.280D+00 0.596D+00
 Gap=     0.183 Goal=   None    Shift=    0.000
 RMSDP=7.48D-05 MaxDP=3.25D-03 DE=-7.36D-03 OVMax= 2.95D-03

 Cycle   6  Pass 1  IDiag  1:
 RMSU=  3.86D-05    CP:  9.81D-01  8.19D-01  6.19D-01  6.71D-01  6.17D-01
 E= -741.147237105377     Delta-E=       -0.000231917785 Rises=F Damp=F
 DIIS: error= 3.82D-04 at cycle   6 NSaved=   6.
 NSaved= 6 IEnMin= 6 EnMin= -741.147237105377     IErMin= 6 ErrMin= 3.82D-04
 ErrMax= 3.82D-04  0.00D+00 EMaxC= 1.00D-01 BMatC= 3.21D-05 BMatP= 3.15D-04
 IDIUse=3 WtCom= 9.96D-01 WtEn= 3.82D-03
 Coeff-Com: -0.105D-02-0.560D-03 0.378D-01 0.105D+00 0.319D+00 0.539D+00
 Coeff-En:   0.000D+00 0.000D+00 0.000D+00 0.000D+00 0.000D+00 0.100D+01
 Coeff:     -0.104D-02-0.558D-03 0.377D-01 0.105D+00 0.318D+00 0.541D+00
 Gap=     0.183 Goal=   None    Shift=    0.000
 RMSDP=1.95D-05 MaxDP=1.09D-03 DE=-2.32D-04 OVMax= 8.45D-04

 Cycle   7  Pass 1  IDiag  1:
 RMSU=  1.18D-05    CP:  9.82D-01  8.19D-01  6.19D-01  6.72D-01  6.55D-01
                    CP:  6.28D-01
 E= -741.147260756374     Delta-E=       -0.000023650997 Rises=F Damp=F
 DIIS: error= 4.80D-05 at cycle   7 NSaved=   7.
 NSaved= 7 IEnMin= 7 EnMin= -741.147260756374     IErMin= 7 ErrMin= 4.80D-05
 ErrMax= 4.80D-05  0.00D+00 EMaxC= 1.00D-01 BMatC= 1.30D-06 BMatP= 3.21D-05
 IDIUse=1 WtCom= 1.00D+00 WtEn= 0.00D+00
 Coeff-Com: -0.376D-03-0.757D-03 0.852D-02 0.258D-01 0.104D+00 0.245D+00
 Coeff-Com:  0.618D+00
 Coeff:     -0.376D-03-0.757D-03 0.852D-02 0.258D-01 0.104D+00 0.245D+00
 Coeff:      0.618D+00
 Gap=     0.183 Goal=   None    Shift=    0.000
 RMSDP=4.72D-06 MaxDP=1.45D-04 DE=-2.37D-05 OVMax= 1.51D-04

 Cycle   8  Pass 1  IDiag  1:
 RMSU=  2.75D-06    CP:  9.82D-01  8.19D-01  6.19D-01  6.73D-01  6.60D-01
                    CP:  6.55D-01  7.01D-01
 E= -741.147261825940     Delta-E=       -0.000001069566 Rises=F Damp=F
 DIIS: error= 1.09D-05 at cycle   8 NSaved=   8.
 NSaved= 8 IEnMin= 8 EnMin= -741.147261825940     IErMin= 8 ErrMin= 1.09D-05
 ErrMax= 1.09D-05  0.00D+00 EMaxC= 1.00D-01 BMatC= 6.17D-08 BMatP= 1.30D-06
 IDIUse=1 WtCom= 1.00D+00 WtEn= 0.00D+00
 Coeff-Com: -0.605D-04-0.173D-03 0.480D-03 0.143D-02 0.159D-01 0.492D-01
 Coeff-Com:  0.218D+00 0.715D+00
 Coeff:     -0.605D-04-0.173D-03 0.480D-03 0.143D-02 0.159D-01 0.492D-01
 Coeff:      0.218D+00 0.715D+00
 Gap=     0.183 Goal=   None    Shift=    0.000
 RMSDP=1.23D-06 MaxDP=4.45D-05 DE=-1.07D-06 OVMax= 5.62D-05

 Cycle   9  Pass 1  IDiag  1:
 RMSU=  9.24D-07    CP:  9.82D-01  8.19D-01  6.19D-01  6.73D-01  6.62D-01
                    CP:  6.57D-01  7.35D-01  7.91D-01
 E= -741.147261868802     Delta-E=       -0.000000042862 Rises=F Damp=F
 DIIS: error= 3.22D-06 at cycle   9 NSaved=   9.
 NSaved= 9 IEnMin= 9 EnMin= -741.147261868802     IErMin= 9 ErrMin= 3.22D-06
 ErrMax= 3.22D-06  0.00D+00 EMaxC= 1.00D-01 BMatC= 1.40D-08 BMatP= 6.17D-08
 IDIUse=1 WtCom= 1.00D+00 WtEn= 0.00D+00
 Coeff-Com: -0.131D-04-0.486D-04-0.292D-03-0.964D-03 0.223D-02 0.108D-01
 Coeff-Com:  0.763D-01 0.398D+00 0.514D+00
 Coeff:     -0.131D-04-0.486D-04-0.292D-03-0.964D-03 0.223D-02 0.108D-01
 Coeff:      0.763D-01 0.398D+00 0.514D+00
 Gap=     0.183 Goal=   None    Shift=    0.000
 RMSDP=4.48D-07 MaxDP=2.26D-05 DE=-4.29D-08 OVMax= 2.40D-05

 Cycle  10  Pass 1  IDiag  1:
 RMSU=  2.65D-07    CP:  9.82D-01  8.18D-01  6.19D-01  6.73D-01  6.62D-01
                    CP:  6.58D-01  7.40D-01  8.32D-01  6.41D-01
 E= -741.147261879875     Delta-E=       -0.000000011073 Rises=F Damp=F
 DIIS: error= 8.76D-07 at cycle  10 NSaved=  10.
 NSaved=10 IEnMin=10 EnMin= -741.147261879875     IErMin=10 ErrMin= 8.76D-07
 ErrMax= 8.76D-07  0.00D+00 EMaxC= 1.00D-01 BMatC= 5.61D-10 BMatP= 1.40D-08
 IDIUse=1 WtCom= 1.00D+00 WtEn= 0.00D+00
 Coeff-Com: -0.950D-06 0.179D-06-0.195D-03-0.643D-03-0.766D-03-0.923D-03
 Coeff-Com:  0.775D-02 0.969D-01 0.208D+00 0.690D+00
 Coeff:     -0.950D-06 0.179D-06-0.195D-03-0.643D-03-0.766D-03-0.923D-03
 Coeff:      0.775D-02 0.969D-01 0.208D+00 0.690D+00
 Gap=     0.183 Goal=   None    Shift=    0.000
 RMSDP=1.15D-07 MaxDP=3.52D-06 DE=-1.11D-08 OVMax= 5.74D-06

 Cycle  11  Pass 1  IDiag  1:
 RMSU=  7.46D-08    CP:  9.82D-01  8.18D-01  6.19D-01  6.73D-01  6.62D-01
                    CP:  6.58D-01  7.41D-01  8.44D-01  6.96D-01  7.90D-01
 E= -741.147261880289     Delta-E=       -0.000000000414 Rises=F Damp=F
 DIIS: error= 4.77D-07 at cycle  11 NSaved=  11.
 NSaved=11 IEnMin=11 EnMin= -741.147261880289     IErMin=11 ErrMin= 4.77D-07
 ErrMax= 4.77D-07  0.00D+00 EMaxC= 1.00D-01 BMatC= 9.12D-11 BMatP= 5.61D-10
 IDIUse=1 WtCom= 1.00D+00 WtEn= 0.00D+00
 Coeff-Com: -0.213D-06 0.557D-05-0.712D-04-0.246D-03-0.451D-03-0.105D-02
 Coeff-Com: -0.112D-02 0.238D-01 0.702D-01 0.358D+00 0.551D+00
 Coeff:     -0.213D-06 0.557D-05-0.712D-04-0.246D-03-0.451D-03-0.105D-02
 Coeff:     -0.112D-02 0.238D-01 0.702D-01 0.358D+00 0.551D+00
 Gap=     0.183 Goal=   None    Shift=    0.000
 RMSDP=4.15D-08 MaxDP=2.45D-06 DE=-4.14D-10 OVMax= 3.00D-06

 Cycle  12  Pass 1  IDiag  1:
 RMSU=  2.65D-08    CP:  9.82D-01  8.18D-01  6.19D-01  6.73D-01  6.62D-01
                    CP:  6.58D-01  7.41D-01  8.46D-01  6.98D-01  8.50D-01
                    CP:  6.68D-01
 E= -741.147261880367     Delta-E=       -0.000000000078 Rises=F Damp=F
 DIIS: error= 1.14D-07 at cycle  12 NSaved=  12.
 NSaved=12 IEnMin=12 EnMin= -741.147261880367     IErMin=12 ErrMin= 1.14D-07
 ErrMax= 1.14D-07  0.00D+00 EMaxC= 1.00D-01 BMatC= 7.17D-12 BMatP= 9.12D-11
 IDIUse=1 WtCom= 1.00D+00 WtEn= 0.00D+00
 Coeff-Com: -0.209D-06 0.228D-05-0.886D-05-0.329D-04-0.117D-03-0.396D-03
 Coeff-Com: -0.184D-02-0.266D-02 0.175D-02 0.626D-01 0.246D+00 0.695D+00
 Coeff:     -0.209D-06 0.228D-05-0.886D-05-0.329D-04-0.117D-03-0.396D-03
 Coeff:     -0.184D-02-0.266D-02 0.175D-02 0.626D-01 0.246D+00 0.695D+00
 Gap=     0.183 Goal=   None    Shift=    0.000
 RMSDP=1.20D-08 MaxDP=5.64D-07 DE=-7.80D-11 OVMax= 1.01D-06

 Cycle  13  Pass 1  IDiag  1:
 RMSU=  8.27D-09    CP:  9.82D-01  8.18D-01  6.19D-01  6.73D-01  6.62D-01
                    CP:  6.58D-01  7.41D-01  8.47D-01  7.01D-01  8.57D-01
                    CP:  7.32D-01  7.99D-01
 E= -741.147261880375     Delta-E=       -0.000000000008 Rises=F Damp=F
 DIIS: error= 4.05D-08 at cycle  13 NSaved=  13.
 NSaved=13 IEnMin=13 EnMin= -741.147261880375     IErMin=13 ErrMin= 4.05D-08
 ErrMax= 4.05D-08  0.00D+00 EMaxC= 1.00D-01 BMatC= 1.30D-12 BMatP= 7.17D-12
 IDIUse=1 WtCom= 1.00D+00 WtEn= 0.00D+00
 Coeff-Com: -0.135D-06 0.911D-06 0.110D-05 0.138D-05-0.267D-04-0.131D-03
 Coeff-Com: -0.946D-03-0.332D-02-0.485D-02 0.482D-02 0.961D-01 0.402D+00
 Coeff-Com:  0.506D+00
 Coeff:     -0.135D-06 0.911D-06 0.110D-05 0.138D-05-0.267D-04-0.131D-03
 Coeff:     -0.946D-03-0.332D-02-0.485D-02 0.482D-02 0.961D-01 0.402D+00
 Coeff:      0.506D+00
 Gap=     0.183 Goal=   None    Shift=    0.000
 RMSDP=4.78D-09 MaxDP=2.09D-07 DE=-7.96D-12 OVMax= 3.53D-07

 Error on total polarization charges =  0.01486
 SCF Done:  E(RB3LYP) =  -741.147261880     A.U. after   13 cycles
            NFock= 13  Conv=0.48D-08     -V/T= 2.0085
 KE= 7.348688979509D+02 PE=-3.830190002484D+03 EE= 1.294601809461D+03
 Leave Link  502 at Sun Jul 11 16:14:00 2021, MaxMem=   104857600 cpu:             189.6 elap:              47.6
 (Enter /prod/apps/gaussian/g16b1/l601.exe)
 Copying SCF densities to generalized density rwf, IOpCl= 0 IROHF=0.

 **********************************************************************

            Population analysis using the SCF Density.

 **********************************************************************

 Orbital symmetries:
       Occupied  (A) (A) (A) (A) (A) (A) (A) (A) (A) (A) (A) (A)
                 (A) (A) (A) (A) (A) (A) (A) (A) (A) (A) (A) (A)
                 (A) (A) (A) (A) (A) (A) (A) (A) (A) (A) (A) (A)
                 (A) (A) (A) (A) (A) (A) (A) (A) (A) (A) (A) (A)
                 (A) (A) (A) (A) (A) (A) (A) (A)
       Virtual   (A) (A) (A) (A) (A) (A) (A) (A) (A) (A) (A) (A)
                 (A) (A) (A) (A) (A) (A) (A) (A) (A) (A) (A) (A)
                 (A) (A) (A) (A) (A) (A) (A) (A) (A) (A) (A) (A)
                 (A) (A) (A) (A) (A) (A) (A) (A) (A) (A) (A) (A)
                 (A) (A) (A) (A) (A) (A) (A) (A) (A) (A) (A) (A)
                 (A) (A) (A) (A) (A) (A) (A) (A) (A) (A) (A) (A)
                 (A) (A) (A) (A) (A) (A) (A) (A) (A) (A) (A) (A)
                 (A) (A) (A) (A) (A) (A) (A) (A) (A) (A) (A) (A)
                 (A) (A) (A) (A) (A) (A) (A) (A) (A) (A) (A) (A)
                 (A) (A) (A) (A) (A) (A) (A) (A) (A) (A) (A) (A)
                 (A) (A) (A) (A) (A) (A) (A) (A) (A) (A) (A) (A)
                 (A) (A) (A) (A) (A) (A) (A) (A) (A) (A) (A) (A)
                 (A) (A) (A) (A) (A) (A) (A) (A) (A) (A) (A) (A)
                 (A) (A) (A) (A) (A) (A) (A) (A) (A) (A) (A) (A)
                 (A) (A) (A) (A) (A) (A) (A) (A) (A) (A) (A) (A)
                 (A) (A) (A) (A) (A) (A) (A) (A) (A) (A) (A) (A)
                 (A) (A) (A) (A) (A)
 The electronic state is 1-A.
 Alpha  occ. eigenvalues --  -19.16593 -19.15046 -19.15040 -14.43025 -14.42105
 Alpha  occ. eigenvalues --  -14.38273 -10.36077 -10.32267 -10.28950 -10.28462
 Alpha  occ. eigenvalues --  -10.24087 -10.23359 -10.22539 -10.18753 -10.18037
 Alpha  occ. eigenvalues --   -1.11275  -1.06192  -1.05047  -1.00973  -0.99534
 Alpha  occ. eigenvalues --   -0.93732  -0.82815  -0.80032  -0.76650  -0.72489
 Alpha  occ. eigenvalues --   -0.70977  -0.67250  -0.62561  -0.61515  -0.59401
 Alpha  occ. eigenvalues --   -0.57812  -0.54413  -0.54279  -0.52418  -0.51824
 Alpha  occ. eigenvalues --   -0.50594  -0.49452  -0.47756  -0.46464  -0.45798
 Alpha  occ. eigenvalues --   -0.44567  -0.44206  -0.43459  -0.42353  -0.40299
 Alpha  occ. eigenvalues --   -0.38955  -0.36753  -0.35401  -0.34722  -0.33090
 Alpha  occ. eigenvalues --   -0.32240  -0.31146  -0.30745  -0.29424  -0.26849
 Alpha  occ. eigenvalues --   -0.25281
 Alpha virt. eigenvalues --   -0.06992  -0.02362   0.05686   0.06422   0.08923
 Alpha virt. eigenvalues --    0.09393   0.09978   0.10836   0.11851   0.13221
 Alpha virt. eigenvalues --    0.13380   0.13939   0.15227   0.15880   0.16476
 Alpha virt. eigenvalues --    0.16921   0.18024   0.19015   0.19927   0.21140
 Alpha virt. eigenvalues --    0.22088   0.23330   0.23675   0.25674   0.27310
 Alpha virt. eigenvalues --    0.29081   0.29350   0.30490   0.32173   0.34115
 Alpha virt. eigenvalues --    0.34921   0.38855   0.44925   0.46429   0.48293
 Alpha virt. eigenvalues --    0.50268   0.50561   0.52653   0.53691   0.53976
 Alpha virt. eigenvalues --    0.55137   0.56338   0.57042   0.58203   0.58528
 Alpha virt. eigenvalues --    0.59885   0.60464   0.61832   0.62459   0.63392
 Alpha virt. eigenvalues --    0.64592   0.66657   0.66924   0.68822   0.69004
 Alpha virt. eigenvalues --    0.71901   0.74552   0.75367   0.76569   0.78681
 Alpha virt. eigenvalues --    0.80136   0.80593   0.81799   0.82869   0.83299
 Alpha virt. eigenvalues --    0.83714   0.84272   0.85747   0.86731   0.87128
 Alpha virt. eigenvalues --    0.87444   0.89134   0.89642   0.89757   0.91271
 Alpha virt. eigenvalues --    0.91832   0.92793   0.94495   0.95091   0.96463
 Alpha virt. eigenvalues --    0.97753   1.00061   1.02044   1.03190   1.03380
 Alpha virt. eigenvalues --    1.05392   1.06165   1.10491   1.11634   1.12072
 Alpha virt. eigenvalues --    1.14025   1.14996   1.17422   1.24021   1.25481
 Alpha virt. eigenvalues --    1.26751   1.26965   1.32150   1.33306   1.34782
 Alpha virt. eigenvalues --    1.38735   1.40496   1.41673   1.44093   1.46282
 Alpha virt. eigenvalues --    1.47209   1.51249   1.52237   1.53030   1.56383
 Alpha virt. eigenvalues --    1.58122   1.59045   1.64942   1.67255   1.69369
 Alpha virt. eigenvalues --    1.72661   1.73492   1.74478   1.77823   1.79079
 Alpha virt. eigenvalues --    1.80904   1.81576   1.82696   1.84988   1.86479
 Alpha virt. eigenvalues --    1.87044   1.88996   1.89327   1.92041   1.93666
 Alpha virt. eigenvalues --    1.95880   1.96571   1.99767   2.00463   2.02492
 Alpha virt. eigenvalues --    2.03341   2.06995   2.09537   2.09739   2.13068
 Alpha virt. eigenvalues --    2.13525   2.14504   2.16743   2.18359   2.19711
 Alpha virt. eigenvalues --    2.22840   2.25241   2.26450   2.28155   2.28677
 Alpha virt. eigenvalues --    2.30630   2.31819   2.34354   2.36541   2.41276
 Alpha virt. eigenvalues --    2.42314   2.43153   2.44943   2.47398   2.49217
 Alpha virt. eigenvalues --    2.50956   2.52716   2.54373   2.57204   2.59453
 Alpha virt. eigenvalues --    2.62869   2.65681   2.68497   2.71412   2.74091
 Alpha virt. eigenvalues --    2.75063   2.75458   2.77867   2.81171   2.83877
 Alpha virt. eigenvalues --    2.85738   2.91146   2.96494   2.99217   3.05072
 Alpha virt. eigenvalues --    3.24504   3.46111   3.74478   3.85807   3.97461
 Alpha virt. eigenvalues --    3.99355   4.08029   4.11811   4.18646   4.23227
 Alpha virt. eigenvalues --    4.26383   4.31025   4.40999   4.48231   4.54345
 Alpha virt. eigenvalues --    4.61575   4.69204
          Condensed to atoms (all electrons):
               1          2          3          4          5          6
     1  N    6.915811   0.312597   0.309268   0.384327  -0.063502   0.004976
     2  H    0.312597   0.306550  -0.013281  -0.023799  -0.003320   0.000106
     3  H    0.309268  -0.013281   0.309586  -0.023785   0.004104  -0.000225
     4  C    0.384327  -0.023799  -0.023785   4.297478   0.460891  -0.008610
     5  C   -0.063502  -0.003320   0.004104   0.460891   5.025148   0.539544
     6  C    0.004976   0.000106  -0.000225  -0.008610   0.539544   4.719602
     7  H   -0.000077  -0.000000   0.000002   0.002728  -0.025700   0.361122
     8  H   -0.006082   0.002967  -0.000006  -0.028215   0.370233  -0.032600
     9  N   -0.093522   0.004297  -0.006759   0.357407  -0.034354  -0.025784
    10  C    0.002926  -0.000111   0.000208  -0.029421  -0.019328  -0.027049
    11  O   -0.000135   0.000003  -0.000061   0.001773   0.001031   0.001043
    12  N    0.000190   0.000027   0.000007  -0.020267  -0.025034   0.309531
    13  C    0.000007  -0.000000   0.000000   0.000469   0.004334  -0.025748
    14  O   -0.000000   0.000000  -0.000000  -0.000014   0.000950   0.005555
    15  H   -0.000000  -0.000000  -0.000000  -0.000032  -0.000009   0.005048
    16  C    0.000000   0.000000   0.000000   0.000046  -0.000362  -0.000659
    17  H   -0.000000   0.000000  -0.000000   0.000016  -0.000158   0.002088
    18  H    0.000000  -0.000000   0.000000  -0.000004   0.000015  -0.000084
    19  C   -0.000000  -0.000000  -0.000000  -0.000000   0.000007   0.000186
    20  H   -0.000000   0.000000   0.000000  -0.000000   0.000001  -0.000009
    21  H    0.000000   0.000000   0.000000   0.000000  -0.000000  -0.000004
    22  C    0.000000  -0.000000   0.000000  -0.000000   0.000012  -0.000013
    23  H    0.000000  -0.000000   0.000000   0.000000  -0.000006  -0.000089
    24  C   -0.000000   0.000000  -0.000000  -0.000000   0.000001   0.000038
    25  H    0.000000   0.000000  -0.000000   0.000000  -0.000000   0.000000
    26  H    0.000000  -0.000000   0.000000   0.000000  -0.000000  -0.000001
    27  O    0.000000  -0.000000   0.000000   0.000000  -0.000000   0.000000
    28  H   -0.000000   0.000000  -0.000000   0.000000  -0.000000   0.000000
    29  H   -0.004703   0.000065   0.004717  -0.022940   0.004472  -0.000200
               7          8          9         10         11         12
     1  N   -0.000077  -0.006082  -0.093522   0.002926  -0.000135   0.000190
     2  H   -0.000000   0.002967   0.004297  -0.000111   0.000003   0.000027
     3  H    0.000002  -0.000006  -0.006759   0.000208  -0.000061   0.000007
     4  C    0.002728  -0.028215   0.357407  -0.029421   0.001773  -0.020267
     5  C   -0.025700   0.370233  -0.034354  -0.019328   0.001031  -0.025034
     6  C    0.361122  -0.032600  -0.025784  -0.027049   0.001043   0.309531
     7  H    0.453688  -0.002432  -0.000202   0.001684  -0.000099  -0.044791
     8  H   -0.002432   0.478362   0.004238   0.000595   0.000003   0.003139
     9  N   -0.000202   0.004238   7.028459   0.300532  -0.091476  -0.081150
    10  C    0.001684   0.000595   0.300532   4.102687   0.594963   0.270183
    11  O   -0.000099   0.000003  -0.091476   0.594963   8.103175  -0.091160
    12  N   -0.044791   0.003139  -0.081150   0.270183  -0.091160   7.114436
    13  C   -0.003069  -0.000112   0.002254  -0.023973   0.004073   0.206763
    14  O    0.012501   0.000003  -0.000021   0.002090   0.000242  -0.042488
    15  H    0.000526   0.000003   0.000158  -0.003786   0.010652  -0.053951
    16  C    0.000566   0.000001  -0.000121  -0.003003   0.000105  -0.044406
    17  H    0.000476   0.000000  -0.000036   0.000109  -0.000139  -0.004239
    18  H   -0.000022   0.000000   0.000029   0.001332   0.001678   0.000685
    19  C   -0.000105  -0.000000   0.000002   0.000156   0.000083   0.003457
    20  H    0.000008   0.000000  -0.000000  -0.000003  -0.000001  -0.000099
    21  H    0.000001   0.000000  -0.000000  -0.000004   0.000001  -0.000042
    22  C    0.000110  -0.000000   0.000001   0.000001   0.000004   0.002089
    23  H   -0.000180  -0.000000  -0.000000   0.000003   0.000000   0.000134
    24  C    0.000040   0.000000  -0.000000  -0.000001  -0.000001  -0.000204
    25  H    0.000001  -0.000000  -0.000000  -0.000000  -0.000000   0.000004
    26  H   -0.000001  -0.000000   0.000000  -0.000000   0.000000   0.000006
    27  O    0.000000  -0.000000   0.000000  -0.000011   0.000000   0.000196
    28  H   -0.000000  -0.000000   0.000000   0.000000  -0.000002  -0.000013
    29  H    0.000017  -0.000113   0.294102  -0.005519   0.004919   0.003432
              13         14         15         16         17         18
     1  N    0.000007  -0.000000  -0.000000   0.000000  -0.000000   0.000000
     2  H   -0.000000   0.000000  -0.000000   0.000000   0.000000  -0.000000
     3  H    0.000000  -0.000000  -0.000000   0.000000  -0.000000   0.000000
     4  C    0.000469  -0.000014  -0.000032   0.000046   0.000016  -0.000004
     5  C    0.004334   0.000950  -0.000009  -0.000362  -0.000158   0.000015
     6  C   -0.025748   0.005555   0.005048  -0.000659   0.002088  -0.000084
     7  H   -0.003069   0.012501   0.000526   0.000566   0.000476  -0.000022
     8  H   -0.000112   0.000003   0.000003   0.000001   0.000000   0.000000
     9  N    0.002254  -0.000021   0.000158  -0.000121  -0.000036   0.000029
    10  C   -0.023973   0.002090  -0.003786  -0.003003   0.000109   0.001332
    11  O    0.004073   0.000242   0.010652   0.000105  -0.000139   0.001678
    12  N    0.206763  -0.042488  -0.053951  -0.044406  -0.004239   0.000685
    13  C    4.736714   0.232515   0.376970   0.343101  -0.030839  -0.016712
    14  O    0.232515   8.329026  -0.056112  -0.050913   0.000628   0.002814
    15  H    0.376970  -0.056112   0.567086  -0.049335   0.003957  -0.003084
    16  C    0.343101  -0.050913  -0.049335   5.159370   0.375194   0.362372
    17  H   -0.030839   0.000628   0.003957   0.375194   0.553781  -0.034027
    18  H   -0.016712   0.002814  -0.003084   0.362372  -0.034027   0.545394
    19  C   -0.072288  -0.049990   0.002258   0.354362  -0.032221  -0.033032
    20  H    0.004300   0.003139  -0.000151  -0.037775  -0.014522   0.004937
    21  H    0.004419   0.002159   0.000214  -0.036080   0.004554  -0.011662
    22  C   -0.045232   0.237330   0.002459  -0.065498   0.003816   0.004299
    23  H    0.006830  -0.035605  -0.000310   0.004025  -0.000256  -0.000225
    24  C   -0.003386  -0.045085   0.001086   0.001150  -0.000036   0.000163
    25  H   -0.000109  -0.000824   0.000354  -0.000230   0.000006  -0.000001
    26  H    0.000133   0.003110  -0.000014   0.000165  -0.000006  -0.000027
    27  O   -0.001377   0.001881   0.015985  -0.000768   0.000006   0.000099
    28  H    0.000162   0.001497  -0.000153   0.000117  -0.000001  -0.000021
    29  H   -0.000041   0.000000  -0.000005   0.000001   0.000000  -0.000000
              19         20         21         22         23         24
     1  N   -0.000000  -0.000000   0.000000   0.000000   0.000000  -0.000000
     2  H   -0.000000   0.000000   0.000000  -0.000000  -0.000000   0.000000
     3  H   -0.000000   0.000000   0.000000   0.000000   0.000000  -0.000000
     4  C   -0.000000  -0.000000   0.000000  -0.000000   0.000000  -0.000000
     5  C    0.000007   0.000001  -0.000000   0.000012  -0.000006   0.000001
     6  C    0.000186  -0.000009  -0.000004  -0.000013  -0.000089   0.000038
     7  H   -0.000105   0.000008   0.000001   0.000110  -0.000180   0.000040
     8  H   -0.000000   0.000000   0.000000  -0.000000  -0.000000   0.000000
     9  N    0.000002  -0.000000  -0.000000   0.000001  -0.000000  -0.000000
    10  C    0.000156  -0.000003  -0.000004   0.000001   0.000003  -0.000001
    11  O    0.000083  -0.000001   0.000001   0.000004   0.000000  -0.000001
    12  N    0.003457  -0.000099  -0.000042   0.002089   0.000134  -0.000204
    13  C   -0.072288   0.004300   0.004419  -0.045232   0.006830  -0.003386
    14  O   -0.049990   0.003139   0.002159   0.237330  -0.035605  -0.045085
    15  H    0.002258  -0.000151   0.000214   0.002459  -0.000310   0.001086
    16  C    0.354362  -0.037775  -0.036080  -0.065498   0.004025   0.001150
    17  H   -0.032221  -0.014522   0.004554   0.003816  -0.000256  -0.000036
    18  H   -0.033032   0.004937  -0.011662   0.004299  -0.000225   0.000163
    19  C    5.119764   0.378255   0.376859   0.353593  -0.052946  -0.039996
    20  H    0.378255   0.566956  -0.024636  -0.037085  -0.013196   0.004364
    21  H    0.376859  -0.024636   0.544792  -0.031819   0.004729  -0.007272
    22  C    0.353593  -0.037085  -0.031819   4.880650   0.366871   0.330099
    23  H   -0.052946  -0.013196   0.004729   0.366871   0.600377  -0.043182
    24  C   -0.039996   0.004364  -0.007272   0.330099  -0.043182   4.919347
    25  H    0.005426  -0.000156   0.000311  -0.036407  -0.001323   0.365714
    26  H   -0.004633   0.000068   0.001446  -0.045073   0.005806   0.359505
    27  O    0.001459   0.000114   0.003240  -0.061124   0.002788   0.250635
    28  H   -0.000222  -0.000009  -0.000127   0.000335  -0.000121  -0.021042
    29  H   -0.000000   0.000000   0.000000  -0.000000   0.000000   0.000000
              25         26         27         28         29
     1  N    0.000000   0.000000   0.000000  -0.000000  -0.004703
     2  H    0.000000  -0.000000  -0.000000   0.000000   0.000065
     3  H   -0.000000   0.000000   0.000000  -0.000000   0.004717
     4  C    0.000000   0.000000   0.000000   0.000000  -0.022940
     5  C   -0.000000  -0.000000  -0.000000  -0.000000   0.004472
     6  C    0.000000  -0.000001   0.000000   0.000000  -0.000200
     7  H    0.000001  -0.000001   0.000000  -0.000000   0.000017
     8  H   -0.000000  -0.000000  -0.000000  -0.000000  -0.000113
     9  N   -0.000000   0.000000   0.000000   0.000000   0.294102
    10  C   -0.000000  -0.000000  -0.000011   0.000000  -0.005519
    11  O   -0.000000   0.000000   0.000000  -0.000002   0.004919
    12  N    0.000004   0.000006   0.000196  -0.000013   0.003432
    13  C   -0.000109   0.000133  -0.001377   0.000162  -0.000041
    14  O   -0.000824   0.003110   0.001881   0.001497   0.000000
    15  H    0.000354  -0.000014   0.015985  -0.000153  -0.000005
    16  C   -0.000230   0.000165  -0.000768   0.000117   0.000001
    17  H    0.000006  -0.000006   0.000006  -0.000001   0.000000
    18  H   -0.000001  -0.000027   0.000099  -0.000021  -0.000000
    19  C    0.005426  -0.004633   0.001459  -0.000222  -0.000000
    20  H   -0.000156   0.000068   0.000114  -0.000009   0.000000
    21  H    0.000311   0.001446   0.003240  -0.000127   0.000000
    22  C   -0.036407  -0.045073  -0.061124   0.000335  -0.000000
    23  H   -0.001323   0.005806   0.002788  -0.000121   0.000000
    24  C    0.365714   0.359505   0.250635  -0.021042   0.000000
    25  H    0.581196  -0.040702  -0.024201  -0.009829  -0.000000
    26  H   -0.040702   0.593222  -0.034333   0.004944  -0.000000
    27  O   -0.024201  -0.034333   8.263619   0.240993  -0.000000
    28  H   -0.009829   0.004944   0.240993   0.335831   0.000000
    29  H   -0.000000  -0.000000  -0.000000   0.000000   0.273130
 Mulliken charges:
               1
     1  N   -0.762082
     2  H    0.413901
     3  H    0.416223
     4  C    0.651953
     5  C   -0.238969
     6  C    0.172235
     7  H    0.243208
     8  H    0.210015
     9  N   -0.658053
    10  C    0.834740
    11  O   -0.540675
    12  N   -0.506431
    13  C    0.299840
    14  O   -0.554388
    15  H    0.180187
    16  C   -0.311427
    17  H    0.171851
    18  H    0.175083
    19  C   -0.310433
    20  H    0.165500
    21  H    0.168922
    22  C    0.140582
    23  H    0.155876
    24  C   -0.071939
    25  H    0.160770
    26  H    0.156385
    27  O   -0.659201
    28  H    0.447661
    29  H    0.448667
 Sum of Mulliken charges =   1.00000
 Mulliken charges with hydrogens summed into heavy atoms:
               1
     1  N    0.068042
     4  C    0.651953
     5  C   -0.028953
     6  C    0.415443
     9  N   -0.209386
    10  C    0.834740
    11  O   -0.540675
    12  N   -0.506431
    13  C    0.480027
    14  O   -0.554388
    16  C    0.035508
    19  C    0.023989
    22  C    0.296458
    24  C    0.245216
    27  O   -0.211540
 Electronic spatial extent (au):  <R**2>=           3715.8801
 Charge=              1.0000 electrons
 Dipole moment (field-independent basis, Debye):
    X=            -12.5196    Y=             -4.5332    Z=             -2.5081  Tot=             13.5492
 Quadrupole moment (field-independent basis, Debye-Ang):
   XX=            -18.5482   YY=            -81.2434   ZZ=            -76.6189
   XY=             -4.5381   XZ=             11.2143   YZ=             -3.2389
 Traceless Quadrupole moment (field-independent basis, Debye-Ang):
   XX=             40.2553   YY=            -22.4399   ZZ=            -17.8154
   XY=             -4.5381   XZ=             11.2143   YZ=             -3.2389
 Octapole moment (field-independent basis, Debye-Ang**2):
  XXX=           -232.6861  YYY=            -25.2422  ZZZ=            -21.3065  XYY=            -36.3456
  XXY=            -23.9159  XXZ=            -71.0880  XZZ=              7.2791  YZZ=             10.0599
  YYZ=             -7.5029  XYZ=             -0.7853
 Hexadecapole moment (field-independent basis, Debye-Ang**3):
 XXXX=          -2544.0758 YYYY=           -589.8155 ZZZZ=           -366.2143 XXXY=            -99.5223
 XXXZ=            267.6454 YYYX=             12.5087 YYYZ=            -12.0298 ZZZX=            -38.9784
 ZZZY=            -19.5777 XXYY=           -583.0152 XXZZ=           -582.4124 YYZZ=           -158.0876
 XXYZ=             16.4167 YYXZ=             24.7723 ZZXY=              7.5247
 N-N= 1.059572033192D+03 E-N=-3.830190006131D+03  KE= 7.348688979509D+02
 No NMR shielding tensors so no spin-rotation constants.
 Leave Link  601 at Sun Jul 11 16:14:00 2021, MaxMem=   104857600 cpu:               0.6 elap:               0.2
 (Enter /prod/apps/gaussian/g16b1/l701.exe)
 ... and contract with generalized density number  0.
 Compute integral first derivatives.
 D1PCM: PCM CHGder 1st derivatives, ID1Alg=3 FixD1E=F DoIter=F DoCFld=F I1PDM=0.
 GePol: Maximum number of non-zero 1st derivatives   =     294
 Leave Link  701 at Sun Jul 11 16:14:02 2021, MaxMem=   104857600 cpu:               6.8 elap:               1.7
 (Enter /prod/apps/gaussian/g16b1/l702.exe)
 L702 exits ... SP integral derivatives will be done elsewhere.
 Leave Link  702 at Sun Jul 11 16:14:02 2021, MaxMem=   104857600 cpu:               0.1 elap:               0.0
 (Enter /prod/apps/gaussian/g16b1/l703.exe)
 Integral derivatives from FoFJK, PRISM(SPDF).
 Compute integral first derivatives, UseDBF=F ICtDFT=           0.
 Calling FoFJK, ICntrl=      2127 FMM=F ISym2X=0 I1Cent= 0 IOpClX= 0 NMat=1 NMatS=1 NMatT=0.
 FoFJK:  IHMeth= 1 ICntrl=    2127 DoSepK=F KAlg= 0 I1Cent=           0 FoldK=F
 IRaf=         0 NMat=       1 IRICut=       1 DoRegI=T DoRafI=F ISym2E= 0 IDoP0=0 IntGTp=1.
 FoFCou: FMM=F IPFlag=           0 FMFlag=      100000 FMFlg1=         800
         NFxFlg=           0 DoJE=F BraDBF=F KetDBF=F FulRan=T
         wScrn=  0.000000 ICntrl=      2127 IOpCl=  0 I1Cent=           0 NGrid=           0
         NMat0=    1 NMatS0=      1 NMatT0=    0 NMatD0=    1 NMtDS0=    0 NMtDT0=    0
 Symmetry not used in FoFCou.
 Leave Link  703 at Sun Jul 11 16:14:12 2021, MaxMem=   104857600 cpu:              41.6 elap:              10.4
 (Enter /prod/apps/gaussian/g16b1/l716.exe)
 Dipole        =-4.92560592D+00-1.78350353D+00-9.86749276D-01
 ***** Axes restored to original set *****
 -------------------------------------------------------------------
 Center     Atomic                   Forces (Hartrees/Bohr)
 Number     Number              X              Y              Z
 -------------------------------------------------------------------
      1        7           0.026509941    0.012271807   -0.005287632
      2        1           0.004205871    0.006936926    0.013152494
      3        1           0.012518990    0.021532953    0.014371750
      4        6           0.068560935    0.031267852   -0.040316100
      5        6           0.022125446    0.024887212   -0.003092260
      6        6          -0.019811106   -0.008710792    0.008688161
      7        1           0.002462752    0.000317036    0.003425795
      8        1          -0.003183262   -0.001377000   -0.001205489
      9        7          -0.074045733   -0.070208618   -0.029940564
     10        6          -0.005046034   -0.017626705    0.051970267
     11        8          -0.018726037   -0.005924561   -0.011283006
     12        7           0.016446502    0.013695958   -0.007384884
     13        6          -0.018724157   -0.038296551   -0.002397735
     14        8           0.012724277    0.011458686   -0.016207996
     15        1          -0.013324633    0.019530948    0.004642441
     16        6          -0.008645241    0.020785593    0.022588799
     17        1           0.006525383    0.003708914    0.005167564
     18        1           0.003562307    0.002552195    0.009165795
     19        6          -0.002185691   -0.012684907   -0.019085142
     20        1          -0.013622114   -0.008460076   -0.006024897
     21        1           0.005286206   -0.004444933   -0.010074531
     22        6          -0.004588300   -0.000988566    0.001898883
     23        1           0.017205039   -0.011336875    0.008389306
     24        6          -0.004447873    0.011949082   -0.000458532
     25        1           0.000732026    0.001879807    0.007041680
     26        1          -0.005447832    0.000922311   -0.000051985
     27        8           0.016919174   -0.001949953   -0.012908188
     28        1          -0.004282039    0.001394922    0.000684975
     29        1          -0.019704797   -0.003082665    0.014531033
 -------------------------------------------------------------------
 Cartesian Forces:  Max     0.074045733 RMS     0.019565629
 Leave Link  716 at Sun Jul 11 16:14:12 2021, MaxMem=   104857600 cpu:               0.1 elap:               0.0
 (Enter /prod/apps/gaussian/g16b1/l103.exe)

 GradGradGradGradGradGradGradGradGradGradGradGradGradGradGradGradGradGrad
 Berny optimization.
 FormGI is forming the generalized inverse of G from B-inverse, IUseBI=4.
 Internal  Forces:  Max     0.133922635 RMS     0.015527863
 Search for a local minimum.
 Step number   1 out of a maximum of  172
 All quantities printed in internal units (Hartrees-Bohrs-Radians)
 RMS Force = .15528D-01 SwitMx=.10000D-02 MixMth= 1
 Mixed Optimization -- RFO/linear search
 Second derivative matrix not updated -- first step.
 ITU=  0
     Eigenvalues ---    0.00230   0.00622   0.00799   0.00963   0.01071
     Eigenvalues ---    0.01642   0.01883   0.01973   0.02160   0.02188
     Eigenvalues ---    0.02461   0.02546   0.02602   0.02741   0.02926
     Eigenvalues ---    0.03098   0.03350   0.04184   0.04504   0.04615
     Eigenvalues ---    0.04734   0.05148   0.05418   0.05827   0.05868
     Eigenvalues ---    0.06132   0.07299   0.07392   0.07591   0.08090
     Eigenvalues ---    0.08875   0.10588   0.11232   0.13819   0.15633
     Eigenvalues ---    0.15957   0.15999   0.16000   0.16000   0.16000
     Eigenvalues ---    0.16000   0.16192   0.19732   0.20957   0.21906
     Eigenvalues ---    0.22279   0.23370   0.24110   0.24470   0.24928
     Eigenvalues ---    0.24943   0.26335   0.28079   0.28690   0.33321
     Eigenvalues ---    0.33742   0.34440   0.34461   0.34489   0.34501
     Eigenvalues ---    0.34543   0.34554   0.34564   0.35457   0.35676
     Eigenvalues ---    0.36526   0.37583   0.38653   0.39156   0.40518
     Eigenvalues ---    0.42153   0.45264   0.45286   0.47063   0.47664
     Eigenvalues ---    0.49319   0.52560   0.54390   0.61766   0.78473
     Eigenvalues ---    0.96723
[...]
 Alpha virt. eigenvalues --    0.74616   0.74924   0.75365   0.75722   0.76437
 Alpha virt. eigenvalues --    0.77195   0.77481   0.77985   0.78360   0.78967
 Alpha virt. eigenvalues --    0.79606   0.80395   0.80629   0.81475   0.82673
 Alpha virt. eigenvalues --    0.83445   0.83657   0.84004   0.84650   0.85330
 Alpha virt. eigenvalues --    0.85730   0.86951   0.87418   0.88546   0.88765
 Alpha virt. eigenvalues --    0.88963   0.90486   0.90897   0.92452   0.92913
 Alpha virt. eigenvalues --    0.94071   0.94744   0.95376   0.96893   0.97144
 Alpha virt. eigenvalues --    0.98750   0.99441   1.02072   1.02741   1.03414
 Alpha virt. eigenvalues --    1.04940   1.06646   1.07280   1.07741   1.08676
 Alpha virt. eigenvalues --    1.08872   1.11068   1.11790   1.12651   1.14130
 Alpha virt. eigenvalues --    1.15065   1.15419   1.15969   1.17998   1.18991
 Alpha virt. eigenvalues --    1.20759   1.21662   1.23408   1.24094   1.25364
 Alpha virt. eigenvalues --    1.25640   1.26764   1.27969   1.29785   1.30991
 Alpha virt. eigenvalues --    1.32005   1.33757   1.34776   1.35664   1.36889
 Alpha virt. eigenvalues --    1.38208   1.40207   1.41071   1.41917   1.42777
 Alpha virt. eigenvalues --    1.43896   1.45192   1.46103   1.46463   1.48879
 Alpha virt. eigenvalues --    1.49897   1.51292   1.52494   1.54807   1.55254
 Alpha virt. eigenvalues --    1.56183   1.56745   1.58008   1.58806   1.60172
 Alpha virt. eigenvalues --    1.61175   1.61810   1.62631   1.64081   1.65051
 Alpha virt. eigenvalues --    1.65747   1.68354   1.68640   1.69807   1.70294
 Alpha virt. eigenvalues --    1.72515   1.73424   1.74412   1.75028   1.75678
 Alpha virt. eigenvalues --    1.77759   1.78126   1.79154   1.80003   1.80542
 Alpha virt. eigenvalues --    1.81142   1.82164   1.83754   1.84462   1.85018
 Alpha virt. eigenvalues --    1.85996   1.86962   1.88459   1.90296   1.91043
 Alpha virt. eigenvalues --    1.92093   1.93667   1.95006   1.96593   1.96677
 Alpha virt. eigenvalues --    1.97797   2.00291   2.01281   2.01872   2.02801
 Alpha virt. eigenvalues --    2.03700   2.04364   2.05394   2.06381   2.06749
 Alpha virt. eigenvalues --    2.07839   2.09441   2.09736   2.10770   2.10884
 Alpha virt. eigenvalues --    2.11731   2.13706   2.14322   2.15404   2.16148
 Alpha virt. eigenvalues --    2.16991   2.18033   2.18386   2.19939   2.20870
 Alpha virt. eigenvalues --    2.23033   2.23464   2.24839   2.26823   2.27225
 Alpha virt. eigenvalues --    2.28922   2.30155   2.31687   2.32508   2.34067
 Alpha virt. eigenvalues --    2.34791   2.35894   2.36475   2.37571   2.39700
 Alpha virt. eigenvalues --    2.40361   2.41900   2.43566   2.45408   2.46124
 Alpha virt. eigenvalues --    2.47417   2.48576   2.50200   2.50705   2.52129
 Alpha virt. eigenvalues --    2.53209   2.54657   2.55392   2.56510   2.57992
 Alpha virt. eigenvalues --    2.59267   2.61006   2.63898   2.64329   2.65382
 Alpha virt. eigenvalues --    2.68128   2.70092   2.70385   2.71743   2.73046
 Alpha virt. eigenvalues --    2.73703   2.74546   2.76423   2.77348   2.78764
 Alpha virt. eigenvalues --    2.79862   2.81227   2.83910   2.84414   2.86253
 Alpha virt. eigenvalues --    2.87602   2.89884   2.90555   2.93203   2.94614
 Alpha virt. eigenvalues --    2.97927   2.99800   3.00256   3.04015   3.06591
 Alpha virt. eigenvalues --    3.07951   3.09497   3.10998   3.13088   3.14683
 Alpha virt. eigenvalues --    3.21982   3.22338   3.26614   3.30272   3.34939
 Alpha virt. eigenvalues --    3.40720   3.46841   3.55404   3.62349   3.65095
 Alpha virt. eigenvalues --    3.68035   3.69020   3.71646   3.72484   3.76112
 Alpha virt. eigenvalues --    3.78082   3.80776   3.82814   3.82984   3.86886
 Alpha virt. eigenvalues --    3.88893   3.92049   3.96028   3.98832   4.06225
 Alpha virt. eigenvalues --    4.09269   4.20052   4.25328   4.29433   4.40800
          Condensed to atoms (all electrons):
               1          2          3          4          5          6
     1  N    6.450126   0.421813   0.483173   0.217974  -0.175619   0.103222
     2  H    0.421813   0.759379  -0.157948  -0.050291   0.022671  -0.001542
     3  H    0.483173  -0.157948   0.815216  -0.157242   0.014542  -0.018313
     4  C    0.217974  -0.050291  -0.157242   6.417543  -1.381262   0.310815
     5  C   -0.175619   0.022671   0.014542  -1.381262   8.925235  -1.845091
     6  C    0.103222  -0.001542  -0.018313   0.310815  -1.845091   7.646741
     7  H    0.002967   0.001629  -0.002877  -0.086039   0.173416  -0.182549
     8  H   -0.034291  -0.001875   0.008658   0.251027  -0.931000   0.384494
     9  N   -0.130758  -0.028690   0.018155   0.092780   0.075150  -0.005775
    10  C   -0.026785  -0.014542   0.006144  -0.229752   0.316957  -0.945407
    11  O   -0.004336   0.000390   0.000853   0.051427  -0.017563  -0.028968
    12  N    0.008789  -0.004029   0.004369   0.026198  -0.474092   0.418837
    13  C    0.004280  -0.000078   0.000453  -0.021586  -0.179929  -0.637845
    14  O    0.002294  -0.000040   0.000115  -0.021342  -0.009137   0.200969
    15  H    0.000020  -0.000015  -0.000090   0.003583  -0.026108  -0.001673
    16  C    0.000896  -0.000026   0.000422   0.016483  -0.068155   0.084166
    17  H   -0.000287  -0.000050   0.000109   0.015043  -0.036460   0.105867
    18  H    0.000188   0.000065  -0.000091  -0.006614   0.019681  -0.026293
    19  C    0.000349  -0.000171   0.000142  -0.006071   0.002393   0.077281
    20  H    0.000075   0.000004   0.000004  -0.001050  -0.000248  -0.029301
    21  H   -0.000044  -0.000018   0.000009   0.000507   0.002292   0.047959
    22  C   -0.000052  -0.000145   0.000087   0.005600  -0.035268  -0.062445
    23  H   -0.000472  -0.000002  -0.000041   0.001960   0.027270   0.051545
    24  C    0.000010   0.000012  -0.000001   0.002230  -0.015584  -0.007320
    25  H    0.000011  -0.000016   0.000012   0.000304  -0.003515   0.003578
    26  H    0.000007   0.000004  -0.000002   0.000007   0.000226   0.001804
    27  O    0.000000  -0.000002   0.000001  -0.000081  -0.000180  -0.002552
    28  H   -0.000006  -0.000001   0.000000  -0.000005  -0.000443   0.000220
    29  H   -0.034556  -0.000929  -0.007831  -0.149469   0.049662  -0.045701
               7          8          9         10         11         12
     1  N    0.002967  -0.034291  -0.130758  -0.026785  -0.004336   0.008789
     2  H    0.001629  -0.001875  -0.028690  -0.014542   0.000390  -0.004029
     3  H   -0.002877   0.008658   0.018155   0.006144   0.000853   0.004369
     4  C   -0.086039   0.251027   0.092780  -0.229752   0.051427   0.026198
     5  C    0.173416  -0.931000   0.075150   0.316957  -0.017563  -0.474092
     6  C   -0.182549   0.384494  -0.005775  -0.945407  -0.028968   0.418837
     7  H    1.952107  -0.122698   0.004945  -0.004086  -0.008276  -0.189604
     8  H   -0.122698   1.804368  -0.038786   0.009760   0.002682   0.129102
     9  N    0.004945  -0.038786   7.366042   0.013463  -0.230493  -0.014453
    10  C   -0.004086   0.009760   0.013463   5.976853   0.419146  -0.164182
    11  O   -0.008276   0.002682  -0.230493   0.419146   8.555386  -0.146759
    12  N   -0.189604   0.129102  -0.014453  -0.164182  -0.146759   8.275886
    13  C    0.010387   0.035895  -0.028672  -0.078559   0.094106  -0.405051
    14  O   -0.045657  -0.001994   0.003498  -0.055235   0.004325  -0.005590
    15  H    0.025630  -0.001677  -0.018160   0.139929   0.018961  -0.286197
    16  C   -0.016987  -0.000683  -0.003366   0.044256  -0.026161   0.268879
    17  H   -0.012320   0.000236  -0.007412   0.007768   0.004192  -0.147384
    18  H    0.002339  -0.000113   0.004249  -0.011475   0.007404  -0.021353
    19  C   -0.021499   0.000873   0.008661  -0.075352   0.013809   0.088080
    20  H    0.000088   0.000018   0.000763   0.005866   0.000787  -0.006098
    21  H   -0.003574   0.000153  -0.000578  -0.002709  -0.000287   0.009680
    22  C    0.004502   0.004191   0.006104  -0.085280   0.001731  -0.064793
    23  H   -0.004818   0.000253  -0.000035   0.016947  -0.000115   0.068155
    24  C   -0.005441  -0.000175  -0.000569   0.018045   0.000159  -0.004002
    25  H    0.002801   0.000283  -0.000206  -0.000925   0.000112  -0.000925
    26  H   -0.001373  -0.000038   0.000060   0.000566   0.000007  -0.000085
    27  O    0.002077  -0.000029  -0.000116   0.000208  -0.000060  -0.005116
    28  H   -0.000622   0.000025  -0.000158   0.001904   0.000015   0.006657
    29  H    0.002027   0.003209   0.504785  -0.153289   0.003510   0.028406
              13         14         15         16         17         18
     1  N    0.004280   0.002294   0.000020   0.000896  -0.000287   0.000188
     2  H   -0.000078  -0.000040  -0.000015  -0.000026  -0.000050   0.000065
     3  H    0.000453   0.000115  -0.000090   0.000422   0.000109  -0.000091
     4  C   -0.021586  -0.021342   0.003583   0.016483   0.015043  -0.006614
     5  C   -0.179929  -0.009137  -0.026108  -0.068155  -0.036460   0.019681
     6  C   -0.637845   0.200969  -0.001673   0.084166   0.105867  -0.026293
     7  H    0.010387  -0.045657   0.025630  -0.016987  -0.012320   0.002339
     8  H    0.035895  -0.001994  -0.001677  -0.000683   0.000236  -0.000113
     9  N   -0.028672   0.003498  -0.018160  -0.003366  -0.007412   0.004249
    10  C   -0.078559  -0.055235   0.139929   0.044256   0.007768  -0.011475
    11  O    0.094106   0.004325   0.018961  -0.026161   0.004192   0.007404
    12  N   -0.405051  -0.005590  -0.286197   0.268879  -0.147384  -0.021353
    13  C    7.741357  -0.161730  -0.211547  -0.731650  -0.213399   0.219421
    14  O   -0.161730   9.919990  -0.227832  -0.175124   0.029543   0.037803
    15  H   -0.211547  -0.227832   1.831069   0.201933   0.084839  -0.111780
    16  C   -0.731650  -0.175124   0.201933   5.705912   0.059874  -0.073963
    17  H   -0.213399   0.029543   0.084839   0.059874   1.581869  -0.253157
    18  H    0.219421   0.037803  -0.111780  -0.073963  -0.253157   1.385999
    19  C   -0.210077  -0.022774  -0.046682   0.146612   0.016863  -0.046659
    20  H    0.110837   0.012831   0.004135   0.050199  -0.101590   0.008166
    21  H   -0.064920   0.030714   0.017550  -0.083337   0.103673  -0.110596
    22  C   -0.164502  -0.154659  -0.046623  -0.091206  -0.047894   0.105759
    23  H   -0.160048  -0.103294  -0.005555  -0.014517   0.021453   0.004264
    24  C   -0.001722  -0.007500   0.011188   0.042849   0.018664  -0.001962
    25  H   -0.061545  -0.067011   0.001758   0.002830   0.000848  -0.000547
    26  H    0.025057   0.088316  -0.001807   0.031475   0.001144   0.001293
    27  O    0.010144  -0.044413   0.008334  -0.002138   0.001653  -0.002093
    28  H   -0.019817   0.036329   0.004095   0.002950  -0.000868  -0.001098
    29  H   -0.001361  -0.000097   0.002772  -0.003249   0.000074   0.000160
              19         20         21         22         23         24
     1  N    0.000349   0.000075  -0.000044  -0.000052  -0.000472   0.000010
     2  H   -0.000171   0.000004  -0.000018  -0.000145  -0.000002   0.000012
     3  H    0.000142   0.000004   0.000009   0.000087  -0.000041  -0.000001
     4  C   -0.006071  -0.001050   0.000507   0.005600   0.001960   0.002230
     5  C    0.002393  -0.000248   0.002292  -0.035268   0.027270  -0.015584
     6  C    0.077281  -0.029301   0.047959  -0.062445   0.051545  -0.007320
     7  H   -0.021499   0.000088  -0.003574   0.004502  -0.004818  -0.005441
     8  H    0.000873   0.000018   0.000153   0.004191   0.000253  -0.000175
     9  N    0.008661   0.000763  -0.000578   0.006104  -0.000035  -0.000569
    10  C   -0.075352   0.005866  -0.002709  -0.085280   0.016947   0.018045
    11  O    0.013809   0.000787  -0.000287   0.001731  -0.000115   0.000159
    12  N    0.088080  -0.006098   0.009680  -0.064793   0.068155  -0.004002
    13  C   -0.210077   0.110837  -0.064920  -0.164502  -0.160048  -0.001722
    14  O   -0.022774   0.012831   0.030714  -0.154659  -0.103294  -0.007500
    15  H   -0.046682   0.004135   0.017550  -0.046623  -0.005555   0.011188
    16  C    0.146612   0.050199  -0.083337  -0.091206  -0.014517   0.042849
    17  H    0.016863  -0.101590   0.103673  -0.047894   0.021453   0.018664
    18  H   -0.046659   0.008166  -0.110596   0.105759   0.004264  -0.001962
    19  C    5.283137  -0.104951   0.311641  -0.037547   0.179942  -0.064569
    20  H   -0.104951   1.294256  -0.247402   0.204789  -0.119613  -0.004877
    21  H    0.311641  -0.247402   1.396674  -0.353247   0.094470  -0.024629
    22  C   -0.037547   0.204789  -0.353247   7.363716  -0.582125  -0.108612
    23  H    0.179942  -0.119613   0.094470  -0.582125   1.922411  -0.041946
    24  C   -0.064569  -0.004877  -0.024629  -0.108612  -0.041946   4.421872
    25  H    0.009251  -0.000232   0.008707   0.206089  -0.031455   0.182118
    26  H   -0.040196   0.003867  -0.009557  -0.131948  -0.057146   0.247403
    27  O   -0.058565  -0.002604   0.017127   0.133213   0.015177   0.018073
    28  H    0.013838   0.002471  -0.005583  -0.043901   0.012505  -0.023390
    29  H   -0.001049  -0.000025   0.000024  -0.000947   0.000231   0.000224
              25         26         27         28         29
     1  N    0.000011   0.000007   0.000000  -0.000006  -0.034556
     2  H   -0.000016   0.000004  -0.000002  -0.000001  -0.000929
     3  H    0.000012  -0.000002   0.000001   0.000000  -0.007831
     4  C    0.000304   0.000007  -0.000081  -0.000005  -0.149469
     5  C   -0.003515   0.000226  -0.000180  -0.000443   0.049662
     6  C    0.003578   0.001804  -0.002552   0.000220  -0.045701
     7  H    0.002801  -0.001373   0.002077  -0.000622   0.002027
     8  H    0.000283  -0.000038  -0.000029   0.000025   0.003209
     9  N   -0.000206   0.000060  -0.000116  -0.000158   0.504785
    10  C   -0.000925   0.000566   0.000208   0.001904  -0.153289
    11  O    0.000112   0.000007  -0.000060   0.000015   0.003510
    12  N   -0.000925  -0.000085  -0.005116   0.006657   0.028406
    13  C   -0.061545   0.025057   0.010144  -0.019817  -0.001361
    14  O   -0.067011   0.088316  -0.044413   0.036329  -0.000097
    15  H    0.001758  -0.001807   0.008334   0.004095   0.002772
    16  C    0.002830   0.031475  -0.002138   0.002950  -0.003249
    17  H    0.000848   0.001144   0.001653  -0.000868   0.000074
    18  H   -0.000547   0.001293  -0.002093  -0.001098   0.000160
    19  C    0.009251  -0.040196  -0.058565   0.013838  -0.001049
    20  H   -0.000232   0.003867  -0.002604   0.002471  -0.000025
    21  H    0.008707  -0.009557   0.017127  -0.005583   0.000024
    22  C    0.206089  -0.131948   0.133213  -0.043901  -0.000947
    23  H   -0.031455  -0.057146   0.015177   0.012505   0.000231
    24  C    0.182118   0.247403   0.018073  -0.023390   0.000224
    25  H    1.128614  -0.245225  -0.025128  -0.039726  -0.000020
    26  H   -0.245225   1.311631  -0.126466   0.016950   0.000004
    27  O   -0.025128  -0.126466   8.452458   0.313687  -0.000004
    28  H   -0.039726   0.016950   0.313687   0.529179   0.000029
    29  H   -0.000020   0.000004  -0.000004   0.000029   0.863194
 Mulliken charges:
               1
     1  N   -0.288990
     2  H    0.054441
     3  H   -0.008025
     4  C    0.697322
     5  C    1.570158
     6  C    0.403279
     7  H   -0.476497
     8  H   -0.501868
     9  N   -0.590429
    10  C    0.869763
    11  O   -0.715982
    12  N   -0.393323
    13  C    1.102103
    14  O   -1.263299
    15  H   -0.370047
    16  C    0.630826
    17  H   -0.232891
    18  H   -0.128995
    19  C    0.583291
    20  H   -0.081164
    21  H   -0.134699
    22  C   -0.024587
    23  H   -0.295400
    24  C    1.349453
    25  H   -0.070840
    26  H   -0.115977
    27  O   -0.702606
    28  H    0.194763
    29  H   -0.059782
 Sum of Mulliken charges =   1.00000
 Mulliken charges with hydrogens summed into heavy atoms:
               1
     1  N   -0.242574
     4  C    0.697322
     5  C    1.068290
     6  C   -0.073218
     9  N   -0.650211
    10  C    0.869763
    11  O   -0.715982
    12  N   -0.393323
    13  C    0.732057
    14  O   -1.263299
    16  C    0.268940
    19  C    0.367428
    22  C   -0.319987
    24  C    1.162636
    27  O   -0.507842
 Electronic spatial extent (au):  <R**2>=           3887.4968
 Charge=              1.0000 electrons
 Dipole moment (field-independent basis, Debye):
    X=            -12.2371    Y=             -4.4333    Z=              2.1900  Tot=             13.1983
 Quadrupole moment (field-independent basis, Debye-Ang):
   XX=            -22.6557   YY=            -79.2393   ZZ=            -84.7178
   XY=              8.5704   XZ=              6.2965   YZ=             -1.3685
 Traceless Quadrupole moment (field-independent basis, Debye-Ang):
   XX=             39.5486   YY=            -17.0351   ZZ=            -22.5135
   XY=              8.5704   XZ=              6.2965   YZ=             -1.3685
 Octapole moment (field-independent basis, Debye-Ang**2):
  XXX=           -358.4273  YYY=            -37.3678  ZZZ=            -11.2985  XYY=            -16.0766
  XXY=            -45.3262  XXZ=             24.6654  XZZ=             14.4099  YZZ=              4.7557
  YYZ=              7.5928  XYZ=              3.7395
 Hexadecapole moment (field-independent basis, Debye-Ang**3):
 XXXX=          -2530.6319 YYYY=           -717.9644 ZZZZ=           -280.7079 XXXY=            101.5622
 XXXZ=            151.4739 YYYX=             79.6848 YYYZ=             -0.0856 ZZZX=            -20.9619
 ZZZY=             -1.9938 XXYY=           -592.3629 XXZZ=           -708.5275 YYZZ=           -177.2648
 XXYZ=            -39.3737 YYXZ=            -22.0593 ZZXY=             -4.2318
 N-N= 1.049104841181D+03 E-N=-3.808134485555D+03  KE= 7.357291380080D+02
 Leave Link  601 at Sun Jul 11 16:57:34 2021, MaxMem=   262144000 cpu:               0.9 elap:               0.3
 (Enter /prod/apps/gaussian/g16b1/l9999.exe)
 1\1\GINC-PIRINEUS49\SP\RMP2-FC\Aug-CC-pVDZ\C9H14N3O3(1+)\UBATOR02\11-J
 ul-2021\0\\#p mp2/aug-cc-pVDZ scf=tight maxdisk=180GB geom=allcheck\\S
 ET_328_BBB304_conf1.geo_210_060 geometry\\1,1\N,0,1.6781681772,4.10037
 51681,2.3277060771\H,0,2.6282953328,4.3687969503,2.0929980444\H,0,1.16
 41285512,4.6799918767,2.9850107555\C,0,1.1535952363,2.9993527741,1.815
 8760861\C,0,1.8487609485,2.14871751,0.9166826139\C,0,1.2106821348,1.03
 29676949,0.4673136142\H,0,1.6817282112,0.3189747789,-0.1933880305\H,0,
 2.8585074377,2.3787435001,0.6143117033\N,0,-0.1142119376,2.6450104712,
 2.1588414967\C,0,-0.7913682719,1.5199163156,1.7015297853\O,0,-1.935332
 3852,1.2625260161,2.0410003072\N,0,-0.0595923992,0.7196924718,0.833251
 0012\C,0,-0.7418353652,-0.5190102322,0.3380779925\O,0,0.2326890797,-1.
 4164545741,-0.1280013087\H,0,-1.2430978085,-0.9326755073,1.2138592848\
 C,0,-1.7104145032,-0.2415686018,-0.8246163803\H,0,-1.4124876145,0.6776
 129791,-1.3362141955\H,0,-2.7356527289,-0.1213307384,-0.474496673\C,0,
 -1.5002066505,-1.4614613954,-1.7264767548\H,0,-1.7368596578,-1.2617227
 976,-2.7741452502\H,0,-2.0956188675,-2.3116873917,-1.3850802835\C,0,-0
 .0232352148,-1.7852929283,-1.5170754562\H,0,0.6199183167,-1.1768374359
 ,-2.1660276493\C,0,0.3563537888,-3.2522488941,-1.6639069881\H,0,1.4229
 370284,-3.3730632755,-1.4311122875\H,0,0.2055918299,-3.5537982929,-2.7
 03982222\O,0,-0.4436047369,-4.1090930092,-0.864745574\H,0,-0.298332594
 7,-3.8424357493,0.0598296403\H,0,-0.6475053369,3.2320023169,2.80398065
 1\\Version=ES64L-G16RevB.01\State=1-A\HF=-736.8267141\MP2=-739.1640967
 \RMSD=8.143e-09\PG=C01 [X(C9H14N3O3)]\\@


 ONE BIG VICE IN A MAN IS APT TO KEEP OUT MANY SMALLER ONES.

                           -- BRET HARTE
 Job cpu time:       0 days  1 hours  0 minutes 14.8 seconds.
 Elapsed time:       0 days  0 hours 16 minutes 31.0 seconds.
 File lengths (MBytes):  RWF=  38096 Int=      0 D2E=      0 Chk=     19 Scr=      1
 Normal termination of Gaussian 16 at Sun Jul 11 16:57:36 2021.
