 Entering Gaussian System, Link 0=g16
 Initial command:
 /prod/apps/gaussian/g16b1/l1.exe "/tmp/ubator02/1834570/Gau-10833.inp" -scrdir="/tmp/ubator02/1834570/"
 Entering Link 1 = /prod/apps/gaussian/g16b1/l1.exe PID=     10834.
  
 Copyright (c) 1988-2017, Gaussian, Inc.  All Rights Reserved.
  
 This is part of the Gaussian(R) 16 program.  It is based on
 the Gaussian(R) 09 system (copyright 2009, Gaussian, Inc.),
 the Gaussian(R) 03 system (copyright 2003, Gaussian, Inc.),
 the Gaussian(R) 98 system (copyright 1998, Gaussian, Inc.),
 the Gaussian(R) 94 system (copyright 1995, Gaussian, Inc.),
 the Gaussian 92(TM) system (copyright 1992, Gaussian, Inc.),
 the Gaussian 90(TM) system (copyright 1990, Gaussian, Inc.),
 the Gaussian 88(TM) system (copyright 1988, Gaussian, Inc.),
 the Gaussian 86(TM) system (copyright 1986, Carnegie Mellon
 University), and the Gaussian 82(TM) system (copyright 1983,
 Carnegie Mellon University). Gaussian is a federally registered
 trademark of Gaussian, Inc.
  
 This software contains proprietary and confidential information,
 including trade secrets, belonging to Gaussian, Inc.
  
 This software is provided under written license and may be
 used, copied, transmitted, or stored only in accord with that
 written license.
  
 The following legend is applicable only to US Government
 contracts under FAR:
  
                    RESTRICTED RIGHTS LEGEND
  
 Use, reproduction and disclosure by the US Government is
 subject to restrictions as set forth in subparagraphs (a)
 and (c) of the Commercial Computer Software - Restricted
 Rights clause in FAR 52.227-19.
  
 Gaussian, Inc.
 340 Quinnipiac St., Bldg. 40, Wallingford CT 06492
  
  
 ---------------------------------------------------------------
 Warning -- This program may not be used in any manner that
 competes with the business of Gaussian, Inc. or will provide
 assistance to any competitor of Gaussian, Inc.  The licensee
 of this program is prohibited from giving any competitor of
 Gaussian, Inc. access to this program.  By using this program,
 the user acknowledges that Gaussian, Inc. is engaged in the
 business of creating and licensing software in the field of
 computational chemistry and represents and warrants to the
 licensee that it is not a competitor of Gaussian, Inc. and that
 it will not use this program in any manner prohibited above.
 ---------------------------------------------------------------
  

 Cite this work as:
 Gaussian 16, Revision B.01,
 M. J. Frisch, G. W. Trucks, H. B. Schlegel, G. E. Scuseria, 
 M. A. Robb, J. R. Cheeseman, G. Scalmani, V. Barone, 
 G. A. Petersson, H. Nakatsuji, X. Li, M. Caricato, A. V. Marenich, 
 J. Bloino, B. G. Janesko, R. Gomperts, B. Mennucci, H. P. Hratchian, 
 J. V. Ortiz, A. F. Izmaylov, J. L. Sonnenberg, D. Williams-Young, 
 F. Ding, F. Lipparini, F. Egidi, J. Goings, B. Peng, A. Petrone, 
 T. Henderson, D. Ranasinghe, V. G. Zakrzewski, J. Gao, N. Rega, 
 G. Zheng, W. Liang, M. Hada, M. Ehara, K. Toyota, R. Fukuda, 
 J. Hasegawa, M. Ishida, T. Nakajima, Y. Honda, O. Kitao, H. Nakai, 
 T. Vreven, K. Throssell, J. A. Montgomery, Jr., J. E. Peralta, 
 F. Ogliaro, M. J. Bearpark, J. J. Heyd, E. N. Brothers, K. N. Kudin, 
 V. N. Staroverov, T. A. Keith, R. Kobayashi, J. Normand, 
 K. Raghavachari, A. P. Rendell, J. C. Burant, S. S. Iyengar, 
 J. Tomasi, M. Cossi, J. M. Millam, M. Klene, C. Adamo, R. Cammi, 
 J. W. Ochterski, R. L. Martin, K. Morokuma, O. Farkas, 
 J. B. Foresman, and D. J. Fox, Gaussian, Inc., Wallingford CT, 2016.
 
 ******************************************
 Gaussian 16:  ES64L-G16RevB.01 20-Dec-2017
                11-Jul-2021 
 ******************************************
 %mem=800MB
 %nproc=4
 Will use up to    4 processors via shared memory.
 %chk=SET_328_BBB299_conf1.geo_000_000.chk
 -----------------------------------------------------------
 #p b3lyp/6-31G(d) opt freq scrf=(iefpcm,read,solvent=water)
 -----------------------------------------------------------
 1/18=20,19=15,26=3,38=1,40=2/1,3;
 2/9=110,12=2,17=6,18=5,40=1/2;
 3/5=1,6=6,7=1,11=2,25=1,30=1,70=2203,71=1,72=1,74=-5/1,2,3;
 4//1;
 5/5=2,38=5,53=1/2;
 6/7=2,8=2,9=2,10=2,28=1/1;
 7//1,2,3,16;
 1/18=20,19=15,26=3/3(2);
 2/9=110/2;
 99//99;
 2/9=110/2;
 3/5=1,6=6,7=1,11=2,25=1,30=1,70=2205,71=1,72=1,74=-5/1,2,3;
 4/5=5,16=3,69=1/1;
 5/5=2,38=5,53=1/2;
 7//1,2,3,16;
 1/18=20,19=15,26=3/3(-5);
 2/9=110/2;
 6/7=2,8=2,9=2,10=2,19=2,28=1/1;
 99/9=1/99;
 Leave Link    1 at Sun Jul 11 16:10:14 2021, MaxMem=   104857600 cpu:               0.1 elap:               0.0
 (Enter /prod/apps/gaussian/g16b1/l101.exe)
 -----------------------------------------
 SET_328_BBB299_conf1.geo_000_000 geometry
 -----------------------------------------
 Symbolic Z-matrix:
 Charge = -1 Multiplicity = 1
 O                    -2.703    -0.959     0.209 
 C                    -1.914    -0.098     0.844 
 O                    -2.348     0.638     1.691 
 C                    -0.454     0.023     0.394 
 C                     0.094    -0.724    -0.678 
 O                    -0.507    -1.756    -1.203 
 H                    -1.315    -1.783    -0.66 
 C                     1.338    -0.489    -1.18 
 H                     1.635    -1.141    -1.997 
 C                     2.214     0.421    -0.622 
 H                     3.215     0.537    -1.03 
 C                     1.689     1.21      0.38 
 H                     2.313     2.04      0.702 
 C                     0.339     1.114     0.855 
 H                    -0.041     1.747     1.653 
 
 ITRead=  0  0  0  0  0  0  0  0  0  0  0  0  0  0  0
 MicOpt= -1 -1 -1 -1 -1 -1 -1 -1 -1 -1 -1 -1 -1 -1 -1
 NAtoms=     15 NQM=       15 NQMF=       0 NMMI=      0 NMMIF=      0
                NMic=       0 NMicF=      0.
                    Isotopes and Nuclear Properties:
 (Nuclear quadrupole moments (NQMom) in fm**2, nuclear magnetic moments (NMagM)
  in nuclear magnetons)

  Atom         1           2           3           4           5           6           7           8           9          10
 IAtWgt=          16          12          16          12          12          16           1          12           1          12
 AtmWgt=  15.9949146  12.0000000  15.9949146  12.0000000  12.0000000  15.9949146   1.0078250  12.0000000   1.0078250  12.0000000
 NucSpn=           0           0           0           0           0           0           1           0           1           0
 AtZEff=  -0.0000000  -0.0000000  -0.0000000  -0.0000000  -0.0000000  -0.0000000  -0.0000000  -0.0000000  -0.0000000  -0.0000000
 NQMom=    0.0000000   0.0000000   0.0000000   0.0000000   0.0000000   0.0000000   0.0000000   0.0000000   0.0000000   0.0000000
 NMagM=    0.0000000   0.0000000   0.0000000   0.0000000   0.0000000   0.0000000   2.7928460   0.0000000   2.7928460   0.0000000
 AtZNuc=   8.0000000   6.0000000   8.0000000   6.0000000   6.0000000   8.0000000   1.0000000   6.0000000   1.0000000   6.0000000

  Atom        11          12          13          14          15
 IAtWgt=           1          12           1          12           1
 AtmWgt=   1.0078250  12.0000000   1.0078250  12.0000000   1.0078250
 NucSpn=           1           0           1           0           1
 AtZEff=  -0.0000000  -0.0000000  -0.0000000  -0.0000000  -0.0000000
 NQMom=    0.0000000   0.0000000   0.0000000   0.0000000   0.0000000
 NMagM=    2.7928460   0.0000000   2.7928460   0.0000000   2.7928460
 AtZNuc=   1.0000000   6.0000000   1.0000000   6.0000000   1.0000000
 Leave Link  101 at Sun Jul 11 16:10:14 2021, MaxMem=   104857600 cpu:               0.5 elap:               0.2
 (Enter /prod/apps/gaussian/g16b1/l103.exe)

 GradGradGradGradGradGradGradGradGradGradGradGradGradGradGradGradGradGrad
 Berny optimization.
 Initialization pass.
                           ----------------------------
                           !    Initial Parameters    !
                           ! (Angstroms and Degrees)  !
 --------------------------                            --------------------------
 ! Name  Definition              Value          Derivative Info.                !
 --------------------------------------------------------------------------------
 ! R1    R(1,2)                  1.3293         estimate D2E/DX2                !
 ! R2    R(2,3)                  1.2031         estimate D2E/DX2                !
 ! R3    R(2,4)                  1.5326         estimate D2E/DX2                !
 ! R4    R(4,5)                  1.4169         estimate D2E/DX2                !
 ! R5    R(4,14)                 1.4254         estimate D2E/DX2                !
 ! R6    R(5,6)                  1.3045         estimate D2E/DX2                !
 ! R7    R(5,8)                  1.3619         estimate D2E/DX2                !
 ! R8    R(6,7)                  0.9739         estimate D2E/DX2                !
 ! R9    R(8,9)                  1.0866         estimate D2E/DX2                !
 ! R10   R(8,10)                 1.3809         estimate D2E/DX2                !
 ! R11   R(10,11)                1.0872         estimate D2E/DX2                !
 ! R12   R(10,12)                1.3792         estimate D2E/DX2                !
 ! R13   R(12,13)                1.0872         estimate D2E/DX2                !
 ! R14   R(12,14)                1.4343         estimate D2E/DX2                !
 ! R15   R(14,15)                1.0871         estimate D2E/DX2                !
 ! A1    A(1,2,3)              121.2266         estimate D2E/DX2                !
 ! A2    A(1,2,4)              118.445          estimate D2E/DX2                !
 ! A3    A(3,2,4)              120.1371         estimate D2E/DX2                !
 ! A4    A(2,4,5)              123.2978         estimate D2E/DX2                !
 ! A5    A(2,4,14)             119.7011         estimate D2E/DX2                !
 ! A6    A(5,4,14)             115.6627         estimate D2E/DX2                !
 ! A7    A(4,5,6)              122.9137         estimate D2E/DX2                !
 ! A8    A(4,5,8)              122.7654         estimate D2E/DX2                !
 ! A9    A(6,5,8)              114.1406         estimate D2E/DX2                !
 ! A10   A(5,6,7)              100.3565         estimate D2E/DX2                !
 ! A11   A(5,8,9)              115.0405         estimate D2E/DX2                !
 ! A12   A(5,8,10)             122.9716         estimate D2E/DX2                !
 ! A13   A(9,8,10)             121.7245         estimate D2E/DX2                !
 ! A14   A(8,10,11)            120.1831         estimate D2E/DX2                !
 ! A15   A(8,10,12)            115.4101         estimate D2E/DX2                !
 ! A16   A(11,10,12)           124.2014         estimate D2E/DX2                !
 ! A17   A(10,12,13)           115.6863         estimate D2E/DX2                !
 ! A18   A(10,12,14)           124.096          estimate D2E/DX2                !
 ! A19   A(13,12,14)           119.5528         estimate D2E/DX2                !
 ! A20   A(4,14,12)            117.8889         estimate D2E/DX2                !
 ! A21   A(4,14,15)            119.2493         estimate D2E/DX2                !
 ! A22   A(12,14,15)           122.2149         estimate D2E/DX2                !
 ! D1    D(1,2,4,5)              0.8922         estimate D2E/DX2                !
 ! D2    D(1,2,4,14)           167.0993         estimate D2E/DX2                !
 ! D3    D(3,2,4,5)           -174.1432         estimate D2E/DX2                !
 ! D4    D(3,2,4,14)            -7.9361         estimate D2E/DX2                !
 ! D5    D(2,4,5,6)            -13.7769         estimate D2E/DX2                !
 ! D6    D(2,4,5,8)            171.3919         estimate D2E/DX2                !
 ! D7    D(14,4,5,6)           179.5057         estimate D2E/DX2                !
 ! D8    D(14,4,5,8)             4.6745         estimate D2E/DX2                !
 ! D9    D(2,4,14,12)         -178.2892         estimate D2E/DX2                !
 ! D10   D(2,4,14,15)           10.7219         estimate D2E/DX2                !
 ! D11   D(5,4,14,12)          -11.0617         estimate D2E/DX2                !
 ! D12   D(5,4,14,15)          177.9494         estimate D2E/DX2                !
 ! D13   D(4,5,6,7)              0.0381         estimate D2E/DX2                !
 ! D14   D(8,5,6,7)            175.2761         estimate D2E/DX2                !
 ! D15   D(4,5,8,9)            179.5735         estimate D2E/DX2                !
 ! D16   D(4,5,8,10)             5.3834         estimate D2E/DX2                !
 ! D17   D(6,5,8,9)              4.3275         estimate D2E/DX2                !
 ! D18   D(6,5,8,10)          -169.8626         estimate D2E/DX2                !
 ! D19   D(5,8,10,11)          176.941          estimate D2E/DX2                !
 ! D20   D(5,8,10,12)           -8.0515         estimate D2E/DX2                !
 ! D21   D(9,8,10,11)            3.1309         estimate D2E/DX2                !
 ! D22   D(9,8,10,12)          178.1384         estimate D2E/DX2                !
 ! D23   D(8,10,12,13)        -169.7109         estimate D2E/DX2                !
 ! D24   D(8,10,12,14)           0.8698         estimate D2E/DX2                !
 ! D25   D(11,10,12,13)          5.0705         estimate D2E/DX2                !
 ! D26   D(11,10,12,14)        175.6512         estimate D2E/DX2                !
 ! D27   D(10,12,14,4)           8.8071         estimate D2E/DX2                !
 ! D28   D(10,12,14,15)        179.5119         estimate D2E/DX2                !
 ! D29   D(13,12,14,4)         179.0458         estimate D2E/DX2                !
 ! D30   D(13,12,14,15)        -10.2494         estimate D2E/DX2                !
 --------------------------------------------------------------------------------
 Trust Radius=3.00D-01 FncErr=1.00D-07 GrdErr=1.00D-06 EigMax=2.50D+02 EigMin=1.00D-04
 Number of steps in this run=     77 maximum allowed number of steps=    100.
 GradGradGradGradGradGradGradGradGradGradGradGradGradGradGradGradGradGrad

 Leave Link  103 at Sun Jul 11 16:10:14 2021, MaxMem=   104857600 cpu:               0.1 elap:               0.0
 (Enter /prod/apps/gaussian/g16b1/l202.exe)
                          Input orientation:                          
 ---------------------------------------------------------------------
 Center     Atomic      Atomic             Coordinates (Angstroms)
 Number     Number       Type             X           Y           Z
 ---------------------------------------------------------------------
      1          8           0       -2.703000   -0.959000    0.209000
      2          6           0       -1.914000   -0.098000    0.844000
      3          8           0       -2.348000    0.638000    1.691000
      4          6           0       -0.454000    0.023000    0.394000
      5          6           0        0.094000   -0.724000   -0.678000
      6          8           0       -0.507000   -1.756000   -1.203000
      7          1           0       -1.315000   -1.783000   -0.660000
      8          6           0        1.338000   -0.489000   -1.180000
      9          1           0        1.635000   -1.141000   -1.997000
     10          6           0        2.214000    0.421000   -0.622000
     11          1           0        3.215000    0.537000   -1.030000
     12          6           0        1.689000    1.210000    0.380000
     13          1           0        2.313000    2.040000    0.702000
     14          6           0        0.339000    1.114000    0.855000
     15          1           0       -0.041000    1.747000    1.653000
 ---------------------------------------------------------------------
                    Distance matrix (angstroms):
                    1          2          3          4          5
     1  O    0.000000
     2  C    1.329311   0.000000
     3  O    2.207432   1.203105   0.000000
     4  C    2.461006   1.532560   2.376483   0.000000
     5  C    2.943672   2.596233   3.664774   1.416862   0.000000
     6  O    2.729720   2.986440   4.182792   2.391246   1.304550
     7  H    1.833216   2.336673   3.529239   2.261387   1.762693
     8  C    4.298826   3.850320   4.806180   2.439443   1.361898
     9  H    4.870093   4.664175   5.712309   3.381671   2.070829
    10  C    5.174152   4.411224   5.119463   2.882513   2.410096
    11  H    6.228632   5.497430   6.193627   3.969072   3.384474
    12  C    4.901374   3.861058   4.282905   2.449819   2.720982
    13  H    5.864922   4.739065   4.966754   3.437942   3.803690
    14  C    3.737433   2.558334   2.854022   1.425360   2.405901
    15  H    4.061258   2.750752   2.559995   2.174356   3.399651
                    6          7          8          9         10
     6  O    0.000000
     7  H    0.973880   0.000000
     8  C    2.238268   2.997206   0.000000
     9  H    2.365761   3.301853   1.086647   0.000000
    10  C    3.532808   4.160877   1.380884   2.160025   0.000000
    11  H    4.375050   5.102960   2.144366   2.499435   1.087162
    12  C    4.015652   4.366196   2.333110   3.343687   1.379185
    13  H    5.098141   5.443598   3.299756   4.226470   2.093786
    14  C    3.631526   3.663816   2.776479   3.859863   2.485438
    15  H    4.543666   4.408395   3.863577   4.946920   3.466832
                   11         12         13         14         15
    11  H    0.000000
    12  C    2.183965   0.000000
    13  H    2.464232   1.087180   0.000000
    14  C    3.486765   1.434343   2.185763   0.000000
    15  H    4.389092   2.214000   2.555693   1.087149   0.000000
 Stoichiometry    C7H5O3(1-)
 Framework group  C1[X(C7H5O3)]
 Deg. of freedom    39
 Full point group                 C1      NOp   1
 Largest Abelian subgroup         C1      NOp   1
 Largest concise Abelian subgroup C1      NOp   1
                         Standard orientation:                         
 ---------------------------------------------------------------------
 Center     Atomic      Atomic             Coordinates (Angstroms)
 Number     Number       Type             X           Y           Z
 ---------------------------------------------------------------------
      1          8           0       -2.464906    0.791673    0.128350
      2          6           0       -1.793085   -0.345224   -0.023929
      3          8           0       -2.355549   -1.408669   -0.010549
      4          6           0       -0.263689   -0.284603   -0.101480
      5          6           0        0.473070    0.921435   -0.000710
      6          8           0       -0.079303    2.099514   -0.094847
      7          1           0       -1.009499    1.846219   -0.232760
      8          6           0        1.830933    0.949393    0.100249
      9          1           0        2.267091    1.942665    0.163337
     10          6           0        2.615070   -0.183268    0.005122
     11          1           0        3.698588   -0.102683    0.042743
     12          6           0        1.927215   -1.378240   -0.027246
     13          1           0        2.534453   -2.274383    0.073499
     14          6           0        0.497372   -1.484303    0.013232
     15          1           0       -0.013881   -2.443095   -0.021874
 ---------------------------------------------------------------------
 Rotational constants (GHZ):           2.4715068           1.1895465           0.8049802
 Leave Link  202 at Sun Jul 11 16:10:14 2021, MaxMem=   104857600 cpu:               0.0 elap:               0.0
 (Enter /prod/apps/gaussian/g16b1/l301.exe)
 Standard basis: 6-31G(d) (6D, 7F)
 Ernie: Thresh=  0.10000D-02 Tol=  0.10000D-05 Strict=F.
 There are   160 symmetry adapted cartesian basis functions of A   symmetry.
 There are   160 symmetry adapted basis functions of A   symmetry.
   160 basis functions,   300 primitive gaussians,   160 cartesian basis functions
    36 alpha electrons       36 beta electrons
       nuclear repulsion energy       488.1645849837 Hartrees.
 IExCor=  402 DFT=T Ex+Corr=B3LYP ExCW=0 ScaHFX=  0.200000
 ScaDFX=  0.800000  0.720000  1.000000  0.810000 ScalE2=  1.000000  1.000000
 IRadAn=      5 IRanWt=     -1 IRanGd=            0 ICorTp=0 IEmpDi=  4
 NAtoms=   15 NActive=   15 NUniq=   15 SFac= 1.00D+00 NAtFMM=   60 NAOKFM=F Big=F
 Integral buffers will be    131072 words long.
 Raffenetti 2 integral format.
 Two-electron integral symmetry is turned on.
 Using the following non-standard input for PCM:
 MSTModel=DFT cav MSTCharged
 --- end of non-standard input.
 MST model for solvation energy: B3LYP parametrization.
 MST cavity parameters:
 ISph   IAn     Re0     Alpha   Atom Type   QCorr
 ------------------------------------------------
   1      8     1.40     1.15      O          T
   2      6     1.50     1.15      C          T
   3      8     1.40     1.15      O          T
   4      6     1.50     1.25      C          F
   5      6     1.50     1.25      C          F
   6      8     1.45     1.25      OH         F
   7      1     0.90     1.25      OH         F
   8      6     1.50     1.25      CH         F
   9      1     1.20     1.25      CH         F
  10      6     1.50     1.25      CH         F
  11      1     1.20     1.25      CH         F
  12      6     1.50     1.25      CH         F
  13      1     1.20     1.25      CH         F
  14      6     1.50     1.25      CH         F
  15      1     1.20     1.25      CH         F
 ------------------------------------------------------------------------------
 Polarizable Continuum Model (PCM)
 =================================
 Model                : PCM.
 Atomic radii         : MST.
 Polarization charges : Total charges.
 Charge compensation  : None.
 Solution method      : On-the-fly selection.
 Cavity type          : Scaled VdW (van der Waals Surface) (Alpha=1.250).
 Cavity algorithm     : GePol (No added spheres)
                        Default sphere list used, NSphG=   15.
                        Lebedev-Laikov grids with approx.  5.0 points / Ang**2.
                        Smoothing algorithm: York/Karplus (Gamma=1.0000).
                        Polarization charges: spherical gaussians, with
                                              point-specific exponents (IZeta= 3).
                        Self-potential: point-specific (ISelfS= 7).
                        Self-field    : sphere-specific E.n sum rule (ISelfD= 2).
 1st derivatives      : Analytical E(r).r(x)/FMM algorithm (CHGder, D1EAlg=3).
                        Cavity 1st derivative terms included.
 Solvent              : Water, Eps=  78.355300 Eps(inf)=   1.777849
 ------------------------------------------------------------------------------
 Spheres list:
 ISph  on   Nord     Re0    Alpha      Xe            Ye            Ze
    1   O      1    1.4000  1.150     -2.464906      0.791673      0.128350
    2   C      2    1.5000  1.150     -1.793085     -0.345224     -0.023929
    3   O      3    1.4000  1.150     -2.355549     -1.408669     -0.010549
    4   C      4    1.5000  1.250     -0.263689     -0.284603     -0.101480
    5   C      5    1.5000  1.250      0.473070      0.921435     -0.000710
    6   O      6    1.4500  1.250     -0.079303      2.099514     -0.094847
    7   H      7    0.9000  1.250     -1.009499      1.846219     -0.232760
    8   C      8    1.5000  1.250      1.830933      0.949393      0.100249
    9   H      9    1.2000  1.250      2.267091      1.942665      0.163337
   10   C     10    1.5000  1.250      2.615070     -0.183268      0.005122
   11   H     11    1.2000  1.250      3.698588     -0.102683      0.042743
   12   C     12    1.5000  1.250      1.927215     -1.378240     -0.027246
   13   H     13    1.2000  1.250      2.534453     -2.274383      0.073499
   14   C     14    1.5000  1.250      0.497372     -1.484303      0.013232
   15   H     15    1.2000  1.250     -0.013881     -2.443095     -0.021874
 ------------------------------------------------------------------------------
 GePol: Number of generator spheres                  =      15
 GePol: Total number of spheres                      =      15
 GePol: Number of exposed spheres                    =      15 (100.00%)
 GePol: Number of points                             =    1284
 GePol: Average weight of points                     =       0.13
 GePol: Minimum weight of points                     =   0.12D-07
 GePol: Maximum weight of points                     =    0.21416
 GePol: Number of points with low weight             =      68
 GePol: Fraction of low-weight points (<1% of avg)   =       5.30%
 GePol: Cavity surface area                          =    164.678 Ang**2
 GePol: Cavity volume                                =    144.348 Ang**3
 PCM non-electrostatic energy =         0.0015353715 Hartrees.
 Nuclear repulsion after PCM non-electrostatic terms =      488.1661203551 Hartrees.
 Leave Link  301 at Sun Jul 11 16:10:14 2021, MaxMem=   104857600 cpu:               0.3 elap:               0.1
 (Enter /prod/apps/gaussian/g16b1/l302.exe)
 NPDir=0 NMtPBC=     1 NCelOv=     1 NCel=       1 NClECP=     1 NCelD=      1
         NCelK=      1 NCelE2=     1 NClLst=     1 CellRange=     0.0.
 One-electron integrals computed using PRISM.
 One-electron integral symmetry used in STVInt
 NBasis=   160 RedAO= T EigKep=  5.56D-04  NBF=   160
 NBsUse=   160 1.00D-06 EigRej= -1.00D+00 NBFU=   160
 Precomputing XC quadrature grid using
 IXCGrd= 4 IRadAn=           5 IRanWt=          -1 IRanGd=           0 AccXCQ= 0.00D+00.
 Generated NRdTot=       0 NPtTot=           0 NUsed=           0 NTot=          32
 NSgBfM=   160   160   160   160   160 MxSgAt=    15 MxSgA2=    15.
 Leave Link  302 at Sun Jul 11 16:10:14 2021, MaxMem=   104857600 cpu:               0.7 elap:               0.2
 (Enter /prod/apps/gaussian/g16b1/l303.exe)
 DipDrv:  MaxL=1.
 Leave Link  303 at Sun Jul 11 16:10:14 2021, MaxMem=   104857600 cpu:               0.1 elap:               0.0
 (Enter /prod/apps/gaussian/g16b1/l401.exe)
 ExpMin= 1.61D-01 ExpMax= 5.48D+03 ExpMxC= 8.25D+02 IAcc=3 IRadAn=         5 AccDes= 0.00D+00
 Harris functional with IExCor=  402 and IRadAn=       5 diagonalized for initial guess.
 HarFok:  IExCor=  402 AccDes= 0.00D+00 IRadAn=         5 IDoV= 1 UseB2=F ITyADJ=14
 ICtDFT=  3500011 ScaDFX=  1.000000  1.000000  1.000000  1.000000
 FoFCou: FMM=F IPFlag=           0 FMFlag=      100000 FMFlg1=           0
         NFxFlg=           0 DoJE=T BraDBF=F KetDBF=T FulRan=T
         wScrn=  0.000000 ICntrl=       500 IOpCl=  0 I1Cent=   200000004 NGrid=           0
         NMat0=    1 NMatS0=      1 NMatT0=    0 NMatD0=    1 NMtDS0=    0 NMtDT0=    0
 Petite list used in FoFCou.
 Harris En= -495.666279162780    
 JPrj=0 DoOrth=F DoCkMO=F.
 Leave Link  401 at Sun Jul 11 16:10:15 2021, MaxMem=   104857600 cpu:               2.8 elap:               0.7
 (Enter /prod/apps/gaussian/g16b1/l502.exe)
 Keep R1 ints in memory in canonical form, NReq=86910067.
 FoFCou: FMM=F IPFlag=           0 FMFlag=           0 FMFlg1=           0
         NFxFlg=           0 DoJE=F BraDBF=F KetDBF=F FulRan=T
         wScrn=  0.000000 ICntrl=       600 IOpCl=  0 I1Cent=           0 NGrid=           0
         NMat0=    1 NMatS0=  12880 NMatT0=    0 NMatD0=    1 NMtDS0=    0 NMtDT0=    0
 Symmetry not used in FoFCou.
 Two-electron integral symmetry not used.
 Closed shell SCF:
 Using DIIS extrapolation, IDIIS=  1040.
 NGot=   104857600 LenX=    21850029 LenY=    21823988
 Requested convergence on RMS density matrix=1.00D-08 within 128 cycles.
 Requested convergence on MAX density matrix=1.00D-06.
 Requested convergence on             energy=1.00D-06.
 No special actions if energy rises.

 Cycle   1  Pass 1  IDiag  1:
 Inv3:  Mode=1 IEnd=     4945968.
 Iteration    1 A*A^-1 deviation from unit magnitude is 3.00D-15 for    921.
 Iteration    1 A*A^-1 deviation from orthogonality  is 2.32D-15 for    961     23.
 Iteration    1 A^-1*A deviation from unit magnitude is 2.66D-15 for    608.
 Iteration    1 A^-1*A deviation from orthogonality  is 2.09D-15 for    583    422.
 E= -495.284154330347    
 DIIS: error= 3.79D-02 at cycle   1 NSaved=   1.
 NSaved= 1 IEnMin= 1 EnMin= -495.284154330347     IErMin= 1 ErrMin= 3.79D-02
 ErrMax= 3.79D-02  0.00D+00 EMaxC= 1.00D-01 BMatC= 3.39D-01 BMatP= 3.39D-01
 IDIUse=3 WtCom= 6.21D-01 WtEn= 3.79D-01
 Coeff-Com:  0.100D+01
 Coeff-En:   0.100D+01
 Coeff:      0.100D+01
 Gap=     0.181 Goal=   None    Shift=    0.000
 GapD=    0.181 DampG=1.000 DampE=0.500 DampFc=0.5000 IDamp=-1.
 Damping current iteration by 5.00D-01
 RMSDP=8.40D-03 MaxDP=1.83D-01              OVMax= 2.06D-01

 Cycle   2  Pass 1  IDiag  1:
 E= -495.398521620443     Delta-E=       -0.114367290096 Rises=F Damp=T
 DIIS: error= 1.03D-02 at cycle   2 NSaved=   2.
 NSaved= 2 IEnMin= 2 EnMin= -495.398521620443     IErMin= 2 ErrMin= 1.03D-02
 ErrMax= 1.03D-02  0.00D+00 EMaxC= 1.00D-01 BMatC= 2.65D-02 BMatP= 3.39D-01
 IDIUse=3 WtCom= 8.97D-01 WtEn= 1.03D-01
 Coeff-Com:  0.132D+00 0.868D+00
 Coeff-En:   0.195D+00 0.805D+00
 Coeff:      0.138D+00 0.862D+00
 Gap=     0.217 Goal=   None    Shift=    0.000
 RMSDP=1.99D-03 MaxDP=5.07D-02 DE=-1.14D-01 OVMax= 1.65D-01

 Cycle   3  Pass 1  IDiag  1:
 E= -495.553839206288     Delta-E=       -0.155317585845 Rises=F Damp=F
 DIIS: error= 9.50D-03 at cycle   3 NSaved=   3.
 NSaved= 3 IEnMin= 3 EnMin= -495.553839206288     IErMin= 3 ErrMin= 9.50D-03
 ErrMax= 9.50D-03  0.00D+00 EMaxC= 1.00D-01 BMatC= 1.71D-02 BMatP= 2.65D-02
 IDIUse=3 WtCom= 9.05D-01 WtEn= 9.50D-02
 Coeff-Com:  0.200D-01 0.441D+00 0.539D+00
 Coeff-En:   0.000D+00 0.000D+00 0.100D+01
 Coeff:      0.181D-01 0.399D+00 0.583D+00
 Gap=     0.190 Goal=   None    Shift=    0.000
 RMSDP=1.13D-03 MaxDP=2.91D-02 DE=-1.55D-01 OVMax= 3.92D-02

 Cycle   4  Pass 1  IDiag  1:
 E= -495.567330337790     Delta-E=       -0.013491131502 Rises=F Damp=F
 DIIS: error= 2.98D-03 at cycle   4 NSaved=   4.
 NSaved= 4 IEnMin= 4 EnMin= -495.567330337790     IErMin= 4 ErrMin= 2.98D-03
 ErrMax= 2.98D-03  0.00D+00 EMaxC= 1.00D-01 BMatC= 2.62D-03 BMatP= 1.71D-02
 IDIUse=3 WtCom= 9.70D-01 WtEn= 2.98D-02
 Coeff-Com:  0.330D-02 0.737D-01 0.298D+00 0.625D+00
 Coeff-En:   0.000D+00 0.000D+00 0.116D+00 0.884D+00
 Coeff:      0.320D-02 0.715D-01 0.293D+00 0.632D+00
 Gap=     0.189 Goal=   None    Shift=    0.000
 RMSDP=3.94D-04 MaxDP=1.08D-02 DE=-1.35D-02 OVMax= 1.67D-02

 Cycle   5  Pass 1  IDiag  1:
 E= -495.569345248763     Delta-E=       -0.002014910974 Rises=F Damp=F
 DIIS: error= 1.74D-03 at cycle   5 NSaved=   5.
 NSaved= 5 IEnMin= 5 EnMin= -495.569345248763     IErMin= 5 ErrMin= 1.74D-03
 ErrMax= 1.74D-03  0.00D+00 EMaxC= 1.00D-01 BMatC= 4.06D-04 BMatP= 2.62D-03
 IDIUse=3 WtCom= 9.83D-01 WtEn= 1.74D-02
 Coeff-Com:  0.118D-02 0.991D-02 0.143D+00 0.403D+00 0.443D+00
 Coeff-En:   0.000D+00 0.000D+00 0.000D+00 0.487D-01 0.951D+00
 Coeff:      0.116D-02 0.974D-02 0.140D+00 0.397D+00 0.452D+00
 Gap=     0.189 Goal=   None    Shift=    0.000
 RMSDP=1.29D-04 MaxDP=4.27D-03 DE=-2.01D-03 OVMax= 7.12D-03

 Cycle   6  Pass 1  IDiag  1:
 E= -495.569642030686     Delta-E=       -0.000296781922 Rises=F Damp=F
 DIIS: error= 4.53D-04 at cycle   6 NSaved=   6.
 NSaved= 6 IEnMin= 6 EnMin= -495.569642030686     IErMin= 6 ErrMin= 4.53D-04
 ErrMax= 4.53D-04  0.00D+00 EMaxC= 1.00D-01 BMatC= 2.46D-05 BMatP= 4.06D-04
 IDIUse=3 WtCom= 9.95D-01 WtEn= 4.53D-03
 Coeff-Com:  0.433D-03-0.478D-03 0.535D-01 0.167D+00 0.258D+00 0.521D+00
 Coeff-En:   0.000D+00 0.000D+00 0.000D+00 0.000D+00 0.000D+00 0.100D+01
 Coeff:      0.431D-03-0.475D-03 0.533D-01 0.166D+00 0.257D+00 0.523D+00
 Gap=     0.189 Goal=   None    Shift=    0.000
 RMSDP=3.38D-05 MaxDP=1.08D-03 DE=-2.97D-04 OVMax= 1.73D-03

 Cycle   7  Pass 1  IDiag  1:
 E= -495.569659659006     Delta-E=       -0.000017628320 Rises=F Damp=F
 DIIS: error= 7.94D-05 at cycle   7 NSaved=   7.
 NSaved= 7 IEnMin= 7 EnMin= -495.569659659006     IErMin= 7 ErrMin= 7.94D-05
 ErrMax= 7.94D-05  0.00D+00 EMaxC= 1.00D-01 BMatC= 1.65D-06 BMatP= 2.46D-05
 IDIUse=1 WtCom= 1.00D+00 WtEn= 0.00D+00
 Coeff-Com:  0.152D-03-0.110D-02 0.170D-01 0.560D-01 0.100D+00 0.285D+00
 Coeff-Com:  0.543D+00
 Coeff:      0.152D-03-0.110D-02 0.170D-01 0.560D-01 0.100D+00 0.285D+00
 Coeff:      0.543D+00
 Gap=     0.189 Goal=   None    Shift=    0.000
 RMSDP=8.49D-06 MaxDP=2.61D-04 DE=-1.76D-05 OVMax= 4.22D-04

 Cycle   8  Pass 1  IDiag  1:
 E= -495.569661080241     Delta-E=       -0.000001421235 Rises=F Damp=F
 DIIS: error= 1.58D-05 at cycle   8 NSaved=   8.
 NSaved= 8 IEnMin= 8 EnMin= -495.569661080241     IErMin= 8 ErrMin= 1.58D-05
 ErrMax= 1.58D-05  0.00D+00 EMaxC= 1.00D-01 BMatC= 6.81D-08 BMatP= 1.65D-06
 IDIUse=1 WtCom= 1.00D+00 WtEn= 0.00D+00
 Coeff-Com:  0.508D-04-0.505D-03 0.449D-02 0.154D-01 0.301D-01 0.101D+00
 Coeff-Com:  0.248D+00 0.601D+00
 Coeff:      0.508D-04-0.505D-03 0.449D-02 0.154D-01 0.301D-01 0.101D+00
 Coeff:      0.248D+00 0.601D+00
 Gap=     0.189 Goal=   None    Shift=    0.000
 RMSDP=2.39D-06 MaxDP=5.54D-05 DE=-1.42D-06 OVMax= 1.51D-04

 Cycle   9  Pass 1  IDiag  1:
 E= -495.569661141845     Delta-E=       -0.000000061604 Rises=F Damp=F
 DIIS: error= 4.78D-06 at cycle   9 NSaved=   9.
 NSaved= 9 IEnMin= 9 EnMin= -495.569661141845     IErMin= 9 ErrMin= 4.78D-06
 ErrMax= 4.78D-06  0.00D+00 EMaxC= 1.00D-01 BMatC= 8.82D-09 BMatP= 6.81D-08
 IDIUse=1 WtCom= 1.00D+00 WtEn= 0.00D+00
 Coeff-Com:  0.543D-05-0.952D-04-0.168D-03-0.387D-03 0.320D-03 0.856D-02
 Coeff-Com:  0.388D-01 0.292D+00 0.661D+00
 Coeff:      0.543D-05-0.952D-04-0.168D-03-0.387D-03 0.320D-03 0.856D-02
 Coeff:      0.388D-01 0.292D+00 0.661D+00
 Gap=     0.189 Goal=   None    Shift=    0.000
 RMSDP=6.90D-07 MaxDP=1.43D-05 DE=-6.16D-08 OVMax= 4.13D-05

 Cycle  10  Pass 1  IDiag  1:
 E= -495.569661150771     Delta-E=       -0.000000008926 Rises=F Damp=F
 DIIS: error= 1.12D-06 at cycle  10 NSaved=  10.
 NSaved=10 IEnMin=10 EnMin= -495.569661150771     IErMin=10 ErrMin= 1.12D-06
 ErrMax= 1.12D-06  0.00D+00 EMaxC= 1.00D-01 BMatC= 4.15D-10 BMatP= 8.82D-09
 IDIUse=1 WtCom= 1.00D+00 WtEn= 0.00D+00
 Coeff-Com: -0.473D-06-0.187D-04-0.264D-03-0.838D-03-0.121D-02-0.425D-03
 Coeff-Com:  0.651D-02 0.105D+00 0.294D+00 0.597D+00
 Coeff:     -0.473D-06-0.187D-04-0.264D-03-0.838D-03-0.121D-02-0.425D-03
 Coeff:      0.651D-02 0.105D+00 0.294D+00 0.597D+00
 Gap=     0.189 Goal=   None    Shift=    0.000
 RMSDP=1.59D-07 MaxDP=5.09D-06 DE=-8.93D-09 OVMax= 8.81D-06

 Cycle  11  Pass 1  IDiag  1:
 E= -495.569661151135     Delta-E=       -0.000000000364 Rises=F Damp=F
 DIIS: error= 3.03D-07 at cycle  11 NSaved=  11.
 NSaved=11 IEnMin=11 EnMin= -495.569661151135     IErMin=11 ErrMin= 3.03D-07
 ErrMax= 3.03D-07  0.00D+00 EMaxC= 1.00D-01 BMatC= 4.85D-11 BMatP= 4.15D-10
 IDIUse=1 WtCom= 1.00D+00 WtEn= 0.00D+00
 Coeff-Com: -0.109D-05 0.286D-05-0.103D-03-0.343D-03-0.617D-03-0.109D-02
 Coeff-Com: -0.130D-02 0.153D-01 0.579D-01 0.287D+00 0.644D+00
 Coeff:     -0.109D-05 0.286D-05-0.103D-03-0.343D-03-0.617D-03-0.109D-02
 Coeff:     -0.130D-02 0.153D-01 0.579D-01 0.287D+00 0.644D+00
 Gap=     0.189 Goal=   None    Shift=    0.000
 RMSDP=4.74D-08 MaxDP=1.73D-06 DE=-3.64D-10 OVMax= 2.66D-06

 Cycle  12  Pass 1  IDiag  1:
 E= -495.569661151183     Delta-E=       -0.000000000048 Rises=F Damp=F
 DIIS: error= 8.77D-08 at cycle  12 NSaved=  12.
 NSaved=12 IEnMin=12 EnMin= -495.569661151183     IErMin=12 ErrMin= 8.77D-08
 ErrMax= 8.77D-08  0.00D+00 EMaxC= 1.00D-01 BMatC= 1.44D-12 BMatP= 4.85D-11
 IDIUse=1 WtCom= 1.00D+00 WtEn= 0.00D+00
 Coeff-Com: -0.424D-06 0.183D-05-0.217D-04-0.736D-04-0.161D-03-0.336D-03
 Coeff-Com: -0.769D-03 0.220D-03 0.400D-02 0.701D-01 0.210D+00 0.717D+00
 Coeff:     -0.424D-06 0.183D-05-0.217D-04-0.736D-04-0.161D-03-0.336D-03
 Coeff:     -0.769D-03 0.220D-03 0.400D-02 0.701D-01 0.210D+00 0.717D+00
 Gap=     0.189 Goal=   None    Shift=    0.000
 RMSDP=1.22D-08 MaxDP=3.80D-07 DE=-4.77D-11 OVMax= 7.08D-07

 Cycle  13  Pass 1  IDiag  1:
 E= -495.569661151184     Delta-E=       -0.000000000000 Rises=F Damp=F
 DIIS: error= 4.72D-08 at cycle  13 NSaved=  13.
 NSaved=13 IEnMin=13 EnMin= -495.569661151184     IErMin=13 ErrMin= 4.72D-08
 ErrMax= 4.72D-08  0.00D+00 EMaxC= 1.00D-01 BMatC= 5.61D-13 BMatP= 1.44D-12
 IDIUse=1 WtCom= 1.00D+00 WtEn= 0.00D+00
 Coeff-Com: -0.108D-06 0.744D-06 0.632D-06 0.130D-05-0.174D-04-0.562D-04
 Coeff-Com: -0.300D-03-0.194D-02-0.583D-02 0.421D-02 0.382D-01 0.430D+00
 Coeff-Com:  0.536D+00
 Coeff:     -0.108D-06 0.744D-06 0.632D-06 0.130D-05-0.174D-04-0.562D-04
 Coeff:     -0.300D-03-0.194D-02-0.583D-02 0.421D-02 0.382D-01 0.430D+00
 Coeff:      0.536D+00
 Gap=     0.189 Goal=   None    Shift=    0.000
 RMSDP=5.04D-09 MaxDP=1.51D-07 DE=-4.55D-13 OVMax= 3.24D-07

 Error on total polarization charges =  0.01941
 SCF Done:  E(RB3LYP) =  -495.569661151     A.U. after   13 cycles
            NFock= 13  Conv=0.50D-08     -V/T= 2.0084
 KE= 4.914330940805D+02 PE=-2.148219669175D+03 EE= 6.730507935882D+02
 Leave Link  502 at Sun Jul 11 16:10:32 2021, MaxMem=   104857600 cpu:              62.3 elap:              16.6
 (Enter /prod/apps/gaussian/g16b1/l601.exe)
 Copying SCF densities to generalized density rwf, IOpCl= 0 IROHF=0.

 **********************************************************************

            Population analysis using the SCF Density.

 **********************************************************************

 Orbital symmetries:
       Occupied  (A) (A) (A) (A) (A) (A) (A) (A) (A) (A) (A) (A)
                 (A) (A) (A) (A) (A) (A) (A) (A) (A) (A) (A) (A)
                 (A) (A) (A) (A) (A) (A) (A) (A) (A) (A) (A) (A)
       Virtual   (A) (A) (A) (A) (A) (A) (A) (A) (A) (A) (A) (A)
                 (A) (A) (A) (A) (A) (A) (A) (A) (A) (A) (A) (A)
                 (A) (A) (A) (A) (A) (A) (A) (A) (A) (A) (A) (A)
                 (A) (A) (A) (A) (A) (A) (A) (A) (A) (A) (A) (A)
                 (A) (A) (A) (A) (A) (A) (A) (A) (A) (A) (A) (A)
                 (A) (A) (A) (A) (A) (A) (A) (A) (A) (A) (A) (A)
                 (A) (A) (A) (A) (A) (A) (A) (A) (A) (A) (A) (A)
                 (A) (A) (A) (A) (A) (A) (A) (A) (A) (A) (A) (A)
                 (A) (A) (A) (A) (A) (A) (A) (A) (A) (A) (A) (A)
                 (A) (A) (A) (A) (A) (A) (A) (A) (A) (A) (A) (A)
                 (A) (A) (A) (A)
 The electronic state is 1-A.
 Alpha  occ. eigenvalues --  -19.15599 -19.08682 -19.07607 -10.26916 -10.23615
 Alpha  occ. eigenvalues --  -10.19207 -10.18607 -10.18382 -10.17802 -10.16843
 Alpha  occ. eigenvalues --   -1.07147  -1.02707  -0.91067  -0.84067  -0.74646
 Alpha  occ. eigenvalues --   -0.72434  -0.62745  -0.58820  -0.54969  -0.49867
 Alpha  occ. eigenvalues --   -0.47845  -0.45040  -0.43000  -0.42110  -0.41849
 Alpha  occ. eigenvalues --   -0.39785  -0.38423  -0.37559  -0.35893  -0.33466
 Alpha  occ. eigenvalues --   -0.32644  -0.24728  -0.24124  -0.23990  -0.22407
 Alpha  occ. eigenvalues --   -0.20855
 Alpha virt. eigenvalues --   -0.01925   0.02045   0.09276   0.10983   0.15916
 Alpha virt. eigenvalues --    0.16824   0.18361   0.19026   0.19824   0.25040
 Alpha virt. eigenvalues --    0.27630   0.30428   0.33082   0.33578   0.35625
 Alpha virt. eigenvalues --    0.39926   0.43548   0.49104   0.51714   0.53388
 Alpha virt. eigenvalues --    0.56007   0.56610   0.58295   0.59840   0.60448
 Alpha virt. eigenvalues --    0.61716   0.62047   0.62849   0.64225   0.65207
 Alpha virt. eigenvalues --    0.66570   0.70043   0.71214   0.74603   0.76056
 Alpha virt. eigenvalues --    0.80089   0.82405   0.84115   0.85573   0.88159
 Alpha virt. eigenvalues --    0.90461   0.91941   0.93680   0.94611   0.95676
 Alpha virt. eigenvalues --    0.98266   1.02168   1.03493   1.05102   1.05590
 Alpha virt. eigenvalues --    1.06742   1.10406   1.14234   1.16198   1.18776
 Alpha virt. eigenvalues --    1.21348   1.26753   1.28272   1.32600   1.35011
 Alpha virt. eigenvalues --    1.37080   1.41284   1.43250   1.45706   1.47610
 Alpha virt. eigenvalues --    1.51144   1.55317   1.60374   1.66884   1.69276
 Alpha virt. eigenvalues --    1.74526   1.75827   1.76459   1.80421   1.83531
 Alpha virt. eigenvalues --    1.85978   1.87006   1.89602   1.91317   1.92224
 Alpha virt. eigenvalues --    1.93752   1.96021   1.99666   2.02904   2.05610
 Alpha virt. eigenvalues --    2.07704   2.09131   2.12035   2.16291   2.19006
 Alpha virt. eigenvalues --    2.23509   2.27896   2.31695   2.33038   2.36803
 Alpha virt. eigenvalues --    2.46541   2.48248   2.52695   2.59592   2.60908
 Alpha virt. eigenvalues --    2.61752   2.64333   2.71132   2.71666   2.74921
 Alpha virt. eigenvalues --    2.79758   2.83310   2.86602   2.89361   2.97621
 Alpha virt. eigenvalues --    3.03529   3.13620   3.26209   3.42953   3.92263
 Alpha virt. eigenvalues --    3.99723   4.08452   4.12662   4.21353   4.31962
 Alpha virt. eigenvalues --    4.39160   4.44442   4.48938   4.75254
          Condensed to atoms (all electrons):
               1          2          3          4          5          6
     1  O    8.482147   0.417286  -0.107633  -0.118240   0.001650  -0.028629
     2  C    0.417286   4.352229   0.565078   0.237124  -0.034951  -0.010820
     3  O   -0.107633   0.565078   8.249491  -0.132601   0.002491  -0.000040
     4  C   -0.118240   0.237124  -0.132601   5.446837   0.396027  -0.065511
     5  C    0.001650  -0.034951   0.002491   0.396027   4.649995   0.337446
     6  O   -0.028629  -0.010820  -0.000040  -0.065511   0.337446   8.301112
     7  H    0.088066   0.006327   0.001332  -0.015818  -0.039100   0.187643
     8  C    0.000448   0.005098  -0.000076  -0.044408   0.522373  -0.079000
     9  H    0.000010  -0.000036   0.000001   0.008740  -0.042206  -0.001026
    10  C   -0.000017  -0.000305  -0.000009  -0.040595  -0.011104   0.004284
    11  H   -0.000000   0.000003  -0.000000   0.000023   0.005063  -0.000086
    12  C   -0.000022   0.004645   0.000830  -0.021956  -0.050618   0.000083
    13  H    0.000000  -0.000062   0.000001   0.004173   0.000838   0.000002
    14  C    0.003914  -0.034562   0.006444   0.427997  -0.033284   0.005450
    15  H    0.000258  -0.004190   0.015571  -0.047536   0.004062  -0.000048
               7          8          9         10         11         12
     1  O    0.088066   0.000448   0.000010  -0.000017  -0.000000  -0.000022
     2  C    0.006327   0.005098  -0.000036  -0.000305   0.000003   0.004645
     3  O    0.001332  -0.000076   0.000001  -0.000009  -0.000000   0.000830
     4  C   -0.015818  -0.044408   0.008740  -0.040595   0.000023  -0.021956
     5  C   -0.039100   0.522373  -0.042206  -0.011104   0.005063  -0.050618
     6  O    0.187643  -0.079000  -0.001026   0.004284  -0.000086   0.000083
     7  H    0.351035   0.008121  -0.000109  -0.000258   0.000005  -0.000019
     8  C    0.008121   5.029844   0.342214   0.532896  -0.039941  -0.033444
     9  H   -0.000109   0.342214   0.609613  -0.046923  -0.006305   0.006804
    10  C   -0.000258   0.532896  -0.046923   4.871397   0.365128   0.524404
    11  H    0.000005  -0.039941  -0.006305   0.365128   0.566723  -0.042330
    12  C   -0.000019  -0.033444   0.006804   0.524404  -0.042330   5.007777
    13  H    0.000000   0.005740  -0.000237  -0.047332  -0.005824   0.359204
    14  C   -0.000352  -0.044706   0.000056  -0.025972   0.004075   0.473325
    15  H   -0.000066   0.000404   0.000016   0.003856  -0.000108  -0.035362
              13         14         15
     1  O    0.000000   0.003914   0.000258
     2  C   -0.000062  -0.034562  -0.004190
     3  O    0.000001   0.006444   0.015571
     4  C    0.004173   0.427997  -0.047536
     5  C    0.000838  -0.033284   0.004062
     6  O    0.000002   0.005450  -0.000048
     7  H    0.000000  -0.000352  -0.000066
     8  C    0.005740  -0.044706   0.000404
     9  H   -0.000237   0.000056   0.000016
    10  C   -0.047332  -0.025972   0.003856
    11  H   -0.005824   0.004075  -0.000108
    12  C    0.359204   0.473325  -0.035362
    13  H    0.602978  -0.041900  -0.004552
    14  C   -0.041900   5.109953   0.351699
    15  H   -0.004552   0.351699   0.571868
 Mulliken charges:
               1
     1  O   -0.739238
     2  C    0.497135
     3  O   -0.600879
     4  C   -0.034256
     5  C    0.291317
     6  O   -0.650860
     7  H    0.413191
     8  C   -0.205562
     9  H    0.129390
    10  C   -0.129450
    11  H    0.153574
    12  C   -0.193322
    13  H    0.126972
    14  C   -0.202138
    15  H    0.144126
 Sum of Mulliken charges =  -1.00000
 Mulliken charges with hydrogens summed into heavy atoms:
               1
     1  O   -0.739238
     2  C    0.497135
     3  O   -0.600879
     4  C   -0.034256
     5  C    0.291317
     6  O   -0.237668
     8  C   -0.076173
    10  C    0.024123
    12  C   -0.066349
    14  C   -0.058012
 Electronic spatial extent (au):  <R**2>=           1357.5838
 Charge=             -1.0000 electrons
 Dipole moment (field-independent basis, Debye):
    X=             10.3547    Y=             -0.1592    Z=             -0.4943  Tot=             10.3677
 Quadrupole moment (field-independent basis, Debye-Ang):
   XX=            -82.5677   YY=            -66.9423   ZZ=            -59.2220
   XY=             -3.4153   XZ=              1.8880   YZ=             -0.8090
 Traceless Quadrupole moment (field-independent basis, Debye-Ang):
   XX=            -12.9904   YY=              2.6351   ZZ=             10.3553
   XY=             -3.4153   XZ=              1.8880   YZ=             -0.8090
 Octapole moment (field-independent basis, Debye-Ang**2):
  XXX=             81.5980  YYY=             -1.4657  ZZZ=             -0.2670  XYY=             13.3954
  XXY=             11.0613  XXZ=             -2.3240  XZZ=             -9.6307  YZZ=              3.6535
  YYZ=             -0.0293  XYZ=              1.6622
 Hexadecapole moment (field-independent basis, Debye-Ang**3):
 XXXX=          -1251.6940 YYYY=           -580.8627 ZZZZ=            -57.5939 XXXY=            -11.5533
 XXXZ=             10.4631 YYYX=            -20.5704 YYYZ=             -2.0162 ZZZX=             -0.2729
 ZZZY=             -1.4080 XXYY=           -310.6124 XXZZ=           -204.4129 YYZZ=           -106.4164
 XXYZ=             -3.9197 YYXZ=              3.7299 ZZXY=              3.3171
 N-N= 4.881661203551D+02 E-N=-2.148219671022D+03  KE= 4.914330940805D+02
 No NMR shielding tensors so no spin-rotation constants.
 Leave Link  601 at Sun Jul 11 16:10:32 2021, MaxMem=   104857600 cpu:               0.5 elap:               0.1
 (Enter /prod/apps/gaussian/g16b1/l701.exe)
 ... and contract with generalized density number  0.
 Compute integral first derivatives.
 D1PCM: PCM CHGder 1st derivatives, ID1Alg=3 FixD1E=F DoIter=F DoCFld=F I1PDM=0.
 GePol: Maximum number of non-zero 1st derivatives   =     221
 Leave Link  701 at Sun Jul 11 16:10:33 2021, MaxMem=   104857600 cpu:               3.3 elap:               0.8
 (Enter /prod/apps/gaussian/g16b1/l702.exe)
 L702 exits ... SP integral derivatives will be done elsewhere.
 Leave Link  702 at Sun Jul 11 16:10:33 2021, MaxMem=   104857600 cpu:               0.1 elap:               0.0
 (Enter /prod/apps/gaussian/g16b1/l703.exe)
 Integral derivatives from FoFJK, PRISM(SPDF).
 Compute integral first derivatives, UseDBF=F ICtDFT=           0.
 Calling FoFJK, ICntrl=      2127 FMM=F ISym2X=0 I1Cent= 0 IOpClX= 0 NMat=1 NMatS=1 NMatT=0.
 FoFJK:  IHMeth= 1 ICntrl=    2127 DoSepK=F KAlg= 0 I1Cent=           0 FoldK=F
 IRaf=         0 NMat=       1 IRICut=       1 DoRegI=T DoRafI=F ISym2E= 0 IDoP0=0 IntGTp=1.
 FoFCou: FMM=F IPFlag=           0 FMFlag=      100000 FMFlg1=         800
         NFxFlg=           0 DoJE=F BraDBF=F KetDBF=F FulRan=T
         wScrn=  0.000000 ICntrl=      2127 IOpCl=  0 I1Cent=           0 NGrid=           0
         NMat0=    1 NMatS0=      1 NMatT0=    0 NMatD0=    1 NMtDS0=    0 NMtDT0=    0
 Symmetry not used in FoFCou.
 Leave Link  703 at Sun Jul 11 16:10:36 2021, MaxMem=   104857600 cpu:              12.2 elap:               3.1
 (Enter /prod/apps/gaussian/g16b1/l716.exe)
 Dipole        = 4.07385068D+00-6.26201580D-02-1.94469329D-01
 ***** Axes restored to original set *****
 -------------------------------------------------------------------
 Center     Atomic                   Forces (Hartrees/Bohr)
 Number     Number              X              Y              Z
 -------------------------------------------------------------------
      1        8           0.041851299    0.010693240    0.008174501
      2        6          -0.009635160   -0.057247182   -0.064185360
      3        8          -0.011769080    0.046184502    0.053289195
      4        6           0.000019809    0.026951824    0.000109028
      5        6           0.004513785    0.021244835    0.026595246
      6        8          -0.025594626   -0.032381884   -0.014433269
      7        1          -0.033126619   -0.011414846    0.000332751
      8        6           0.038107336   -0.007509268   -0.018751473
      9        1           0.002429992    0.000392323   -0.000225309
     10        6          -0.014220847   -0.003287547   -0.010010585
     11        1          -0.001293203    0.002608837    0.004487158
     12        6          -0.013761857    0.034916379    0.023041017
     13        1          -0.002177625   -0.000177102    0.008281975
     14        6           0.023477024   -0.031510496   -0.012305856
     15        1           0.001179771    0.000536385   -0.004399019
 -------------------------------------------------------------------
 Cartesian Forces:  Max     0.064185360 RMS     0.023812460
 Leave Link  716 at Sun Jul 11 16:10:36 2021, MaxMem=   104857600 cpu:               0.1 elap:               0.0
 (Enter /prod/apps/gaussian/g16b1/l103.exe)

 GradGradGradGradGradGradGradGradGradGradGradGradGradGradGradGradGradGrad
 Berny optimization.
 FormGI is forming the generalized inverse of G from B-inverse, IUseBI=4.
 Internal  Forces:  Max     0.070009982 RMS     0.018466249
 Search for a local minimum.
 Step number   1 out of a maximum of   77
 All quantities printed in internal units (Hartrees-Bohrs-Radians)
 RMS Force = .18466D-01 SwitMx=.10000D-02 MixMth= 1
 Mixed Optimization -- RFO/linear search
 Second derivative matrix not updated -- first step.
 ITU=  0
     Eigenvalues ---    0.00335   0.00384   0.01444   0.01721   0.01826
     Eigenvalues ---    0.02029   0.02094   0.02322   0.02363   0.02439
     Eigenvalues ---    0.02485   0.02954   0.15735   0.15853   0.15915
     Eigenvalues ---    0.15952   0.16000   0.21898   0.22460   0.24225
     Eigenvalues ---    0.24254   0.24923   0.25000   0.25000   0.29188
     Eigenvalues ---    0.35141   0.35143   0.35144   0.35203   0.38554
     Eigenvalues ---    0.39982   0.41971   0.47369   0.48074   0.51380
     Eigenvalues ---    0.52592   0.59669   0.65945   1.03278
 RFO step:  Lambda=-5.46191325D-02 EMin= 3.35237495D-03
 Linear search not attempted -- first point.
 Maximum step size (   0.300) exceeded in Quadratic search.
    -- Step size scaled by   0.839
 Iteration  1 RMS(Cart)=  0.09114228 RMS(Int)=  0.00442166
 Iteration  2 RMS(Cart)=  0.00486257 RMS(Int)=  0.00094427
 Iteration  3 RMS(Cart)=  0.00001539 RMS(Int)=  0.00094422
 Iteration  4 RMS(Cart)=  0.00000003 RMS(Int)=  0.00094422
 ITry= 1 IFail=0 DXMaxC= 4.22D-01 DCOld= 1.00D+10 DXMaxT= 3.00D-01 DXLimC= 3.00D+00 Rises=F
 Variable       Old X    -DE/DX   Delta X   Delta X   Delta X     New X
                                 (Linear)    (Quad)   (Total)
    R1        2.51203  -0.03567   0.00000  -0.04595  -0.04595   2.46609
    R2        2.27354   0.07001   0.00000   0.05402   0.05402   2.32756
    R3        2.89612  -0.02025   0.00000  -0.04903  -0.04903   2.84709
    R4        2.67748  -0.00445   0.00000  -0.00766  -0.00742   2.67006
    R5        2.69354  -0.01581   0.00000  -0.03213  -0.03197   2.66157
    R6        2.46524   0.06737   0.00000   0.07917   0.07917   2.54441
    R7        2.57361   0.03978   0.00000   0.06057   0.06062   2.63424
    R8        1.84037   0.02798   0.00000   0.04044   0.04044   1.88080
    R9        2.05347   0.00060   0.00000   0.00123   0.00123   2.05470
   R10        2.60949   0.01566   0.00000   0.02759   0.02739   2.63688
   R11        2.05444  -0.00260   0.00000  -0.00537  -0.00537   2.04907
   R12        2.60628   0.01883   0.00000   0.02894   0.02872   2.63500
   R13        2.05447   0.00107   0.00000   0.00221   0.00221   2.05668
   R14        2.71052  -0.03093   0.00000  -0.06029  -0.06033   2.65019
   R15        2.05441  -0.00333   0.00000  -0.00687  -0.00687   2.04754
    A1        2.11580   0.03110   0.00000   0.08902   0.08519   2.20099
    A2        2.06725  -0.02995   0.00000  -0.07916  -0.08298   1.98428
    A3        2.09679  -0.00040   0.00000   0.00224  -0.00158   2.09521
    A4        2.15195  -0.02270   0.00000  -0.05723  -0.05805   2.09390
    A5        2.08918   0.00522   0.00000   0.02058   0.02008   2.10926
    A6        2.01869   0.01835   0.00000   0.04764   0.04769   2.06638
    A7        2.14525  -0.01070   0.00000  -0.03149  -0.03187   2.11337
    A8        2.14266  -0.01892   0.00000  -0.04590  -0.04594   2.09672
    A9        1.99213   0.02991   0.00000   0.08050   0.08017   2.07230
   A10        1.75155   0.03579   0.00000   0.13992   0.13992   1.89147
   A11        2.00784   0.00940   0.00000   0.02523   0.02514   2.03298
   A12        2.14626  -0.01387   0.00000  -0.02918  -0.02964   2.11662
   A13        2.12449   0.00479   0.00000   0.00735   0.00728   2.13177
   A14        2.09759  -0.00294   0.00000  -0.00781  -0.00767   2.08992
   A15        2.01429   0.01545   0.00000   0.05515   0.05452   2.06881
   A16        2.16772  -0.01228   0.00000  -0.04490  -0.04484   2.12289
   A17        2.01911   0.01484   0.00000   0.05575   0.05584   2.07495
   A18        2.16588  -0.01592   0.00000  -0.05315  -0.05361   2.11227
   A19        2.08659   0.00145   0.00000   0.00236   0.00228   2.08887
   A20        2.05755   0.01599   0.00000   0.03672   0.03668   2.09423
   A21        2.08129  -0.00658   0.00000  -0.01110  -0.01133   2.06997
   A22        2.13305  -0.00895   0.00000  -0.02060  -0.02090   2.11215
    D1        0.01557   0.00466   0.00000   0.08644   0.08699   0.10256
    D2        2.91643   0.01170   0.00000   0.14900   0.14817   3.06461
    D3       -3.03937  -0.00657   0.00000  -0.07471  -0.07388  -3.11325
    D4       -0.13851   0.00048   0.00000  -0.01214  -0.01269  -0.15121
    D5       -0.24045   0.00830   0.00000   0.08858   0.08740  -0.15305
    D6        2.99135   0.00278   0.00000   0.04010   0.04051   3.03186
    D7        3.13296   0.00290   0.00000   0.03104   0.03075  -3.11947
    D8        0.08159  -0.00262   0.00000  -0.01743  -0.01614   0.06544
    D9       -3.11173   0.00061   0.00000  -0.00373  -0.00466  -3.11640
   D10        0.18713  -0.00177   0.00000  -0.03650  -0.03783   0.14931
   D11       -0.19306   0.00174   0.00000   0.04034   0.04148  -0.15158
   D12        3.10580  -0.00064   0.00000   0.00756   0.00832   3.11412
   D13        0.00067   0.00592   0.00000   0.05413   0.05352   0.05419
   D14        3.05914   0.00887   0.00000   0.09330   0.09391  -3.13013
   D15        3.13415   0.00019   0.00000   0.00302   0.00333   3.13747
   D16        0.09396  -0.00374   0.00000  -0.03500  -0.03460   0.05935
   D17        0.07553  -0.00320   0.00000  -0.03685  -0.03734   0.03819
   D18       -2.96466  -0.00713   0.00000  -0.07487  -0.07527  -3.03993
   D19        3.08820   0.00246   0.00000   0.01699   0.01623   3.10444
   D20       -0.14053   0.00470   0.00000   0.04428   0.04410  -0.09643
   D21        0.05464  -0.00188   0.00000  -0.02432  -0.02470   0.02995
   D22        3.10910   0.00036   0.00000   0.00297   0.00316   3.11227
   D23       -2.96201  -0.00323   0.00000  -0.04277  -0.04320  -3.00522
   D24        0.01518  -0.00025   0.00000  -0.00683  -0.00699   0.00819
   D25        0.08850  -0.00028   0.00000  -0.01187  -0.01257   0.07593
   D26        3.06569   0.00270   0.00000   0.02407   0.02365   3.08934
   D27        0.15371  -0.00297   0.00000  -0.03689  -0.03705   0.11666
   D28        3.13307  -0.00020   0.00000  -0.00195  -0.00198   3.13109
   D29        3.12494   0.00121   0.00000   0.00476   0.00413   3.12907
   D30       -0.17889   0.00398   0.00000   0.03969   0.03920  -0.13969
         Item               Value     Threshold  Converged?
 Maximum Force            0.070010     0.000450     NO 
 RMS     Force            0.018466     0.000300     NO 
 Maximum Displacement     0.421699     0.001800     NO 
 RMS     Displacement     0.091882     0.001200     NO 
 Predicted change in Energy=-3.114195D-02
 Lowest energy point so far.  Saving SCF results.
 GradGradGradGradGradGradGradGradGradGradGradGradGradGradGradGradGradGrad

 Leave Link  103 at Sun Jul 11 16:10:36 2021, MaxMem=   104857600 cpu:               0.1 elap:               0.1
 (Enter /prod/apps/gaussian/g16b1/l202.exe)
                          Input orientation:                          
 ---------------------------------------------------------------------
 Center     Atomic      Atomic             Coordinates (Angstroms)
 Number     Number       Type             X           Y           Z
 ---------------------------------------------------------------------
      1          8           0       -2.494606   -1.065908    0.221082
      2          6           0       -1.863167   -0.086208    0.808012
      3          8           0       -2.310138    0.632740    1.702659
      4          6           0       -0.428766    0.057895    0.370274
      5          6           0        0.072816   -0.743831   -0.679503
      6          8           0       -0.651663   -1.759661   -1.185594
      7          1           0       -1.538154   -1.768611   -0.733231
      8          6           0        1.356986   -0.524371   -1.175407
      9          1           0        1.684162   -1.178072   -1.980297
     10          6           0        2.198317    0.433891   -0.608857
     11          1           0        3.204793    0.560118   -0.992038
     12          6           0        1.689682    1.256510    0.395579
     13          1           0        2.295459    2.087711    0.751443
     14          6           0        0.365753    1.122489    0.838336
     15          1           0       -0.026475    1.755306    1.625544
 ---------------------------------------------------------------------
                    Distance matrix (angstroms):
                    1          2          3          4          5
     1  O    0.000000
     2  C    1.304996   0.000000
     3  O    2.261527   1.231691   0.000000
     4  C    2.356456   1.506614   2.375975   0.000000
     5  C    2.739789   2.528478   3.639796   1.412933   0.000000
     6  O    2.420014   2.871002   4.100747   2.402897   1.346443
     7  H    1.522926   2.304679   3.506567   2.405117   1.910049
     8  C    4.132579   3.807273   4.803121   2.432504   1.393979
     9  H    4.724484   4.642238   5.726923   3.393709   2.115908
    10  C    4.996170   4.332859   5.070386   2.828716   2.431002
    11  H    6.049691   5.416838   6.138496   3.912911   3.406939
    12  C    4.788772   3.820435   4.253952   2.434161   2.787726
    13  H    5.759455   4.692898   4.922731   3.418603   3.873678
    14  C    3.654003   2.535735   2.854348   1.408440   2.423386
    15  H    4.002928   2.726347   2.545824   2.149127   3.401292
                    6          7          8          9         10
     6  O    0.000000
     7  H    0.995278   0.000000
     8  C    2.358117   3.182057   0.000000
     9  H    2.534931   3.505314   1.087298   0.000000
    10  C    3.642345   4.339089   1.395379   2.177987   0.000000
    11  H    4.504563   5.290132   2.150378   2.512026   1.084322
    12  C    4.132709   4.565577   2.397962   3.401765   1.394382
    13  H    5.219187   5.636672   3.378825   4.301329   2.143589
    14  C    3.665817   3.801729   2.783856   3.869816   2.434507
    15  H    4.544045   4.501887   3.867327   4.953087   3.418827
                   11         12         13         14         15
    11  H    0.000000
    12  C    2.169333   0.000000
    13  H    2.490011   1.088348   0.000000
    14  C    3.424423   1.402420   2.159391   0.000000
    15  H    4.326812   2.169517   2.503182   1.083511   0.000000
 Stoichiometry    C7H5O3(1-)
 Framework group  C1[X(C7H5O3)]
 Deg. of freedom    39
 Full point group                 C1      NOp   1
 RotChk:  IX=0 Diff= 6.09D-02
 Largest Abelian subgroup         C1      NOp   1
 Largest concise Abelian subgroup C1      NOp   1
                         Standard orientation:                         
 ---------------------------------------------------------------------
 Center     Atomic      Atomic             Coordinates (Angstroms)
 Number     Number       Type             X           Y           Z
 ---------------------------------------------------------------------
      1          8           0       -2.333581    0.747086    0.027886
      2          6           0       -1.730883   -0.410390    0.023507
      3          8           0       -2.278110   -1.513585   -0.000292
      4          6           0       -0.229796   -0.310976   -0.058582
      5          6           0        0.398338    0.953139    0.003411
      6          8           0       -0.321591    2.090100   -0.040508
      7          1           0       -1.286956    1.849334   -0.066612
      8          6           0        1.788347    1.041858    0.059808
      9          1           0        2.208908    2.043641    0.101938
     10          6           0        2.590503   -0.097521   -0.013988
     11          1           0        3.670096    0.002980   -0.002496
     12          6           0        1.972499   -1.347384   -0.028691
     13          1           0        2.590482   -2.240333    0.043703
     14          6           0        0.575735   -1.463693    0.019307
     15          1           0        0.095266   -2.434619   -0.001859
 ---------------------------------------------------------------------
 Rotational constants (GHZ):           2.4188737           1.2428631           0.8214459
 Leave Link  202 at Sun Jul 11 16:10:36 2021, MaxMem=   104857600 cpu:               0.1 elap:               0.0
 (Enter /prod/apps/gaussian/g16b1/l301.exe)
 Standard basis: 6-31G(d) (6D, 7F)
 Ernie: Thresh=  0.10000D-02 Tol=  0.10000D-05 Strict=F.
 There are   160 symmetry adapted cartesian basis functions of A   symmetry.
 There are   160 symmetry adapted basis functions of A   symmetry.
   160 basis functions,   300 primitive gaussians,   160 cartesian basis functions
    36 alpha electrons       36 beta electrons
       nuclear repulsion energy       490.3123012820 Hartrees.
 IExCor=  402 DFT=T Ex+Corr=B3LYP ExCW=0 ScaHFX=  0.200000
 ScaDFX=  0.800000  0.720000  1.000000  0.810000 ScalE2=  1.000000  1.000000
 IRadAn=      5 IRanWt=     -1 IRanGd=            0 ICorTp=0 IEmpDi=  4
 NAtoms=   15 NActive=   15 NUniq=   15 SFac= 1.00D+00 NAtFMM=   60 NAOKFM=F Big=F
 Integral buffers will be    131072 words long.
 Raffenetti 2 integral format.
 Two-electron integral symmetry is turned on.
 ------------------------------------------------------------------------------
 Polarizable Continuum Model (PCM)
 =================================
 Model                : PCM.
 Atomic radii         : MST.
 Polarization charges : Total charges.
 Charge compensation  : None.
 Solution method      : On-the-fly selection.
 Cavity type          : Scaled VdW (van der Waals Surface) (Alpha=1.250).
 Cavity algorithm     : GePol (No added spheres)
                        Default sphere list used, NSphG=   15.
                        Lebedev-Laikov grids with approx.  5.0 points / Ang**2.
                        Smoothing algorithm: York/Karplus (Gamma=1.0000).
                        Polarization charges: spherical gaussians, with
                                              point-specific exponents (IZeta= 3).
                        Self-potential: point-specific (ISelfS= 7).
                        Self-field    : sphere-specific E.n sum rule (ISelfD= 2).
 1st derivatives      : Analytical E(r).r(x)/FMM algorithm (CHGder, D1EAlg=3).
                        Cavity 1st derivative terms included.
 Solvent              : Water, Eps=  78.355300 Eps(inf)=   1.777849
 ------------------------------------------------------------------------------
 Spheres list:
 ISph  on   Nord     Re0    Alpha      Xe            Ye            Ze
    1   O      1    1.4000  1.150     -2.333581      0.747086      0.027886
    2   C      2    1.5000  1.150     -1.730883     -0.410390      0.023507
    3   O      3    1.4000  1.150     -2.278110     -1.513585     -0.000292
    4   C      4    1.5000  1.250     -0.229796     -0.310976     -0.058582
    5   C      5    1.5000  1.250      0.398338      0.953139      0.003411
    6   O      6    1.4500  1.250     -0.321591      2.090100     -0.040508
    7   H      7    0.9000  1.250     -1.286956      1.849334     -0.066612
    8   C      8    1.5000  1.250      1.788347      1.041858      0.059808
    9   H      9    1.2000  1.250      2.208908      2.043641      0.101938
   10   C     10    1.5000  1.250      2.590503     -0.097521     -0.013988
   11   H     11    1.2000  1.250      3.670096      0.002980     -0.002496
   12   C     12    1.5000  1.250      1.972499     -1.347384     -0.028691
   13   H     13    1.2000  1.250      2.590482     -2.240333      0.043703
   14   C     14    1.5000  1.250      0.575735     -1.463693      0.019307
   15   H     15    1.2000  1.250      0.095266     -2.434619     -0.001859
 ------------------------------------------------------------------------------
 GePol: Number of generator spheres                  =      15
 GePol: Total number of spheres                      =      15
 GePol: Number of exposed spheres                    =      15 (100.00%)
 GePol: Number of points                             =    1285
 GePol: Average weight of points                     =       0.13
 GePol: Minimum weight of points                     =   0.64D-11
 GePol: Maximum weight of points                     =    0.21416
 GePol: Number of points with low weight             =      68
 GePol: Fraction of low-weight points (<1% of avg)   =       5.29%
 GePol: Cavity surface area                          =    163.645 Ang**2
 GePol: Cavity volume                                =    144.076 Ang**3
 PCM non-electrostatic energy =         0.0014779781 Hartrees.
 Nuclear repulsion after PCM non-electrostatic terms =      490.3137792601 Hartrees.
 Leave Link  301 at Sun Jul 11 16:10:36 2021, MaxMem=   104857600 cpu:               0.3 elap:               0.1
 (Enter /prod/apps/gaussian/g16b1/l302.exe)
 NPDir=0 NMtPBC=     1 NCelOv=     1 NCel=       1 NClECP=     1 NCelD=      1
         NCelK=      1 NCelE2=     1 NClLst=     1 CellRange=     0.0.
 One-electron integrals computed using PRISM.
 One-electron integral symmetry used in STVInt
 NBasis=   160 RedAO= T EigKep=  5.02D-04  NBF=   160
 NBsUse=   160 1.00D-06 EigRej= -1.00D+00 NBFU=   160
 Precomputing XC quadrature grid using
 IXCGrd= 4 IRadAn=           5 IRanWt=          -1 IRanGd=           0 AccXCQ= 0.00D+00.
 Generated NRdTot=       0 NPtTot=           0 NUsed=           0 NTot=          32
 NSgBfM=   160   160   160   160   160 MxSgAt=    15 MxSgA2=    15.
 Leave Link  302 at Sun Jul 11 16:10:36 2021, MaxMem=   104857600 cpu:               0.6 elap:               0.2
 (Enter /prod/apps/gaussian/g16b1/l303.exe)
 DipDrv:  MaxL=1.
 Leave Link  303 at Sun Jul 11 16:10:36 2021, MaxMem=   104857600 cpu:               0.1 elap:               0.0
 (Enter /prod/apps/gaussian/g16b1/l401.exe)
 Initial guess from the checkpoint file:  "SET_328_BBB299_conf1.geo_000_000.chk"
 B after Tr=    -0.000000   -0.000000   -0.000000
         Rot=    0.999772    0.000430   -0.000945   -0.021312 Ang=   2.45 deg.
 Guess basis will be translated and rotated to current coordinates.
 JPrj=2 DoOrth=T DoCkMO=T.
 Generating alternative initial guess.
 ExpMin= 1.61D-01 ExpMax= 5.48D+03 ExpMxC= 8.25D+02 IAcc=3 IRadAn=         5 AccDes= 0.00D+00
 Harris functional with IExCor=  402 and IRadAn=       5 diagonalized for initial guess.
 HarFok:  IExCor=  402 AccDes= 0.00D+00 IRadAn=         5 IDoV= 1 UseB2=F ITyADJ=14
 ICtDFT=  3500011 ScaDFX=  1.000000  1.000000  1.000000  1.000000
 FoFCou: FMM=F IPFlag=           0 FMFlag=      100000 FMFlg1=           0
         NFxFlg=           0 DoJE=T BraDBF=F KetDBF=T FulRan=T
         wScrn=  0.000000 ICntrl=       500 IOpCl=  0 I1Cent=   200000004 NGrid=           0
         NMat0=    1 NMatS0=      1 NMatT0=    0 NMatD0=    1 NMtDS0=    0 NMtDT0=    0
 Petite list used in FoFCou.
 Harris En= -495.683011507048    
 Leave Link  401 at Sun Jul 11 16:10:37 2021, MaxMem=   104857600 cpu:               2.9 elap:               0.7
 (Enter /prod/apps/gaussian/g16b1/l502.exe)
 Keep R1 ints in memory in canonical form, NReq=86910067.
 FoFCou: FMM=F IPFlag=           0 FMFlag=           0 FMFlg1=           0
         NFxFlg=           0 DoJE=F BraDBF=F KetDBF=F FulRan=T
         wScrn=  0.000000 ICntrl=       600 IOpCl=  0 I1Cent=           0 NGrid=           0
         NMat0=    1 NMatS0=  12880 NMatT0=    0 NMatD0=    1 NMtDS0=    0 NMtDT0=    0
 Symmetry not used in FoFCou.
 Two-electron integral symmetry not used.
 Closed shell SCF:
 Using DIIS extrapolation, IDIIS=  1040.
 NGot=   104857600 LenX=    21850029 LenY=    21823988
 Requested convergence on RMS density matrix=1.00D-08 within 128 cycles.
 Requested convergence on MAX density matrix=1.00D-06.
 Requested convergence on             energy=1.00D-06.
 No special actions if energy rises.

 Cycle   1  Pass 1  IDiag  1:
 Inv3:  Mode=1 IEnd=     4953675.
 Iteration    1 A*A^-1 deviation from unit magnitude is 2.89D-15 for    573.
 Iteration    1 A*A^-1 deviation from orthogonality  is 1.87D-15 for    782    237.
 Iteration    1 A^-1*A deviation from unit magnitude is 2.89D-15 for    400.
 Iteration    1 A^-1*A deviation from orthogonality  is 1.63D-15 for    933    248.
 E= -495.565454883684    
 DIIS: error= 5.98D-03 at cycle   1 NSaved=   1.
 NSaved= 1 IEnMin= 1 EnMin= -495.565454883684     IErMin= 1 ErrMin= 5.98D-03
 ErrMax= 5.98D-03  0.00D+00 EMaxC= 1.00D-01 BMatC= 1.51D-02 BMatP= 1.51D-02
 IDIUse=3 WtCom= 9.40D-01 WtEn= 5.98D-02
 Coeff-Com:  0.100D+01
 Coeff-En:   0.100D+01
 Coeff:      0.100D+01
 Gap=     1.858 Goal=   None    Shift=    0.000
 GapD=    1.858 DampG=2.000 DampE=1.000 DampFc=2.0000 IDamp=-1.
 RMSDP=1.99D-03 MaxDP=3.90D-02              OVMax= 4.31D-02

 Cycle   2  Pass 1  IDiag  1:
 E= -495.589500631951     Delta-E=       -0.024045748266 Rises=F Damp=F
 DIIS: error= 2.44D-03 at cycle   2 NSaved=   2.
 NSaved= 2 IEnMin= 2 EnMin= -495.589500631951     IErMin= 2 ErrMin= 2.44D-03
 ErrMax= 2.44D-03  0.00D+00 EMaxC= 1.00D-01 BMatC= 1.60D-03 BMatP= 1.51D-02
 IDIUse=3 WtCom= 9.76D-01 WtEn= 2.44D-02
 Coeff-Com:  0.107D+00 0.893D+00
 Coeff-En:   0.000D+00 0.100D+01
 Coeff:      0.105D+00 0.895D+00
 Gap=     0.196 Goal=   None    Shift=    0.000
 RMSDP=5.34D-04 MaxDP=1.41D-02 DE=-2.40D-02 OVMax= 2.99D-02

 Cycle   3  Pass 1  IDiag  1:
 E= -495.588417456376     Delta-E=        0.001083175575 Rises=F Damp=F
 DIIS: error= 3.55D-03 at cycle   3 NSaved=   3.
 NSaved= 3 IEnMin= 2 EnMin= -495.589500631951     IErMin= 2 ErrMin= 2.44D-03
 ErrMax= 3.55D-03  0.00D+00 EMaxC= 1.00D-01 BMatC= 3.05D-03 BMatP= 1.60D-03
 IDIUse=3 WtCom= 1.44D-01 WtEn= 8.56D-01
 Coeff-Com: -0.317D-01 0.595D+00 0.437D+00
 Coeff-En:   0.000D+00 0.621D+00 0.379D+00
 Coeff:     -0.455D-02 0.617D+00 0.387D+00
 Gap=     0.193 Goal=   None    Shift=    0.000
 RMSDP=3.17D-04 MaxDP=7.88D-03 DE= 1.08D-03 OVMax= 1.64D-02

 Cycle   4  Pass 1  IDiag  1:
 E= -495.590916115302     Delta-E=       -0.002498658926 Rises=F Damp=F
 DIIS: error= 3.46D-04 at cycle   4 NSaved=   4.
 NSaved= 4 IEnMin= 4 EnMin= -495.590916115302     IErMin= 4 ErrMin= 3.46D-04
 ErrMax= 3.46D-04  0.00D+00 EMaxC= 1.00D-01 BMatC= 3.37D-05 BMatP= 1.60D-03
 IDIUse=3 WtCom= 9.97D-01 WtEn= 3.46D-03
 Coeff-Com: -0.173D-01 0.222D+00 0.147D+00 0.648D+00
 Coeff-En:   0.000D+00 0.000D+00 0.000D+00 0.100D+01
 Coeff:     -0.173D-01 0.221D+00 0.147D+00 0.649D+00
 Gap=     0.192 Goal=   None    Shift=    0.000
 RMSDP=5.90D-05 MaxDP=1.33D-03 DE=-2.50D-03 OVMax= 3.24D-03

 Cycle   5  Pass 1  IDiag  1:
 E= -495.590932086606     Delta-E=       -0.000015971304 Rises=F Damp=F
 DIIS: error= 3.02D-04 at cycle   5 NSaved=   5.
 NSaved= 5 IEnMin= 5 EnMin= -495.590932086606     IErMin= 5 ErrMin= 3.02D-04
 ErrMax= 3.02D-04  0.00D+00 EMaxC= 1.00D-01 BMatC= 1.79D-05 BMatP= 3.37D-05
 IDIUse=3 WtCom= 9.97D-01 WtEn= 3.02D-03
 Coeff-Com: -0.676D-02 0.619D-01 0.380D-01 0.428D+00 0.479D+00
 Coeff-En:   0.000D+00 0.000D+00 0.000D+00 0.341D+00 0.659D+00
 Coeff:     -0.674D-02 0.617D-01 0.379D-01 0.428D+00 0.479D+00
 Gap=     0.192 Goal=   None    Shift=    0.000
 RMSDP=2.83D-05 MaxDP=7.05D-04 DE=-1.60D-05 OVMax= 1.33D-03

 Cycle   6  Pass 1  IDiag  1:
 E= -495.590947195735     Delta-E=       -0.000015109129 Rises=F Damp=F
 DIIS: error= 2.87D-05 at cycle   6 NSaved=   6.
 NSaved= 6 IEnMin= 6 EnMin= -495.590947195735     IErMin= 6 ErrMin= 2.87D-05
 ErrMax= 2.87D-05  0.00D+00 EMaxC= 1.00D-01 BMatC= 2.73D-07 BMatP= 1.79D-05
 IDIUse=1 WtCom= 1.00D+00 WtEn= 0.00D+00
 Coeff-Com: -0.110D-02 0.497D-02 0.353D-02 0.100D+00 0.163D+00 0.729D+00
 Coeff:     -0.110D-02 0.497D-02 0.353D-02 0.100D+00 0.163D+00 0.729D+00
 Gap=     0.192 Goal=   None    Shift=    0.000
 RMSDP=5.08D-06 MaxDP=1.03D-04 DE=-1.51D-05 OVMax= 2.38D-04

 Cycle   7  Pass 1  IDiag  1:
 E= -495.590947434392     Delta-E=       -0.000000238657 Rises=F Damp=F
 DIIS: error= 1.21D-05 at cycle   7 NSaved=   7.
 NSaved= 7 IEnMin= 7 EnMin= -495.590947434392     IErMin= 7 ErrMin= 1.21D-05
 ErrMax= 1.21D-05  0.00D+00 EMaxC= 1.00D-01 BMatC= 6.53D-08 BMatP= 2.73D-07
 IDIUse=1 WtCom= 1.00D+00 WtEn= 0.00D+00
 Coeff-Com:  0.283D-03-0.551D-02-0.303D-02-0.228D-02 0.218D-01 0.372D+00
 Coeff-Com:  0.617D+00
 Coeff:      0.283D-03-0.551D-02-0.303D-02-0.228D-02 0.218D-01 0.372D+00
 Coeff:      0.617D+00
 Gap=     0.192 Goal=   None    Shift=    0.000
 RMSDP=1.86D-06 MaxDP=4.17D-05 DE=-2.39D-07 OVMax= 8.76D-05

 Cycle   8  Pass 1  IDiag  1:
 E= -495.590947496563     Delta-E=       -0.000000062171 Rises=F Damp=F
 DIIS: error= 3.02D-06 at cycle   8 NSaved=   8.
 NSaved= 8 IEnMin= 8 EnMin= -495.590947496563     IErMin= 8 ErrMin= 3.02D-06
 ErrMax= 3.02D-06  0.00D+00 EMaxC= 1.00D-01 BMatC= 4.04D-09 BMatP= 6.53D-08
 IDIUse=1 WtCom= 1.00D+00 WtEn= 0.00D+00
 Coeff-Com:  0.202D-03-0.281D-02-0.166D-02-0.806D-02-0.274D-02 0.116D+00
 Coeff-Com:  0.277D+00 0.622D+00
 Coeff:      0.202D-03-0.281D-02-0.166D-02-0.806D-02-0.274D-02 0.116D+00
 Coeff:      0.277D+00 0.622D+00
 Gap=     0.192 Goal=   None    Shift=    0.000
 RMSDP=4.97D-07 MaxDP=1.22D-05 DE=-6.22D-08 OVMax= 2.44D-05

 Cycle   9  Pass 1  IDiag  1:
 E= -495.590947500610     Delta-E=       -0.000000004047 Rises=F Damp=F
 DIIS: error= 8.60D-07 at cycle   9 NSaved=   9.
 NSaved= 9 IEnMin= 9 EnMin= -495.590947500610     IErMin= 9 ErrMin= 8.60D-07
 ErrMax= 8.60D-07  0.00D+00 EMaxC= 1.00D-01 BMatC= 2.27D-10 BMatP= 4.04D-09
 IDIUse=1 WtCom= 1.00D+00 WtEn= 0.00D+00
 Coeff-Com:  0.226D-04-0.128D-03-0.151D-03-0.200D-02-0.362D-02-0.103D-01
 Coeff-Com:  0.787D-02 0.187D+00 0.821D+00
 Coeff:      0.226D-04-0.128D-03-0.151D-03-0.200D-02-0.362D-02-0.103D-01
 Coeff:      0.787D-02 0.187D+00 0.821D+00
 Gap=     0.192 Goal=   None    Shift=    0.000
 RMSDP=1.77D-07 MaxDP=4.03D-06 DE=-4.05D-09 OVMax= 1.17D-05

 Cycle  10  Pass 1  IDiag  1:
 E= -495.590947500854     Delta-E=       -0.000000000244 Rises=F Damp=F
 DIIS: error= 5.31D-07 at cycle  10 NSaved=  10.
 NSaved=10 IEnMin=10 EnMin= -495.590947500854     IErMin=10 ErrMin= 5.31D-07
 ErrMax= 5.31D-07  0.00D+00 EMaxC= 1.00D-01 BMatC= 7.73D-11 BMatP= 2.27D-10
 IDIUse=1 WtCom= 1.00D+00 WtEn= 0.00D+00
 Coeff-Com:  0.182D-05 0.967D-04 0.155D-04-0.708D-03-0.199D-02-0.135D-01
 Coeff-Com: -0.124D-01 0.735D-01 0.486D+00 0.469D+00
 Coeff:      0.182D-05 0.967D-04 0.155D-04-0.708D-03-0.199D-02-0.135D-01
 Coeff:     -0.124D-01 0.735D-01 0.486D+00 0.469D+00
 Gap=     0.192 Goal=   None    Shift=    0.000
 RMSDP=6.47D-08 MaxDP=1.74D-06 DE=-2.44D-10 OVMax= 3.28D-06

 Cycle  11  Pass 1  IDiag  1:
 E= -495.590947500926     Delta-E=       -0.000000000072 Rises=F Damp=F
 DIIS: error= 8.96D-08 at cycle  11 NSaved=  11.
 NSaved=11 IEnMin=11 EnMin= -495.590947500926     IErMin=11 ErrMin= 8.96D-08
 ErrMax= 8.96D-08  0.00D+00 EMaxC= 1.00D-01 BMatC= 2.53D-12 BMatP= 7.73D-11
 IDIUse=1 WtCom= 1.00D+00 WtEn= 0.00D+00
 Coeff-Com: -0.217D-05 0.521D-04 0.308D-04-0.464D-04-0.297D-03-0.381D-02
 Coeff-Com: -0.564D-02 0.521D-02 0.857D-01 0.178D+00 0.741D+00
 Coeff:     -0.217D-05 0.521D-04 0.308D-04-0.464D-04-0.297D-03-0.381D-02
 Coeff:     -0.564D-02 0.521D-02 0.857D-01 0.178D+00 0.741D+00
 Gap=     0.192 Goal=   None    Shift=    0.000
 RMSDP=1.33D-08 MaxDP=2.97D-07 DE=-7.20D-11 OVMax= 7.53D-07

 Cycle  12  Pass 1  IDiag  1:
 E= -495.590947500928     Delta-E=       -0.000000000003 Rises=F Damp=F
 DIIS: error= 4.55D-08 at cycle  12 NSaved=  12.
 NSaved=12 IEnMin=12 EnMin= -495.590947500928     IErMin=12 ErrMin= 4.55D-08
 ErrMax= 4.55D-08  0.00D+00 EMaxC= 1.00D-01 BMatC= 2.91D-13 BMatP= 2.53D-12
 IDIUse=1 WtCom= 1.00D+00 WtEn= 0.00D+00
 Coeff-Com: -0.975D-06 0.187D-04 0.146D-04 0.949D-05-0.392D-04-0.110D-02
 Coeff-Com: -0.203D-02-0.156D-02 0.135D-01 0.572D-01 0.358D+00 0.576D+00
 Coeff:     -0.975D-06 0.187D-04 0.146D-04 0.949D-05-0.392D-04-0.110D-02
 Coeff:     -0.203D-02-0.156D-02 0.135D-01 0.572D-01 0.358D+00 0.576D+00
 Gap=     0.192 Goal=   None    Shift=    0.000
 RMSDP=3.93D-09 MaxDP=1.01D-07 DE=-2.61D-12 OVMax= 1.97D-07

 Error on total polarization charges =  0.01938
 SCF Done:  E(RB3LYP) =  -495.590947501     A.U. after   12 cycles
            NFock= 12  Conv=0.39D-08     -V/T= 2.0088
 KE= 4.912849867110D+02 PE=-2.152684878183D+03 EE= 6.754951647112D+02
 Leave Link  502 at Sun Jul 11 16:10:52 2021, MaxMem=   104857600 cpu:              55.3 elap:              14.8
 (Enter /prod/apps/gaussian/g16b1/l701.exe)
 ... and contract with generalized density number  0.
 Compute integral first derivatives.
 D1PCM: PCM CHGder 1st derivatives, ID1Alg=3 FixD1E=F DoIter=F DoCFld=F I1PDM=0.
 GePol: Maximum number of non-zero 1st derivatives   =     215
 Leave Link  701 at Sun Jul 11 16:10:53 2021, MaxMem=   104857600 cpu:               5.2 elap:               1.3
 (Enter /prod/apps/gaussian/g16b1/l702.exe)
 L702 exits ... SP integral derivatives will be done elsewhere.
 Leave Link  702 at Sun Jul 11 16:10:53 2021, MaxMem=   104857600 cpu:               0.1 elap:               0.0
 (Enter /prod/apps/gaussian/g16b1/l703.exe)
 Integral derivatives from FoFJK, PRISM(SPDF).
 Compute integral first derivatives, UseDBF=F ICtDFT=           0.
 Calling FoFJK, ICntrl=      2127 FMM=F ISym2X=0 I1Cent= 0 IOpClX= 0 NMat=1 NMatS=1 NMatT=0.
 FoFJK:  IHMeth= 1 ICntrl=    2127 DoSepK=F KAlg= 0 I1Cent=           0 FoldK=F
 IRaf=         0 NMat=       1 IRICut=       1 DoRegI=T DoRafI=F ISym2E= 0 IDoP0=0 IntGTp=1.
 FoFCou: FMM=F IPFlag=           0 FMFlag=      100000 FMFlg1=         800
         NFxFlg=           0 DoJE=F BraDBF=F KetDBF=F FulRan=T
         wScrn=  0.000000 ICntrl=      2127 IOpCl=  0 I1Cent=           0 NGrid=           0
         NMat0=    1 NMatS0=      1 NMatT0=    0 NMatD0=    1 NMtDS0=    0 NMtDT0=    0
 Symmetry not used in FoFCou.
 Leave Link  703 at Sun Jul 11 16:10:56 2021, MaxMem=   104857600 cpu:              12.0 elap:               3.0
 (Enter /prod/apps/gaussian/g16b1/l716.exe)
 Dipole        = 3.70791254D+00 6.16858241D-02 1.51679344D-03
 ***** Axes restored to original set *****
 -------------------------------------------------------------------
 Center     Atomic                   Forces (Hartrees/Bohr)
 Number     Number              X              Y              Z
 -------------------------------------------------------------------
      1        8          -0.012107362    0.017715217    0.017073972
[...]
 ErrMax= 6.47D-07  0.00D+00 EMaxC= 1.00D-01 BMatC= 8.74D-11 BMatP= 8.46D-10
 IDIUse=1 WtCom= 1.00D+00 WtEn= 0.00D+00
 Coeff-Com: -0.695D-05 0.334D-04 0.232D-03 0.336D-03-0.114D-02-0.514D-02
 Coeff-Com: -0.160D-02 0.488D-01 0.720D-02-0.215D+00-0.394D-01 0.121D+01
 Coeff:     -0.695D-05 0.334D-04 0.232D-03 0.336D-03-0.114D-02-0.514D-02
 Coeff:     -0.160D-02 0.488D-01 0.720D-02-0.215D+00-0.394D-01 0.121D+01
 Gap=     0.289 Goal=   None    Shift=    0.000
 RMSDP=8.03D-07 MaxDP=3.13D-05 DE=-3.90D-09 OVMax= 1.85D-05

 Cycle  13  Pass 1  IDiag  1:
 RMSU=  1.82D-07    CP:  4.61D-01  9.00D-01  8.10D-01  1.10D+00  1.01D+00
                    CP:  1.43D+00  1.25D+00  1.95D+00  1.91D+00  1.63D+00
                    CP:  1.92D+00  1.39D+00
 E= -492.711596629844     Delta-E=       -0.000000000448 Rises=F Damp=F
 DIIS: error= 1.44D-07 at cycle  13 NSaved=  13.
 NSaved=13 IEnMin=13 EnMin= -492.711596629844     IErMin=13 ErrMin= 1.44D-07
 ErrMax= 1.44D-07  0.00D+00 EMaxC= 1.00D-01 BMatC= 1.06D-11 BMatP= 8.74D-11
 IDIUse=1 WtCom= 1.00D+00 WtEn= 0.00D+00
 Coeff-Com: -0.196D-05 0.512D-05 0.371D-04 0.121D-03 0.164D-03-0.156D-02
 Coeff-Com: -0.363D-02 0.862D-02 0.204D-01-0.109D-01-0.131D+00-0.801D-02
 Coeff-Com:  0.113D+01
 Coeff:     -0.196D-05 0.512D-05 0.371D-04 0.121D-03 0.164D-03-0.156D-02
 Coeff:     -0.363D-02 0.862D-02 0.204D-01-0.109D-01-0.131D+00-0.801D-02
 Coeff:      0.113D+01
 Gap=     0.289 Goal=   None    Shift=    0.000
 RMSDP=1.93D-07 MaxDP=7.95D-06 DE=-4.48D-10 OVMax= 4.41D-06

 Cycle  14  Pass 1  IDiag  1:
 RMSU=  5.19D-08    CP:  4.61D-01  9.00D-01  8.10D-01  1.10D+00  1.01D+00
                    CP:  1.43D+00  1.25D+00  1.96D+00  1.92D+00  1.64D+00
                    CP:  1.99D+00  1.51D+00  1.32D+00
 E= -492.711596629884     Delta-E=       -0.000000000040 Rises=F Damp=F
 DIIS: error= 6.11D-08 at cycle  14 NSaved=  14.
 NSaved=14 IEnMin=14 EnMin= -492.711596629884     IErMin=14 ErrMin= 6.11D-08
 ErrMax= 6.11D-08  0.00D+00 EMaxC= 1.00D-01 BMatC= 1.37D-12 BMatP= 1.06D-11
 IDIUse=1 WtCom= 1.00D+00 WtEn= 0.00D+00
 Coeff-Com:  0.466D-06-0.246D-05-0.210D-04-0.201D-04 0.112D-03 0.416D-03
 Coeff-Com: -0.386D-03-0.390D-02 0.100D-02 0.255D-01-0.137D-01-0.123D+00
 Coeff-Com:  0.154D+00 0.960D+00
 Coeff:      0.466D-06-0.246D-05-0.210D-04-0.201D-04 0.112D-03 0.416D-03
 Coeff:     -0.386D-03-0.390D-02 0.100D-02 0.255D-01-0.137D-01-0.123D+00
 Coeff:      0.154D+00 0.960D+00
 Gap=     0.289 Goal=   None    Shift=    0.000
 RMSDP=3.38D-08 MaxDP=8.46D-07 DE=-3.97D-11 OVMax= 8.06D-07

 Cycle  15  Pass 1  IDiag  1:
 RMSU=  2.16D-08    CP:  4.61D-01  9.00D-01  8.10D-01  1.10D+00  1.01D+00
                    CP:  1.43D+00  1.25D+00  1.96D+00  1.92D+00  1.64D+00
                    CP:  1.99D+00  1.52D+00  1.39D+00  1.16D+00
 E= -492.711596629882     Delta-E=        0.000000000001 Rises=F Damp=F
 DIIS: error= 2.01D-08 at cycle  15 NSaved=  15.
 NSaved=15 IEnMin=14 EnMin= -492.711596629884     IErMin=15 ErrMin= 2.01D-08
 ErrMax= 2.01D-08  0.00D+00 EMaxC= 1.00D-01 BMatC= 2.90D-13 BMatP= 1.37D-12
 IDIUse=1 WtCom= 1.00D+00 WtEn= 0.00D+00
 Coeff-Com:  0.370D-06-0.112D-05-0.920D-05-0.186D-04-0.179D-04 0.345D-03
 Coeff-Com:  0.506D-03-0.166D-02-0.391D-02 0.501D-02 0.213D-01-0.112D-01
 Coeff-Com: -0.206D+00 0.129D+00 0.107D+01
 Coeff:      0.370D-06-0.112D-05-0.920D-05-0.186D-04-0.179D-04 0.345D-03
 Coeff:      0.506D-03-0.166D-02-0.391D-02 0.501D-02 0.213D-01-0.112D-01
 Coeff:     -0.206D+00 0.129D+00 0.107D+01
 Gap=     0.289 Goal=   None    Shift=    0.000
 RMSDP=1.89D-08 MaxDP=5.88D-07 DE= 1.14D-12 OVMax= 4.75D-07

 Cycle  16  Pass 1  IDiag  1:
 RMSU=  6.27D-09    CP:  4.61D-01  9.00D-01  8.10D-01  1.10D+00  1.01D+00
                    CP:  1.43D+00  1.25D+00  1.96D+00  1.92D+00  1.65D+00
                    CP:  1.99D+00  1.52D+00  1.42D+00  1.34D+00  1.32D+00
 E= -492.711596629888     Delta-E=       -0.000000000005 Rises=F Damp=F
 DIIS: error= 6.76D-09 at cycle  16 NSaved=  16.
 NSaved=16 IEnMin=16 EnMin= -492.711596629888     IErMin=16 ErrMin= 6.76D-09
 ErrMax= 6.76D-09  0.00D+00 EMaxC= 1.00D-01 BMatC= 2.86D-14 BMatP= 2.90D-13
 IDIUse=1 WtCom= 1.00D+00 WtEn= 0.00D+00
 Coeff-Com: -0.665D-07 0.350D-06 0.268D-05 0.345D-05-0.166D-04-0.531D-04
 Coeff-Com: -0.178D-04 0.544D-03-0.169D-03-0.289D-02-0.405D-03 0.146D-01
 Coeff-Com: -0.492D-02-0.110D+00-0.925D-01 0.120D+01
 Coeff:     -0.665D-07 0.350D-06 0.268D-05 0.345D-05-0.166D-04-0.531D-04
 Coeff:     -0.178D-04 0.544D-03-0.169D-03-0.289D-02-0.405D-03 0.146D-01
 Coeff:     -0.492D-02-0.110D+00-0.925D-01 0.120D+01
 Gap=     0.289 Goal=   None    Shift=    0.000
 RMSDP=8.37D-09 MaxDP=2.81D-07 DE=-5.23D-12 OVMax= 1.78D-07

 SCF Done:  E(RHF) =  -492.711596630     A.U. after   16 cycles
            NFock= 16  Conv=0.84D-08     -V/T= 2.0013
 KE= 4.920747610529D+02 PE=-2.146722232004D+03 EE= 6.734497270013D+02
 Leave Link  502 at Sun Jul 11 16:16:53 2021, MaxMem=   262144000 cpu:             239.9 elap:              60.0
 (Enter /prod/apps/gaussian/g16b1/l801.exe)
 ExpMin= 2.97D-02 ExpMax= 1.17D+04 ExpMxC= 4.01D+02 IAcc=3 IRadAn=         5 AccDes= 0.00D+00
 HarFok:  IExCor=  205 AccDes= 0.00D+00 IRadAn=         5 IDoV=-2 UseB2=F ITyADJ=14
 ICtDFT= 12500011 ScaDFX=  1.000000  1.000000  1.000000  1.000000
 Largest valence mixing into a core orbital is  1.18D-04
 Largest core mixing into a valence orbital is  4.39D-05
 Range of M.O.s used for correlation:    11   275
 NBasis=   275 NAE=    36 NBE=    36 NFC=    10 NFV=     0
 NROrb=    265 NOA=    26 NOB=    26 NVA=   239 NVB=   239

 **** Warning!!: The largest alpha MO coefficient is  0.14177540D+03

 Leave Link  801 at Sun Jul 11 16:16:53 2021, MaxMem=   262144000 cpu:               0.5 elap:               0.2
 (Enter /prod/apps/gaussian/g16b1/l906.exe)
 FulOut=F Deriv=F AODrv=F NAtomX=    15
   MMem=          33  MDisk=          26 MDiskD=          26
  W3Min=     1833130 MinDsk=     2275006 NBas6D=         295
 NBas2D=       44080    NTT=       43660    LW2=     2000000
    MDV=   261548217 MDiskM=       12219 NBas2p=       43203
 Fully direct method using O(OVN) memory.
 IMap=   1   2   3   4   5   6   7   8   9  10  11  12  13  14  15  16  17  18  19  20
 IMap=  21  22  23  24  25  26
 JobTyp=1 Pass  1:  I=   1 to  26 NPSUse=  4 ParTrn=T ParDer=T DoDerP=F.
 Spin components of T(2) and E(2):
     alpha-alpha T2 =       0.7622826877D-01 E2=     -0.2141612296D+00
     alpha-beta  T2 =       0.3749525335D+00 E2=     -0.1115943058D+01
     beta-beta   T2 =       0.7622826877D-01 E2=     -0.2141612296D+00
 The integrals were generated   1 times.
 ANorm=    0.1235883923D+01
 E2 =    -0.1544265517D+01 EUMP2 =    -0.49425586214687D+03
 Leave Link  906 at Sun Jul 11 16:17:16 2021, MaxMem=   262144000 cpu:              91.2 elap:              22.8
 (Enter /prod/apps/gaussian/g16b1/l601.exe)
 Copying SCF densities to generalized density rwf, IOpCl= 0 IROHF=0.

 **********************************************************************

            Population analysis using the SCF Density.

 **********************************************************************

 Orbital symmetries:
       Occupied  (A) (A) (A) (A) (A) (A) (A) (A) (A) (A) (A) (A)
                 (A) (A) (A) (A) (A) (A) (A) (A) (A) (A) (A) (A)
                 (A) (A) (A) (A) (A) (A) (A) (A) (A) (A) (A) (A)
       Virtual   (A) (A) (A) (A) (A) (A) (A) (A) (A) (A) (A) (A)
                 (A) (A) (A) (A) (A) (A) (A) (A) (A) (A) (A) (A)
                 (A) (A) (A) (A) (A) (A) (A) (A) (A) (A) (A) (A)
                 (A) (A) (A) (A) (A) (A) (A) (A) (A) (A) (A) (A)
                 (A) (A) (A) (A) (A) (A) (A) (A) (A) (A) (A) (A)
                 (A) (A) (A) (A) (A) (A) (A) (A) (A) (A) (A) (A)
                 (A) (A) (A) (A) (A) (A) (A) (A) (A) (A) (A) (A)
                 (A) (A) (A) (A) (A) (A) (A) (A) (A) (A) (A) (A)
                 (A) (A) (A) (A) (A) (A) (A) (A) (A) (A) (A) (A)
                 (A) (A) (A) (A) (A) (A) (A) (A) (A) (A) (A) (A)
                 (A) (A) (A) (A) (A) (A) (A) (A) (A) (A) (A) (A)
                 (A) (A) (A) (A) (A) (A) (A) (A) (A) (A) (A) (A)
                 (A) (A) (A) (A) (A) (A) (A) (A) (A) (A) (A) (A)
                 (A) (A) (A) (A) (A) (A) (A) (A) (A) (A) (A) (A)
                 (A) (A) (A) (A) (A) (A) (A) (A) (A) (A) (A) (A)
                 (A) (A) (A) (A) (A) (A) (A) (A) (A) (A) (A) (A)
                 (A) (A) (A) (A) (A) (A) (A) (A) (A) (A) (A) (A)
                 (A) (A) (A) (A) (A) (A) (A) (A) (A) (A) (A) (A)
                 (A) (A) (A) (A) (A) (A) (A) (A) (A) (A) (A) (A)
                 (A) (A) (A) (A) (A) (A) (A) (A) (A) (A) (A)
 The electronic state is 1-A.
 Alpha  occ. eigenvalues --  -20.43089 -20.34500 -20.33559 -11.18623 -11.17726
 Alpha  occ. eigenvalues --  -11.13014 -11.11498 -11.10838 -11.10814 -11.09648
 Alpha  occ. eigenvalues --   -1.25148  -1.20534  -1.10426  -1.01641  -0.89453
 Alpha  occ. eigenvalues --   -0.87262  -0.72527  -0.68806  -0.61709  -0.56607
 Alpha  occ. eigenvalues --   -0.54569  -0.50951  -0.47498  -0.46560  -0.44451
 Alpha  occ. eigenvalues --   -0.43355  -0.41998  -0.40130  -0.38787  -0.36138
 Alpha  occ. eigenvalues --   -0.34446  -0.24944  -0.24362  -0.23196  -0.20922
 Alpha  occ. eigenvalues --   -0.17670
 Alpha virt. eigenvalues --    0.11253   0.12190   0.13358   0.15397   0.16504
 Alpha virt. eigenvalues --    0.20745   0.20878   0.21581   0.21897   0.22811
 Alpha virt. eigenvalues --    0.23169   0.23216   0.23516   0.24010   0.25217
 Alpha virt. eigenvalues --    0.25628   0.26385   0.26456   0.27421   0.27628
 Alpha virt. eigenvalues --    0.28377   0.29438   0.29926   0.30440   0.31315
 Alpha virt. eigenvalues --    0.32448   0.33560   0.33641   0.35098   0.37676
 Alpha virt. eigenvalues --    0.38951   0.39745   0.41067   0.41666   0.41898
 Alpha virt. eigenvalues --    0.41964   0.43286   0.43400   0.43776   0.45506
 Alpha virt. eigenvalues --    0.46277   0.46484   0.48029   0.48619   0.48750
 Alpha virt. eigenvalues --    0.49391   0.49527   0.50327   0.51751   0.52280
 Alpha virt. eigenvalues --    0.52564   0.54271   0.54744   0.55391   0.56410
 Alpha virt. eigenvalues --    0.57833   0.59841   0.60590   0.60873   0.63413
 Alpha virt. eigenvalues --    0.63703   0.64584   0.66680   0.66770   0.68486
 Alpha virt. eigenvalues --    0.70206   0.71564   0.71569   0.72413   0.73561
 Alpha virt. eigenvalues --    0.73897   0.75071   0.75594   0.78396   0.78484
 Alpha virt. eigenvalues --    0.79858   0.80359   0.80660   0.81555   0.81900
 Alpha virt. eigenvalues --    0.82810   0.83973   0.85222   0.85781   0.86847
 Alpha virt. eigenvalues --    0.87966   0.88802   0.90685   0.91076   0.92357
 Alpha virt. eigenvalues --    0.94990   0.97383   0.97846   0.98875   0.99328
 Alpha virt. eigenvalues --    1.01788   1.02242   1.03327   1.04162   1.04263
 Alpha virt. eigenvalues --    1.05698   1.07086   1.07837   1.08281   1.08597
 Alpha virt. eigenvalues --    1.09901   1.10347   1.12109   1.13768   1.14604
 Alpha virt. eigenvalues --    1.15135   1.17795   1.19102   1.19744   1.19838
 Alpha virt. eigenvalues --    1.21730   1.22844   1.24772   1.26720   1.29542
 Alpha virt. eigenvalues --    1.30164   1.32813   1.34780   1.39701   1.39827
 Alpha virt. eigenvalues --    1.39972   1.43820   1.47460   1.49521   1.52011
 Alpha virt. eigenvalues --    1.55351   1.55633   1.56305   1.56957   1.59301
 Alpha virt. eigenvalues --    1.61393   1.63796   1.64454   1.64467   1.66652
 Alpha virt. eigenvalues --    1.67581   1.69585   1.69866   1.69913   1.72321
 Alpha virt. eigenvalues --    1.73908   1.75008   1.77405   1.79575   1.81417
 Alpha virt. eigenvalues --    1.82922   1.83315   1.83963   1.85595   1.86428
 Alpha virt. eigenvalues --    1.87958   1.88195   1.92010   1.95183   1.96965
 Alpha virt. eigenvalues --    1.96973   1.98724   2.00503   2.03568   2.05071
 Alpha virt. eigenvalues --    2.05741   2.05908   2.07496   2.07801   2.10144
 Alpha virt. eigenvalues --    2.11667   2.13205   2.13335   2.16211   2.16635
 Alpha virt. eigenvalues --    2.19003   2.22928   2.25121   2.25532   2.26406
 Alpha virt. eigenvalues --    2.29832   2.30851   2.34619   2.35258   2.36896
 Alpha virt. eigenvalues --    2.39391   2.39598   2.44151   2.44759   2.46780
 Alpha virt. eigenvalues --    2.47034   2.49243   2.49253   2.52182   2.54943
 Alpha virt. eigenvalues --    2.55241   2.57578   2.59940   2.70598   2.74945
 Alpha virt. eigenvalues --    2.76188   2.77590   2.83623   2.85616   2.92948
 Alpha virt. eigenvalues --    2.93246   2.96714   3.01098   3.09502   3.10286
 Alpha virt. eigenvalues --    3.14087   3.21446   3.25490   3.30601   3.36173
 Alpha virt. eigenvalues --    3.37077   3.41705   3.43540   3.54101   3.60288
 Alpha virt. eigenvalues --    3.71472   3.79131   3.90767   3.93687   3.94693
 Alpha virt. eigenvalues --    3.95882   3.96621   4.01992   4.04532   4.04896
 Alpha virt. eigenvalues --    4.06726   4.12657   4.14829   4.20825   4.28611
 Alpha virt. eigenvalues --    4.35157   4.43957   4.64608   4.82126
          Condensed to atoms (all electrons):
               1          2          3          4          5          6
     1  O    9.133725   0.194483  -0.121916   0.094661   0.040291  -0.082715
     2  C    0.194483   7.325853   0.228864  -0.747270  -0.704415   0.025532
     3  O   -0.121916   0.228864   8.935862   0.064099  -0.027026  -0.007232
     4  C    0.094661  -0.747270   0.064099  10.792782  -2.415874   0.253146
     5  C    0.040291  -0.704415  -0.027026  -2.415874  13.121125  -0.518063
     6  O   -0.082715   0.025532  -0.007232   0.253146  -0.518063   9.196852
     7  H    0.017510  -0.065710   0.006618  -0.063282   0.013885   0.301033
     8  C   -0.091341  -0.353803  -0.012728   0.733828  -3.344931  -0.040176
     9  H    0.003502   0.009152   0.000314  -0.109447   0.986779  -0.070752
    10  C   -0.011627   0.223393  -0.007147  -2.249028   1.831827  -0.132078
    11  H   -0.000297  -0.009661   0.000264   0.056854  -0.177876  -0.004271
    12  C   -0.021206  -0.293180  -0.110581   1.126038  -2.700167   0.071072
    13  H    0.000477   0.014262   0.000638  -0.088447   0.072113   0.002036
    14  C   -0.078816  -0.755037   0.044867  -2.820597  -0.293083   0.030877
    15  H    0.004064   0.065338  -0.030975   0.497818  -0.050360  -0.000603
               7          8          9         10         11         12
     1  O    0.017510  -0.091341   0.003502  -0.011627  -0.000297  -0.021206
     2  C   -0.065710  -0.353803   0.009152   0.223393  -0.009661  -0.293180
     3  O    0.006618  -0.012728   0.000314  -0.007147   0.000264  -0.110581
     4  C   -0.063282   0.733828  -0.109447  -2.249028   0.056854   1.126038
     5  C    0.013885  -3.344931   0.986779   1.831827  -0.177876  -2.700167
     6  O    0.301033  -0.040176  -0.070752  -0.132078  -0.004271   0.071072
     7  H    0.488845   0.022127  -0.002115   0.006696  -0.000219  -0.011575
     8  C    0.022127  12.577928  -1.231896  -2.766124   0.441369   2.931209
     9  H   -0.002115  -1.231896   1.791093   0.326584  -0.078822  -0.263431
    10  C    0.006696  -2.766124   0.326584   9.059488  -0.651220  -2.468666
    11  H   -0.000219   0.441369  -0.078822  -0.651220   1.682697   0.417372
    12  C   -0.011575   2.931209  -0.263431  -2.468666   0.417372  10.694094
    13  H    0.000009  -0.187247  -0.014724   0.319204  -0.065322  -0.797086
    14  C    0.000710  -3.582430   0.167614   2.222579  -0.138307  -3.303968
    15  H   -0.002274   0.109711   0.008502  -0.161668  -0.009943   0.291532
              13         14         15
     1  O    0.000477  -0.078816   0.004064
     2  C    0.014262  -0.755037   0.065338
     3  O    0.000638   0.044867  -0.030975
     4  C   -0.088447  -2.820597   0.497818
     5  C    0.072113  -0.293083  -0.050360
     6  O    0.002036   0.030877  -0.000603
     7  H    0.000009   0.000710  -0.002274
     8  C   -0.187247  -3.582430   0.109711
     9  H   -0.014724   0.167614   0.008502
    10  C    0.319204   2.222579  -0.161668
    11  H   -0.065322  -0.138307  -0.009943
    12  C   -0.797086  -3.303968   0.291532
    13  H    1.702125   0.588519  -0.084569
    14  C    0.588519  14.517397  -0.850120
    15  H   -0.084569  -0.850120   1.808281
 Mulliken charges:
               1
     1  O   -1.080794
     2  C    0.842199
     3  O   -0.963921
     4  C    0.874719
     5  C    0.165776
     6  O   -1.024660
     7  H    0.287742
     8  C    0.794505
     9  H   -0.522352
    10  C    0.457786
    11  H   -0.462618
    12  C    0.438543
    13  H   -0.461988
    14  C    0.249796
    15  H   -0.594732
 Sum of Mulliken charges =  -1.00000
 Mulliken charges with hydrogens summed into heavy atoms:
               1
     1  O   -1.080794
     2  C    0.842199
     3  O   -0.963921
     4  C    0.874719
     5  C    0.165776
     6  O   -0.736918
     8  C    0.272152
    10  C   -0.004832
    12  C   -0.023445
    14  C   -0.344936
 Electronic spatial extent (au):  <R**2>=           1354.9993
 Charge=             -1.0000 electrons
 Dipole moment (field-independent basis, Debye):
    X=              8.1366    Y=              0.2118    Z=              0.0005  Tot=              8.1393
 Quadrupole moment (field-independent basis, Debye-Ang):
   XX=            -86.6616   YY=            -72.3967   ZZ=            -63.3573
   XY=             -4.7424   XZ=             -0.0061   YZ=             -0.0072
 Traceless Quadrupole moment (field-independent basis, Debye-Ang):
   XX=            -12.5231   YY=              1.7418   ZZ=             10.7813
   XY=             -4.7424   XZ=             -0.0061   YZ=             -0.0072
 Octapole moment (field-independent basis, Debye-Ang**2):
  XXX=             57.8293  YYY=             -1.3696  ZZZ=             -0.0012  XYY=             14.0440
  XXY=             19.0305  XXZ=              0.0064  XZZ=            -12.4629  YZZ=              3.8650
  YYZ=             -0.0005  XYZ=              0.0096
 Hexadecapole moment (field-independent basis, Debye-Ang**3):
 XXXX=          -1317.5411 YYYY=           -652.8796 ZZZZ=            -73.6232 XXXY=            -23.8794
 XXXZ=             -0.0481 YYYX=            -27.8331 YYYZ=             -0.0223 ZZZX=              0.0040
 ZZZY=              0.0104 XXYY=           -329.6767 XXZZ=           -221.1034 YYZZ=           -122.6904
 XXYZ=             -0.0238 YYXZ=             -0.0159 ZZXY=              3.1139
 N-N= 4.884861473204D+02 E-N=-2.146722232165D+03  KE= 4.920747610529D+02
 Leave Link  601 at Sun Jul 11 16:17:16 2021, MaxMem=   262144000 cpu:               0.2 elap:               0.1
 (Enter /prod/apps/gaussian/g16b1/l9999.exe)
 1\1\GINC-PIRINEUS37\SP\RMP2-FC\Aug-CC-pVDZ\C7H5O3(1-)\UBATOR02\11-Jul-
 2021\0\\#p mp2/aug-cc-pVDZ scf=tight maxdisk=180GB geom=allcheck\\SET_
 328_BBB299_conf1.geo_000_000 geometry\\-1,1\O,0,-2.5436720506,-1.05849
 96033,0.3185153866\C,0,-1.8528774496,-0.106715781,0.8349131456\O,0,-2.
 2670117588,0.6657288667,1.730793122\C,0,-0.4463616622,0.0759832656,0.3
 114276836\C,0,0.0785484768,-0.7657179512,-0.6988304822\O,0,-0.65341216
 95,-1.7644485303,-1.2376873838\H,0,-1.5450454194,-1.7077806383,-0.7509
 61741\C,0,1.3903240849,-0.5686903285,-1.1615012604\H,0,1.7714550709,-1
 .2260681093,-1.9363985872\C,0,2.1744469799,0.4509526561,-0.6303389292\
 H,0,3.1865140682,0.5917334004,-0.9978131272\C,0,1.6681734691,1.2912895
 306,0.3693303787\H,0,2.2815411982,2.0853121512,0.7821092707\C,0,0.3681
 698112,1.0925949358,0.8257021981\H,0,-0.055792649,1.7243261354,1.59874
 03257\\Version=ES64L-G16RevB.01\State=1-A\HF=-492.7115966\MP2=-494.255
 8621\RMSD=8.373e-09\PG=C01 [X(C7H5O3)]\\@


 THERE ARE TWO THINGS THAT EVERYBODY THINKS THEY CAN DO BETTER THAN
 ANYONE ELSE - PUNCH THE FIRE, AND EDIT A DAILY PAPER.
 -- UNCLE ESEK, "CENTURY MAGAZINE", 1885
 Job cpu time:       0 days  0 hours  5 minutes 37.6 seconds.
 Elapsed time:       0 days  0 hours  1 minutes 24.6 seconds.
 File lengths (MBytes):  RWF=     44 Int=      0 D2E=      0 Chk=      8 Scr=      1
 Normal termination of Gaussian 16 at Sun Jul 11 16:17:16 2021.
