 Entering Gaussian System, Link 0=g16
 Initial command:
 /prod/apps/gaussian/g16b1/l1.exe "/tmp/ubator02/1834606/Gau-35765.inp" -scrdir="/tmp/ubator02/1834606/"
 Entering Link 1 = /prod/apps/gaussian/g16b1/l1.exe PID=     35766.
  
 Copyright (c) 1988-2017, Gaussian, Inc.  All Rights Reserved.
  
 This is part of the Gaussian(R) 16 program.  It is based on
 the Gaussian(R) 09 system (copyright 2009, Gaussian, Inc.),
 the Gaussian(R) 03 system (copyright 2003, Gaussian, Inc.),
 the Gaussian(R) 98 system (copyright 1998, Gaussian, Inc.),
 the Gaussian(R) 94 system (copyright 1995, Gaussian, Inc.),
 the Gaussian 92(TM) system (copyright 1992, Gaussian, Inc.),
 the Gaussian 90(TM) system (copyright 1990, Gaussian, Inc.),
 the Gaussian 88(TM) system (copyright 1988, Gaussian, Inc.),
 the Gaussian 86(TM) system (copyright 1986, Carnegie Mellon
 University), and the Gaussian 82(TM) system (copyright 1983,
 Carnegie Mellon University). Gaussian is a federally registered
 trademark of Gaussian, Inc.
  
 This software contains proprietary and confidential information,
 including trade secrets, belonging to Gaussian, Inc.
  
 This software is provided under written license and may be
 used, copied, transmitted, or stored only in accord with that
 written license.
  
 The following legend is applicable only to US Government
 contracts under FAR:
  
                    RESTRICTED RIGHTS LEGEND
  
 Use, reproduction and disclosure by the US Government is
 subject to restrictions as set forth in subparagraphs (a)
 and (c) of the Commercial Computer Software - Restricted
 Rights clause in FAR 52.227-19.
  
 Gaussian, Inc.
 340 Quinnipiac St., Bldg. 40, Wallingford CT 06492
  
  
 ---------------------------------------------------------------
 Warning -- This program may not be used in any manner that
 competes with the business of Gaussian, Inc. or will provide
 assistance to any competitor of Gaussian, Inc.  The licensee
 of this program is prohibited from giving any competitor of
 Gaussian, Inc. access to this program.  By using this program,
 the user acknowledges that Gaussian, Inc. is engaged in the
 business of creating and licensing software in the field of
 computational chemistry and represents and warrants to the
 licensee that it is not a competitor of Gaussian, Inc. and that
 it will not use this program in any manner prohibited above.
 ---------------------------------------------------------------
  

 Cite this work as:
 Gaussian 16, Revision B.01,
 M. J. Frisch, G. W. Trucks, H. B. Schlegel, G. E. Scuseria, 
 M. A. Robb, J. R. Cheeseman, G. Scalmani, V. Barone, 
 G. A. Petersson, H. Nakatsuji, X. Li, M. Caricato, A. V. Marenich, 
 J. Bloino, B. G. Janesko, R. Gomperts, B. Mennucci, H. P. Hratchian, 
 J. V. Ortiz, A. F. Izmaylov, J. L. Sonnenberg, D. Williams-Young, 
 F. Ding, F. Lipparini, F. Egidi, J. Goings, B. Peng, A. Petrone, 
 T. Henderson, D. Ranasinghe, V. G. Zakrzewski, J. Gao, N. Rega, 
 G. Zheng, W. Liang, M. Hada, M. Ehara, K. Toyota, R. Fukuda, 
 J. Hasegawa, M. Ishida, T. Nakajima, Y. Honda, O. Kitao, H. Nakai, 
 T. Vreven, K. Throssell, J. A. Montgomery, Jr., J. E. Peralta, 
 F. Ogliaro, M. J. Bearpark, J. J. Heyd, E. N. Brothers, K. N. Kudin, 
 V. N. Staroverov, T. A. Keith, R. Kobayashi, J. Normand, 
 K. Raghavachari, A. P. Rendell, J. C. Burant, S. S. Iyengar, 
 J. Tomasi, M. Cossi, J. M. Millam, M. Klene, C. Adamo, R. Cammi, 
 J. W. Ochterski, R. L. Martin, K. Morokuma, O. Farkas, 
 J. B. Foresman, and D. J. Fox, Gaussian, Inc., Wallingford CT, 2016.
 
 ******************************************
 Gaussian 16:  ES64L-G16RevB.01 20-Dec-2017
                11-Jul-2021 
 ******************************************
 %mem=800MB
 %nproc=4
 Will use up to    4 processors via shared memory.
 %chk=SET_328_BBB87_conf1.geo_075_075.chk
 -----------------------------------------------------------
 #p b3lyp/6-31G(d) opt freq scrf=(iefpcm,read,solvent=water)
 -----------------------------------------------------------
 1/18=20,19=15,26=3,38=1,40=2/1,3;
 2/9=110,12=2,17=6,18=5,40=1/2;
 3/5=1,6=6,7=1,11=2,25=1,30=1,70=2203,71=1,72=1,74=-5/1,2,3;
 4//1;
 5/5=2,38=5,53=1/2;
 6/7=2,8=2,9=2,10=2,28=1/1;
 7//1,2,3,16;
 1/18=20,19=15,26=3/3(2);
 2/9=110/2;
 99//99;
 2/9=110/2;
 3/5=1,6=6,7=1,11=2,25=1,30=1,70=2205,71=1,72=1,74=-5/1,2,3;
 4/5=5,16=3,69=1/1;
 5/5=2,38=5,53=1/2;
 7//1,2,3,16;
 1/18=20,19=15,26=3/3(-5);
 2/9=110/2;
 6/7=2,8=2,9=2,10=2,19=2,28=1/1;
 99/9=1/99;
 Leave Link    1 at Sun Jul 11 16:21:08 2021, MaxMem=   104857600 cpu:               0.1 elap:               0.0
 (Enter /prod/apps/gaussian/g16b1/l101.exe)
 ----------------------------------------
 SET_328_BBB87_conf1.geo_075_075 geometry
 ----------------------------------------
 Symbolic Z-matrix:
 Charge =  1 Multiplicity = 1
 N                    -1.927    -1.438    -0.099 
 H                    -1.51     -1.206     0.78 
 H                    -2.18     -2.405    -0.103 
 C                    -0.986    -1.183    -1.159 
 H                    -1.431    -1.386    -2.137 
 H                    -0.055    -1.733    -1.004 
 C                    -0.642     0.254    -1.153 
 H                    -1.563     0.84     -1.126 
 H                    -0.13      0.386    -2.109 
 C                     0.288     0.784    -0.087 
 N                     1.637     0.546    -0.161 
 C                     2.243     0.998     1.012 
 H                     3.317     0.903     1.116 
 C                     1.375     1.496     1.882 
 H                     1.547     1.78      2.914 
 S                    -0.251     1.56      1.377 
 H                    -2.745    -0.879    -0.238 
 
 ITRead=  0  0  0  0  0  0  0  0  0  0  0  0  0  0  0  0  0
 MicOpt= -1 -1 -1 -1 -1 -1 -1 -1 -1 -1 -1 -1 -1 -1 -1 -1 -1
 NAtoms=     17 NQM=       17 NQMF=       0 NMMI=      0 NMMIF=      0
                NMic=       0 NMicF=      0.
                    Isotopes and Nuclear Properties:
 (Nuclear quadrupole moments (NQMom) in fm**2, nuclear magnetic moments (NMagM)
  in nuclear magnetons)

  Atom         1           2           3           4           5           6           7           8           9          10
 IAtWgt=          14           1           1          12           1           1          12           1           1          12
 AtmWgt=  14.0030740   1.0078250   1.0078250  12.0000000   1.0078250   1.0078250  12.0000000   1.0078250   1.0078250  12.0000000
 NucSpn=           2           1           1           0           1           1           0           1           1           0
 AtZEff=  -0.0000000  -0.0000000  -0.0000000  -0.0000000  -0.0000000  -0.0000000  -0.0000000  -0.0000000  -0.0000000  -0.0000000
 NQMom=    2.0440000   0.0000000   0.0000000   0.0000000   0.0000000   0.0000000   0.0000000   0.0000000   0.0000000   0.0000000
 NMagM=    0.4037610   2.7928460   2.7928460   0.0000000   2.7928460   2.7928460   0.0000000   2.7928460   2.7928460   0.0000000
 AtZNuc=   7.0000000   1.0000000   1.0000000   6.0000000   1.0000000   1.0000000   6.0000000   1.0000000   1.0000000   6.0000000

  Atom        11          12          13          14          15          16          17
 IAtWgt=          14          12           1          12           1          32           1
 AtmWgt=  14.0030740  12.0000000   1.0078250  12.0000000   1.0078250  31.9720718   1.0078250
 NucSpn=           2           0           1           0           1           0           1
 AtZEff=  -0.0000000  -0.0000000  -0.0000000  -0.0000000  -0.0000000  -0.0000000  -0.0000000
 NQMom=    2.0440000   0.0000000   0.0000000   0.0000000   0.0000000   0.0000000   0.0000000
 NMagM=    0.4037610   0.0000000   2.7928460   0.0000000   2.7928460   0.0000000   2.7928460
 AtZNuc=   7.0000000   6.0000000   1.0000000   6.0000000   1.0000000  16.0000000   1.0000000
 Leave Link  101 at Sun Jul 11 16:21:08 2021, MaxMem=   104857600 cpu:               0.5 elap:               0.1
 (Enter /prod/apps/gaussian/g16b1/l103.exe)

 GradGradGradGradGradGradGradGradGradGradGradGradGradGradGradGradGradGrad
 Berny optimization.
 Initialization pass.
                           ----------------------------
                           !    Initial Parameters    !
                           ! (Angstroms and Degrees)  !
 --------------------------                            --------------------------
 ! Name  Definition              Value          Derivative Info.                !
 --------------------------------------------------------------------------------
 ! R1    R(1,2)                  1.0002         estimate D2E/DX2                !
 ! R2    R(1,3)                  0.9996         estimate D2E/DX2                !
 ! R3    R(1,4)                  1.4402         estimate D2E/DX2                !
 ! R4    R(1,17)                 1.0005         estimate D2E/DX2                !
 ! R5    R(4,5)                  1.0935         estimate D2E/DX2                !
 ! R6    R(4,6)                  1.0924         estimate D2E/DX2                !
 ! R7    R(4,7)                  1.4776         estimate D2E/DX2                !
 ! R8    R(7,8)                  1.092          estimate D2E/DX2                !
 ! R9    R(7,9)                  1.0925         estimate D2E/DX2                !
 ! R10   R(7,10)                 1.5107         estimate D2E/DX2                !
 ! R11   R(10,11)                1.3718         estimate D2E/DX2                !
 ! R12   R(10,16)                1.7424         estimate D2E/DX2                !
 ! R13   R(11,12)                1.3955         estimate D2E/DX2                !
 ! R14   R(12,13)                1.0832         estimate D2E/DX2                !
 ! R15   R(12,14)                1.326          estimate D2E/DX2                !
 ! R16   R(14,15)                1.0841         estimate D2E/DX2                !
 ! R17   R(14,16)                1.7038         estimate D2E/DX2                !
 ! A1    A(2,1,3)              109.4783         estimate D2E/DX2                !
 ! A2    A(2,1,4)              109.4729         estimate D2E/DX2                !
 ! A3    A(2,1,17)             109.4744         estimate D2E/DX2                !
 ! A4    A(3,1,4)              109.4954         estimate D2E/DX2                !
 ! A5    A(3,1,17)             109.4532         estimate D2E/DX2                !
 ! A6    A(4,1,17)             109.4532         estimate D2E/DX2                !
 ! A7    A(1,4,5)              111.0704         estimate D2E/DX2                !
 ! A8    A(1,4,6)              111.3019         estimate D2E/DX2                !
 ! A9    A(1,4,7)              108.7428         estimate D2E/DX2                !
 ! A10   A(5,4,6)              112.3505         estimate D2E/DX2                !
 ! A11   A(5,4,7)              106.1955         estimate D2E/DX2                !
 ! A12   A(6,4,7)              106.8974         estimate D2E/DX2                !
 ! A13   A(4,7,8)              109.0045         estimate D2E/DX2                !
 ! A14   A(4,7,9)              102.8888         estimate D2E/DX2                !
 ! A15   A(4,7,10)             119.1684         estimate D2E/DX2                !
 ! A16   A(8,7,9)              110.6148         estimate D2E/DX2                !
 ! A17   A(8,7,10)             108.271          estimate D2E/DX2                !
 ! A18   A(9,7,10)             106.6537         estimate D2E/DX2                !
 ! A19   A(7,10,11)            120.427          estimate D2E/DX2                !
 ! A20   A(7,10,16)            123.9662         estimate D2E/DX2                !
 ! A21   A(11,10,16)           115.2635         estimate D2E/DX2                !
 ! A22   A(10,11,12)           108.995          estimate D2E/DX2                !
 ! A23   A(11,12,13)           118.8721         estimate D2E/DX2                !
 ! A24   A(11,12,14)           112.8842         estimate D2E/DX2                !
 ! A25   A(13,12,14)           128.2415         estimate D2E/DX2                !
 ! A26   A(12,14,15)           128.2504         estimate D2E/DX2                !
 ! A27   A(12,14,16)           116.381          estimate D2E/DX2                !
 ! A28   A(15,14,16)           115.0697         estimate D2E/DX2                !
 ! A29   A(10,16,14)            86.3933         estimate D2E/DX2                !
 ! D1    D(2,1,4,5)           -177.4748         estimate D2E/DX2                !
 ! D2    D(2,1,4,6)             56.5362         estimate D2E/DX2                !
 ! D3    D(2,1,4,7)            -60.9639         estimate D2E/DX2                !
 ! D4    D(3,1,4,5)             62.5007         estimate D2E/DX2                !
 ! D5    D(3,1,4,6)            -63.4882         estimate D2E/DX2                !
 ! D6    D(3,1,4,7)            179.0116         estimate D2E/DX2                !
 ! D7    D(17,1,4,5)           -57.4809         estimate D2E/DX2                !
 ! D8    D(17,1,4,6)           176.5301         estimate D2E/DX2                !
 ! D9    D(17,1,4,7)            59.03           estimate D2E/DX2                !
 ! D10   D(1,4,7,8)            -49.7162         estimate D2E/DX2                !
 ! D11   D(1,4,7,9)           -167.156          estimate D2E/DX2                !
 ! D12   D(1,4,7,10)            75.1721         estimate D2E/DX2                !
 ! D13   D(5,4,7,8)             69.8802         estimate D2E/DX2                !
 ! D14   D(5,4,7,9)            -47.5595         estimate D2E/DX2                !
 ! D15   D(5,4,7,10)          -165.2315         estimate D2E/DX2                !
 ! D16   D(6,4,7,8)           -169.9819         estimate D2E/DX2                !
 ! D17   D(6,4,7,9)             72.5783         estimate D2E/DX2                !
 ! D18   D(6,4,7,10)           -45.0936         estimate D2E/DX2                !
 ! D19   D(4,7,10,11)           75.6323         estimate D2E/DX2                !
 ! D20   D(4,7,10,16)          -97.3155         estimate D2E/DX2                !
 ! D21   D(8,7,10,11)         -159.127          estimate D2E/DX2                !
 ! D22   D(8,7,10,16)           27.9253         estimate D2E/DX2                !
 ! D23   D(9,7,10,11)          -40.0641         estimate D2E/DX2                !
 ! D24   D(9,7,10,16)          146.9882         estimate D2E/DX2                !
 ! D25   D(7,10,11,12)        -173.0037         estimate D2E/DX2                !
 ! D26   D(16,10,11,12)          0.5314         estimate D2E/DX2                !
 ! D27   D(7,10,16,14)         171.492          estimate D2E/DX2                !
 ! D28   D(11,10,16,14)         -1.7855         estimate D2E/DX2                !
 ! D29   D(10,11,12,13)       -178.9685         estimate D2E/DX2                !
 ! D30   D(10,11,12,14)          1.5261         estimate D2E/DX2                !
 ! D31   D(11,12,14,15)        170.2976         estimate D2E/DX2                !
 ! D32   D(11,12,14,16)         -3.0622         estimate D2E/DX2                !
 ! D33   D(13,12,14,15)         -9.151          estimate D2E/DX2                !
 ! D34   D(13,12,14,16)        177.4892         estimate D2E/DX2                !
 ! D35   D(12,14,16,10)          2.739          estimate D2E/DX2                !
 ! D36   D(15,14,16,10)       -171.5072         estimate D2E/DX2                !
 --------------------------------------------------------------------------------
 Trust Radius=3.00D-01 FncErr=1.00D-07 GrdErr=1.00D-06 EigMax=2.50D+02 EigMin=1.00D-04
 Number of steps in this run=     92 maximum allowed number of steps=    102.
 GradGradGradGradGradGradGradGradGradGradGradGradGradGradGradGradGradGrad

 Leave Link  103 at Sun Jul 11 16:21:08 2021, MaxMem=   104857600 cpu:               0.1 elap:               0.0
 (Enter /prod/apps/gaussian/g16b1/l202.exe)
                          Input orientation:                          
 ---------------------------------------------------------------------
 Center     Atomic      Atomic             Coordinates (Angstroms)
 Number     Number       Type             X           Y           Z
 ---------------------------------------------------------------------
      1          7           0       -1.927000   -1.438000   -0.099000
      2          1           0       -1.510000   -1.206000    0.780000
      3          1           0       -2.180000   -2.405000   -0.103000
      4          6           0       -0.986000   -1.183000   -1.159000
      5          1           0       -1.431000   -1.386000   -2.137000
      6          1           0       -0.055000   -1.733000   -1.004000
      7          6           0       -0.642000    0.254000   -1.153000
      8          1           0       -1.563000    0.840000   -1.126000
      9          1           0       -0.130000    0.386000   -2.109000
     10          6           0        0.288000    0.784000   -0.087000
     11          7           0        1.637000    0.546000   -0.161000
     12          6           0        2.243000    0.998000    1.012000
     13          1           0        3.317000    0.903000    1.116000
     14          6           0        1.375000    1.496000    1.882000
     15          1           0        1.547000    1.780000    2.914000
     16         16           0       -0.251000    1.560000    1.377000
     17          1           0       -2.745000   -0.879000   -0.238000
 ---------------------------------------------------------------------
                    Distance matrix (angstroms):
                    1          2          3          4          5
     1  N    0.000000
     2  H    1.000177   0.000000
     3  H    0.999557   1.632847   0.000000
     4  C    1.440176   2.008688   2.008496   0.000000
     5  H    2.098133   2.923616   2.395103   1.093489   0.000000
     6  H    2.100103   2.361654   2.403957   1.092376   1.815895
     7  C    2.371709   2.573230   3.246263   1.477613   2.068907
     8  H    2.525175   2.796741   3.457925   2.103936   2.448392
     9  H    3.255194   3.575638   4.002027   2.024104   2.198492
    10  C    3.137460   2.818615   4.032493   2.577081   3.444758
    11  N    4.079485   3.722713   4.825065   3.296297   4.129143
    12  C    4.955534   4.358492   5.690919   4.460543   5.394250
    13  H    5.869927   5.278324   6.530378   5.295548   6.193951
    14  C    4.841066   4.103466   5.638799   4.690314   5.686117
    15  H    5.612697   4.776547   6.364514   5.637800   6.663681
    16  S    3.738389   3.097135   4.651093   3.807305   4.734925
    17  H    1.000463   1.633548   1.632828   2.008666   2.364286
                    6          7          8          9         10
     6  H    0.000000
     7  C    2.077243   0.000000
     8  H    2.984841   1.091955   0.000000
     9  H    2.390985   1.092476   1.796077   0.000000
    10  C    2.700709   1.510681   2.123407   2.102763   0.000000
    11  N    2.960972   2.502632   3.355244   2.634880   1.371831
    12  C    4.099198   3.682932   4.368254   3.968163   2.252914
    13  H    4.776325   4.609039   5.370748   4.748655   3.261320
    14  C    4.560739   3.849945   4.255613   4.407404   2.359126
    15  H    5.500754   4.864246   5.184332   5.475956   3.403395
    16  S    4.068344   2.873920   2.916291   3.680369   1.742410
    17  H    2.924410   2.558031   2.267296   3.455299   3.462291
                   11         12         13         14         15
    11  N    0.000000
    12  C    1.395517   0.000000
    13  H    2.140228   1.083198   0.000000
    14  C    2.268258   1.326020   2.170200   0.000000
    15  H    3.314586   2.171070   2.671111   1.084096   0.000000
    16  S    2.637837   2.582461   3.637361   1.703818   2.375621
    17  H    4.608522   5.474100   6.461941   5.206671   5.952029
                   16         17
    16  S    0.000000
    17  H    3.844084   0.000000
 Stoichiometry    C5H9N2S(1+)
 Framework group  C1[X(C5H9N2S)]
 Deg. of freedom    45
 Full point group                 C1      NOp   1
 Largest Abelian subgroup         C1      NOp   1
 Largest concise Abelian subgroup C1      NOp   1
                         Standard orientation:                         
 ---------------------------------------------------------------------
 Center     Atomic      Atomic             Coordinates (Angstroms)
 Number     Number       Type             X           Y           Z
 ---------------------------------------------------------------------
      1          7           0       -2.551910   -0.673166   -0.731551
      2          1           0       -1.711010   -0.996584   -1.165879
      3          1           0       -3.274903   -0.600477   -1.417927
      4          6           0       -2.320005    0.618843   -0.139066
      5          1           0       -3.211558    0.977966    0.382358
      6          1           0       -1.954733    1.334851   -0.878791
      7          6           0       -1.266353    0.487723    0.888536
      8          1           0       -1.514045   -0.347184    1.547282
      9          1           0       -1.332351    1.435665    1.427567
     10          6           0        0.172241    0.336649    0.452900
     11          7           0        0.875001    1.419562   -0.011158
     12          6           0        2.111306    0.986494   -0.492272
     13          1           0        2.806077    1.719495   -0.883835
     14          6           0        2.265939   -0.327754   -0.407607
     15          1           0        3.053549   -0.939632   -0.832507
     16         16           0        0.995576   -1.193771    0.326688
     17          1           0       -2.830638   -1.320259   -0.021264
 ---------------------------------------------------------------------
 Rotational constants (GHZ):           3.3239493           1.1812147           1.0036150
 Leave Link  202 at Sun Jul 11 16:21:08 2021, MaxMem=   104857600 cpu:               0.1 elap:               0.0
 (Enter /prod/apps/gaussian/g16b1/l301.exe)
 Standard basis: 6-31G(d) (6D, 7F)
 Ernie: Thresh=  0.10000D-02 Tol=  0.10000D-05 Strict=F.
 There are   142 symmetry adapted cartesian basis functions of A   symmetry.
 There are   142 symmetry adapted basis functions of A   symmetry.
   142 basis functions,   284 primitive gaussians,   142 cartesian basis functions
    34 alpha electrons       34 beta electrons
       nuclear repulsion energy       448.1444427646 Hartrees.
 IExCor=  402 DFT=T Ex+Corr=B3LYP ExCW=0 ScaHFX=  0.200000
 ScaDFX=  0.800000  0.720000  1.000000  0.810000 ScalE2=  1.000000  1.000000
 IRadAn=      5 IRanWt=     -1 IRanGd=            0 ICorTp=0 IEmpDi=  4
 NAtoms=   17 NActive=   17 NUniq=   17 SFac= 1.00D+00 NAtFMM=   60 NAOKFM=F Big=F
 Integral buffers will be    131072 words long.
 Raffenetti 2 integral format.
 Two-electron integral symmetry is turned on.
 Using the following non-standard input for PCM:
 MSTModel=DFT cav MSTCharged
 --- end of non-standard input.
 MST model for solvation energy: B3LYP parametrization.
 MST cavity parameters:
 ISph   IAn     Re0     Alpha   Atom Type   QCorr
 ------------------------------------------------
   1      7     1.70     1.15      NH         T
   2      1     0.90     1.15      NH         T
   3      1     0.90     1.15      NH         T
   4      6     1.50     1.25      CH2        F
   5      1     1.20     1.25      CH2        F
   6      1     1.20     1.25      CH2        F
   7      6     1.50     1.25      CH2        F
   8      1     1.20     1.25      CH2        F
   9      1     1.20     1.25      CH2        F
  10      6     1.50     1.25      C          F
  11      7     1.40     1.25      N          F
  12      6     1.50     1.25      CH         F
  13      1     1.20     1.25      CH         F
  14      6     1.50     1.25      CH         F
  15      1     1.20     1.25      CH         F
  16     16     1.75     1.25      S          F
  17      1     0.90     1.15      NH         T
 ------------------------------------------------------------------------------
 Polarizable Continuum Model (PCM)
 =================================
 Model                : PCM.
 Atomic radii         : MST.
 Polarization charges : Total charges.
 Charge compensation  : None.
 Solution method      : On-the-fly selection.
 Cavity type          : Scaled VdW (van der Waals Surface) (Alpha=1.250).
 Cavity algorithm     : GePol (No added spheres)
                        Default sphere list used, NSphG=   17.
                        Lebedev-Laikov grids with approx.  5.0 points / Ang**2.
                        Smoothing algorithm: York/Karplus (Gamma=1.0000).
                        Polarization charges: spherical gaussians, with
                                              point-specific exponents (IZeta= 3).
                        Self-potential: point-specific (ISelfS= 7).
                        Self-field    : sphere-specific E.n sum rule (ISelfD= 2).
 1st derivatives      : Analytical E(r).r(x)/FMM algorithm (CHGder, D1EAlg=3).
                        Cavity 1st derivative terms included.
 Solvent              : Water, Eps=  78.355300 Eps(inf)=   1.777849
 ------------------------------------------------------------------------------
 Spheres list:
 ISph  on   Nord     Re0    Alpha      Xe            Ye            Ze
    1   N      1    1.7000  1.150     -2.551910     -0.673166     -0.731551
    2   H      2    0.9000  1.150     -1.711010     -0.996584     -1.165879
    3   H      3    0.9000  1.150     -3.274903     -0.600477     -1.417927
    4   C      4    1.5000  1.250     -2.320005      0.618843     -0.139066
    5   H      5    1.2000  1.250     -3.211558      0.977966      0.382358
    6   H      6    1.2000  1.250     -1.954733      1.334851     -0.878791
    7   C      7    1.5000  1.250     -1.266353      0.487723      0.888536
    8   H      8    1.2000  1.250     -1.514045     -0.347184      1.547282
    9   H      9    1.2000  1.250     -1.332351      1.435665      1.427567
   10   C     10    1.5000  1.250      0.172241      0.336649      0.452900
   11   N     11    1.4000  1.250      0.875001      1.419562     -0.011158
   12   C     12    1.5000  1.250      2.111306      0.986494     -0.492272
   13   H     13    1.2000  1.250      2.806077      1.719495     -0.883835
   14   C     14    1.5000  1.250      2.265939     -0.327754     -0.407607
   15   H     15    1.2000  1.250      3.053549     -0.939632     -0.832507
   16   S     16    1.7500  1.250      0.995576     -1.193771      0.326688
   17   H     17    0.9000  1.150     -2.830638     -1.320259     -0.021264
 ------------------------------------------------------------------------------
 GePol: Number of generator spheres                  =      17
 GePol: Total number of spheres                      =      17
 GePol: Number of exposed spheres                    =      17 (100.00%)
 GePol: Number of points                             =    1287
 GePol: Average weight of points                     =       0.14
 GePol: Minimum weight of points                     =   0.55D-08
 GePol: Maximum weight of points                     =    0.22001
 GePol: Number of points with low weight             =      80
 GePol: Fraction of low-weight points (<1% of avg)   =       6.22%
 GePol: Cavity surface area                          =    176.667 Ang**2
 GePol: Cavity volume                                =    158.436 Ang**3
 PCM non-electrostatic energy =         0.0002929973 Hartrees.
 Nuclear repulsion after PCM non-electrostatic terms =      448.1447357619 Hartrees.
 Leave Link  301 at Sun Jul 11 16:21:08 2021, MaxMem=   104857600 cpu:               0.3 elap:               0.1
 (Enter /prod/apps/gaussian/g16b1/l302.exe)
 NPDir=0 NMtPBC=     1 NCelOv=     1 NCel=       1 NClECP=     1 NCelD=      1
         NCelK=      1 NCelE2=     1 NClLst=     1 CellRange=     0.0.
 One-electron integrals computed using PRISM.
 One-electron integral symmetry used in STVInt
 NBasis=   142 RedAO= T EigKep=  2.28D-03  NBF=   142
 NBsUse=   142 1.00D-06 EigRej= -1.00D+00 NBFU=   142
 Precomputing XC quadrature grid using
 IXCGrd= 4 IRadAn=           5 IRanWt=          -1 IRanGd=           0 AccXCQ= 0.00D+00.
 Generated NRdTot=       0 NPtTot=           0 NUsed=           0 NTot=          32
 NSgBfM=   142   142   142   142   142 MxSgAt=    17 MxSgA2=    17.
 Leave Link  302 at Sun Jul 11 16:21:09 2021, MaxMem=   104857600 cpu:               0.9 elap:               0.2
 (Enter /prod/apps/gaussian/g16b1/l303.exe)
 DipDrv:  MaxL=1.
 Leave Link  303 at Sun Jul 11 16:21:09 2021, MaxMem=   104857600 cpu:               0.1 elap:               0.0
 (Enter /prod/apps/gaussian/g16b1/l401.exe)
 ExpMin= 1.17D-01 ExpMax= 2.19D+04 ExpMxC= 3.30D+03 IAcc=3 IRadAn=         5 AccDes= 0.00D+00
 Harris functional with IExCor=  402 and IRadAn=       5 diagonalized for initial guess.
 HarFok:  IExCor=  402 AccDes= 0.00D+00 IRadAn=         5 IDoV= 1 UseB2=F ITyADJ=14
 ICtDFT=  3500011 ScaDFX=  1.000000  1.000000  1.000000  1.000000
 FoFCou: FMM=F IPFlag=           0 FMFlag=      100000 FMFlg1=           0
         NFxFlg=           0 DoJE=T BraDBF=F KetDBF=T FulRan=T
         wScrn=  0.000000 ICntrl=       500 IOpCl=  0 I1Cent=   200000004 NGrid=           0
         NMat0=    1 NMatS0=      1 NMatT0=    0 NMatD0=    1 NMtDS0=    0 NMtDT0=    0
 Petite list used in FoFCou.
 Harris En= -703.370024032633    
 JPrj=0 DoOrth=F DoCkMO=F.
 Leave Link  401 at Sun Jul 11 16:21:10 2021, MaxMem=   104857600 cpu:               2.9 elap:               0.8
 (Enter /prod/apps/gaussian/g16b1/l502.exe)
 Keep R1 ints in memory in canonical form, NReq=55421297.
 FoFCou: FMM=F IPFlag=           0 FMFlag=           0 FMFlg1=           0
         NFxFlg=           0 DoJE=F BraDBF=F KetDBF=F FulRan=T
         wScrn=  0.000000 ICntrl=       600 IOpCl=  0 I1Cent=           0 NGrid=           0
         NMat0=    1 NMatS0=  10153 NMatT0=    0 NMatD0=    1 NMtDS0=    0 NMtDT0=    0
 Symmetry not used in FoFCou.
 Two-electron integral symmetry not used.
 Closed shell SCF:
 Using DIIS extrapolation, IDIIS=  1040.
 NGot=   104857600 LenX=    53267901 LenY=    53247296
 Requested convergence on RMS density matrix=1.00D-08 within 128 cycles.
 Requested convergence on MAX density matrix=1.00D-06.
 Requested convergence on             energy=1.00D-06.
 No special actions if energy rises.

 Cycle   1  Pass 1  IDiag  1:
 Inv3:  Mode=1 IEnd=     4969107.
 Iteration    1 A*A^-1 deviation from unit magnitude is 3.44D-15 for    367.
 Iteration    1 A*A^-1 deviation from orthogonality  is 2.27D-15 for    647    284.
 Iteration    1 A^-1*A deviation from unit magnitude is 3.22D-15 for    367.
 Iteration    1 A^-1*A deviation from orthogonality  is 5.58D-14 for    684    656.
 E= -703.271573824162    
 DIIS: error= 2.61D-02 at cycle   1 NSaved=   1.
 NSaved= 1 IEnMin= 1 EnMin= -703.271573824162     IErMin= 1 ErrMin= 2.61D-02
 ErrMax= 2.61D-02  0.00D+00 EMaxC= 1.00D-01 BMatC= 2.05D-01 BMatP= 2.05D-01
 IDIUse=3 WtCom= 7.39D-01 WtEn= 2.61D-01
 Coeff-Com:  0.100D+01
 Coeff-En:   0.100D+01
 Coeff:      0.100D+01
 Gap=     0.250 Goal=   None    Shift=    0.000
 GapD=    0.250 DampG=1.000 DampE=0.500 DampFc=0.5000 IDamp=-1.
 Damping current iteration by 5.00D-01
 RMSDP=8.10D-03 MaxDP=2.36D-01              OVMax= 2.65D-01

 Cycle   2  Pass 1  IDiag  1:
 E= -703.344315085410     Delta-E=       -0.072741261248 Rises=F Damp=T
 DIIS: error= 9.10D-03 at cycle   2 NSaved=   2.
 NSaved= 2 IEnMin= 2 EnMin= -703.344315085410     IErMin= 2 ErrMin= 9.10D-03
 ErrMax= 9.10D-03  0.00D+00 EMaxC= 1.00D-01 BMatC= 2.04D-02 BMatP= 2.05D-01
 IDIUse=3 WtCom= 9.09D-01 WtEn= 9.10D-02
 Coeff-Com:  0.152D+00 0.848D+00
 Coeff-En:   0.284D+00 0.716D+00
 Coeff:      0.164D+00 0.836D+00
 Gap=     0.248 Goal=   None    Shift=    0.000
 RMSDP=2.22D-03 MaxDP=7.48D-02 DE=-7.27D-02 OVMax= 2.49D-01

 Cycle   3  Pass 1  IDiag  1:
 E= -703.468576520941     Delta-E=       -0.124261435531 Rises=F Damp=F
 DIIS: error= 7.14D-03 at cycle   3 NSaved=   3.
 NSaved= 3 IEnMin= 3 EnMin= -703.468576520941     IErMin= 3 ErrMin= 7.14D-03
 ErrMax= 7.14D-03  0.00D+00 EMaxC= 1.00D-01 BMatC= 1.55D-02 BMatP= 2.04D-02
 IDIUse=3 WtCom= 9.29D-01 WtEn= 7.14D-02
 Coeff-Com:  0.394D-01 0.459D+00 0.502D+00
 Coeff-En:   0.000D+00 0.000D+00 0.100D+01
 Coeff:      0.366D-01 0.426D+00 0.537D+00
 Gap=     0.210 Goal=   None    Shift=    0.000
 RMSDP=1.11D-03 MaxDP=3.92D-02 DE=-1.24D-01 OVMax= 5.81D-02

 Cycle   4  Pass 1  IDiag  1:
 E= -703.479552660488     Delta-E=       -0.010976139547 Rises=F Damp=F
 DIIS: error= 3.04D-03 at cycle   4 NSaved=   4.
 NSaved= 4 IEnMin= 4 EnMin= -703.479552660488     IErMin= 4 ErrMin= 3.04D-03
 ErrMax= 3.04D-03  0.00D+00 EMaxC= 1.00D-01 BMatC= 4.14D-03 BMatP= 1.55D-02
 IDIUse=3 WtCom= 9.70D-01 WtEn= 3.04D-02
 Coeff-Com: -0.844D-02 0.768D-01 0.346D+00 0.586D+00
 Coeff-En:   0.000D+00 0.000D+00 0.239D+00 0.761D+00
 Coeff:     -0.818D-02 0.744D-01 0.343D+00 0.591D+00
 Gap=     0.210 Goal=   None    Shift=    0.000
 RMSDP=4.25D-04 MaxDP=1.34D-02 DE=-1.10D-02 OVMax= 2.27D-02

 Cycle   5  Pass 1  IDiag  1:
 E= -703.483222876658     Delta-E=       -0.003670216169 Rises=F Damp=F
 DIIS: error= 5.00D-04 at cycle   5 NSaved=   5.
 NSaved= 5 IEnMin= 5 EnMin= -703.483222876658     IErMin= 5 ErrMin= 5.00D-04
 ErrMax= 5.00D-04  0.00D+00 EMaxC= 1.00D-01 BMatC= 1.05D-04 BMatP= 4.14D-03
 IDIUse=3 WtCom= 9.95D-01 WtEn= 5.00D-03
 Coeff-Com: -0.394D-02 0.102D-01 0.127D+00 0.267D+00 0.599D+00
 Coeff-En:   0.000D+00 0.000D+00 0.000D+00 0.000D+00 0.100D+01
 Coeff:     -0.392D-02 0.102D-01 0.126D+00 0.266D+00 0.601D+00
 Gap=     0.211 Goal=   None    Shift=    0.000
 RMSDP=1.05D-04 MaxDP=4.76D-03 DE=-3.67D-03 OVMax= 3.34D-03

 Cycle   6  Pass 1  IDiag  1:
 E= -703.483320372139     Delta-E=       -0.000097495481 Rises=F Damp=F
 DIIS: error= 1.37D-04 at cycle   6 NSaved=   6.
 NSaved= 6 IEnMin= 6 EnMin= -703.483320372139     IErMin= 6 ErrMin= 1.37D-04
 ErrMax= 1.37D-04  0.00D+00 EMaxC= 1.00D-01 BMatC= 1.13D-05 BMatP= 1.05D-04
 IDIUse=3 WtCom= 9.99D-01 WtEn= 1.37D-03
 Coeff-Com: -0.129D-02-0.706D-03 0.403D-01 0.962D-01 0.307D+00 0.559D+00
 Coeff-En:   0.000D+00 0.000D+00 0.000D+00 0.000D+00 0.000D+00 0.100D+01
 Coeff:     -0.129D-02-0.705D-03 0.402D-01 0.961D-01 0.306D+00 0.559D+00
 Gap=     0.211 Goal=   None    Shift=    0.000
 RMSDP=2.76D-05 MaxDP=8.60D-04 DE=-9.75D-05 OVMax= 1.55D-03

 Cycle   7  Pass 1  IDiag  1:
 E= -703.483331058105     Delta-E=       -0.000010685966 Rises=F Damp=F
 DIIS: error= 5.35D-05 at cycle   7 NSaved=   7.
 NSaved= 7 IEnMin= 7 EnMin= -703.483331058105     IErMin= 7 ErrMin= 5.35D-05
 ErrMax= 5.35D-05  0.00D+00 EMaxC= 1.00D-01 BMatC= 8.59D-07 BMatP= 1.13D-05
 IDIUse=1 WtCom= 1.00D+00 WtEn= 0.00D+00
 Coeff-Com: -0.354D-03-0.111D-02 0.117D-01 0.300D-01 0.103D+00 0.279D+00
 Coeff-Com:  0.578D+00
 Coeff:     -0.354D-03-0.111D-02 0.117D-01 0.300D-01 0.103D+00 0.279D+00
 Coeff:      0.578D+00
 Gap=     0.211 Goal=   None    Shift=    0.000
 RMSDP=9.27D-06 MaxDP=2.28D-04 DE=-1.07D-05 OVMax= 5.11D-04

 Cycle   8  Pass 1  IDiag  1:
 E= -703.483331855951     Delta-E=       -0.000000797846 Rises=F Damp=F
 DIIS: error= 2.10D-05 at cycle   8 NSaved=   8.
 NSaved= 8 IEnMin= 8 EnMin= -703.483331855951     IErMin= 8 ErrMin= 2.10D-05
 ErrMax= 2.10D-05  0.00D+00 EMaxC= 1.00D-01 BMatC= 1.41D-07 BMatP= 8.59D-07
 IDIUse=1 WtCom= 1.00D+00 WtEn= 0.00D+00
 Coeff-Com:  0.537D-04-0.577D-03-0.404D-03-0.186D-03 0.124D-03 0.592D-01
 Coeff-Com:  0.321D+00 0.621D+00
 Coeff:      0.537D-04-0.577D-03-0.404D-03-0.186D-03 0.124D-03 0.592D-01
 Coeff:      0.321D+00 0.621D+00
 Gap=     0.211 Goal=   None    Shift=    0.000
 RMSDP=3.15D-06 MaxDP=9.16D-05 DE=-7.98D-07 OVMax= 2.08D-04

 Cycle   9  Pass 1  IDiag  1:
 E= -703.483332006677     Delta-E=       -0.000000150726 Rises=F Damp=F
 DIIS: error= 4.19D-06 at cycle   9 NSaved=   9.
 NSaved= 9 IEnMin= 9 EnMin= -703.483332006677     IErMin= 9 ErrMin= 4.19D-06
 ErrMax= 4.19D-06  0.00D+00 EMaxC= 1.00D-01 BMatC= 6.53D-09 BMatP= 1.41D-07
 IDIUse=1 WtCom= 1.00D+00 WtEn= 0.00D+00
 Coeff-Com:  0.586D-04-0.168D-03-0.961D-03-0.223D-02-0.788D-02 0.548D-02
 Coeff-Com:  0.902D-01 0.266D+00 0.649D+00
 Coeff:      0.586D-04-0.168D-03-0.961D-03-0.223D-02-0.788D-02 0.548D-02
 Coeff:      0.902D-01 0.266D+00 0.649D+00
 Gap=     0.211 Goal=   None    Shift=    0.000
 RMSDP=9.11D-07 MaxDP=4.16D-05 DE=-1.51D-07 OVMax= 3.05D-05

 Cycle  10  Pass 1  IDiag  1:
 E= -703.483332014090     Delta-E=       -0.000000007414 Rises=F Damp=F
 DIIS: error= 8.41D-07 at cycle  10 NSaved=  10.
 NSaved=10 IEnMin=10 EnMin= -703.483332014090     IErMin=10 ErrMin= 8.41D-07
 ErrMax= 8.41D-07  0.00D+00 EMaxC= 1.00D-01 BMatC= 3.13D-10 BMatP= 6.53D-09
 IDIUse=1 WtCom= 1.00D+00 WtEn= 0.00D+00
 Coeff-Com:  0.157D-04-0.177D-04-0.290D-03-0.731D-03-0.282D-02-0.241D-02
 Coeff-Com:  0.594D-02 0.478D-01 0.224D+00 0.729D+00
 Coeff:      0.157D-04-0.177D-04-0.290D-03-0.731D-03-0.282D-02-0.241D-02
 Coeff:      0.594D-02 0.478D-01 0.224D+00 0.729D+00
 Gap=     0.211 Goal=   None    Shift=    0.000
 RMSDP=2.02D-07 MaxDP=5.04D-06 DE=-7.41D-09 OVMax= 8.09D-06

 Cycle  11  Pass 1  IDiag  1:
 E= -703.483332014401     Delta-E=       -0.000000000311 Rises=F Damp=F
 DIIS: error= 5.04D-07 at cycle  11 NSaved=  11.
 NSaved=11 IEnMin=11 EnMin= -703.483332014401     IErMin=11 ErrMin= 5.04D-07
 ErrMax= 5.04D-07  0.00D+00 EMaxC= 1.00D-01 BMatC= 6.70D-11 BMatP= 3.13D-10
 IDIUse=1 WtCom= 1.00D+00 WtEn= 0.00D+00
 Coeff-Com:  0.286D-05 0.410D-05-0.639D-04-0.178D-03-0.765D-03-0.156D-02
 Coeff-Com: -0.447D-02 0.324D-02 0.597D-01 0.374D+00 0.570D+00
 Coeff:      0.286D-05 0.410D-05-0.639D-04-0.178D-03-0.765D-03-0.156D-02
 Coeff:     -0.447D-02 0.324D-02 0.597D-01 0.374D+00 0.570D+00
 Gap=     0.211 Goal=   None    Shift=    0.000
 RMSDP=6.17D-08 MaxDP=2.54D-06 DE=-3.11D-10 OVMax= 4.19D-06

 Cycle  12  Pass 1  IDiag  1:
 E= -703.483332014469     Delta-E=       -0.000000000068 Rises=F Damp=F
 DIIS: error= 1.03D-07 at cycle  12 NSaved=  12.
 NSaved=12 IEnMin=12 EnMin= -703.483332014469     IErMin=12 ErrMin= 1.03D-07
 ErrMax= 1.03D-07  0.00D+00 EMaxC= 1.00D-01 BMatC= 3.97D-12 BMatP= 6.70D-11
 IDIUse=1 WtCom= 1.00D+00 WtEn= 0.00D+00
 Coeff-Com: -0.785D-06 0.394D-05 0.111D-04 0.228D-04 0.437D-04-0.263D-03
 Coeff-Com: -0.255D-02-0.440D-02-0.535D-02 0.596D-01 0.233D+00 0.720D+00
 Coeff:     -0.785D-06 0.394D-05 0.111D-04 0.228D-04 0.437D-04-0.263D-03
 Coeff:     -0.255D-02-0.440D-02-0.535D-02 0.596D-01 0.233D+00 0.720D+00
 Gap=     0.211 Goal=   None    Shift=    0.000
 RMSDP=1.63D-08 MaxDP=4.25D-07 DE=-6.78D-11 OVMax= 6.94D-07

 Cycle  13  Pass 1  IDiag  1:
 E= -703.483332014471     Delta-E=       -0.000000000002 Rises=F Damp=F
 DIIS: error= 1.13D-08 at cycle  13 NSaved=  13.
 NSaved=13 IEnMin=13 EnMin= -703.483332014471     IErMin=13 ErrMin= 1.13D-08
 ErrMax= 1.13D-08  0.00D+00 EMaxC= 1.00D-01 BMatC= 5.47D-14 BMatP= 3.97D-12
 IDIUse=1 WtCom= 1.00D+00 WtEn= 0.00D+00
 Coeff-Com: -0.258D-06 0.512D-06 0.448D-05 0.122D-04 0.335D-04 0.136D-04
 Coeff-Com: -0.357D-03-0.103D-02-0.379D-02-0.214D-02 0.270D-01 0.129D+00
 Coeff-Com:  0.851D+00
 Coeff:     -0.258D-06 0.512D-06 0.448D-05 0.122D-04 0.335D-04 0.136D-04
 Coeff:     -0.357D-03-0.103D-02-0.379D-02-0.214D-02 0.270D-01 0.129D+00
 Coeff:      0.851D+00
 Gap=     0.211 Goal=   None    Shift=    0.000
 RMSDP=2.92D-09 MaxDP=6.49D-08 DE=-1.59D-12 OVMax= 1.16D-07

 Error on total polarization charges =  0.01374
 SCF Done:  E(RB3LYP) =  -703.483332014     A.U. after   13 cycles
            NFock= 13  Conv=0.29D-08     -V/T= 2.0058
 KE= 6.994514014215D+02 PE=-2.538274911536D+03 EE= 6.871954423383D+02
 Leave Link  502 at Sun Jul 11 16:21:24 2021, MaxMem=   104857600 cpu:              54.8 elap:              14.4
 (Enter /prod/apps/gaussian/g16b1/l601.exe)
 Copying SCF densities to generalized density rwf, IOpCl= 0 IROHF=0.

 **********************************************************************

            Population analysis using the SCF Density.

 **********************************************************************

 Orbital symmetries:
       Occupied  (A) (A) (A) (A) (A) (A) (A) (A) (A) (A) (A) (A)
                 (A) (A) (A) (A) (A) (A) (A) (A) (A) (A) (A) (A)
                 (A) (A) (A) (A) (A) (A) (A) (A) (A) (A)
       Virtual   (A) (A) (A) (A) (A) (A) (A) (A) (A) (A) (A) (A)
                 (A) (A) (A) (A) (A) (A) (A) (A) (A) (A) (A) (A)
                 (A) (A) (A) (A) (A) (A) (A) (A) (A) (A) (A) (A)
                 (A) (A) (A) (A) (A) (A) (A) (A) (A) (A) (A) (A)
                 (A) (A) (A) (A) (A) (A) (A) (A) (A) (A) (A) (A)
                 (A) (A) (A) (A) (A) (A) (A) (A) (A) (A) (A) (A)
                 (A) (A) (A) (A) (A) (A) (A) (A) (A) (A) (A) (A)
                 (A) (A) (A) (A) (A) (A) (A) (A) (A) (A) (A) (A)
                 (A) (A) (A) (A) (A) (A) (A) (A) (A) (A) (A) (A)
 The electronic state is 1-A.
 Alpha  occ. eigenvalues --  -88.92916 -14.45099 -14.34854 -10.26736 -10.25186
 Alpha  occ. eigenvalues --  -10.22228 -10.21755 -10.21399  -7.99094  -5.95452
 Alpha  occ. eigenvalues --   -5.95118  -5.94839  -1.02802  -0.95741  -0.81721
 Alpha  occ. eigenvalues --   -0.80836  -0.74201  -0.66625  -0.60717  -0.59979
 Alpha  occ. eigenvalues --   -0.58289  -0.55765  -0.51826  -0.50558  -0.45391
 Alpha  occ. eigenvalues --   -0.43943  -0.42038  -0.39602  -0.39006  -0.38071
 Alpha  occ. eigenvalues --   -0.37309  -0.29149  -0.28976  -0.25056
 Alpha virt. eigenvalues --   -0.03981   0.00597   0.03512   0.06243   0.09624
 Alpha virt. eigenvalues --    0.10903   0.11665   0.12315   0.12663   0.14768
 Alpha virt. eigenvalues --    0.15424   0.17238   0.17734   0.19362   0.20741
 Alpha virt. eigenvalues --    0.23329   0.25005   0.29733   0.30936   0.36698
 Alpha virt. eigenvalues --    0.37636   0.42245   0.43385   0.48846   0.49653
 Alpha virt. eigenvalues --    0.51430   0.53358   0.54073   0.55736   0.57212
 Alpha virt. eigenvalues --    0.58613   0.61898   0.63701   0.64686   0.68167
 Alpha virt. eigenvalues --    0.71618   0.71883   0.74684   0.75704   0.79837
 Alpha virt. eigenvalues --    0.81003   0.82649   0.83500   0.84121   0.85216
 Alpha virt. eigenvalues --    0.85580   0.86621   0.87808   0.89797   0.91331
 Alpha virt. eigenvalues --    0.92286   0.94488   0.95802   0.98452   1.00764
 Alpha virt. eigenvalues --    1.02529   1.04389   1.07245   1.13335   1.16582
 Alpha virt. eigenvalues --    1.28892   1.31125   1.34627   1.39040   1.41752
 Alpha virt. eigenvalues --    1.47703   1.50247   1.52454   1.64160   1.65859
 Alpha virt. eigenvalues --    1.69668   1.73797   1.80728   1.85151   1.89934
 Alpha virt. eigenvalues --    1.92917   1.93709   1.96003   1.99964   2.02022
 Alpha virt. eigenvalues --    2.11638   2.13210   2.19778   2.24256   2.25792
 Alpha virt. eigenvalues --    2.26573   2.28569   2.30372   2.33938   2.39377
 Alpha virt. eigenvalues --    2.43218   2.45470   2.49393   2.53815   2.58084
 Alpha virt. eigenvalues --    2.68068   2.70037   2.73974   2.93268   3.01152
 Alpha virt. eigenvalues --    3.79551   3.91944   3.93607   4.09662   4.18965
 Alpha virt. eigenvalues --    4.32697   4.36910   4.48881
          Condensed to atoms (all electrons):
               1          2          3          4          5          6
     1  N    6.687744   0.297969   0.305539   0.248052  -0.034283  -0.032731
     2  H    0.297969   0.273005  -0.009682  -0.023119   0.003767  -0.002702
     3  H    0.305539  -0.009682   0.264776  -0.019403  -0.002389  -0.002216
     4  C    0.248052  -0.023119  -0.019403   5.003238   0.388068   0.379324
     5  H   -0.034283   0.003767  -0.002389   0.388068   0.480864  -0.020540
     6  H   -0.032731  -0.002702  -0.002216   0.379324  -0.020540   0.488927
     7  C   -0.069910  -0.005313   0.005156   0.364883  -0.036489  -0.044077
     8  H   -0.005304  -0.000354   0.000016  -0.045057  -0.002558   0.005739
     9  H    0.005365   0.000094  -0.000168  -0.041418  -0.006203   0.000241
    10  C   -0.002294   0.008535  -0.000089  -0.043342   0.004710  -0.006082
    11  N   -0.000025   0.000222  -0.000005  -0.005380   0.000025   0.007234
    12  C    0.000021  -0.000093  -0.000001   0.000192   0.000003  -0.000180
    13  H    0.000000  -0.000001   0.000000   0.000004  -0.000000   0.000004
    14  C   -0.000020  -0.000330   0.000001   0.000099  -0.000000  -0.000013
    15  H   -0.000000   0.000002   0.000000   0.000002  -0.000000  -0.000001
    16  S    0.000702   0.005520   0.000022  -0.002757  -0.000202   0.000840
    17  H    0.303157  -0.010495  -0.009692  -0.021982  -0.002787   0.003682
               7          8          9         10         11         12
     1  N   -0.069910  -0.005304   0.005365  -0.002294  -0.000025   0.000021
     2  H   -0.005313  -0.000354   0.000094   0.008535   0.000222  -0.000093
     3  H    0.005156   0.000016  -0.000168  -0.000089  -0.000005  -0.000001
     4  C    0.364883  -0.045057  -0.041418  -0.043342  -0.005380   0.000192
     5  H   -0.036489  -0.002558  -0.006203   0.004710   0.000025   0.000003
     6  H   -0.044077   0.005739   0.000241  -0.006082   0.007234  -0.000180
     7  C    5.146444   0.369596   0.367508   0.350348  -0.053751   0.006133
     8  H    0.369596   0.525118  -0.015827  -0.035755   0.002987  -0.000200
     9  H    0.367508  -0.015827   0.508495  -0.030537   0.000612   0.000052
    10  C    0.350348  -0.035755  -0.030537   5.072692   0.458220  -0.091196
    11  N   -0.053751   0.002987   0.000612   0.458220   6.842670   0.404377
    12  C    0.006133  -0.000200   0.000052  -0.091196   0.404377   4.732411
    13  H   -0.000189   0.000003  -0.000007   0.006424  -0.041285   0.375701
    14  C    0.003808   0.000045  -0.000057  -0.051286  -0.067406   0.602776
    15  H   -0.000110  -0.000002   0.000002   0.003468   0.005332  -0.016893
    16  S   -0.056399   0.001983   0.004067   0.291932  -0.084413  -0.073744
    17  H   -0.002241   0.006312   0.000044  -0.000394   0.000013  -0.000001
              13         14         15         16         17
     1  N    0.000000  -0.000020  -0.000000   0.000702   0.303157
     2  H   -0.000001  -0.000330   0.000002   0.005520  -0.010495
     3  H    0.000000   0.000001   0.000000   0.000022  -0.009692
     4  C    0.000004   0.000099   0.000002  -0.002757  -0.021982
     5  H   -0.000000  -0.000000  -0.000000  -0.000202  -0.002787
     6  H    0.000004  -0.000013  -0.000001   0.000840   0.003682
     7  C   -0.000189   0.003808  -0.000110  -0.056399  -0.002241
     8  H    0.000003   0.000045  -0.000002   0.001983   0.006312
     9  H   -0.000007  -0.000057   0.000002   0.004067   0.000044
    10  C    0.006424  -0.051286   0.003468   0.291932  -0.000394
    11  N   -0.041285  -0.067406   0.005332  -0.084413   0.000013
    12  C    0.375701   0.602776  -0.016893  -0.073744  -0.000001
    13  H    0.521556  -0.048610  -0.001274   0.004332   0.000000
    14  C   -0.048610   5.245019   0.347231   0.325729  -0.000001
    15  H   -0.001274   0.347231   0.499765  -0.039729   0.000000
    16  S    0.004332   0.325729  -0.039729  15.320923   0.000369
    17  H    0.000000  -0.000001   0.000000   0.000369   0.271165
 Mulliken charges:
               1
     1  N   -0.703982
     2  H    0.462975
     3  H    0.468135
     4  C   -0.181403
     5  H    0.228016
     6  H    0.222551
     7  C   -0.345397
     8  H    0.193259
     9  H    0.207738
    10  C    0.064646
    11  N   -0.469426
    12  C    0.060643
    13  H    0.183343
    14  C   -0.356984
    15  H    0.202208
    16  S    0.300826
    17  H    0.462853
 Sum of Mulliken charges =   1.00000
 Mulliken charges with hydrogens summed into heavy atoms:
               1
     1  N    0.689980
     4  C    0.269164
     7  C    0.055600
    10  C    0.064646
    11  N   -0.469426
    12  C    0.243986
    14  C   -0.154777
    16  S    0.300826
 Electronic spatial extent (au):  <R**2>=           1190.9162
 Charge=              1.0000 electrons
 Dipole moment (field-independent basis, Debye):
    X=            -11.4216    Y=             -4.7635    Z=             -3.2100  Tot=             12.7847
 Quadrupole moment (field-independent basis, Debye-Ang):
   XX=            -12.0675   YY=            -50.2781   ZZ=            -47.9604
   XY=              5.5836   XZ=              4.0653   YZ=              1.9749
 Traceless Quadrupole moment (field-independent basis, Debye-Ang):
   XX=             24.7012   YY=            -13.5095   ZZ=            -11.1918
   XY=              5.5836   XZ=              4.0653   YZ=              1.9749
 Octapole moment (field-independent basis, Debye-Ang**2):
  XXX=            -98.7967  YYY=            -17.1468  ZZZ=            -10.0182  XYY=            -15.0151
  XXY=            -20.9184  XXZ=            -32.6084  XZZ=            -20.7166  YZZ=             -4.1789
  YYZ=             -4.3928  XYZ=             -7.0063
 Hexadecapole moment (field-independent basis, Debye-Ang**3):
 XXXX=           -670.5264 YYYY=           -344.5616 ZZZZ=           -150.4135 XXXY=             67.3902
 XXXZ=             49.9331 YYYX=             14.4459 YYYZ=              2.1435 ZZZX=             28.0146
 ZZZY=              7.5277 XXYY=           -173.4907 XXZZ=           -154.8957 YYZZ=            -76.9092
 XXYZ=             14.6865 YYXZ=             -3.3237 ZZXY=             11.0694
 N-N= 4.481447357619D+02 E-N=-2.538274911317D+03  KE= 6.994514014215D+02
 No NMR shielding tensors so no spin-rotation constants.
 Leave Link  601 at Sun Jul 11 16:21:24 2021, MaxMem=   104857600 cpu:               0.5 elap:               0.2
 (Enter /prod/apps/gaussian/g16b1/l701.exe)
 ... and contract with generalized density number  0.
 Compute integral first derivatives.
 D1PCM: PCM CHGder 1st derivatives, ID1Alg=3 FixD1E=F DoIter=F DoCFld=F I1PDM=0.
 GePol: Maximum number of non-zero 1st derivatives   =     285
 Leave Link  701 at Sun Jul 11 16:21:25 2021, MaxMem=   104857600 cpu:               3.4 elap:               0.9
 (Enter /prod/apps/gaussian/g16b1/l702.exe)
 L702 exits ... SP integral derivatives will be done elsewhere.
 Leave Link  702 at Sun Jul 11 16:21:25 2021, MaxMem=   104857600 cpu:               0.1 elap:               0.0
 (Enter /prod/apps/gaussian/g16b1/l703.exe)
 Integral derivatives from FoFJK, PRISM(SPDF).
 Compute integral first derivatives, UseDBF=F ICtDFT=           0.
 Calling FoFJK, ICntrl=      2127 FMM=F ISym2X=0 I1Cent= 0 IOpClX= 0 NMat=1 NMatS=1 NMatT=0.
 FoFJK:  IHMeth= 1 ICntrl=    2127 DoSepK=F KAlg= 0 I1Cent=           0 FoldK=F
 IRaf=         0 NMat=       1 IRICut=       1 DoRegI=T DoRafI=F ISym2E= 0 IDoP0=0 IntGTp=1.
 FoFCou: FMM=F IPFlag=           0 FMFlag=      100000 FMFlg1=         800
         NFxFlg=           0 DoJE=F BraDBF=F KetDBF=F FulRan=T
         wScrn=  0.000000 ICntrl=      2127 IOpCl=  0 I1Cent=           0 NGrid=           0
         NMat0=    1 NMatS0=      1 NMatT0=    0 NMatD0=    1 NMtDS0=    0 NMtDT0=    0
 Symmetry not used in FoFCou.
 Leave Link  703 at Sun Jul 11 16:21:28 2021, MaxMem=   104857600 cpu:              11.6 elap:               2.9
 (Enter /prod/apps/gaussian/g16b1/l716.exe)
 Dipole        =-4.49358989D+00-1.87410793D+00-1.26292363D+00
 ***** Axes restored to original set *****
 -------------------------------------------------------------------
 Center     Atomic                   Forces (Hartrees/Bohr)
 Number     Number              X              Y              Z
 -------------------------------------------------------------------
      1        7           0.002116907   -0.008824867   -0.010415290
      2        1           0.007381919    0.003757915    0.030616492
      3        1          -0.012696448   -0.030351216    0.006186676
      4        6           0.024346961   -0.000412217   -0.016919765
      5        1          -0.000718875   -0.009314087    0.006243821
      6        1          -0.007312805   -0.010005958   -0.001281075
      7        6           0.013481998    0.041241842   -0.008523881
      8        1          -0.000546352    0.004088521   -0.007608714
      9        1          -0.002122501    0.009985317   -0.001770154
     10        6           0.045303978   -0.026351045   -0.016930875
     11        7          -0.049152735    0.014372501    0.009179162
     12        6           0.001248671   -0.019714843   -0.040617243
     13        1          -0.001220011   -0.000176600    0.003007517
     14        6          -0.005808054    0.025228476    0.064948168
     15        1           0.006553077    0.005352843   -0.003300354
     16       16           0.003241337   -0.010177469   -0.013771530
     17        1          -0.024097070    0.011300887    0.000957043
 -------------------------------------------------------------------
 Cartesian Forces:  Max     0.064948168 RMS     0.019498933
 Leave Link  716 at Sun Jul 11 16:21:28 2021, MaxMem=   104857600 cpu:               0.1 elap:               0.0
 (Enter /prod/apps/gaussian/g16b1/l103.exe)

 GradGradGradGradGradGradGradGradGradGradGradGradGradGradGradGradGradGrad
 Berny optimization.
 FormGI is forming the generalized inverse of G from B-inverse, IUseBI=4.
 Internal  Forces:  Max     0.051070557 RMS     0.013646885
 Search for a local minimum.
 Step number   1 out of a maximum of   92
 All quantities printed in internal units (Hartrees-Bohrs-Radians)
 RMS Force = .13647D-01 SwitMx=.10000D-02 MixMth= 1
 Mixed Optimization -- RFO/linear search
 Second derivative matrix not updated -- first step.
 ITU=  0
     Eigenvalues ---    0.00625   0.01062   0.01067   0.01160   0.01665
     Eigenvalues ---    0.02398   0.02536   0.02804   0.03917   0.04705
     Eigenvalues ---    0.05545   0.05820   0.06319   0.06324   0.07983
     Eigenvalues ---    0.10257   0.11758   0.13465   0.15926   0.15999
     Eigenvalues ---    0.16000   0.16000   0.16000   0.22056   0.22250
     Eigenvalues ---    0.22419   0.24684   0.24882   0.30501   0.31282
     Eigenvalues ---    0.34413   0.34528   0.34535   0.34539   0.34588
     Eigenvalues ---    0.34844   0.35504   0.35611   0.39561   0.45029
     Eigenvalues ---    0.47607   0.47657   0.47766   0.48310   0.57950
 RFO step:  Lambda=-4.34517782D-02 EMin= 6.24663117D-03
 Linear search not attempted -- first point.
 Maximum step size (   0.300) exceeded in Quadratic search.
    -- Step size scaled by   0.873
 Iteration  1 RMS(Cart)=  0.07660999 RMS(Int)=  0.00228722
 Iteration  2 RMS(Cart)=  0.00237042 RMS(Int)=  0.00095181
 Iteration  3 RMS(Cart)=  0.00000845 RMS(Int)=  0.00095180
 Iteration  4 RMS(Cart)=  0.00000003 RMS(Int)=  0.00095180
 ITry= 1 IFail=0 DXMaxC= 2.37D-01 DCOld= 1.00D+10 DXMaxT= 3.00D-01 DXLimC= 3.00D+00 Rises=F
 Variable       Old X    -DE/DX   Delta X   Delta X   Delta X     New X
                                 (Linear)    (Quad)   (Total)
    R1        1.89006   0.03087   0.00000   0.05183   0.05183   1.94189
    R2        1.88889   0.03256   0.00000   0.05457   0.05457   1.94346
    R3        2.72154   0.04224   0.00000   0.08401   0.08401   2.80555
    R4        1.89060   0.02586   0.00000   0.04348   0.04348   1.93408
    R5        2.06639  -0.00356   0.00000  -0.00803  -0.00803   2.05837
    R6        2.06429  -0.00138   0.00000  -0.00309  -0.00309   2.06120
    R7        2.79228   0.04519   0.00000   0.10069   0.10069   2.89298
    R8        2.06350   0.00248   0.00000   0.00557   0.00557   2.06906
    R9        2.06448   0.00175   0.00000   0.00393   0.00393   2.06841
   R10        2.85477  -0.00217   0.00000  -0.00531  -0.00531   2.84946
   R11        2.59239  -0.05107   0.00000  -0.08737  -0.08788   2.50450
   R12        3.29268   0.00751   0.00000   0.01172   0.01131   3.30399
   R13        2.63715   0.00029   0.00000   0.00021   0.00023   2.63738
   R14        2.04695  -0.00091   0.00000  -0.00198  -0.00198   2.04496
   R15        2.50581   0.03219   0.00000   0.04838   0.04890   2.55471
   R16        2.04864  -0.00070   0.00000  -0.00154  -0.00154   2.04710
   R17        3.21975   0.00708   0.00000   0.02259   0.02298   3.24273
    A1        1.91076  -0.00758   0.00000  -0.03359  -0.03401   1.87675
    A2        1.91066   0.00693   0.00000   0.03015   0.02969   1.94036
    A3        1.91069  -0.00563   0.00000  -0.02229  -0.02272   1.88797
    A4        1.91105   0.00754   0.00000   0.03144   0.03104   1.94209
    A5        1.91032  -0.00679   0.00000  -0.02995  -0.03029   1.88003
    A6        1.91032   0.00552   0.00000   0.02423   0.02382   1.93414
    A7        1.93854  -0.00957   0.00000  -0.04874  -0.05150   1.88705
    A8        1.94258  -0.01074   0.00000  -0.05266  -0.05593   1.88665
    A9        1.89792   0.02210   0.00000   0.08361   0.08361   1.98154
   A10        1.96089   0.00109   0.00000  -0.02304  -0.02651   1.93437
   A11        1.85346  -0.00130   0.00000   0.02086   0.02226   1.87572
   A12        1.86571   0.00039   0.00000   0.03197   0.03333   1.89904
   A13        1.90249   0.00608   0.00000   0.02263   0.02257   1.92506
   A14        1.79575   0.01070   0.00000   0.04939   0.04935   1.84510
   A15        2.07988  -0.01766   0.00000  -0.05377  -0.05331   2.02657
   A16        1.93059  -0.00726   0.00000  -0.04065  -0.04116   1.88943
   A17        1.88969   0.00655   0.00000   0.02038   0.02066   1.91035
   A18        1.86146   0.00114   0.00000  -0.00136  -0.00054   1.86091
   A19        2.10185   0.00367   0.00000   0.01970   0.02001   2.12186
   A20        2.16362   0.00120   0.00000   0.01227   0.01266   2.17628
   A21        2.01173  -0.00465   0.00000  -0.02894  -0.03009   1.98164
   A22        1.90232   0.01390   0.00000   0.02647   0.02552   1.92784
   A23        2.07471  -0.00271   0.00000  -0.01261  -0.01294   2.06177
   A24        1.97020   0.01101   0.00000   0.04939   0.04955   2.01975
   A25        2.23824  -0.00828   0.00000  -0.03650  -0.03685   2.20139
   A26        2.23839   0.01346   0.00000   0.02839   0.02811   2.26651
   A27        2.03123  -0.03821   0.00000  -0.10398  -0.10323   1.92800
   A28        2.00835   0.02466   0.00000   0.07606   0.07571   2.08406
   A29        1.50785   0.01816   0.00000   0.05990   0.05965   1.56750
    D1       -3.09752  -0.00716   0.00000  -0.05533  -0.05360   3.13206
    D2        0.98674   0.00686   0.00000   0.05208   0.05025   1.03699
    D3       -1.06402  -0.00095   0.00000  -0.00769  -0.00759  -1.07161
    D4        1.09084  -0.00674   0.00000  -0.05194  -0.05023   1.04061
    D5       -1.10808   0.00727   0.00000   0.05547   0.05362  -1.05446
    D6        3.12434  -0.00053   0.00000  -0.00430  -0.00422   3.12012
    D7       -1.00323  -0.00642   0.00000  -0.04934  -0.04759  -1.05082
    D8        3.08103   0.00759   0.00000   0.05807   0.05626   3.13729
    D9        1.03027  -0.00022   0.00000  -0.00171  -0.00158   1.02869
   D10       -0.86771  -0.00076   0.00000  -0.01286  -0.01245  -0.88017
   D11       -2.91742  -0.00053   0.00000  -0.00126  -0.00149  -2.91891
   D12        1.31200  -0.00027   0.00000  -0.00696  -0.00657   1.30543
   D13        1.21964  -0.00114   0.00000  -0.01475  -0.01382   1.20582
   D14       -0.83007  -0.00090   0.00000  -0.00315  -0.00286  -0.83293
   D15       -2.88383  -0.00064   0.00000  -0.00885  -0.00794  -2.89177
   D16       -2.96674  -0.00034   0.00000  -0.01435  -0.01504  -2.98178
   D17        1.26673  -0.00011   0.00000  -0.00276  -0.00408   1.26266
   D18       -0.78703   0.00015   0.00000  -0.00845  -0.00915  -0.79619
   D19        1.32003   0.00184   0.00000   0.01575   0.01577   1.33580
   D20       -1.69848  -0.00009   0.00000  -0.01317  -0.01291  -1.71138
   D21       -2.77729   0.00222   0.00000   0.02309   0.02298  -2.75431
   D22        0.48739   0.00030   0.00000  -0.00583  -0.00570   0.48169
   D23       -0.69925  -0.00227   0.00000  -0.01479  -0.01506  -0.71431
   D24        2.56543  -0.00419   0.00000  -0.04371  -0.04374   2.52169
   D25       -3.01948  -0.00318   0.00000  -0.04742  -0.04691  -3.06640
   D26        0.00928  -0.00108   0.00000  -0.01845  -0.01873  -0.00945
   D27        2.99310   0.00431   0.00000   0.06636   0.06722   3.06032
   D28       -0.03116   0.00196   0.00000   0.03583   0.03760   0.00644
   D29       -3.12359   0.00122   0.00000   0.01505   0.01442  -3.10917
   D30        0.02663  -0.00108   0.00000  -0.01667  -0.01799   0.00865
   D31        2.97225   0.00439   0.00000   0.05951   0.05974   3.03199
   D32       -0.05345   0.00429   0.00000   0.05045   0.04966  -0.00379
   D33       -0.15972   0.00177   0.00000   0.02393   0.02416  -0.13556
   D34        3.09777   0.00167   0.00000   0.01487   0.01407   3.11185
   D35        0.04780  -0.00425   0.00000  -0.05036  -0.04915  -0.00135
   D36       -2.99337  -0.00425   0.00000  -0.05687  -0.05638  -3.04974
         Item               Value     Threshold  Converged?
 Maximum Force            0.051071     0.000450     NO 
 RMS     Force            0.013647     0.000300     NO 
 Maximum Displacement     0.236942     0.001800     NO 
 RMS     Displacement     0.076709     0.001200     NO 
 Predicted change in Energy=-2.413584D-02
 Lowest energy point so far.  Saving SCF results.
 GradGradGradGradGradGradGradGradGradGradGradGradGradGradGradGradGradGrad

 Leave Link  103 at Sun Jul 11 16:21:28 2021, MaxMem=   104857600 cpu:               0.1 elap:               0.0
 (Enter /prod/apps/gaussian/g16b1/l202.exe)
                          Input orientation:                          
 ---------------------------------------------------------------------
 Center     Atomic      Atomic             Coordinates (Angstroms)
 Number     Number       Type             X           Y           Z
 ---------------------------------------------------------------------
      1          7           0       -1.966086   -1.512750   -0.104589
      2          1           0       -1.585452   -1.312763    0.828737
      3          1           0       -2.207696   -2.511996   -0.132999
      4          6           0       -0.990209   -1.164088   -1.167712
      5          1           0       -1.438580   -1.403869   -2.130995
      6          1           0       -0.086079   -1.751751   -1.003662
      7          6           0       -0.616482    0.320300   -1.191460
      8          1           0       -1.519556    0.939383   -1.191623
      9          1           0       -0.091900    0.478846   -2.138944
     10          6           0        0.313001    0.788238   -0.100240
     11          7           0        1.612742    0.531937   -0.138541
     12          6           0        2.233550    0.983650    1.026946
     13          1           0        3.305628    0.864219    1.113150
     14          6           0        1.420165    1.562628    1.938433
     15          1           0        1.636034    1.905384    2.943129
     16         16           0       -0.199667    1.579147    1.372352
     17          1           0       -2.832412   -0.979518   -0.216979
 ---------------------------------------------------------------------
                    Distance matrix (angstroms):
                    1          2          3          4          5
     1  N    0.000000
     2  H    1.027606   0.000000
     3  H    1.028434   1.658398   0.000000
     4  C    1.484631   2.088595   2.090397   0.000000
     5  H    2.096769   2.964774   2.410700   1.089241   0.000000
     6  H    2.097589   2.408011   2.416048   1.090739   1.794760
     7  C    2.522457   2.772543   3.416753   1.530897   2.128692
     8  H    2.719189   3.026279   3.675084   2.169187   2.525828
     9  H    3.408464   3.774612   4.176787   2.109380   2.314785
    10  C    3.238642   2.980156   4.152895   2.578650   3.463717
    11  N    4.121881   3.816673   4.884804   3.272774   4.126474
    12  C    5.014910   4.460670   5.769721   4.452183   5.399758
    13  H    5.909638   5.361231   6.583954   5.269780   6.178690
    14  C    5.009848   4.305001   5.835646   4.784666   5.790749
    15  H    5.826447   5.020467   6.614383   5.763491   6.793463
    16  S    3.855050   3.252547   4.799553   3.821285   4.765158
    17  H    1.023469   1.661170   1.657049   2.081267   2.405473
                    6          7          8          9         10
     6  H    0.000000
     7  C    2.147089   0.000000
     8  H    3.054896   1.094900   0.000000
     9  H    2.502891   1.094554   1.774180   0.000000
    10  C    2.725249   1.507868   2.138277   2.101424   0.000000
    11  N    2.974837   2.474444   3.329608   2.628733   1.325325
    12  C    4.121464   3.672063   4.360025   3.960481   2.235451
    13  H    4.777852   4.581487   5.347899   4.718879   3.230155
    14  C    4.680791   3.935422   4.339084   4.481733   2.445747
    15  H    5.649554   4.968012   5.290281   5.554118   3.501503
    16  S    4.093070   2.886444   2.953874   3.681233   1.748397
    17  H    2.959317   2.747633   2.521053   3.651190   3.610016
                   11         12         13         14         15
    11  N    0.000000
    12  C    1.395639   0.000000
    13  H    2.131432   1.082148   0.000000
    14  C    2.326636   1.351895   2.173439   0.000000
    15  H    3.373958   2.208704   2.687078   1.083279   0.000000
    16  S    2.581526   2.528728   3.586837   1.715977   2.437943
    17  H    4.695748   5.573630   6.545544   5.403029   6.186756
                   16         17
    16  S    0.000000
    17  H    4.000511   0.000000
 Stoichiometry    C5H9N2S(1+)
 Framework group  C1[X(C5H9N2S)]
 Deg. of freedom    45
 Full point group                 C1      NOp   1
 RotChk:  IX=0 Diff= 3.98D-02
 Largest Abelian subgroup         C1      NOp   1
 Largest concise Abelian subgroup C1      NOp   1
                         Standard orientation:                         
 ---------------------------------------------------------------------
 Center     Atomic      Atomic             Coordinates (Angstroms)
 Number     Number       Type             X           Y           Z
 ---------------------------------------------------------------------
      1          7           0       -2.638170   -0.712120   -0.742218
      2          1           0       -1.814437   -1.099034   -1.219436
      3          1           0       -3.389285   -0.628264   -1.439692
      4          6           0       -2.330671    0.600879   -0.121243
      5          1           0       -3.236118    0.968396    0.359945
      6          1           0       -2.007063    1.281229   -0.909985
      7          6           0       -1.237926    0.530161    0.948594
      8          1           0       -1.461540   -0.264374    1.667980
      9          1           0       -1.275354    1.489368    1.474494
     10          6           0        0.174281    0.369030    0.445231
     11          7           0        0.846080    1.386442   -0.074427
     12          6           0        2.086147    0.959345   -0.551535
     13          1           0        2.751999    1.699379   -0.975841
     14          6           0        2.347979   -0.359072   -0.407169
     15          1           0        3.183557   -0.944871   -0.770683
     16         16           0        1.031091   -1.152366    0.355107
     17          1           0       -2.943453   -1.386274   -0.035247
 ---------------------------------------------------------------------
 Rotational constants (GHZ):           3.3131844           1.1363629           0.9839327
 Leave Link  202 at Sun Jul 11 16:21:28 2021, MaxMem=   104857600 cpu:               0.1 elap:               0.0
 (Enter /prod/apps/gaussian/g16b1/l301.exe)
 Standard basis: 6-31G(d) (6D, 7F)
 Ernie: Thresh=  0.10000D-02 Tol=  0.10000D-05 Strict=F.
 There are   142 symmetry adapted cartesian basis functions of A   symmetry.
 There are   142 symmetry adapted basis functions of A   symmetry.
   142 basis functions,   284 primitive gaussians,   142 cartesian basis functions
    34 alpha electrons       34 beta electrons
       nuclear repulsion energy       443.9676212206 Hartrees.
 IExCor=  402 DFT=T Ex+Corr=B3LYP ExCW=0 ScaHFX=  0.200000
 ScaDFX=  0.800000  0.720000  1.000000  0.810000 ScalE2=  1.000000  1.000000
 IRadAn=      5 IRanWt=     -1 IRanGd=            0 ICorTp=0 IEmpDi=  4
 NAtoms=   17 NActive=   17 NUniq=   17 SFac= 1.00D+00 NAtFMM=   60 NAOKFM=F Big=F
 Integral buffers will be    131072 words long.
 Raffenetti 2 integral format.
 Two-electron integral symmetry is turned on.
 ------------------------------------------------------------------------------
 Polarizable Continuum Model (PCM)
 =================================
 Model                : PCM.
 Atomic radii         : MST.
 Polarization charges : Total charges.
 Charge compensation  : None.
 Solution method      : On-the-fly selection.
 Cavity type          : Scaled VdW (van der Waals Surface) (Alpha=1.250).
 Cavity algorithm     : GePol (No added spheres)
                        Default sphere list used, NSphG=   17.
                        Lebedev-Laikov grids with approx.  5.0 points / Ang**2.
                        Smoothing algorithm: York/Karplus (Gamma=1.0000).
                        Polarization charges: spherical gaussians, with
                                              point-specific exponents (IZeta= 3).
                        Self-potential: point-specific (ISelfS= 7).
                        Self-field    : sphere-specific E.n sum rule (ISelfD= 2).
 1st derivatives      : Analytical E(r).r(x)/FMM algorithm (CHGder, D1EAlg=3).
                        Cavity 1st derivative terms included.
 Solvent              : Water, Eps=  78.355300 Eps(inf)=   1.777849
 ------------------------------------------------------------------------------
 Spheres list:
 ISph  on   Nord     Re0    Alpha      Xe            Ye            Ze
    1   N      1    1.7000  1.150     -2.638170     -0.712120     -0.742218
    2   H      2    0.9000  1.150     -1.814437     -1.099034     -1.219436
    3   H      3    0.9000  1.150     -3.389285     -0.628264     -1.439692
    4   C      4    1.5000  1.250     -2.330671      0.600879     -0.121243
    5   H      5    1.2000  1.250     -3.236118      0.968396      0.359945
    6   H      6    1.2000  1.250     -2.007063      1.281229     -0.909985
    7   C      7    1.5000  1.250     -1.237926      0.530161      0.948594
    8   H      8    1.2000  1.250     -1.461540     -0.264374      1.667980
    9   H      9    1.2000  1.250     -1.275354      1.489368      1.474494
   10   C     10    1.5000  1.250      0.174281      0.369030      0.445231
   11   N     11    1.4000  1.250      0.846080      1.386442     -0.074427
   12   C     12    1.5000  1.250      2.086147      0.959345     -0.551535
   13   H     13    1.2000  1.250      2.751999      1.699379     -0.975841
   14   C     14    1.5000  1.250      2.347979     -0.359072     -0.407169
   15   H     15    1.2000  1.250      3.183557     -0.944871     -0.770683
   16   S     16    1.7500  1.250      1.031091     -1.152366      0.355107
   17   H     17    0.9000  1.150     -2.943453     -1.386274     -0.035247
 ------------------------------------------------------------------------------
 GePol: Number of generator spheres                  =      17
 GePol: Total number of spheres                      =      17
 GePol: Number of exposed spheres                    =      17 (100.00%)
 GePol: Number of points                             =    1305
 GePol: Average weight of points                     =       0.14
 GePol: Minimum weight of points                     =   0.50D-08
 GePol: Maximum weight of points                     =    0.22001
 GePol: Number of points with low weight             =      63
 GePol: Fraction of low-weight points (<1% of avg)   =       4.83%
 GePol: Cavity surface area                          =    179.352 Ang**2
 GePol: Cavity volume                                =    159.862 Ang**3
 PCM non-electrostatic energy =         0.0002776986 Hartrees.
 Nuclear repulsion after PCM non-electrostatic terms =      443.9678989192 Hartrees.
 Leave Link  301 at Sun Jul 11 16:21:28 2021, MaxMem=   104857600 cpu:               0.4 elap:               0.1
 (Enter /prod/apps/gaussian/g16b1/l302.exe)
 NPDir=0 NMtPBC=     1 NCelOv=     1 NCel=       1 NClECP=     1 NCelD=      1
         NCelK=      1 NCelE2=     1 NClLst=     1 CellRange=     0.0.
 One-electron integrals computed using PRISM.
 One-electron integral symmetry used in STVInt
 NBasis=   142 RedAO= T EigKep=  2.42D-03  NBF=   142
 NBsUse=   142 1.00D-06 EigRej= -1.00D+00 NBFU=   142
 Precomputing XC quadrature grid using
 IXCGrd= 4 IRadAn=           5 IRanWt=          -1 IRanGd=           0 AccXCQ= 0.00D+00.
 Generated NRdTot=       0 NPtTot=           0 NUsed=           0 NTot=          32
 NSgBfM=   142   142   142   142   142 MxSgAt=    17 MxSgA2=    17.
 Leave Link  302 at Sun Jul 11 16:21:28 2021, MaxMem=   104857600 cpu:               0.8 elap:               0.2
 (Enter /prod/apps/gaussian/g16b1/l303.exe)
 DipDrv:  MaxL=1.
 Leave Link  303 at Sun Jul 11 16:21:29 2021, MaxMem=   104857600 cpu:               0.1 elap:               0.0
 (Enter /prod/apps/gaussian/g16b1/l401.exe)
 Initial guess from the checkpoint file:  "SET_328_BBB87_conf1.geo_075_075.chk"
 B after Tr=     0.000000   -0.000000   -0.000000
         Rot=    0.999863    0.015752   -0.004503   -0.002437 Ang=   1.90 deg.
 Guess basis will be translated and rotated to current coordinates.
 JPrj=2 DoOrth=T DoCkMO=T.
 Generating alternative initial guess.
 ExpMin= 1.17D-01 ExpMax= 2.19D+04 ExpMxC= 3.30D+03 IAcc=3 IRadAn=         5 AccDes= 0.00D+00
 Harris functional with IExCor=  402 and IRadAn=       5 diagonalized for initial guess.
 HarFok:  IExCor=  402 AccDes= 0.00D+00 IRadAn=         5 IDoV= 1 UseB2=F ITyADJ=14
 ICtDFT=  3500011 ScaDFX=  1.000000  1.000000  1.000000  1.000000
 FoFCou: FMM=F IPFlag=           0 FMFlag=      100000 FMFlg1=           0
         NFxFlg=           0 DoJE=T BraDBF=F KetDBF=T FulRan=T
         wScrn=  0.000000 ICntrl=       500 IOpCl=  0 I1Cent=   200000004 NGrid=           0
         NMat0=    1 NMatS0=      1 NMatT0=    0 NMatD0=    1 NMtDS0=    0 NMtDT0=    0
 Petite list used in FoFCou.
 Harris En= -703.381342956173    
 Leave Link  401 at Sun Jul 11 16:21:29 2021, MaxMem=   104857600 cpu:               3.5 elap:               0.9
 (Enter /prod/apps/gaussian/g16b1/l502.exe)
 Keep R1 ints in memory in canonical form, NReq=55421297.
 FoFCou: FMM=F IPFlag=           0 FMFlag=           0 FMFlg1=           0
         NFxFlg=           0 DoJE=F BraDBF=F KetDBF=F FulRan=T
         wScrn=  0.000000 ICntrl=       600 IOpCl=  0 I1Cent=           0 NGrid=           0
         NMat0=    1 NMatS0=  10153 NMatT0=    0 NMatD0=    1 NMtDS0=    0 NMtDT0=    0
 Symmetry not used in FoFCou.
 Two-electron integral symmetry not used.
 Closed shell SCF:
 Using DIIS extrapolation, IDIIS=  1040.
 NGot=   104857600 LenX=    53267901 LenY=    53247296
 Requested convergence on RMS density matrix=1.00D-08 within 128 cycles.
 Requested convergence on MAX density matrix=1.00D-06.
 Requested convergence on             energy=1.00D-06.
 No special actions if energy rises.

 Cycle   1  Pass 1  IDiag  1:
 Inv3:  Mode=1 IEnd=     5109075.
 Iteration    1 A*A^-1 deviation from unit magnitude is 2.78D-15 for    924.
 Iteration    1 A*A^-1 deviation from orthogonality  is 2.04D-15 for    898    453.
 Iteration    1 A^-1*A deviation from unit magnitude is 2.66D-15 for     68.
 Iteration    1 A^-1*A deviation from orthogonality  is 1.59D-14 for    808    766.
 E= -703.497363725465    
 DIIS: error= 4.09D-03 at cycle   1 NSaved=   1.
 NSaved= 1 IEnMin= 1 EnMin= -703.497363725465     IErMin= 1 ErrMin= 4.09D-03
 ErrMax= 4.09D-03  0.00D+00 EMaxC= 1.00D-01 BMatC= 5.11D-03 BMatP= 5.11D-03
 IDIUse=3 WtCom= 9.59D-01 WtEn= 4.09D-02
 Coeff-Com:  0.100D+01
 Coeff-En:   0.100D+01
 Coeff:      0.100D+01
 Gap=     1.595 Goal=   None    Shift=    0.000
 GapD=    1.595 DampG=2.000 DampE=1.000 DampFc=2.0000 IDamp=-1.
 RMSDP=8.77D-04 MaxDP=1.17D-02              OVMax= 2.29D-02

 Cycle   2  Pass 1  IDiag  1:
 E= -703.504646960640     Delta-E=       -0.007283235175 Rises=F Damp=F
 DIIS: error= 2.77D-03 at cycle   2 NSaved=   2.
 NSaved= 2 IEnMin= 2 EnMin= -703.504646960640     IErMin= 2 ErrMin= 2.77D-03
 ErrMax= 2.77D-03  0.00D+00 EMaxC= 1.00D-01 BMatC= 1.14D-03 BMatP= 5.11D-03
 IDIUse=3 WtCom= 9.72D-01 WtEn= 2.77D-02
 Coeff-Com:  0.238D+00 0.762D+00
 Coeff-En:   0.000D+00 0.100D+01
 Coeff:      0.231D+00 0.769D+00
 Gap=     0.220 Goal=   None    Shift=    0.000
 RMSDP=3.40D-04 MaxDP=1.01D-02 DE=-7.28D-03 OVMax= 1.08D-02

 Cycle   3  Pass 1  IDiag  1:
 E= -703.504984548170     Delta-E=       -0.000337587530 Rises=F Damp=F
 DIIS: error= 2.29D-03 at cycle   3 NSaved=   3.
 NSaved= 3 IEnMin= 3 EnMin= -703.504984548170     IErMin= 3 ErrMin= 2.29D-03
 ErrMax= 2.29D-03  0.00D+00 EMaxC= 1.00D-01 BMatC= 7.82D-04 BMatP= 1.14D-03
 IDIUse=3 WtCom= 9.77D-01 WtEn= 2.29D-02
 Coeff-Com: -0.216D-01 0.453D+00 0.569D+00
 Coeff-En:   0.000D+00 0.410D+00 0.590D+00
 Coeff:     -0.211D-01 0.452D+00 0.569D+00
 Gap=     0.218 Goal=   None    Shift=    0.000
 RMSDP=1.83D-04 MaxDP=4.68D-03 DE=-3.38D-04 OVMax= 7.62D-03

 Cycle   4  Pass 1  IDiag  1:
 E= -703.505649377338     Delta-E=       -0.000664829168 Rises=F Damp=F
 DIIS: error= 4.01D-04 at cycle   4 NSaved=   4.
 NSaved= 4 IEnMin= 4 EnMin= -703.505649377338     IErMin= 4 ErrMin= 4.01D-04
 ErrMax= 4.01D-04  0.00D+00 EMaxC= 1.00D-01 BMatC= 3.58D-05 BMatP= 7.82D-04
 IDIUse=3 WtCom= 9.96D-01 WtEn= 4.01D-03
 Coeff-Com: -0.187D-01 0.229D+00 0.323D+00 0.467D+00
 Coeff-En:   0.000D+00 0.000D+00 0.000D+00 0.100D+01
 Coeff:     -0.187D-01 0.228D+00 0.321D+00 0.470D+00
 Gap=     0.219 Goal=   None    Shift=    0.000
 RMSDP=5.07D-05 MaxDP=1.33D-03 DE=-6.65D-04 OVMax= 2.39D-03

 Cycle   5  Pass 1  IDiag  1:
 E= -703.505683362675     Delta-E=       -0.000033985337 Rises=F Damp=F
 DIIS: error= 9.04D-05 at cycle   5 NSaved=   5.
 NSaved= 5 IEnMin= 5 EnMin= -703.505683362675     IErMin= 5 ErrMin= 9.04D-05
 ErrMax= 9.04D-05  0.00D+00 EMaxC= 1.00D-01 BMatC= 2.25D-06 BMatP= 3.58D-05
 IDIUse=1 WtCom= 1.00D+00 WtEn= 0.00D+00
 Coeff-Com: -0.654D-02 0.534D-01 0.862D-01 0.233D+00 0.634D+00
 Coeff:     -0.654D-02 0.534D-01 0.862D-01 0.233D+00 0.634D+00
 Gap=     0.219 Goal=   None    Shift=    0.000
 RMSDP=1.10D-05 MaxDP=2.53D-04 DE=-3.40D-05 OVMax= 5.88D-04

 Cycle   6  Pass 1  IDiag  1:
 E= -703.505685428684     Delta-E=       -0.000002066009 Rises=F Damp=F
 DIIS: error= 1.97D-05 at cycle   6 NSaved=   6.
 NSaved= 6 IEnMin= 6 EnMin= -703.505685428684     IErMin= 6 ErrMin= 1.97D-05
 ErrMax= 1.97D-05  0.00D+00 EMaxC= 1.00D-01 BMatC= 1.28D-07 BMatP= 2.25D-06
 IDIUse=1 WtCom= 1.00D+00 WtEn= 0.00D+00
 Coeff-Com: -0.185D-02 0.113D-01 0.210D-01 0.747D-01 0.283D+00 0.612D+00
 Coeff:     -0.185D-02 0.113D-01 0.210D-01 0.747D-01 0.283D+00 0.612D+00
 Gap=     0.219 Goal=   None    Shift=    0.000
 RMSDP=3.10D-06 MaxDP=6.52D-05 DE=-2.07D-06 OVMax= 1.44D-04

 Cycle   7  Pass 1  IDiag  1:
 E= -703.505685536619     Delta-E=       -0.000000107935 Rises=F Damp=F
 DIIS: error= 7.80D-06 at cycle   7 NSaved=   7.
 NSaved= 7 IEnMin= 7 EnMin= -703.505685536619     IErMin= 7 ErrMin= 7.80D-06
 ErrMax= 7.80D-06  0.00D+00 EMaxC= 1.00D-01 BMatC= 2.19D-08 BMatP= 1.28D-07
 IDIUse=1 WtCom= 1.00D+00 WtEn= 0.00D+00
 Coeff-Com:  0.404D-04-0.257D-02-0.243D-02 0.387D-02 0.564D-01 0.324D+00
 Coeff-Com:  0.621D+00
 Coeff:      0.404D-04-0.257D-02-0.243D-02 0.387D-02 0.564D-01 0.324D+00
 Coeff:      0.621D+00
 Gap=     0.219 Goal=   None    Shift=    0.000
 RMSDP=1.25D-06 MaxDP=3.60D-05 DE=-1.08D-07 OVMax= 7.67D-05

 Cycle   8  Pass 1  IDiag  1:
 E= -703.505685556806     Delta-E=       -0.000000020186 Rises=F Damp=F
 DIIS: error= 2.63D-06 at cycle   8 NSaved=   8.
 NSaved= 8 IEnMin= 8 EnMin= -703.505685556806     IErMin= 8 ErrMin= 2.63D-06
 ErrMax= 2.63D-06  0.00D+00 EMaxC= 1.00D-01 BMatC= 3.01D-09 BMatP= 2.19D-08
 IDIUse=1 WtCom= 1.00D+00 WtEn= 0.00D+00
 Coeff-Com:  0.134D-03-0.220D-02-0.277D-02-0.280D-02 0.130D-01 0.146D+00
 Coeff-Com:  0.367D+00 0.481D+00
 Coeff:      0.134D-03-0.220D-02-0.277D-02-0.280D-02 0.130D-01 0.146D+00
 Coeff:      0.367D+00 0.481D+00
 Gap=     0.219 Goal=   None    Shift=    0.000
 RMSDP=3.94D-07 MaxDP=1.53D-05 DE=-2.02D-08 OVMax= 2.72D-05

 Cycle   9  Pass 1  IDiag  1:
 E= -703.505685559646     Delta-E=       -0.000000002840 Rises=F Damp=F
 DIIS: error= 5.42D-07 at cycle   9 NSaved=   9.
[...]
                    CP:  1.96D+00  1.59D+00  1.47D+00  1.22D+00  1.30D+00
                    CP:  1.28D+00
 E= -700.831702885929     Delta-E=       -0.000000001279 Rises=F Damp=F
 DIIS: error= 3.15D-07 at cycle  12 NSaved=  12.
 NSaved=12 IEnMin=12 EnMin= -700.831702885929     IErMin=12 ErrMin= 3.15D-07
 ErrMax= 3.15D-07  0.00D+00 EMaxC= 1.00D-01 BMatC= 6.06D-11 BMatP= 3.73D-10
 IDIUse=1 WtCom= 1.00D+00 WtEn= 0.00D+00
 Coeff-Com: -0.650D-05 0.306D-04 0.151D-03 0.292D-03-0.454D-03-0.393D-02
 Coeff-Com:  0.372D-02 0.202D-01-0.536D-02-0.141D+00-0.105D+00 0.123D+01
 Coeff:     -0.650D-05 0.306D-04 0.151D-03 0.292D-03-0.454D-03-0.393D-02
 Coeff:      0.372D-02 0.202D-01-0.536D-02-0.141D+00-0.105D+00 0.123D+01
 Gap=     0.369 Goal=   None    Shift=    0.000
 RMSDP=1.40D-07 MaxDP=5.37D-06 DE=-1.28D-09 OVMax= 6.91D-06

 Cycle  13  Pass 1  IDiag  1:
 RMSU=  5.91D-08    CP:  7.02D-01  9.68D-01  9.09D-01  1.21D+00  1.59D+00
                    CP:  1.96D+00  1.60D+00  1.46D+00  1.22D+00  1.33D+00
                    CP:  1.44D+00  1.37D+00
 E= -700.831702886141     Delta-E=       -0.000000000212 Rises=F Damp=F
 DIIS: error= 1.50D-07 at cycle  13 NSaved=  13.
 NSaved=13 IEnMin=13 EnMin= -700.831702886141     IErMin=13 ErrMin= 1.50D-07
 ErrMax= 1.50D-07  0.00D+00 EMaxC= 1.00D-01 BMatC= 8.11D-12 BMatP= 6.06D-11
 IDIUse=1 WtCom= 1.00D+00 WtEn= 0.00D+00
 Coeff-Com:  0.980D-07-0.375D-05-0.159D-04 0.195D-04 0.223D-03 0.790D-04
 Coeff-Com: -0.162D-02-0.253D-03 0.175D-01 0.110D-01-0.115D+00-0.152D+00
 Coeff-Com:  0.124D+01
 Coeff:      0.980D-07-0.375D-05-0.159D-04 0.195D-04 0.223D-03 0.790D-04
 Coeff:     -0.162D-02-0.253D-03 0.175D-01 0.110D-01-0.115D+00-0.152D+00
 Coeff:      0.124D+01
 Gap=     0.369 Goal=   None    Shift=    0.000
 RMSDP=4.98D-08 MaxDP=1.53D-06 DE=-2.12D-10 OVMax= 3.40D-06

 Cycle  14  Pass 1  IDiag  1:
 RMSU=  2.27D-08    CP:  7.02D-01  9.68D-01  9.09D-01  1.21D+00  1.59D+00
                    CP:  1.96D+00  1.60D+00  1.46D+00  1.22D+00  1.34D+00
                    CP:  1.47D+00  1.56D+00  1.40D+00
 E= -700.831702886187     Delta-E=       -0.000000000045 Rises=F Damp=F
 DIIS: error= 7.35D-08 at cycle  14 NSaved=  14.
 NSaved=14 IEnMin=14 EnMin= -700.831702886187     IErMin=14 ErrMin= 7.35D-08
 ErrMax= 7.35D-08  0.00D+00 EMaxC= 1.00D-01 BMatC= 1.29D-12 BMatP= 8.11D-12
 IDIUse=1 WtCom= 1.00D+00 WtEn= 0.00D+00
 Coeff-Com:  0.100D-05-0.441D-05-0.241D-04-0.499D-04 0.351D-04 0.719D-03
 Coeff-Com: -0.430D-03-0.390D-02 0.943D-03 0.190D-01 0.333D-01-0.187D+00
 Coeff-Com: -0.169D+00 0.131D+01
 Coeff:      0.100D-05-0.441D-05-0.241D-04-0.499D-04 0.351D-04 0.719D-03
 Coeff:     -0.430D-03-0.390D-02 0.943D-03 0.190D-01 0.333D-01-0.187D+00
 Coeff:     -0.169D+00 0.131D+01
 Gap=     0.369 Goal=   None    Shift=    0.000
 RMSDP=2.36D-08 MaxDP=7.54D-07 DE=-4.55D-11 OVMax= 1.87D-06

 Cycle  15  Pass 1  IDiag  1:
 RMSU=  8.77D-09    CP:  7.02D-01  9.68D-01  9.09D-01  1.21D+00  1.59D+00
                    CP:  1.96D+00  1.60D+00  1.46D+00  1.22D+00  1.34D+00
                    CP:  1.48D+00  1.62D+00  1.57D+00  1.62D+00
 E= -700.831702886188     Delta-E=       -0.000000000001 Rises=F Damp=F
 DIIS: error= 2.20D-08 at cycle  15 NSaved=  15.
 NSaved=15 IEnMin=15 EnMin= -700.831702886188     IErMin=15 ErrMin= 2.20D-08
 ErrMax= 2.20D-08  0.00D+00 EMaxC= 1.00D-01 BMatC= 1.91D-13 BMatP= 1.29D-12
 IDIUse=1 WtCom= 1.00D+00 WtEn= 0.00D+00
 Coeff-Com:  0.138D-07 0.477D-06 0.144D-05-0.632D-05-0.324D-04 0.242D-04
 Coeff-Com:  0.247D-03-0.244D-03-0.196D-02-0.170D-02 0.188D-01 0.155D-01
 Coeff-Com: -0.203D+00 0.639D-01 0.111D+01
 Coeff:      0.138D-07 0.477D-06 0.144D-05-0.632D-05-0.324D-04 0.242D-04
 Coeff:      0.247D-03-0.244D-03-0.196D-02-0.170D-02 0.188D-01 0.155D-01
 Coeff:     -0.203D+00 0.639D-01 0.111D+01
 Gap=     0.369 Goal=   None    Shift=    0.000
 RMSDP=8.21D-09 MaxDP=2.85D-07 DE=-1.36D-12 OVMax= 6.21D-07

 SCF Done:  E(RHF) =  -700.831702886     A.U. after   15 cycles
            NFock= 15  Conv=0.82D-08     -V/T= 2.0007
 KE= 7.003212298512D+02 PE=-2.535608416948D+03 EE= 6.877107490967D+02
 Leave Link  502 at Sun Jul 11 16:33:20 2021, MaxMem=   262144000 cpu:             235.4 elap:              58.9
 (Enter /prod/apps/gaussian/g16b1/l801.exe)
 ExpMin= 2.97D-02 ExpMax= 1.11D+05 ExpMxC= 1.07D+03 IAcc=3 IRadAn=         5 AccDes= 0.00D+00
 HarFok:  IExCor=  205 AccDes= 0.00D+00 IRadAn=         5 IDoV=-2 UseB2=F ITyADJ=14
 ICtDFT= 12500011 ScaDFX=  1.000000  1.000000  1.000000  1.000000
 Largest valence mixing into a core orbital is  3.20D-04
 Largest core mixing into a valence orbital is  8.80D-05
 Range of M.O.s used for correlation:    13   269
 NBasis=   269 NAE=    34 NBE=    34 NFC=    12 NFV=     0
 NROrb=    257 NOA=    22 NOB=    22 NVA=   235 NVB=   235

 **** Warning!!: The largest alpha MO coefficient is  0.48445965D+02

 Leave Link  801 at Sun Jul 11 16:33:20 2021, MaxMem=   262144000 cpu:               0.5 elap:               0.1
 (Enter /prod/apps/gaussian/g16b1/l906.exe)
 FulOut=F Deriv=F AODrv=F NAtomX=    17
   MMem=          42  MDisk=          22 MDiskD=          22
  W3Min=     1473450 MinDsk=     1955505 NBas6D=         285
 NBas2D=       41124    NTT=       40755    LW2=     2000000
    MDV=   261532251 MDiskM=       12647 NBas2p=       40543
 Fully direct method using O(OVN) memory.
 IMap=   1   2   3   4   5   6   7   8   9  10  11  12  13  14  15  16  17  18  19  20
 IMap=  21  22
 JobTyp=1 Pass  1:  I=   1 to  22 NPSUse=  4 ParTrn=T ParDer=T DoDerP=F.
 Spin components of T(2) and E(2):
     alpha-alpha T2 =       0.5955266531D-01 E2=     -0.1552572832D+00
     alpha-beta  T2 =       0.3170530968D+00 E2=     -0.8829946947D+00
     beta-beta   T2 =       0.5955266531D-01 E2=     -0.1552572832D+00
 The integrals were generated   1 times.
 ANorm=    0.1198398276D+01
 E2 =    -0.1193509261D+01 EUMP2 =    -0.70202521214716D+03
 Leave Link  906 at Sun Jul 11 16:33:39 2021, MaxMem=   262144000 cpu:              75.5 elap:              18.9
 (Enter /prod/apps/gaussian/g16b1/l601.exe)
 Copying SCF densities to generalized density rwf, IOpCl= 0 IROHF=0.

 **********************************************************************

            Population analysis using the SCF Density.

 **********************************************************************

 Orbital symmetries:
       Occupied  (A) (A) (A) (A) (A) (A) (A) (A) (A) (A) (A) (A)
                 (A) (A) (A) (A) (A) (A) (A) (A) (A) (A) (A) (A)
                 (A) (A) (A) (A) (A) (A) (A) (A) (A) (A)
       Virtual   (A) (A) (A) (A) (A) (A) (A) (A) (A) (A) (A) (A)
                 (A) (A) (A) (A) (A) (A) (A) (A) (A) (A) (A) (A)
                 (A) (A) (A) (A) (A) (A) (A) (A) (A) (A) (A) (A)
                 (A) (A) (A) (A) (A) (A) (A) (A) (A) (A) (A) (A)
                 (A) (A) (A) (A) (A) (A) (A) (A) (A) (A) (A) (A)
                 (A) (A) (A) (A) (A) (A) (A) (A) (A) (A) (A) (A)
                 (A) (A) (A) (A) (A) (A) (A) (A) (A) (A) (A) (A)
                 (A) (A) (A) (A) (A) (A) (A) (A) (A) (A) (A) (A)
                 (A) (A) (A) (A) (A) (A) (A) (A) (A) (A) (A) (A)
                 (A) (A) (A) (A) (A) (A) (A) (A) (A) (A) (A) (A)
                 (A) (A) (A) (A) (A) (A) (A) (A) (A) (A) (A) (A)
                 (A) (A) (A) (A) (A) (A) (A) (A) (A) (A) (A) (A)
                 (A) (A) (A) (A) (A) (A) (A) (A) (A) (A) (A) (A)
                 (A) (A) (A) (A) (A) (A) (A) (A) (A) (A) (A) (A)
                 (A) (A) (A) (A) (A) (A) (A) (A) (A) (A) (A) (A)
                 (A) (A) (A) (A) (A) (A) (A) (A) (A) (A) (A) (A)
                 (A) (A) (A) (A) (A) (A) (A) (A) (A) (A) (A) (A)
                 (A) (A) (A) (A) (A) (A) (A) (A) (A) (A) (A) (A)
                 (A) (A) (A) (A) (A) (A) (A) (A) (A) (A) (A) (A)
                 (A) (A) (A) (A) (A) (A) (A)
 The electronic state is 1-A.
 Alpha  occ. eigenvalues --  -92.13122 -15.87182 -15.72916 -11.47940 -11.46947
 Alpha  occ. eigenvalues --  -11.42786 -11.40641 -11.40175  -9.13304  -6.81443
 Alpha  occ. eigenvalues --   -6.81353  -6.81179  -1.48877  -1.42804  -1.24079
 Alpha  occ. eigenvalues --   -1.20076  -1.13747  -1.05254  -0.95574  -0.94339
 Alpha  occ. eigenvalues --   -0.92899  -0.87853  -0.83700  -0.82022  -0.77781
 Alpha  occ. eigenvalues --   -0.74800  -0.73100  -0.70131  -0.68518  -0.67812
 Alpha  occ. eigenvalues --   -0.63412  -0.57990  -0.52663  -0.46866
 Alpha virt. eigenvalues --   -0.09974  -0.07224  -0.06842  -0.05750  -0.04027
 Alpha virt. eigenvalues --   -0.03789  -0.03589  -0.03377  -0.02621  -0.01608
 Alpha virt. eigenvalues --   -0.01321  -0.00053   0.00031   0.01150   0.01673
 Alpha virt. eigenvalues --    0.02217   0.03007   0.03235   0.03654   0.03939
 Alpha virt. eigenvalues --    0.04539   0.05040   0.05645   0.05811   0.06206
 Alpha virt. eigenvalues --    0.07034   0.07791   0.07879   0.08117   0.09426
 Alpha virt. eigenvalues --    0.09975   0.10483   0.10601   0.11197   0.11958
 Alpha virt. eigenvalues --    0.12213   0.12939   0.13853   0.14063   0.15768
 Alpha virt. eigenvalues --    0.16123   0.16388   0.18726   0.19473   0.20480
 Alpha virt. eigenvalues --    0.20728   0.21739   0.22291   0.22540   0.23744
 Alpha virt. eigenvalues --    0.23981   0.24469   0.25589   0.27620   0.28504
 Alpha virt. eigenvalues --    0.28804   0.30198   0.30945   0.31680   0.32657
 Alpha virt. eigenvalues --    0.32919   0.33541   0.33857   0.34283   0.34715
 Alpha virt. eigenvalues --    0.35276   0.36079   0.37126   0.37444   0.38766
 Alpha virt. eigenvalues --    0.40114   0.40934   0.41404   0.42042   0.42595
 Alpha virt. eigenvalues --    0.43337   0.44298   0.45109   0.46449   0.47121
 Alpha virt. eigenvalues --    0.47226   0.48302   0.50116   0.50806   0.51364
 Alpha virt. eigenvalues --    0.52324   0.53156   0.54568   0.54685   0.55321
 Alpha virt. eigenvalues --    0.56230   0.57098   0.57177   0.58228   0.59367
 Alpha virt. eigenvalues --    0.61010   0.61730   0.62283   0.63349   0.64363
 Alpha virt. eigenvalues --    0.64783   0.65126   0.66569   0.68125   0.68392
 Alpha virt. eigenvalues --    0.69012   0.69884   0.71321   0.72044   0.74500
 Alpha virt. eigenvalues --    0.74757   0.75121   0.76886   0.78407   0.79513
 Alpha virt. eigenvalues --    0.79638   0.80171   0.82464   0.83225   0.86481
 Alpha virt. eigenvalues --    0.87097   0.87519   0.88712   0.90092   0.91970
 Alpha virt. eigenvalues --    0.92561   0.96420   0.97173   0.98624   1.00814
 Alpha virt. eigenvalues --    1.01651   1.03359   1.03583   1.04357   1.08183
 Alpha virt. eigenvalues --    1.09825   1.10073   1.10706   1.13067   1.14831
 Alpha virt. eigenvalues --    1.16428   1.17227   1.19766   1.23754   1.24123
 Alpha virt. eigenvalues --    1.26304   1.28552   1.30489   1.31042   1.37340
 Alpha virt. eigenvalues --    1.40379   1.41698   1.43551   1.45319   1.46493
 Alpha virt. eigenvalues --    1.48721   1.51678   1.54093   1.55534   1.57347
 Alpha virt. eigenvalues --    1.59384   1.60316   1.62448   1.63376   1.65782
 Alpha virt. eigenvalues --    1.67260   1.67983   1.71030   1.71215   1.74692
 Alpha virt. eigenvalues --    1.76149   1.76422   1.77450   1.81025   1.83750
 Alpha virt. eigenvalues --    1.86272   1.88094   1.90997   1.92814   1.93320
 Alpha virt. eigenvalues --    1.94354   1.97579   1.98867   2.00386   2.03516
 Alpha virt. eigenvalues --    2.04115   2.04335   2.07537   2.09615   2.12468
 Alpha virt. eigenvalues --    2.13236   2.15041   2.18109   2.19159   2.20890
 Alpha virt. eigenvalues --    2.24023   2.27661   2.29556   2.30669   2.32833
 Alpha virt. eigenvalues --    2.34080   2.35599   2.36485   2.38859   2.42416
 Alpha virt. eigenvalues --    2.45107   2.46290   2.48260   2.52155   2.54820
 Alpha virt. eigenvalues --    2.56733   2.59246   2.61666   2.66829   2.69675
 Alpha virt. eigenvalues --    2.72233   2.73762   2.75255   2.78980   2.81106
 Alpha virt. eigenvalues --    2.83207   2.83927   2.87801   2.91994   2.96238
 Alpha virt. eigenvalues --    2.99552   3.04245   3.07371   3.16206   3.29406
 Alpha virt. eigenvalues --    3.34770   3.35564   3.38897   3.57353   3.71003
          Condensed to atoms (all electrons):
               1          2          3          4          5          6
     1  N    6.468340   0.393594   0.434063  -0.022237  -0.099706  -0.066242
     2  H    0.393594   0.475377  -0.072054  -0.048244   0.018193  -0.006678
     3  H    0.434063  -0.072054   0.600294  -0.055597  -0.004632  -0.037098
     4  C   -0.022237  -0.048244  -0.055597   4.601153   0.312236   0.212770
     5  H   -0.099706   0.018193  -0.004632   0.312236   1.168101  -0.210494
     6  H   -0.066242  -0.006678  -0.037098   0.212770  -0.210494   1.251219
     7  C   -0.119869  -0.010925   0.036589   0.599444   0.033954  -0.106048
     8  H    0.019248   0.005213  -0.004436  -0.190271  -0.057427   0.077213
     9  H    0.018416  -0.002545   0.000535   0.043001  -0.043750  -0.050094
    10  C    0.123777  -0.021619  -0.014579  -0.377644   0.014657   0.089933
    11  N   -0.097622   0.061627   0.001030   0.064248   0.004694  -0.026545
    12  C   -0.003043  -0.002319  -0.000648  -0.075911   0.001849  -0.026232
    13  H    0.007121  -0.014649   0.000770  -0.004405  -0.000326  -0.000102
    14  C    0.000450  -0.000033   0.000400   0.015061   0.001110   0.004793
    15  H   -0.000298   0.001936  -0.000070   0.002383   0.000269  -0.000169
    16  S   -0.024480   0.003326  -0.000488   0.026297  -0.002920   0.016569
    17  H    0.359362  -0.031764  -0.064400  -0.007897  -0.034989   0.022316
               7          8          9         10         11         12
     1  N   -0.119869   0.019248   0.018416   0.123777  -0.097622  -0.003043
     2  H   -0.010925   0.005213  -0.002545  -0.021619   0.061627  -0.002319
     3  H    0.036589  -0.004436   0.000535  -0.014579   0.001030  -0.000648
     4  C    0.599444  -0.190271   0.043001  -0.377644   0.064248  -0.075911
     5  H    0.033954  -0.057427  -0.043750   0.014657   0.004694   0.001849
     6  H   -0.106048   0.077213  -0.050094   0.089933  -0.026545  -0.026232
     7  C    5.480947   0.258676   0.066606  -0.309380   0.082095  -0.218622
     8  H    0.258676   0.983237  -0.139438   0.043817  -0.048680  -0.034892
     9  H    0.066606  -0.139438   1.092046  -0.010572   0.029386   0.013845
    10  C   -0.309380   0.043817  -0.010572   6.302760   0.376919  -0.250430
    11  N    0.082095  -0.048680   0.029386   0.376919   7.516559   0.147371
    12  C   -0.218622  -0.034892   0.013845  -0.250430   0.147371   5.634612
    13  H   -0.010853  -0.000941   0.000551   0.089552  -0.194661   0.282234
    14  C   -0.009746   0.009129  -0.005297  -0.077185  -0.117569   0.190686
    15  H    0.025946   0.000883   0.001389   0.030613   0.012427  -0.011358
    16  S    0.073906   0.044549  -0.062459   0.096159  -0.128712  -0.319590
    17  H   -0.039080   0.004652   0.004621   0.014726  -0.013260  -0.001567
              13         14         15         16         17
     1  N    0.007121   0.000450  -0.000298  -0.024480   0.359362
     2  H   -0.014649  -0.000033   0.001936   0.003326  -0.031764
     3  H    0.000770   0.000400  -0.000070  -0.000488  -0.064400
     4  C   -0.004405   0.015061   0.002383   0.026297  -0.007897
     5  H   -0.000326   0.001110   0.000269  -0.002920  -0.034989
     6  H   -0.000102   0.004793  -0.000169   0.016569   0.022316
     7  C   -0.010853  -0.009746   0.025946   0.073906  -0.039080
     8  H   -0.000941   0.009129   0.000883   0.044549   0.004652
     9  H    0.000551  -0.005297   0.001389  -0.062459   0.004621
    10  C    0.089552  -0.077185   0.030613   0.096159   0.014726
    11  N   -0.194661  -0.117569   0.012427  -0.128712  -0.013260
    12  C    0.282234   0.190686  -0.011358  -0.319590  -0.001567
    13  H    1.265552  -0.124210  -0.038622  -0.000385   0.001241
    14  C   -0.124210   5.420041   0.269733   0.287885  -0.000473
    15  H   -0.038622   0.269733   1.160601  -0.125087  -0.000170
    16  S   -0.000385   0.287885  -0.125087  15.731637  -0.000537
    17  H    0.001241  -0.000473  -0.000170  -0.000537   0.541988
 Mulliken charges:
               1
     1  N   -0.390871
     2  H    0.251563
     3  H    0.180320
     4  C    0.905613
     5  H   -0.100816
     6  H   -0.145111
     7  C    0.166362
     8  H    0.029469
     9  H    0.043757
    10  C   -0.121504
    11  N   -0.669309
    12  C    0.674014
    13  H   -0.257866
    14  C    0.135224
    15  H   -0.330406
    16  S    0.384331
    17  H    0.245232
 Sum of Mulliken charges =   1.00000
 Mulliken charges with hydrogens summed into heavy atoms:
               1
     1  N    0.286243
     4  C    0.659686
     7  C    0.239588
    10  C   -0.121504
    11  N   -0.669309
    12  C    0.416148
    14  C   -0.195182
    16  S    0.384331
 Electronic spatial extent (au):  <R**2>=           1221.3492
 Charge=              1.0000 electrons
 Dipole moment (field-independent basis, Debye):
    X=             -8.5896    Y=              1.4316    Z=             -0.2121  Tot=              8.7106
 Quadrupole moment (field-independent basis, Debye-Ang):
   XX=            -11.5501   YY=            -44.4352   ZZ=            -53.2152
   XY=             -3.0310   XZ=              1.6581   YZ=              0.0129
 Traceless Quadrupole moment (field-independent basis, Debye-Ang):
   XX=             24.8501   YY=             -8.0350   ZZ=            -16.8150
   XY=             -3.0310   XZ=              1.6581   YZ=              0.0129
 Octapole moment (field-independent basis, Debye-Ang**2):
  XXX=            -83.7293  YYY=             10.8985  ZZZ=             -2.3539  XYY=            -14.9216
  XXY=             29.5848  XXZ=             -0.1587  XZZ=            -19.0387  YZZ=             -0.0574
  YYZ=              0.9962  XYZ=              1.3836
 Hexadecapole moment (field-independent basis, Debye-Ang**3):
 XXXX=           -672.7163 YYYY=           -341.2924 ZZZZ=            -84.5793 XXXY=            -72.0328
 XXXZ=             16.7910 YYYX=             -2.8505 YYYZ=              0.1079 ZZZX=              5.9156
 ZZZY=             -1.2672 XXYY=           -195.1852 XXZZ=           -185.2940 YYZZ=            -82.6733
 XXYZ=             -0.0119 YYXZ=             -0.8159 ZZXY=             -9.7565
 N-N= 4.467447351135D+02 E-N=-2.535608418558D+03  KE= 7.003212298512D+02
 Leave Link  601 at Sun Jul 11 16:33:39 2021, MaxMem=   262144000 cpu:               0.3 elap:               0.1
 (Enter /prod/apps/gaussian/g16b1/l9999.exe)
 1\1\GINC-PIRINEUS31\SP\RMP2-FC\Aug-CC-pVDZ\C5H9N2S1(1+)\UBATOR02\11-Ju
 l-2021\0\\#p mp2/aug-cc-pVDZ scf=tight maxdisk=180GB geom=allcheck\\SE
 T_328_BBB87_conf1.geo_075_075 geometry\\1,1\N,0,-1.3260817902,-1.80054
 63393,-0.2190265845\H,0,-0.6594171402,-1.5543812248,0.5401705455\H,0,-
 1.2420444925,-2.8034665912,-0.4446982007\C,0,-1.0184053867,-0.93977282
 8,-1.4088849252\H,0,-1.7853706739,-1.1257787492,-2.1584199967\H,0,-0.0
 551161683,-1.272573744,-1.7941845862\C,0,-0.9817014263,0.5382401103,-1
 .0191104605\H,0,-1.9595500448,0.8425821677,-0.627192059\H,0,-0.8169073
 1,1.1206841936,-1.9278182407\C,0,0.086687217,0.8438841509,-0.003142087
 7\N,0,0.4306699181,0.018516485,0.9533209758\C,0,1.4161103208,0.5497851
 652,1.7574271196\H,0,1.7944707801,-0.0332701395,2.5874262798\C,0,1.835
 0537946,1.8015970497,1.420090328\H,0,2.5851049847,2.4154436171,1.89553
 13671\S,0,0.9671156172,2.3529520565,0.0235734644\H,0,-2.2836181994,-1.
 6368953798,0.1299370611\\Version=ES64L-G16RevB.01\State=1-A\HF=-700.83
 17029\MP2=-702.0252121\RMSD=8.207e-09\PG=C01 [X(C5H9N2S1)]\\@


 BETTER TO HUNT IN FIELDS, FOR HEALTH UNBOUGHT
 THAN FEE THE DOCTOR FOR A NAUSEOUS DRAUGHT.
 THE WISE, FOR CURE, ON EXERCISE DEPEND;
 GOD NEVER MADE HIS WORK FOR MAN TO MEND.
     -- JOHN DRYDEN (1631-1700)
 Job cpu time:       0 days  0 hours  5 minutes 17.7 seconds.
 Elapsed time:       0 days  0 hours  1 minutes 19.6 seconds.
 File lengths (MBytes):  RWF=     43 Int=      0 D2E=      0 Chk=      8 Scr=      1
 Normal termination of Gaussian 16 at Sun Jul 11 16:33:39 2021.
