 Entering Gaussian System, Link 0=g16
 Initial command:
 /prod/apps/gaussian/g16b1/l1.exe "/tmp/ubator02/1834601/Gau-35467.inp" -scrdir="/tmp/ubator02/1834601/"
 Entering Link 1 = /prod/apps/gaussian/g16b1/l1.exe PID=     35468.
  
 Copyright (c) 1988-2017, Gaussian, Inc.  All Rights Reserved.
  
 This is part of the Gaussian(R) 16 program.  It is based on
 the Gaussian(R) 09 system (copyright 2009, Gaussian, Inc.),
 the Gaussian(R) 03 system (copyright 2003, Gaussian, Inc.),
 the Gaussian(R) 98 system (copyright 1998, Gaussian, Inc.),
 the Gaussian(R) 94 system (copyright 1995, Gaussian, Inc.),
 the Gaussian 92(TM) system (copyright 1992, Gaussian, Inc.),
 the Gaussian 90(TM) system (copyright 1990, Gaussian, Inc.),
 the Gaussian 88(TM) system (copyright 1988, Gaussian, Inc.),
 the Gaussian 86(TM) system (copyright 1986, Carnegie Mellon
 University), and the Gaussian 82(TM) system (copyright 1983,
 Carnegie Mellon University). Gaussian is a federally registered
 trademark of Gaussian, Inc.
  
 This software contains proprietary and confidential information,
 including trade secrets, belonging to Gaussian, Inc.
  
 This software is provided under written license and may be
 used, copied, transmitted, or stored only in accord with that
 written license.
  
 The following legend is applicable only to US Government
 contracts under FAR:
  
                    RESTRICTED RIGHTS LEGEND
  
 Use, reproduction and disclosure by the US Government is
 subject to restrictions as set forth in subparagraphs (a)
 and (c) of the Commercial Computer Software - Restricted
 Rights clause in FAR 52.227-19.
  
 Gaussian, Inc.
 340 Quinnipiac St., Bldg. 40, Wallingford CT 06492
  
  
 ---------------------------------------------------------------
 Warning -- This program may not be used in any manner that
 competes with the business of Gaussian, Inc. or will provide
 assistance to any competitor of Gaussian, Inc.  The licensee
 of this program is prohibited from giving any competitor of
 Gaussian, Inc. access to this program.  By using this program,
 the user acknowledges that Gaussian, Inc. is engaged in the
 business of creating and licensing software in the field of
 computational chemistry and represents and warrants to the
 licensee that it is not a competitor of Gaussian, Inc. and that
 it will not use this program in any manner prohibited above.
 ---------------------------------------------------------------
  

 Cite this work as:
 Gaussian 16, Revision B.01,
 M. J. Frisch, G. W. Trucks, H. B. Schlegel, G. E. Scuseria, 
 M. A. Robb, J. R. Cheeseman, G. Scalmani, V. Barone, 
 G. A. Petersson, H. Nakatsuji, X. Li, M. Caricato, A. V. Marenich, 
 J. Bloino, B. G. Janesko, R. Gomperts, B. Mennucci, H. P. Hratchian, 
 J. V. Ortiz, A. F. Izmaylov, J. L. Sonnenberg, D. Williams-Young, 
 F. Ding, F. Lipparini, F. Egidi, J. Goings, B. Peng, A. Petrone, 
 T. Henderson, D. Ranasinghe, V. G. Zakrzewski, J. Gao, N. Rega, 
 G. Zheng, W. Liang, M. Hada, M. Ehara, K. Toyota, R. Fukuda, 
 J. Hasegawa, M. Ishida, T. Nakajima, Y. Honda, O. Kitao, H. Nakai, 
 T. Vreven, K. Throssell, J. A. Montgomery, Jr., J. E. Peralta, 
 F. Ogliaro, M. J. Bearpark, J. J. Heyd, E. N. Brothers, K. N. Kudin, 
 V. N. Staroverov, T. A. Keith, R. Kobayashi, J. Normand, 
 K. Raghavachari, A. P. Rendell, J. C. Burant, S. S. Iyengar, 
 J. Tomasi, M. Cossi, J. M. Millam, M. Klene, C. Adamo, R. Cammi, 
 J. W. Ochterski, R. L. Martin, K. Morokuma, O. Farkas, 
 J. B. Foresman, and D. J. Fox, Gaussian, Inc., Wallingford CT, 2016.
 
 ******************************************
 Gaussian 16:  ES64L-G16RevB.01 20-Dec-2017
                11-Jul-2021 
 ******************************************
 %mem=800MB
 %nproc=4
 Will use up to    4 processors via shared memory.
 %chk=SET_328_BBB65_conf1.geo_060_330.chk
 -----------------------------------------------------------
 #p b3lyp/6-31G(d) opt freq scrf=(iefpcm,read,solvent=water)
 -----------------------------------------------------------
 1/18=20,19=15,26=3,38=1,40=2/1,3;
 2/9=110,12=2,17=6,18=5,40=1/2;
 3/5=1,6=6,7=1,11=2,25=1,30=1,70=2203,71=1,72=1,74=-5/1,2,3;
 4//1;
 5/5=2,38=5,53=1/2;
 6/7=2,8=2,9=2,10=2,28=1/1;
 7//1,2,3,16;
 1/18=20,19=15,26=3/3(2);
 2/9=110/2;
 99//99;
 2/9=110/2;
 3/5=1,6=6,7=1,11=2,25=1,30=1,70=2205,71=1,72=1,74=-5/1,2,3;
 4/5=5,16=3,69=1/1;
 5/5=2,38=5,53=1/2;
 7//1,2,3,16;
 1/18=20,19=15,26=3/3(-5);
 2/9=110/2;
 6/7=2,8=2,9=2,10=2,19=2,28=1/1;
 99/9=1/99;
 Leave Link    1 at Sun Jul 11 16:19:24 2021, MaxMem=   104857600 cpu:               0.1 elap:               0.0
 (Enter /prod/apps/gaussian/g16b1/l101.exe)
 ----------------------------------------
 SET_328_BBB65_conf1.geo_060_330 geometry
 ----------------------------------------
 Symbolic Z-matrix:
 Charge =  1 Multiplicity = 1
 C                    -1.792     3.142    -0.129 
 C                    -2.273     1.952    -0.963 
 C                    -1.124     0.962    -1.118 
 H                    -1.479     0.167    -1.778 
 H                    -0.303     1.527    -1.567 
 H                    -3.127     1.435    -0.521 
 H                    -2.603     2.259    -1.958 
 H                    -0.898     3.631    -0.519 
 H                    -2.501     3.971    -0.092 
 C                    -1.258     2.693     1.28 
 H                    -2.103     2.276     1.831 
 H                    -0.736     3.527     1.753 
 C                    -0.12      1.622     1.021 
 H                     0.231     1.28      1.998 
 H                     0.647     2.118     0.421 
 N                    -0.683     0.463     0.194 
 C                     0.18     -0.723     0.144 
 C                     0.405    -1.262     1.551 
 C                    -0.895    -1.76      2.271 
 C                    -1.579    -2.843     1.413 
 C                    -1.848    -2.35     -0.029 
 C                    -0.586    -1.821    -0.693 
 H                    -0.727    -1.623    -1.757 
 H                    -0.004    -2.741    -0.775 
 H                    -2.563    -1.526    -0.076 
 H                    -2.114    -3.164    -0.707 
 H                    -2.462    -3.356     1.799 
 H                    -0.847    -3.638     1.253 
 H                    -1.58     -0.921     2.41 
 H                    -0.562    -2.151     3.235 
 H                     0.936    -0.555     2.191 
 H                     1.148    -2.063     1.551 
 C                     1.556    -0.351    -0.524 
 C                     2.669     0.082     0.216 
 H                     2.658     0.138     1.301 
 C                     3.859     0.376    -0.358 
 H                     4.729     0.732     0.188 
 C                     4.029     0.116    -1.701 
 H                     4.976     0.235    -2.221 
 C                     3.012    -0.362    -2.478 
 H                     3.067    -0.495    -3.555 
 C                     1.736    -0.407    -1.9 
 H                     0.93     -0.594    -2.605 
 H                    -1.514     0.17      0.667 
 
 ITRead=  0  0  0  0  0  0  0  0  0  0  0  0  0  0  0  0  0  0  0  0
 ITRead=  0  0  0  0  0  0  0  0  0  0  0  0  0  0  0  0  0  0  0  0
 ITRead=  0  0  0  0
 MicOpt= -1 -1 -1 -1 -1 -1 -1 -1 -1 -1 -1 -1 -1 -1 -1 -1 -1 -1 -1 -1
 MicOpt= -1 -1 -1 -1 -1 -1 -1 -1 -1 -1 -1 -1 -1 -1 -1 -1 -1 -1 -1 -1
 MicOpt= -1 -1 -1 -1
 NAtoms=     44 NQM=       44 NQMF=       0 NMMI=      0 NMMIF=      0
                NMic=       0 NMicF=      0.
                    Isotopes and Nuclear Properties:
 (Nuclear quadrupole moments (NQMom) in fm**2, nuclear magnetic moments (NMagM)
  in nuclear magnetons)

  Atom         1           2           3           4           5           6           7           8           9          10
 IAtWgt=          12          12          12           1           1           1           1           1           1          12
 AtmWgt=  12.0000000  12.0000000  12.0000000   1.0078250   1.0078250   1.0078250   1.0078250   1.0078250   1.0078250  12.0000000
 NucSpn=           0           0           0           1           1           1           1           1           1           0
 AtZEff=  -0.0000000  -0.0000000  -0.0000000  -0.0000000  -0.0000000  -0.0000000  -0.0000000  -0.0000000  -0.0000000  -0.0000000
 NQMom=    0.0000000   0.0000000   0.0000000   0.0000000   0.0000000   0.0000000   0.0000000   0.0000000   0.0000000   0.0000000
 NMagM=    0.0000000   0.0000000   0.0000000   2.7928460   2.7928460   2.7928460   2.7928460   2.7928460   2.7928460   0.0000000
 AtZNuc=   6.0000000   6.0000000   6.0000000   1.0000000   1.0000000   1.0000000   1.0000000   1.0000000   1.0000000   6.0000000

  Atom        11          12          13          14          15          16          17          18          19          20
 IAtWgt=           1           1          12           1           1          14          12          12          12          12
 AtmWgt=   1.0078250   1.0078250  12.0000000   1.0078250   1.0078250  14.0030740  12.0000000  12.0000000  12.0000000  12.0000000
 NucSpn=           1           1           0           1           1           2           0           0           0           0
 AtZEff=  -0.0000000  -0.0000000  -0.0000000  -0.0000000  -0.0000000  -0.0000000  -0.0000000  -0.0000000  -0.0000000  -0.0000000
 NQMom=    0.0000000   0.0000000   0.0000000   0.0000000   0.0000000   2.0440000   0.0000000   0.0000000   0.0000000   0.0000000
 NMagM=    2.7928460   2.7928460   0.0000000   2.7928460   2.7928460   0.4037610   0.0000000   0.0000000   0.0000000   0.0000000
 AtZNuc=   1.0000000   1.0000000   6.0000000   1.0000000   1.0000000   7.0000000   6.0000000   6.0000000   6.0000000   6.0000000

  Atom        21          22          23          24          25          26          27          28          29          30
 IAtWgt=          12          12           1           1           1           1           1           1           1           1
 AtmWgt=  12.0000000  12.0000000   1.0078250   1.0078250   1.0078250   1.0078250   1.0078250   1.0078250   1.0078250   1.0078250
 NucSpn=           0           0           1           1           1           1           1           1           1           1
 AtZEff=  -0.0000000  -0.0000000  -0.0000000  -0.0000000  -0.0000000  -0.0000000  -0.0000000  -0.0000000  -0.0000000  -0.0000000
 NQMom=    0.0000000   0.0000000   0.0000000   0.0000000   0.0000000   0.0000000   0.0000000   0.0000000   0.0000000   0.0000000
 NMagM=    0.0000000   0.0000000   2.7928460   2.7928460   2.7928460   2.7928460   2.7928460   2.7928460   2.7928460   2.7928460
 AtZNuc=   6.0000000   6.0000000   1.0000000   1.0000000   1.0000000   1.0000000   1.0000000   1.0000000   1.0000000   1.0000000

  Atom        31          32          33          34          35          36          37          38          39          40
 IAtWgt=           1           1          12          12           1          12           1          12           1          12
 AtmWgt=   1.0078250   1.0078250  12.0000000  12.0000000   1.0078250  12.0000000   1.0078250  12.0000000   1.0078250  12.0000000
 NucSpn=           1           1           0           0           1           0           1           0           1           0
 AtZEff=  -0.0000000  -0.0000000  -0.0000000  -0.0000000  -0.0000000  -0.0000000  -0.0000000  -0.0000000  -0.0000000  -0.0000000
 NQMom=    0.0000000   0.0000000   0.0000000   0.0000000   0.0000000   0.0000000   0.0000000   0.0000000   0.0000000   0.0000000
 NMagM=    2.7928460   2.7928460   0.0000000   0.0000000   2.7928460   0.0000000   2.7928460   0.0000000   2.7928460   0.0000000
 AtZNuc=   1.0000000   1.0000000   6.0000000   6.0000000   1.0000000   6.0000000   1.0000000   6.0000000   1.0000000   6.0000000

  Atom        41          42          43          44
 IAtWgt=           1          12           1           1
 AtmWgt=   1.0078250  12.0000000   1.0078250   1.0078250
 NucSpn=           1           0           1           1
 AtZEff=  -0.0000000  -0.0000000  -0.0000000  -0.0000000
 NQMom=    0.0000000   0.0000000   0.0000000   0.0000000
 NMagM=    2.7928460   0.0000000   2.7928460   2.7928460
 AtZNuc=   1.0000000   6.0000000   1.0000000   1.0000000
 Leave Link  101 at Sun Jul 11 16:19:24 2021, MaxMem=   104857600 cpu:               0.5 elap:               0.2
 (Enter /prod/apps/gaussian/g16b1/l103.exe)

 GradGradGradGradGradGradGradGradGradGradGradGradGradGradGradGradGradGrad
 Berny optimization.
 Initialization pass.
                           ----------------------------
                           !    Initial Parameters    !
                           ! (Angstroms and Degrees)  !
 --------------------------                            --------------------------
 ! Name  Definition              Value          Derivative Info.                !
 --------------------------------------------------------------------------------
 ! R1    R(1,2)                  1.5307         estimate D2E/DX2                !
 ! R2    R(1,8)                  1.0911         estimate D2E/DX2                !
 ! R3    R(1,9)                  1.0915         estimate D2E/DX2                !
 ! R4    R(1,10)                 1.5723         estimate D2E/DX2                !
 ! R5    R(2,3)                  1.5246         estimate D2E/DX2                !
 ! R6    R(2,6)                  1.0918         estimate D2E/DX2                !
 ! R7    R(2,7)                  1.0923         estimate D2E/DX2                !
 ! R8    R(3,4)                  1.0925         estimate D2E/DX2                !
 ! R9    R(3,5)                  1.0931         estimate D2E/DX2                !
 ! R10   R(3,16)                 1.4713         estimate D2E/DX2                !
 ! R11   R(10,11)                1.0916         estimate D2E/DX2                !
 ! R12   R(10,12)                1.0917         estimate D2E/DX2                !
 ! R13   R(10,13)                1.584          estimate D2E/DX2                !
 ! R14   R(13,14)                1.093          estimate D2E/DX2                !
 ! R15   R(13,15)                1.0928         estimate D2E/DX2                !
 ! R16   R(13,16)                1.5311         estimate D2E/DX2                !
 ! R17   R(16,17)                1.4676         estimate D2E/DX2                !
 ! R18   R(16,44)                1.0001         estimate D2E/DX2                !
 ! R19   R(17,18)                1.5234         estimate D2E/DX2                !
 ! R20   R(17,22)                1.5789         estimate D2E/DX2                !
 ! R21   R(17,33)                1.5742         estimate D2E/DX2                !
 ! R22   R(18,19)                1.5673         estimate D2E/DX2                !
 ! R23   R(18,31)                1.0915         estimate D2E/DX2                !
 ! R24   R(18,32)                1.0925         estimate D2E/DX2                !
 ! R25   R(19,20)                1.5417         estimate D2E/DX2                !
 ! R26   R(19,29)                1.092          estimate D2E/DX2                !
 ! R27   R(19,30)                1.0923         estimate D2E/DX2                !
 ! R28   R(20,21)                1.5475         estimate D2E/DX2                !
 ! R29   R(20,27)                1.0917         estimate D2E/DX2                !
 ! R30   R(20,28)                1.0925         estimate D2E/DX2                !
 ! R31   R(21,22)                1.521          estimate D2E/DX2                !
 ! R32   R(21,25)                1.092          estimate D2E/DX2                !
 ! R33   R(21,26)                1.0923         estimate D2E/DX2                !
 ! R34   R(22,23)                1.0914         estimate D2E/DX2                !
 ! R35   R(22,24)                1.0917         estimate D2E/DX2                !
 ! R36   R(33,34)                1.4049         estimate D2E/DX2                !
 ! R37   R(33,42)                1.3889         estimate D2E/DX2                !
 ! R38   R(34,35)                1.0865         estimate D2E/DX2                !
 ! R39   R(34,36)                1.3535         estimate D2E/DX2                !
 ! R40   R(36,37)                1.0871         estimate D2E/DX2                !
 ! R41   R(36,38)                1.3785         estimate D2E/DX2                !
 ! R42   R(38,39)                1.0869         estimate D2E/DX2                !
 ! R43   R(38,40)                1.3662         estimate D2E/DX2                !
 ! R44   R(40,41)                1.0866         estimate D2E/DX2                !
 ! R45   R(40,42)                1.4015         estimate D2E/DX2                !
 ! R46   R(42,43)                1.087          estimate D2E/DX2                !
 ! A1    A(2,1,8)              114.2771         estimate D2E/DX2                !
 ! A2    A(2,1,9)              113.8802         estimate D2E/DX2                !
 ! A3    A(2,1,10)             111.8998         estimate D2E/DX2                !
 ! A4    A(8,1,9)              101.7688         estimate D2E/DX2                !
 ! A5    A(8,1,10)              99.7893         estimate D2E/DX2                !
 ! A6    A(9,1,10)             114.0257         estimate D2E/DX2                !
 ! A7    A(1,2,3)              108.8686         estimate D2E/DX2                !
 ! A8    A(1,2,6)              113.1639         estimate D2E/DX2                !
 ! A9    A(1,2,7)              111.8848         estimate D2E/DX2                !
 ! A10   A(3,2,6)              108.8552         estimate D2E/DX2                !
 ! A11   A(3,2,7)              108.5166         estimate D2E/DX2                !
 ! A12   A(6,2,7)              105.3997         estimate D2E/DX2                !
 ! A13   A(2,3,4)              106.8009         estimate D2E/DX2                !
 ! A14   A(2,3,5)              105.7934         estimate D2E/DX2                !
 ! A15   A(2,3,16)             110.8218         estimate D2E/DX2                !
 ! A16   A(4,3,5)              111.8404         estimate D2E/DX2                !
 ! A17   A(4,3,16)             112.9099         estimate D2E/DX2                !
 ! A18   A(5,3,16)             108.4488         estimate D2E/DX2                !
 ! A19   A(1,10,11)            107.3698         estimate D2E/DX2                !
 ! A20   A(1,10,12)            109.4216         estimate D2E/DX2                !
 ! A21   A(1,10,13)            106.8913         estimate D2E/DX2                !
 ! A22   A(11,10,12)           116.3141         estimate D2E/DX2                !
 ! A23   A(11,10,13)           112.3574         estimate D2E/DX2                !
 ! A24   A(12,10,13)           104.114          estimate D2E/DX2                !
 ! A25   A(10,13,14)           107.224          estimate D2E/DX2                !
 ! A26   A(10,13,15)           106.6855         estimate D2E/DX2                !
 ! A27   A(10,13,16)           109.6308         estimate D2E/DX2                !
 ! A28   A(14,13,15)           114.0403         estimate D2E/DX2                !
 ! A29   A(14,13,16)           111.3484         estimate D2E/DX2                !
 ! A30   A(15,13,16)           107.7637         estimate D2E/DX2                !
 ! A31   A(3,16,13)            109.5808         estimate D2E/DX2                !
 ! A32   A(3,16,17)            114.8309         estimate D2E/DX2                !
 ! A33   A(3,16,44)            105.7866         estimate D2E/DX2                !
 ! A34   A(13,16,17)           114.4506         estimate D2E/DX2                !
 ! A35   A(13,16,44)           105.7751         estimate D2E/DX2                !
 ! A36   A(17,16,44)           105.5436         estimate D2E/DX2                !
 ! A37   A(16,17,18)           109.9564         estimate D2E/DX2                !
 ! A38   A(16,17,22)           107.1432         estimate D2E/DX2                !
 ! A39   A(16,17,33)           109.7243         estimate D2E/DX2                !
 ! A40   A(18,17,22)           108.3736         estimate D2E/DX2                !
 ! A41   A(18,17,33)           110.2694         estimate D2E/DX2                !
 ! A42   A(22,17,33)           111.3127         estimate D2E/DX2                !
 ! A43   A(17,18,19)           114.469          estimate D2E/DX2                !
 ! A44   A(17,18,31)           112.5949         estimate D2E/DX2                !
 ! A45   A(17,18,32)           111.0903         estimate D2E/DX2                !
 ! A46   A(19,18,31)           109.8747         estimate D2E/DX2                !
 ! A47   A(19,18,32)           109.3373         estimate D2E/DX2                !
 ! A48   A(31,18,32)            98.2818         estimate D2E/DX2                !
 ! A49   A(18,19,20)           109.6053         estimate D2E/DX2                !
 ! A50   A(18,19,29)           109.5516         estimate D2E/DX2                !
 ! A51   A(18,19,30)           105.4447         estimate D2E/DX2                !
 ! A52   A(20,19,29)           109.4052         estimate D2E/DX2                !
 ! A53   A(20,19,30)           112.022          estimate D2E/DX2                !
 ! A54   A(29,19,30)           110.728          estimate D2E/DX2                !
 ! A55   A(19,20,21)           111.8335         estimate D2E/DX2                !
 ! A56   A(19,20,27)           119.4824         estimate D2E/DX2                !
 ! A57   A(19,20,28)           107.1832         estimate D2E/DX2                !
 ! A58   A(21,20,27)           109.7897         estimate D2E/DX2                !
 ! A59   A(21,20,28)           102.2299         estimate D2E/DX2                !
 ! A60   A(27,20,28)           104.5826         estimate D2E/DX2                !
 ! A61   A(20,21,22)           111.9235         estimate D2E/DX2                !
 ! A62   A(20,21,25)           113.2237         estimate D2E/DX2                !
 ! A63   A(20,21,26)           112.5398         estimate D2E/DX2                !
 ! A64   A(22,21,25)           105.1915         estimate D2E/DX2                !
 ! A65   A(22,21,26)           100.9688         estimate D2E/DX2                !
 ! A66   A(25,21,26)           112.0973         estimate D2E/DX2                !
 ! A67   A(17,22,21)           114.3923         estimate D2E/DX2                !
 ! A68   A(17,22,23)           116.9567         estimate D2E/DX2                !
 ! A69   A(17,22,24)           111.5443         estimate D2E/DX2                !
 ! A70   A(21,22,23)           112.4266         estimate D2E/DX2                !
 ! A71   A(21,22,24)           100.4878         estimate D2E/DX2                !
 ! A72   A(23,22,24)            98.5417         estimate D2E/DX2                !
 ! A73   A(17,33,34)           122.8062         estimate D2E/DX2                !
 ! A74   A(17,33,42)           121.6134         estimate D2E/DX2                !
 ! A75   A(34,33,42)           115.5687         estimate D2E/DX2                !
 ! A76   A(33,34,35)           122.266          estimate D2E/DX2                !
 ! A77   A(33,34,36)           122.6887         estimate D2E/DX2                !
 ! A78   A(35,34,36)           114.9104         estimate D2E/DX2                !
 ! A79   A(34,36,37)           124.1773         estimate D2E/DX2                !
 ! A80   A(34,36,38)           118.7265         estimate D2E/DX2                !
 ! A81   A(37,36,38)           116.8985         estimate D2E/DX2                !
 ! A82   A(36,38,39)           123.5672         estimate D2E/DX2                !
 ! A83   A(36,38,40)           121.8899         estimate D2E/DX2                !
 ! A84   A(39,38,40)           114.5063         estimate D2E/DX2                !
 ! A85   A(38,40,41)           124.6712         estimate D2E/DX2                !
 ! A86   A(38,40,42)           117.0272         estimate D2E/DX2                !
 ! A87   A(41,40,42)           116.8032         estimate D2E/DX2                !
 ! A88   A(33,42,40)           121.6878         estimate D2E/DX2                !
 ! A89   A(33,42,43)           123.6002         estimate D2E/DX2                !
 ! A90   A(40,42,43)           114.4006         estimate D2E/DX2                !
 ! D1    D(8,1,2,3)             54.9156         estimate D2E/DX2                !
 ! D2    D(8,1,2,6)            176.094          estimate D2E/DX2                !
 ! D3    D(8,1,2,7)            -65.0157         estimate D2E/DX2                !
 ! D4    D(9,1,2,3)            171.2995         estimate D2E/DX2                !
 ! D5    D(9,1,2,6)            -67.5221         estimate D2E/DX2                !
 ! D6    D(9,1,2,7)             51.3681         estimate D2E/DX2                !
 ! D7    D(10,1,2,3)           -57.5631         estimate D2E/DX2                !
 ! D8    D(10,1,2,6)            63.6153         estimate D2E/DX2                !
 ! D9    D(10,1,2,7)          -177.4945         estimate D2E/DX2                !
 ! D10   D(2,1,10,11)          -64.8336         estimate D2E/DX2                !
 ! D11   D(2,1,10,12)          168.0968         estimate D2E/DX2                !
 ! D12   D(2,1,10,13)           55.9311         estimate D2E/DX2                !
 ! D13   D(8,1,10,11)          173.899          estimate D2E/DX2                !
 ! D14   D(8,1,10,12)           46.8294         estimate D2E/DX2                !
 ! D15   D(8,1,10,13)          -65.3363         estimate D2E/DX2                !
 ! D16   D(9,1,10,11)           66.2298         estimate D2E/DX2                !
 ! D17   D(9,1,10,12)          -60.8399         estimate D2E/DX2                !
 ! D18   D(9,1,10,13)         -173.0056         estimate D2E/DX2                !
 ! D19   D(1,2,3,4)           -175.829          estimate D2E/DX2                !
 ! D20   D(1,2,3,5)            -56.5372         estimate D2E/DX2                !
 ! D21   D(1,2,3,16)            60.8123         estimate D2E/DX2                !
 ! D22   D(6,2,3,4)             60.3922         estimate D2E/DX2                !
 ! D23   D(6,2,3,5)            179.684          estimate D2E/DX2                !
 ! D24   D(6,2,3,16)           -62.9665         estimate D2E/DX2                !
 ! D25   D(7,2,3,4)            -53.8317         estimate D2E/DX2                !
 ! D26   D(7,2,3,5)             65.46           estimate D2E/DX2                !
 ! D27   D(7,2,3,16)          -177.1904         estimate D2E/DX2                !
 ! D28   D(2,3,16,13)          -63.8243         estimate D2E/DX2                !
 ! D29   D(2,3,16,17)          165.7352         estimate D2E/DX2                !
 ! D30   D(2,3,16,44)           49.7803         estimate D2E/DX2                !
 ! D31   D(4,3,16,13)          176.4104         estimate D2E/DX2                !
 ! D32   D(4,3,16,17)           45.9699         estimate D2E/DX2                !
 ! D33   D(4,3,16,44)          -69.985          estimate D2E/DX2                !
 ! D34   D(5,3,16,13)           51.8866         estimate D2E/DX2                !
 ! D35   D(5,3,16,17)          -78.5538         estimate D2E/DX2                !
 ! D36   D(5,3,16,44)          165.4913         estimate D2E/DX2                !
 ! D37   D(1,10,13,14)        -178.0482         estimate D2E/DX2                !
 ! D38   D(1,10,13,15)          59.3922         estimate D2E/DX2                !
 ! D39   D(1,10,13,16)         -57.0356         estimate D2E/DX2                !
 ! D40   D(11,10,13,14)        -60.5157         estimate D2E/DX2                !
 ! D41   D(11,10,13,15)        176.9248         estimate D2E/DX2                !
 ! D42   D(11,10,13,16)         60.4969         estimate D2E/DX2                !
 ! D43   D(12,10,13,14)         66.187          estimate D2E/DX2                !
 ! D44   D(12,10,13,15)        -56.3726         estimate D2E/DX2                !
 ! D45   D(12,10,13,16)       -172.8004         estimate D2E/DX2                !
 ! D46   D(10,13,16,3)          62.3786         estimate D2E/DX2                !
 ! D47   D(10,13,16,17)       -166.977          estimate D2E/DX2                !
 ! D48   D(10,13,16,44)        -51.2335         estimate D2E/DX2                !
 ! D49   D(14,13,16,3)        -179.1346         estimate D2E/DX2                !
 ! D50   D(14,13,16,17)        -48.4902         estimate D2E/DX2                !
 ! D51   D(14,13,16,44)         67.2533         estimate D2E/DX2                !
 ! D52   D(15,13,16,3)         -53.3665         estimate D2E/DX2                !
 ! D53   D(15,13,16,17)         77.2779         estimate D2E/DX2                !
 ! D54   D(15,13,16,44)       -166.9786         estimate D2E/DX2                !
 ! D55   D(3,16,17,18)        -171.8784         estimate D2E/DX2                !
 ! D56   D(3,16,17,22)         -54.301          estimate D2E/DX2                !
 ! D57   D(3,16,17,33)          66.6737         estimate D2E/DX2                !
 ! D58   D(13,16,17,18)         60.0936         estimate D2E/DX2                !
 ! D59   D(13,16,17,22)        177.671          estimate D2E/DX2                !
 ! D60   D(13,16,17,33)        -61.3543         estimate D2E/DX2                !
 ! D61   D(44,16,17,18)        -55.784          estimate D2E/DX2                !
 ! D62   D(44,16,17,22)         61.7934         estimate D2E/DX2                !
 ! D63   D(44,16,17,33)       -177.2319         estimate D2E/DX2                !
 ! D64   D(16,17,18,19)         63.031          estimate D2E/DX2                !
 ! D65   D(16,17,18,31)        -63.4065         estimate D2E/DX2                !
 ! D66   D(16,17,18,32)       -172.5368         estimate D2E/DX2                !
 ! D67   D(22,17,18,19)        -53.7795         estimate D2E/DX2                !
 ! D68   D(22,17,18,31)        179.7831         estimate D2E/DX2                !
 ! D69   D(22,17,18,32)         70.6528         estimate D2E/DX2                !
 ! D70   D(33,17,18,19)       -175.8475         estimate D2E/DX2                !
 ! D71   D(33,17,18,31)         57.715          estimate D2E/DX2                !
 ! D72   D(33,17,18,32)        -51.4153         estimate D2E/DX2                !
 ! D73   D(16,17,22,21)        -66.7565         estimate D2E/DX2                !
 ! D74   D(16,17,22,23)         67.716          estimate D2E/DX2                !
 ! D75   D(16,17,22,24)       -179.9543         estimate D2E/DX2                !
 ! D76   D(18,17,22,21)         51.8515         estimate D2E/DX2                !
 ! D77   D(18,17,22,23)       -173.676          estimate D2E/DX2                !
 ! D78   D(18,17,22,24)        -61.3462         estimate D2E/DX2                !
 ! D79   D(33,17,22,21)        173.2793         estimate D2E/DX2                !
 ! D80   D(33,17,22,23)        -52.2481         estimate D2E/DX2                !
 ! D81   D(33,17,22,24)         60.0816         estimate D2E/DX2                !
 ! D82   D(16,17,33,34)         91.1575         estimate D2E/DX2                !
 ! D83   D(16,17,33,42)        -87.5434         estimate D2E/DX2                !
 ! D84   D(18,17,33,34)        -30.1023         estimate D2E/DX2                !
 ! D85   D(18,17,33,42)        151.1968         estimate D2E/DX2                !
 ! D86   D(22,17,33,34)       -150.4182         estimate D2E/DX2                !
 ! D87   D(22,17,33,42)         30.8809         estimate D2E/DX2                !
 ! D88   D(17,18,19,20)         56.7624         estimate D2E/DX2                !
 ! D89   D(17,18,19,29)        -63.2885         estimate D2E/DX2                !
 ! D90   D(17,18,19,30)        177.5169         estimate D2E/DX2                !
 ! D91   D(31,18,19,20)       -175.4042         estimate D2E/DX2                !
 ! D92   D(31,18,19,29)         64.5449         estimate D2E/DX2                !
 ! D93   D(31,18,19,30)        -54.6497         estimate D2E/DX2                !
 ! D94   D(32,18,19,20)        -68.5953         estimate D2E/DX2                !
 ! D95   D(32,18,19,29)        171.3538         estimate D2E/DX2                !
 ! D96   D(32,18,19,30)         52.1592         estimate D2E/DX2                !
 ! D97   D(18,19,20,21)        -54.3302         estimate D2E/DX2                !
 ! D98   D(18,19,20,27)        175.4664         estimate D2E/DX2                !
 ! D99   D(18,19,20,28)         56.9396         estimate D2E/DX2                !
 ! D100  D(29,19,20,21)         65.81           estimate D2E/DX2                !
 ! D101  D(29,19,20,27)        -64.3933         estimate D2E/DX2                !
 ! D102  D(29,19,20,28)        177.0798         estimate D2E/DX2                !
 ! D103  D(30,19,20,21)       -171.0107         estimate D2E/DX2                !
 ! D104  D(30,19,20,27)         58.7859         estimate D2E/DX2                !
 ! D105  D(30,19,20,28)        -59.741          estimate D2E/DX2                !
 ! D106  D(19,20,21,22)         53.821          estimate D2E/DX2                !
 ! D107  D(19,20,21,25)        -64.8695         estimate D2E/DX2                !
 ! D108  D(19,20,21,26)        166.7201         estimate D2E/DX2                !
 ! D109  D(27,20,21,22)       -171.1369         estimate D2E/DX2                !
 ! D110  D(27,20,21,25)         70.1726         estimate D2E/DX2                !
 ! D111  D(27,20,21,26)        -58.2378         estimate D2E/DX2                !
 ! D112  D(28,20,21,22)        -60.5404         estimate D2E/DX2                !
 ! D113  D(28,20,21,25)       -179.2309         estimate D2E/DX2                !
 ! D114  D(28,20,21,26)         52.3587         estimate D2E/DX2                !
 ! D115  D(20,21,22,17)        -52.7879         estimate D2E/DX2                !
 ! D116  D(20,21,22,23)        170.6918         estimate D2E/DX2                !
 ! D117  D(20,21,22,24)         66.8163         estimate D2E/DX2                !
 ! D118  D(25,21,22,17)         70.5613         estimate D2E/DX2                !
 ! D119  D(25,21,22,23)        -65.9591         estimate D2E/DX2                !
 ! D120  D(25,21,22,24)       -169.8346         estimate D2E/DX2                !
 ! D121  D(26,21,22,17)       -172.7153         estimate D2E/DX2                !
 ! D122  D(26,21,22,23)         50.7643         estimate D2E/DX2                !
 ! D123  D(26,21,22,24)        -53.1111         estimate D2E/DX2                !
 ! D124  D(17,33,34,35)          3.1            estimate D2E/DX2                !
 ! D125  D(17,33,34,36)        178.6605         estimate D2E/DX2                !
 ! D126  D(42,33,34,35)       -178.1264         estimate D2E/DX2                !
 ! D127  D(42,33,34,36)         -2.5659         estimate D2E/DX2                !
 ! D128  D(17,33,42,40)       -165.9819         estimate D2E/DX2                !
 ! D129  D(17,33,42,43)          7.2479         estimate D2E/DX2                !
 ! D130  D(34,33,42,40)         15.2286         estimate D2E/DX2                !
 ! D131  D(34,33,42,43)       -171.5417         estimate D2E/DX2                !
 ! D132  D(33,34,36,37)        178.6964         estimate D2E/DX2                !
 ! D133  D(33,34,36,38)         -6.5818         estimate D2E/DX2                !
 ! D134  D(35,34,36,37)         -5.4421         estimate D2E/DX2                !
 ! D135  D(35,34,36,38)        169.2797         estimate D2E/DX2                !
 ! D136  D(34,36,38,39)       -174.1979         estimate D2E/DX2                !
 ! D137  D(34,36,38,40)          3.4826         estimate D2E/DX2                !
 ! D138  D(37,36,38,39)          0.9067         estimate D2E/DX2                !
 ! D139  D(37,36,38,40)        178.5871         estimate D2E/DX2                !
 ! D140  D(36,38,40,41)        174.0196         estimate D2E/DX2                !
 ! D141  D(36,38,40,42)          8.4731         estimate D2E/DX2                !
 ! D142  D(39,38,40,41)         -8.1045         estimate D2E/DX2                !
 ! D143  D(39,38,40,42)       -173.6509         estimate D2E/DX2                !
 ! D144  D(38,40,42,33)        -18.2668         estimate D2E/DX2                !
 ! D145  D(38,40,42,43)        167.923          estimate D2E/DX2                !
 ! D146  D(41,40,42,33)        175.0293         estimate D2E/DX2                !
 ! D147  D(41,40,42,43)          1.2191         estimate D2E/DX2                !
 --------------------------------------------------------------------------------
 Trust Radius=3.00D-01 FncErr=1.00D-07 GrdErr=1.00D-06 EigMax=2.50D+02 EigMin=1.00D-04
 Number of steps in this run=    264 maximum allowed number of steps=    264.
 GradGradGradGradGradGradGradGradGradGradGradGradGradGradGradGradGradGrad

 Leave Link  103 at Sun Jul 11 16:19:24 2021, MaxMem=   104857600 cpu:               0.1 elap:               0.0
 (Enter /prod/apps/gaussian/g16b1/l202.exe)
                          Input orientation:                          
 ---------------------------------------------------------------------
 Center     Atomic      Atomic             Coordinates (Angstroms)
 Number     Number       Type             X           Y           Z
 ---------------------------------------------------------------------
      1          6           0       -1.792000    3.142000   -0.129000
      2          6           0       -2.273000    1.952000   -0.963000
      3          6           0       -1.124000    0.962000   -1.118000
      4          1           0       -1.479000    0.167000   -1.778000
      5          1           0       -0.303000    1.527000   -1.567000
      6          1           0       -3.127000    1.435000   -0.521000
      7          1           0       -2.603000    2.259000   -1.958000
      8          1           0       -0.898000    3.631000   -0.519000
      9          1           0       -2.501000    3.971000   -0.092000
     10          6           0       -1.258000    2.693000    1.280000
     11          1           0       -2.103000    2.276000    1.831000
     12          1           0       -0.736000    3.527000    1.753000
     13          6           0       -0.120000    1.622000    1.021000
     14          1           0        0.231000    1.280000    1.998000
     15          1           0        0.647000    2.118000    0.421000
     16          7           0       -0.683000    0.463000    0.194000
     17          6           0        0.180000   -0.723000    0.144000
     18          6           0        0.405000   -1.262000    1.551000
     19          6           0       -0.895000   -1.760000    2.271000
     20          6           0       -1.579000   -2.843000    1.413000
     21          6           0       -1.848000   -2.350000   -0.029000
     22          6           0       -0.586000   -1.821000   -0.693000
     23          1           0       -0.727000   -1.623000   -1.757000
     24          1           0       -0.004000   -2.741000   -0.775000
     25          1           0       -2.563000   -1.526000   -0.076000
     26          1           0       -2.114000   -3.164000   -0.707000
     27          1           0       -2.462000   -3.356000    1.799000
     28          1           0       -0.847000   -3.638000    1.253000
     29          1           0       -1.580000   -0.921000    2.410000
     30          1           0       -0.562000   -2.151000    3.235000
     31          1           0        0.936000   -0.555000    2.191000
     32          1           0        1.148000   -2.063000    1.551000
     33          6           0        1.556000   -0.351000   -0.524000
     34          6           0        2.669000    0.082000    0.216000
     35          1           0        2.658000    0.138000    1.301000
     36          6           0        3.859000    0.376000   -0.358000
     37          1           0        4.729000    0.732000    0.188000
     38          6           0        4.029000    0.116000   -1.701000
     39          1           0        4.976000    0.235000   -2.221000
     40          6           0        3.012000   -0.362000   -2.478000
     41          1           0        3.067000   -0.495000   -3.555000
     42          6           0        1.736000   -0.407000   -1.900000
     43          1           0        0.930000   -0.594000   -2.605000
     44          1           0       -1.514000    0.170000    0.667000
 ---------------------------------------------------------------------
                    Distance matrix (angstroms):
                    1          2          3          4          5
     1  C    0.000000
     2  C    1.530692   0.000000
     3  C    2.485306   1.524574   0.000000
     4  H    3.415815   2.116810   1.092543   0.000000
     5  H    2.625489   2.103887   1.093100   1.810275   0.000000
     6  H    2.202212   1.091773   2.142930   2.429769   3.012898
     7  H    2.186927   1.092325   2.138983   2.381646   2.445139
     8  H    1.091081   2.215130   2.744711   3.731211   2.424695
     9  H    1.091463   2.210653   3.464518   4.284565   3.602772
    10  C    1.572272   2.571061   2.960527   3.972516   3.221334
    11  H    2.165243   2.817856   3.373668   4.226362   3.917576
    12  H    2.192096   3.495662   3.869420   4.930478   3.899986
    13  C    2.535446   2.946280   2.453352   3.434866   2.596201
    14  H    3.476162   3.935622   3.412712   4.291974   3.613224
    15  H    2.701814   3.235647   2.615588   3.627930   2.281211
    16  N    2.917405   2.466550   1.471335   2.147095   2.092276
    17  C    4.347590   3.794507   2.476345   2.690440   2.867631
    18  C    5.200425   4.880745   3.795732   4.083349   4.242842
    19  C    5.531204   5.112395   4.352820   4.522033   5.087738
    20  C    6.184121   5.396206   4.592495   4.387776   5.441091
    21  C    5.493196   4.422690   3.560820   3.087143   4.447876
    22  C    5.138473   4.141787   2.866210   2.434506   3.471753
    23  H    5.146828   3.975069   2.692240   1.941660   3.184082
    24  H    6.182552   5.216124   3.883846   3.411466   4.351148
    25  H    4.731540   3.601021   3.057226   2.634029   4.080624
    26  H    6.340615   5.124868   4.262968   3.556097   5.101451
    27  H    6.811027   5.986587   5.379987   5.115931   6.311492
    28  H    6.983649   6.179986   5.182506   4.905549   5.909785
    29  H    4.795773   4.484585   4.024973   4.328197   4.841483
    30  H    6.391028   6.114355   5.381006   5.598588   6.054252
    31  H    5.147057   5.150771   4.182627   4.701752   4.471287
    32  H    6.209511   5.843258   4.629921   4.791270   4.971461
    33  C    4.854501   4.489741   3.042894   3.324465   2.840883
    34  C    5.420622   5.413899   4.115921   4.603169   3.754983
    35  H    5.556205   5.721106   4.564434   5.157117   4.349973
    36  C    6.295792   6.360128   5.074572   5.527597   4.484275
    37  H    6.959312   7.200084   6.001345   6.536333   5.388235
    38  C    6.746251   6.605357   5.254428   5.508774   4.557971
    39  H    7.657215   7.555042   6.241405   6.470541   5.474013
    40  C    6.393296   5.964985   4.550722   4.575907   3.922686
    41  H    6.969586   6.420426   5.062242   4.925656   4.404262
    42  C    5.308354   4.744990   3.265775   3.268116   2.829976
    43  H    5.243811   4.408797   2.975100   2.658257   2.663902
    44  H    3.089285   2.531503   1.991379   2.445252   2.880751
                    6          7          8          9         10
     6  H    0.000000
     7  H    1.737389   0.000000
     8  H    3.129035   2.619185   0.000000
     9  H    2.647114   2.534424   1.693381   0.000000
    10  C    2.884324   3.532991   2.060545   2.249604   0.000000
    11  H    2.699585   3.821886   2.968257   2.594101   1.091565
    12  H    3.906971   4.343390   2.280141   2.591599   1.091682
    13  C    3.384491   3.930076   2.648200   3.525015   1.584035
    14  H    4.200661   4.963863   3.624518   4.367311   2.174676
    15  H    3.949295   4.030139   2.357922   3.688724   2.167379
    16  N    2.725646   3.397517   3.254354   3.961437   2.546158
    17  C    4.004427   4.588662   4.534200   5.410831   3.876519
    18  C    4.903266   5.810214   5.470298   6.207139   4.298957
    19  C    4.794279   6.078986   6.070172   6.403699   4.576359
    20  C    4.943475   6.200211   6.790365   7.038871   5.546893
    21  C    4.025435   5.053113   6.075768   6.354952   5.243418
    22  C    4.133739   4.723866   5.463691   6.129901   4.971972
    23  H    4.079100   4.316214   5.400593   6.100175   5.304073
    24  H    5.220787   5.757976   6.439500   7.193917   5.943391
    25  H    3.046907   4.227263   5.437198   5.497373   4.619710
    26  H    4.712915   5.586864   6.905507   7.171905   6.243825
    27  H    5.364542   6.757452   7.525782   7.567188   6.189457
    28  H    5.837877   6.940365   7.482042   7.902001   6.344384
    29  H    4.066289   5.498941   5.455719   5.571347   3.800208
    30  H    5.791904   7.112034   6.901952   7.232395   5.269799
    31  H    5.274752   6.136556   5.313215   6.124519   4.024060
    32  H    5.899560   6.712881   6.394736   7.240429   5.336835
    33  C    5.012015   5.115246   4.677442   5.943531   4.520945
    34  C    5.997282   6.104063   5.085186   6.476734   4.834330
    35  H    6.202267   6.542006   5.306466   6.576292   4.675845
    36  C    7.067690   6.918319   5.766281   7.310566   5.851087
    37  H    7.919194   7.790717   6.369237   7.927321   6.393915
    38  C    7.371601   6.974376   6.166659   7.751826   6.593911
    39  H    8.365919   7.849012   6.995248   8.625304   7.560524
    40  C    6.689273   6.218381   5.921979   7.406825   6.456662
    41  H    7.162101   6.502601   6.477839   7.933483   7.228153
    42  C    5.379905   5.092921   5.015033   6.355149   5.355972
    43  H    4.991908   4.586971   5.054068   6.239083   5.539399
    44  H    2.369248   3.527105   3.710064   3.999731   2.608991
                   11         12         13         14         15
    11  H    0.000000
    12  H    1.854663   0.000000
    13  C    2.239666   2.131738   0.000000
    14  H    2.543120   2.458480   1.093021   0.000000
    15  H    3.094441   2.381637   1.092843   1.833638   0.000000
    16  N    2.825445   3.438224   1.531071   2.181124   2.135288
    17  C    4.129414   4.635778   2.521538   2.729822   2.892421
    18  C    4.345792   4.927190   2.978923   2.586861   3.572095
    19  C    4.235819   5.314694   3.687960   3.253307   4.564992
    20  C    5.162699   6.434528   4.713658   4.540645   5.527265
    21  C    4.992444   6.241089   4.457047   4.648427   5.137173
    22  C    5.045520   5.882731   3.874171   4.186308   4.275162
    23  H    5.474424   6.232390   4.314598   4.842024   4.541656
    24  H    6.030533   6.798120   4.719623   4.890112   5.046196
    25  H    4.278253   5.675912   4.132985   4.470072   4.881582
    26  H    6.002930   7.260852   5.465146   5.706591   6.065891
    27  H    5.643521   7.096258   5.556144   5.365104   6.444334
    28  H    6.073468   7.183282   5.315068   5.089581   6.004648
    29  H    3.290833   4.574788   3.244653   2.879907   4.260419
    30  H    4.893284   5.870799   4.396895   3.732396   5.254012
    31  H    4.168895   4.432849   2.687632   1.975221   3.218905
    32  H    5.429026   5.902403   3.932931   3.495189   4.359892
    33  C    5.082857   5.047462   3.014752   3.282723   2.795580
    34  C    5.494893   5.081773   3.286053   3.248780   2.876770
    35  H    5.245862   4.817558   3.161952   2.771336   2.956167
    36  C    6.629266   5.958116   4.391651   4.419314   3.736087
    37  H    7.194415   6.334625   4.999879   4.879386   4.317176
    38  C    7.398787   6.802225   5.185704   5.427919   4.466409
    39  H    8.408129   7.697849   6.197060   6.434828   5.409815
    40  C    7.189558   6.860990   5.097909   5.519484   4.488633
    41  H    7.963438   7.669039   5.964766   6.483003   5.337860
    42  C    5.988052   5.910292   4.011710   4.506151   3.598415
    43  H    6.092133   6.224979   4.377332   5.018773   4.073292
    44  H    2.477308   3.613050   2.043736   2.459408   2.919784
                   16         17         18         19         20
    16  N    0.000000
    17  C    1.467605   0.000000
    18  C    2.449657   1.523416   0.000000
    19  C    3.049689   2.599062   1.567292   0.000000
    20  C    3.635714   3.032959   2.540642   1.541723   0.000000
    21  C    3.052855   2.605733   2.959080   2.558576   1.547506
    22  C    2.452108   1.578901   2.515969   2.980688   2.542788
    23  H    2.856525   2.290513   3.514912   4.033829   3.501886
    24  H    3.415497   2.225026   2.786575   3.321800   2.697846
    25  H    2.750167   2.866576   3.394974   2.888839   2.218077
    26  H    4.001836   3.456171   3.880919   3.510792   2.209902
    27  H    4.508395   4.080671   3.558936   2.285933   1.091721
    28  H    4.238700   3.283570   2.702163   2.136706   1.092451
    29  H    2.762376   2.876032   2.189609   1.092001   2.165201
    30  H    4.011897   3.484828   2.135712   1.092276   2.198371
    31  H    2.765049   2.188600   1.091517   2.193396   3.487901
    32  H    3.402159   2.170777   1.092543   2.187249   2.839714
    33  C    2.488220   1.574161   2.541721   3.975513   4.448624
    34  C    3.373655   2.616931   2.951992   4.507559   5.294708
    35  H    3.534594   2.867133   2.664303   4.143321   5.181802
    36  C    4.576247   3.872318   4.272873   5.837350   6.562793
    37  H    5.418684   4.776229   4.952856   6.494485   7.353374
    38  C    5.090617   4.350028   5.060411   6.598631   7.064159
    39  H    6.156987   5.432551   6.112531   7.656809   8.102349
    40  C    4.633922   3.876265   4.882550   6.306509   6.509418
    41  H    5.388438   4.697803   5.809111   7.158208   7.195793
    42  C    3.315614   2.588229   3.796312   5.113708   5.281978
    43  H    3.399032   2.852392   4.241955   5.335312   5.243797
    44  H    1.000069   1.985098   2.552379   2.584739   3.104659
                   21         22         23         24         25
    21  C    0.000000
    22  C    1.520980   0.000000
    23  H    2.184297   1.091412   0.000000
    24  H    2.027248   1.091718   1.654381   0.000000
    25  H    1.091975   2.091947   2.491198   2.917757   0.000000
    26  H    1.092262   2.034362   2.323994   2.153057   1.811852
    27  H    2.174998   3.476444   4.319566   3.611851   2.621970
    28  H    2.074721   2.675168   3.624186   2.372349   3.028439
    29  H    2.839469   3.380332   4.310951   3.992543   2.740896
    30  H    3.513843   3.941911   5.022556   4.091401   3.918845
    31  H    3.987616   3.498099   4.415076   3.802545   4.280786
    32  H    3.399233   2.846200   3.827805   2.682734   4.087422
    33  C    3.978472   2.603387   2.889699   2.865083   4.306680
    34  C    5.135946   3.878494   4.281655   4.012024   5.481309
    35  H    5.316303   4.282202   4.889858   4.436740   5.650121
    36  C    6.333180   4.969614   5.194670   4.981199   6.703672
    37  H    7.266550   5.961811   6.252758   5.948982   7.638162
    38  C    6.589072   5.105513   5.064266   5.028421   6.985074
    39  H    7.619322   6.123542   6.015951   5.978954   8.033596
    40  C    5.793906   4.273232   4.011245   4.201917   6.181029
    41  H    6.327000   4.826358   4.347370   4.712107   6.698007
    42  C    4.485638   2.974547   2.750541   3.121022   4.802139
    43  H    4.175715   2.731214   2.126874   2.971677   4.411974
    44  H    2.635597   2.583576   3.116086   3.582371   2.128113
                   26         27         28         29         30
    26  H    0.000000
    27  H    2.537322   0.000000
    28  H    2.381505   1.727966   0.000000
    29  H    3.877099   2.660915   3.042701   0.000000
    30  H    4.355943   2.669105   2.494137   1.797178   0.000000
    31  H    4.950534   4.421048   3.682909   2.551896   2.425109
    32  H    4.117209   3.842584   2.559190   3.079615   2.401604
    33  C    4.627673   5.529076   4.442579   4.332176   4.675041
    34  C    5.853677   6.375962   5.222645   4.886067   4.953788
    35  H    6.140623   6.218556   5.152233   4.506884   4.398668
    36  C    6.951987   7.650851   6.391710   6.239131   6.232224
    37  H    7.925055   8.427191   7.164000   6.890078   6.752080
    38  C    7.034407   8.150943   6.825980   7.031114   7.112009
    39  H    8.007090   9.185833   7.808722   8.109478   8.132059
    40  C    6.104385   7.564486   6.288435   6.729895   6.972257
    41  H    6.486711   8.210997   6.950878   7.573461   7.875029
    42  C    4.883318   6.324746   5.201217   5.462248   5.889870
    43  H    4.412849   6.207215   5.225689   5.617584   6.225425
    44  H    3.655603   3.822670   3.910134   2.057349   3.589982
                   31         32         33         34         35
    31  H    0.000000
    32  H    1.651850   0.000000
    33  C    2.792354   2.720852   0.000000
    34  C    2.703643   2.949015   1.404941   0.000000
    35  H    2.058551   2.680858   2.187270   1.086500   0.000000
    36  C    3.988495   4.116130   2.420722   1.353518   2.061874
    37  H    4.478306   4.742716   3.427501   2.160297   2.425004
    38  C    5.016428   4.860422   2.778335   2.350669   3.300323
    39  H    6.034190   5.844859   3.862590   3.359260   4.217466
    40  C    5.113373   4.754023   2.436837   2.751803   3.828336
    41  H    6.128726   5.675599   3.389811   3.835593   4.914133
    42  C    4.171113   3.872658   1.388853   2.363698   3.375427
    43  H    4.796162   4.413368   2.186661   3.382179   4.333433
    44  H    2.975013   3.585246   3.333890   4.208163   4.220019
                   36         37         38         39         40
    36  C    0.000000
    37  H    1.087084   0.000000
    38  C    1.378459   2.106603   0.000000
    39  H    2.176773   2.472104   1.086908   0.000000
    40  C    2.399261   3.354472   1.366200   2.068757   0.000000
    41  H    3.406863   4.275257   2.176254   2.440643   1.086574
    42  C    2.738244   3.822972   2.360292   3.318555   1.401530
    43  H    3.816929   4.898115   3.305316   4.147868   2.098732
    44  H    5.473773   6.286520   6.027868   7.103863   5.537032
                   41         42         43         44
    41  H    0.000000
    42  C    2.125636   0.000000
    43  H    2.340741   1.087028   0.000000
    44  H    6.265227   4.181497   4.154855   0.000000
 Stoichiometry    C17H26N(1+)
 Framework group  C1[X(C17H26N)]
 Deg. of freedom   126
 Full point group                 C1      NOp   1
 Largest Abelian subgroup         C1      NOp   1
 Largest concise Abelian subgroup C1      NOp   1
                         Standard orientation:                         
 ---------------------------------------------------------------------
 Center     Atomic      Atomic             Coordinates (Angstroms)
 Number     Number       Type             X           Y           Z
 ---------------------------------------------------------------------
      1          6           0        2.024376   -3.120607   -0.090219
      2          6           0        2.090597   -2.162386   -1.282043
      3          6           0        0.898359   -1.214257   -1.219227
      4          1           0        0.936885   -0.598289   -2.120753
      5          1           0        0.011235   -1.852635   -1.200490
      6          1           0        3.009170   -1.572907   -1.308639
      7          1           0        2.060208   -2.695266   -2.235086
      8          1           0        1.085407   -3.670200   -0.008116
      9          1           0        2.753779   -3.931372   -0.134061
     10          6           0        2.004386   -2.350950    1.280644
     11          1           0        2.960642   -1.833619    1.377890
     12          1           0        1.745791   -3.044832    2.082782
     13          6           0        0.779419   -1.348051    1.227585
     14          1           0        0.781405   -0.784870    2.164344
     15          1           0       -0.116535   -1.954880    1.074845
     16          7           0        0.926564   -0.419838    0.018888
     17          6           0        0.024903    0.738079    0.028869
     18          6           0        0.285568    1.589413    1.265024
     19          6           0        1.720515    2.216322    1.330722
     20          6           0        1.974249    3.061327    0.066407
     21          6           0        1.738788    2.245953   -1.227617
     22          6           0        0.361473    1.601055   -1.249772
     23          1           0        0.122969    1.161751   -2.219983
     24          1           0       -0.272164    2.487813   -1.313117
     25          1           0        2.443183    1.420674   -1.350711
     26          1           0        1.686731    2.877851   -2.117016
     27          1           0        2.899910    3.633553   -0.020563
     28          1           0        1.181466    3.811189    0.014920
     29          1           0        2.465000    1.419651    1.390097
     30          1           0        1.731233    2.823887    2.238365
     31          1           0        0.070098    1.057598    2.193548
     32          1           0       -0.460239    2.382019    1.360925
     33          6           0       -1.470604    0.247060    0.010314
     34          6           0       -2.210212    0.015101    1.182079
     35          1           0       -1.805439    0.209359    2.171475
     36          6           0       -3.504117   -0.381724    1.163289
     37          1           0       -4.092735   -0.587548    2.053747
     38          6           0       -4.163619   -0.433850   -0.046045
     39          1           0       -5.223893   -0.652267   -0.143431
     40          6           0       -3.529718   -0.164895   -1.226017
     41          1           0       -3.977789   -0.281608   -2.208999
     42          6           0       -2.137413   -0.010986   -1.180353
     43          1           0       -1.654101   -0.004979   -2.154008
     44          1           0        1.850143   -0.040829    0.077987
 ---------------------------------------------------------------------
 Rotational constants (GHZ):           0.5051239           0.3693683           0.2828173
 Leave Link  202 at Sun Jul 11 16:19:24 2021, MaxMem=   104857600 cpu:               0.1 elap:               0.0
 (Enter /prod/apps/gaussian/g16b1/l301.exe)
 Standard basis: 6-31G(d) (6D, 7F)
 Ernie: Thresh=  0.10000D-02 Tol=  0.10000D-05 Strict=F.
 There are   322 symmetry adapted cartesian basis functions of A   symmetry.
 There are   322 symmetry adapted basis functions of A   symmetry.
   322 basis functions,   608 primitive gaussians,   322 cartesian basis functions
    67 alpha electrons       67 beta electrons
       nuclear repulsion energy      1436.9969582715 Hartrees.
 IExCor=  402 DFT=T Ex+Corr=B3LYP ExCW=0 ScaHFX=  0.200000
 ScaDFX=  0.800000  0.720000  1.000000  0.810000 ScalE2=  1.000000  1.000000
 IRadAn=      5 IRanWt=     -1 IRanGd=            0 ICorTp=0 IEmpDi=  4
 NAtoms=   44 NActive=   44 NUniq=   44 SFac= 1.00D+00 NAtFMM=   60 NAOKFM=F Big=F
 Integral buffers will be    131072 words long.
 Raffenetti 2 integral format.
 Two-electron integral symmetry is turned on.
 Using the following non-standard input for PCM:
 MSTModel=DFT cav MSTCharged
 --- end of non-standard input.
 MST model for solvation energy: B3LYP parametrization.
 MST cavity parameters:
 ISph   IAn     Re0     Alpha   Atom Type   QCorr
 ------------------------------------------------
   1      6     1.50     1.25      CH2        F
   2      6     1.50     1.25      CH2        F
   3      6     1.50     1.25      CH2        F
   4      1     1.20     1.25      CH2        F
   5      1     1.20     1.25      CH2        F
   6      1     1.20     1.25      CH2        F
   7      1     1.20     1.25      CH2        F
   8      1     1.20     1.25      CH2        F
   9      1     1.20     1.25      CH2        F
  10      6     1.50     1.25      CH2        F
  11      1     1.20     1.25      CH2        F
  12      1     1.20     1.25      CH2        F
  13      6     1.50     1.25      CH2        F
  14      1     1.20     1.25      CH2        F
  15      1     1.20     1.25      CH2        F
  16      7     1.50     1.15      NH         T
  17      6     1.50     1.25      C          F
  18      6     1.50     1.25      CH2        F
  19      6     1.50     1.25      CH2        F
  20      6     1.50     1.25      CH2        F
  21      6     1.50     1.25      CH2        F
  22      6     1.50     1.25      CH2        F
  23      1     1.20     1.25      CH2        F
  24      1     1.20     1.25      CH2        F
  25      1     1.20     1.25      CH2        F
  26      1     1.20     1.25      CH2        F
  27      1     1.20     1.25      CH2        F
  28      1     1.20     1.25      CH2        F
  29      1     1.20     1.25      CH2        F
  30      1     1.20     1.25      CH2        F
  31      1     1.20     1.25      CH2        F
  32      1     1.20     1.25      CH2        F
  33      6     1.50     1.25      C          F
  34      6     1.50     1.25      CH         F
  35      1     1.20     1.25      CH         F
  36      6     1.50     1.25      CH         F
  37      1     1.20     1.25      CH         F
  38      6     1.50     1.25      CH         F
  39      1     1.20     1.25      CH         F
  40      6     1.50     1.25      CH         F
  41      1     1.20     1.25      CH         F
  42      6     1.50     1.25      CH         F
  43      1     1.20     1.25      CH         F
  44      1     0.90     1.15      NH         T
 ------------------------------------------------------------------------------
 Polarizable Continuum Model (PCM)
 =================================
 Model                : PCM.
 Atomic radii         : MST.
 Polarization charges : Total charges.
 Charge compensation  : None.
 Solution method      : On-the-fly selection.
 Cavity type          : Scaled VdW (van der Waals Surface) (Alpha=1.250).
 Cavity algorithm     : GePol (No added spheres)
                        Default sphere list used, NSphG=   44.
                        Lebedev-Laikov grids with approx.  5.0 points / Ang**2.
                        Smoothing algorithm: York/Karplus (Gamma=1.0000).
                        Polarization charges: spherical gaussians, with
                                              point-specific exponents (IZeta= 3).
                        Self-potential: point-specific (ISelfS= 7).
                        Self-field    : sphere-specific E.n sum rule (ISelfD= 2).
 1st derivatives      : Analytical E(r).r(x)/FMM algorithm (CHGder, D1EAlg=3).
                        Cavity 1st derivative terms included.
 Solvent              : Water, Eps=  78.355300 Eps(inf)=   1.777849
 ------------------------------------------------------------------------------
 GePol: Number of generator spheres                  =      44
 GePol: Total number of spheres                      =      44
 GePol: Number of exposed spheres                    =      44 (100.00%)
 GePol: Number of points                             =    2581
 GePol: Average weight of points                     =       0.13
 GePol: Minimum weight of points                     =   0.11D-11
 GePol: Maximum weight of points                     =    0.21416
 GePol: Number of points with low weight             =     244
 GePol: Fraction of low-weight points (<1% of avg)   =       9.45%
 GePol: Cavity surface area                          =    331.178 Ang**2
 GePol: Cavity volume                                =    340.369 Ang**3
 PCM non-electrostatic energy =         0.0024554684 Hartrees.
 Nuclear repulsion after PCM non-electrostatic terms =     1436.9994137399 Hartrees.
 Leave Link  301 at Sun Jul 11 16:19:25 2021, MaxMem=   104857600 cpu:               0.4 elap:               0.1
 (Enter /prod/apps/gaussian/g16b1/l302.exe)
 NPDir=0 NMtPBC=     1 NCelOv=     1 NCel=       1 NClECP=     1 NCelD=      1
         NCelK=      1 NCelE2=     1 NClLst=     1 CellRange=     0.0.
 One-electron integrals computed using PRISM.
 One-electron integral symmetry used in STVInt
 NBasis=   322 RedAO= T EigKep=  5.24D-04  NBF=   322
 NBsUse=   322 1.00D-06 EigRej= -1.00D+00 NBFU=   322
 Precomputing XC quadrature grid using
 IXCGrd= 4 IRadAn=           5 IRanWt=          -1 IRanGd=           0 AccXCQ= 0.00D+00.
 Generated NRdTot=       0 NPtTot=           0 NUsed=           0 NTot=          32
 NSgBfM=   321   321   321   321   321 MxSgAt=    44 MxSgA2=    44.
 Leave Link  302 at Sun Jul 11 16:19:25 2021, MaxMem=   104857600 cpu:               3.1 elap:               0.8
 (Enter /prod/apps/gaussian/g16b1/l303.exe)
 DipDrv:  MaxL=1.
 Leave Link  303 at Sun Jul 11 16:19:25 2021, MaxMem=   104857600 cpu:               0.2 elap:               0.1
 (Enter /prod/apps/gaussian/g16b1/l401.exe)
 ExpMin= 1.61D-01 ExpMax= 4.17D+03 ExpMxC= 6.27D+02 IAcc=3 IRadAn=         5 AccDes= 0.00D+00
 Harris functional with IExCor=  402 and IRadAn=       5 diagonalized for initial guess.
 HarFok:  IExCor=  402 AccDes= 0.00D+00 IRadAn=         5 IDoV= 1 UseB2=F ITyADJ=14
 ICtDFT=  3500011 ScaDFX=  1.000000  1.000000  1.000000  1.000000
 FoFCou: FMM=F IPFlag=           0 FMFlag=      100000 FMFlg1=           0
         NFxFlg=           0 DoJE=T BraDBF=F KetDBF=T FulRan=T
         wScrn=  0.000000 ICntrl=       500 IOpCl=  0 I1Cent=   200000004 NGrid=           0
         NMat0=    1 NMatS0=      1 NMatT0=    0 NMatD0=    1 NMtDS0=    0 NMtDT0=    0
 Petite list used in FoFCou.
 Harris En= -718.008102462810    
 JPrj=0 DoOrth=F DoCkMO=F.
 Leave Link  401 at Sun Jul 11 16:19:29 2021, MaxMem=   104857600 cpu:              13.6 elap:               3.4
 (Enter /prod/apps/gaussian/g16b1/l502.exe)
 Integral symmetry usage will be decided dynamically.
 Closed shell SCF:
 Using DIIS extrapolation, IDIIS=  1040.
 NGot=   104857600 LenX=   104644392 LenY=   104540267
 Requested convergence on RMS density matrix=1.00D-08 within 128 cycles.
 Requested convergence on MAX density matrix=1.00D-06.
 Requested convergence on             energy=1.00D-06.
 No special actions if energy rises.
 Fock matrices will be formed incrementally for  20 cycles.

 Cycle   1  Pass 1  IDiag  1:
 FoFJK:  IHMeth= 1 ICntrl=       0 DoSepK=F KAlg= 0 I1Cent=           0 FoldK=F
 IRaf= 880000000 NMat=       1 IRICut=       1 DoRegI=T DoRafI=F ISym2E= 0 IDoP0=0 IntGTp=1.
 FoFCou: FMM=F IPFlag=           0 FMFlag=      100000 FMFlg1=           0
         NFxFlg=           0 DoJE=F BraDBF=F KetDBF=F FulRan=T
         wScrn=  0.000000 ICntrl=         0 IOpCl=  0 I1Cent=           0 NGrid=           0
         NMat0=    1 NMatS0=      1 NMatT0=    0 NMatD0=    1 NMtDS0=    0 NMtDT0=    0
 Symmetry not used in FoFCou.
 Inv3:  Mode=1 IEnd=    19984683.
 Iteration    1 A*A^-1 deviation from unit magnitude is 3.66D-15 for   1648.
 Iteration    1 A*A^-1 deviation from orthogonality  is 1.59D-15 for   1439   1374.
 Iteration    1 A^-1*A deviation from unit magnitude is 3.55D-15 for    746.
 Iteration    1 A^-1*A deviation from orthogonality  is 9.74D-15 for   1842   1836.
 E= -717.577604645928    
 DIIS: error= 2.38D-02 at cycle   1 NSaved=   1.
 NSaved= 1 IEnMin= 1 EnMin= -717.577604645928     IErMin= 1 ErrMin= 2.38D-02
 ErrMax= 2.38D-02  0.00D+00 EMaxC= 1.00D-01 BMatC= 4.30D-01 BMatP= 4.30D-01
 IDIUse=3 WtCom= 7.62D-01 WtEn= 2.38D-01
 Coeff-Com:  0.100D+01
 Coeff-En:   0.100D+01
 Coeff:      0.100D+01
 Gap=     0.261 Goal=   None    Shift=    0.000
 GapD=    0.261 DampG=1.000 DampE=0.500 DampFc=0.5000 IDamp=-1.
 Damping current iteration by 5.00D-01
 RMSDP=4.49D-03 MaxDP=1.18D-01              OVMax= 1.61D-01

 Cycle   2  Pass 1  IDiag  1:
 RMSU=  2.20D-03    CP:  9.75D-01
 E= -717.788852843153     Delta-E=       -0.211248197225 Rises=F Damp=T
 DIIS: error= 7.19D-03 at cycle   2 NSaved=   2.
 NSaved= 2 IEnMin= 2 EnMin= -717.788852843153     IErMin= 2 ErrMin= 7.19D-03
 ErrMax= 7.19D-03  0.00D+00 EMaxC= 1.00D-01 BMatC= 2.81D-02 BMatP= 4.30D-01
 IDIUse=3 WtCom= 9.28D-01 WtEn= 7.19D-02
 Coeff-Com:  0.435D-01 0.957D+00
 Coeff-En:   0.623D-01 0.938D+00
 Coeff:      0.448D-01 0.955D+00
 Gap=     0.258 Goal=   None    Shift=    0.000
 RMSDP=1.01D-03 MaxDP=3.11D-02 DE=-2.11D-01 OVMax= 1.11D-01

 Cycle   3  Pass 1  IDiag  1:
 RMSU=  9.97D-04    CP:  9.69D-01  9.46D-01
 E= -718.027476123645     Delta-E=       -0.238623280492 Rises=F Damp=F
 DIIS: error= 4.31D-03 at cycle   3 NSaved=   3.
 NSaved= 3 IEnMin= 3 EnMin= -718.027476123645     IErMin= 3 ErrMin= 4.31D-03
 ErrMax= 4.31D-03  0.00D+00 EMaxC= 1.00D-01 BMatC= 1.19D-02 BMatP= 2.81D-02
 IDIUse=3 WtCom= 9.57D-01 WtEn= 4.31D-02
 Coeff-Com: -0.282D-01 0.377D+00 0.651D+00
 Coeff-En:   0.000D+00 0.000D+00 0.100D+01
 Coeff:     -0.270D-01 0.361D+00 0.666D+00
 Gap=     0.245 Goal=   None    Shift=    0.000
 RMSDP=5.50D-04 MaxDP=2.59D-02 DE=-2.39D-01 OVMax= 4.94D-02

 Cycle   4  Pass 1  IDiag  1:
 RMSU=  4.47D-04    CP:  9.70D-01  1.00D+00  7.02D-01
 E= -718.034697054508     Delta-E=       -0.007220930863 Rises=F Damp=F
 DIIS: error= 2.72D-03 at cycle   4 NSaved=   4.
 NSaved= 4 IEnMin= 4 EnMin= -718.034697054508     IErMin= 4 ErrMin= 2.72D-03
 ErrMax= 2.72D-03  0.00D+00 EMaxC= 1.00D-01 BMatC= 3.78D-03 BMatP= 1.19D-02
 IDIUse=3 WtCom= 9.73D-01 WtEn= 2.72D-02
 Coeff-Com: -0.170D-01 0.104D+00 0.389D+00 0.524D+00
 Coeff-En:   0.000D+00 0.000D+00 0.270D+00 0.730D+00
 Coeff:     -0.165D-01 0.102D+00 0.386D+00 0.529D+00
 Gap=     0.245 Goal=   None    Shift=    0.000
 RMSDP=2.70D-04 MaxDP=1.39D-02 DE=-7.22D-03 OVMax= 2.73D-02

 Cycle   5  Pass 1  IDiag  1:
 RMSU=  1.16D-04    CP:  9.69D-01  9.90D-01  7.68D-01  4.77D-01
 E= -718.038403261968     Delta-E=       -0.003706207460 Rises=F Damp=F
 DIIS: error= 5.66D-04 at cycle   5 NSaved=   5.
 NSaved= 5 IEnMin= 5 EnMin= -718.038403261968     IErMin= 5 ErrMin= 5.66D-04
 ErrMax= 5.66D-04  0.00D+00 EMaxC= 1.00D-01 BMatC= 2.20D-04 BMatP= 3.78D-03
 IDIUse=3 WtCom= 9.94D-01 WtEn= 5.66D-03
 Coeff-Com: -0.527D-02 0.150D-01 0.125D+00 0.266D+00 0.599D+00
 Coeff-En:   0.000D+00 0.000D+00 0.000D+00 0.000D+00 0.100D+01
 Coeff:     -0.524D-02 0.149D-01 0.125D+00 0.265D+00 0.601D+00
 Gap=     0.244 Goal=   None    Shift=    0.000
 RMSDP=5.74D-05 MaxDP=2.79D-03 DE=-3.71D-03 OVMax= 6.46D-03

 Cycle   6  Pass 1  IDiag  1:
 RMSU=  2.83D-05    CP:  9.69D-01  9.92D-01  7.74D-01  5.43D-01  6.57D-01
 E= -718.038624409925     Delta-E=       -0.000221147956 Rises=F Damp=F
 DIIS: error= 1.17D-04 at cycle   6 NSaved=   6.
 NSaved= 6 IEnMin= 6 EnMin= -718.038624409925     IErMin= 6 ErrMin= 1.17D-04
 ErrMax= 1.17D-04  0.00D+00 EMaxC= 1.00D-01 BMatC= 1.41D-05 BMatP= 2.20D-04
 IDIUse=3 WtCom= 9.99D-01 WtEn= 1.17D-03
 Coeff-Com: -0.192D-02 0.310D-02 0.463D-01 0.113D+00 0.313D+00 0.527D+00
 Coeff-En:   0.000D+00 0.000D+00 0.000D+00 0.000D+00 0.000D+00 0.100D+01
 Coeff:     -0.192D-02 0.309D-02 0.462D-01 0.113D+00 0.312D+00 0.528D+00
 Gap=     0.244 Goal=   None    Shift=    0.000
 RMSDP=1.36D-05 MaxDP=5.07D-04 DE=-2.21D-04 OVMax= 1.33D-03

 Cycle   7  Pass 1  IDiag  1:
 RMSU=  6.23D-06    CP:  9.69D-01  9.91D-01  7.77D-01  5.47D-01  6.78D-01
                    CP:  5.98D-01
 E= -718.038638512760     Delta-E=       -0.000014102835 Rises=F Damp=F
 DIIS: error= 2.25D-05 at cycle   7 NSaved=   7.
 NSaved= 7 IEnMin= 7 EnMin= -718.038638512760     IErMin= 7 ErrMin= 2.25D-05
 ErrMax= 2.25D-05  0.00D+00 EMaxC= 1.00D-01 BMatC= 4.97D-07 BMatP= 1.41D-05
 IDIUse=1 WtCom= 1.00D+00 WtEn= 0.00D+00
 Coeff-Com: -0.578D-03 0.528D-03 0.139D-01 0.361D-01 0.107D+00 0.235D+00
 Coeff-Com:  0.609D+00
 Coeff:     -0.578D-03 0.528D-03 0.139D-01 0.361D-01 0.107D+00 0.235D+00
 Coeff:      0.609D+00
 Gap=     0.244 Goal=   None    Shift=    0.000
 RMSDP=2.92D-06 MaxDP=1.25D-04 DE=-1.41D-05 OVMax= 2.42D-04

 Cycle   8  Pass 1  IDiag  1:
 RMSU=  1.94D-06    CP:  9.69D-01  9.91D-01  7.76D-01  5.48D-01  6.81D-01
                    CP:  6.15D-01  6.98D-01
 E= -718.038638915436     Delta-E=       -0.000000402676 Rises=F Damp=F
 DIIS: error= 8.05D-06 at cycle   8 NSaved=   8.
 NSaved= 8 IEnMin= 8 EnMin= -718.038638915436     IErMin= 8 ErrMin= 8.05D-06
 ErrMax= 8.05D-06  0.00D+00 EMaxC= 1.00D-01 BMatC= 7.52D-08 BMatP= 4.97D-07
 IDIUse=1 WtCom= 1.00D+00 WtEn= 0.00D+00
 Coeff-Com: -0.510D-04-0.150D-03 0.130D-02 0.435D-02 0.161D-01 0.565D-01
 Coeff-Com:  0.317D+00 0.605D+00
 Coeff:     -0.510D-04-0.150D-03 0.130D-02 0.435D-02 0.161D-01 0.565D-01
 Coeff:      0.317D+00 0.605D+00
 Gap=     0.244 Goal=   None    Shift=    0.000
 RMSDP=9.66D-07 MaxDP=3.75D-05 DE=-4.03D-07 OVMax= 6.70D-05

 Cycle   9  Pass 1  IDiag  1:
 RMSU=  4.41D-07    CP:  9.69D-01  9.91D-01  7.76D-01  5.48D-01  6.81D-01
                    CP:  6.23D-01  7.56D-01  6.19D-01
 E= -718.038638986987     Delta-E=       -0.000000071551 Rises=F Damp=F
 DIIS: error= 1.39D-06 at cycle   9 NSaved=   9.
 NSaved= 9 IEnMin= 9 EnMin= -718.038638986987     IErMin= 9 ErrMin= 1.39D-06
 ErrMax= 1.39D-06  0.00D+00 EMaxC= 1.00D-01 BMatC= 1.45D-09 BMatP= 7.52D-08
 IDIUse=1 WtCom= 1.00D+00 WtEn= 0.00D+00
 Coeff-Com:  0.162D-04-0.732D-04-0.355D-03-0.759D-03-0.950D-03 0.388D-02
 Coeff-Com:  0.575D-01 0.182D+00 0.758D+00
 Coeff:      0.162D-04-0.732D-04-0.355D-03-0.759D-03-0.950D-03 0.388D-02
 Coeff:      0.575D-01 0.182D+00 0.758D+00
 Gap=     0.244 Goal=   None    Shift=    0.000
 RMSDP=1.66D-07 MaxDP=4.77D-06 DE=-7.16D-08 OVMax= 9.46D-06

 Cycle  10  Pass 1  IDiag  1:
 RMSU=  1.10D-07    CP:  9.69D-01  9.91D-01  7.76D-01  5.48D-01  6.82D-01
                    CP:  6.23D-01  7.62D-01  6.58D-01  8.36D-01
 E= -718.038638988161     Delta-E=       -0.000000001173 Rises=F Damp=F
 DIIS: error= 5.32D-07 at cycle  10 NSaved=  10.
 NSaved=10 IEnMin=10 EnMin= -718.038638988161     IErMin=10 ErrMin= 5.32D-07
 ErrMax= 5.32D-07  0.00D+00 EMaxC= 1.00D-01 BMatC= 2.47D-10 BMatP= 1.45D-09
 IDIUse=1 WtCom= 1.00D+00 WtEn= 0.00D+00
 Coeff-Com:  0.107D-04-0.293D-04-0.240D-03-0.609D-03-0.124D-02-0.666D-03
 Coeff-Com:  0.137D-01 0.645D-01 0.386D+00 0.539D+00
 Coeff:      0.107D-04-0.293D-04-0.240D-03-0.609D-03-0.124D-02-0.666D-03
 Coeff:      0.137D-01 0.645D-01 0.386D+00 0.539D+00
 Gap=     0.244 Goal=   None    Shift=    0.000
 RMSDP=5.57D-08 MaxDP=2.11D-06 DE=-1.17D-09 OVMax= 4.18D-06

 Cycle  11  Pass 1  IDiag  1:
 RMSU=  3.57D-08    CP:  9.69D-01  9.91D-01  7.76D-01  5.48D-01  6.82D-01
                    CP:  6.23D-01  7.62D-01  6.62D-01  8.67D-01  6.45D-01
 E= -718.038638988406     Delta-E=       -0.000000000245 Rises=F Damp=F
 DIIS: error= 1.34D-07 at cycle  11 NSaved=  11.
 NSaved=11 IEnMin=11 EnMin= -718.038638988406     IErMin=11 ErrMin= 1.34D-07
 ErrMax= 1.34D-07  0.00D+00 EMaxC= 1.00D-01 BMatC= 1.14D-11 BMatP= 2.47D-10
 IDIUse=1 WtCom= 1.00D+00 WtEn= 0.00D+00
 Coeff-Com:  0.269D-05-0.499D-05-0.600D-04-0.173D-03-0.368D-03-0.505D-03
 Coeff-Com:  0.430D-03 0.994D-02 0.859D-01 0.215D+00 0.690D+00
 Coeff:      0.269D-05-0.499D-05-0.600D-04-0.173D-03-0.368D-03-0.505D-03
 Coeff:      0.430D-03 0.994D-02 0.859D-01 0.215D+00 0.690D+00
 Gap=     0.244 Goal=   None    Shift=    0.000
 RMSDP=1.48D-08 MaxDP=9.79D-07 DE=-2.45D-10 OVMax= 1.81D-06

 Cycle  12  Pass 1  IDiag  1:
 RMSU=  9.57D-09    CP:  9.69D-01  9.91D-01  7.76D-01  5.48D-01  6.82D-01
                    CP:  6.23D-01  7.62D-01  6.63D-01  8.72D-01  6.99D-01
                    CP:  7.64D-01
 E= -718.038638988409     Delta-E=       -0.000000000003 Rises=F Damp=F
 DIIS: error= 4.63D-08 at cycle  12 NSaved=  12.
 NSaved=12 IEnMin=12 EnMin= -718.038638988409     IErMin=12 ErrMin= 4.63D-08
 ErrMax= 4.63D-08  0.00D+00 EMaxC= 1.00D-01 BMatC= 1.68D-12 BMatP= 1.14D-11
 IDIUse=1 WtCom= 1.00D+00 WtEn= 0.00D+00
 Coeff-Com:  0.643D-06-0.486D-06-0.140D-04-0.474D-04-0.104D-03-0.226D-03
 Coeff-Com: -0.907D-03 0.165D-03 0.145D-01 0.673D-01 0.351D+00 0.568D+00
 Coeff:      0.643D-06-0.486D-06-0.140D-04-0.474D-04-0.104D-03-0.226D-03
 Coeff:     -0.907D-03 0.165D-03 0.145D-01 0.673D-01 0.351D+00 0.568D+00
 Gap=     0.244 Goal=   None    Shift=    0.000
 RMSDP=5.09D-09 MaxDP=2.36D-07 DE=-3.18D-12 OVMax= 6.28D-07

 Error on total polarization charges =  0.01933
 SCF Done:  E(RB3LYP) =  -718.038638988     A.U. after   12 cycles
            NFock= 12  Conv=0.51D-08     -V/T= 2.0095
 KE= 7.112890846818D+02 PE=-4.514203432820D+03 EE= 1.647876295410D+03
 Leave Link  502 at Sun Jul 11 16:21:11 2021, MaxMem=   104857600 cpu:             406.2 elap:             101.7
 (Enter /prod/apps/gaussian/g16b1/l601.exe)
 Copying SCF densities to generalized density rwf, IOpCl= 0 IROHF=0.

 **********************************************************************

            Population analysis using the SCF Density.

 **********************************************************************

 Orbital symmetries:
       Occupied  (A) (A) (A) (A) (A) (A) (A) (A) (A) (A) (A) (A)
                 (A) (A) (A) (A) (A) (A) (A) (A) (A) (A) (A) (A)
                 (A) (A) (A) (A) (A) (A) (A) (A) (A) (A) (A) (A)
                 (A) (A) (A) (A) (A) (A) (A) (A) (A) (A) (A) (A)
                 (A) (A) (A) (A) (A) (A) (A) (A) (A) (A) (A) (A)
                 (A) (A) (A) (A) (A) (A) (A)
       Virtual   (A) (A) (A) (A) (A) (A) (A) (A) (A) (A) (A) (A)
                 (A) (A) (A) (A) (A) (A) (A) (A) (A) (A) (A) (A)
                 (A) (A) (A) (A) (A) (A) (A) (A) (A) (A) (A) (A)
                 (A) (A) (A) (A) (A) (A) (A) (A) (A) (A) (A) (A)
                 (A) (A) (A) (A) (A) (A) (A) (A) (A) (A) (A) (A)
                 (A) (A) (A) (A) (A) (A) (A) (A) (A) (A) (A) (A)
                 (A) (A) (A) (A) (A) (A) (A) (A) (A) (A) (A) (A)
                 (A) (A) (A) (A) (A) (A) (A) (A) (A) (A) (A) (A)
                 (A) (A) (A) (A) (A) (A) (A) (A) (A) (A) (A) (A)
                 (A) (A) (A) (A) (A) (A) (A) (A) (A) (A) (A) (A)
                 (A) (A) (A) (A) (A) (A) (A) (A) (A) (A) (A) (A)
                 (A) (A) (A) (A) (A) (A) (A) (A) (A) (A) (A) (A)
                 (A) (A) (A) (A) (A) (A) (A) (A) (A) (A) (A) (A)
                 (A) (A) (A) (A) (A) (A) (A) (A) (A) (A) (A) (A)
                 (A) (A) (A) (A) (A) (A) (A) (A) (A) (A) (A) (A)
                 (A) (A) (A) (A) (A) (A) (A) (A) (A) (A) (A) (A)
                 (A) (A) (A) (A) (A) (A) (A) (A) (A) (A) (A) (A)
                 (A) (A) (A) (A) (A) (A) (A) (A) (A) (A) (A) (A)
                 (A) (A) (A) (A) (A) (A) (A) (A) (A) (A) (A) (A)
                 (A) (A) (A) (A) (A) (A) (A) (A) (A) (A) (A) (A)
                 (A) (A) (A) (A) (A) (A) (A) (A) (A) (A) (A) (A)
                 (A) (A) (A)
 The electronic state is 1-A.
 Alpha  occ. eigenvalues --  -14.46098 -10.27005 -10.25159 -10.24240 -10.21303
 Alpha  occ. eigenvalues --  -10.20355 -10.19954 -10.19856 -10.19690 -10.19648
 Alpha  occ. eigenvalues --  -10.19569 -10.19538 -10.19151 -10.19096 -10.19027
 Alpha  occ. eigenvalues --  -10.18998 -10.18826 -10.18595  -1.03852  -0.87562
 Alpha  occ. eigenvalues --   -0.84979  -0.81147  -0.79038  -0.77853  -0.76164
 Alpha  occ. eigenvalues --   -0.75427  -0.73306  -0.68791  -0.65869  -0.65345
 Alpha  occ. eigenvalues --   -0.62600  -0.60894  -0.60046  -0.59859  -0.57817
 Alpha  occ. eigenvalues --   -0.53892  -0.52592  -0.52042  -0.50997  -0.47644
 Alpha  occ. eigenvalues --   -0.47047  -0.46448  -0.45962  -0.45082  -0.44668
 Alpha  occ. eigenvalues --   -0.44163  -0.43782  -0.42875  -0.41449  -0.40353
 Alpha  occ. eigenvalues --   -0.40136  -0.39599  -0.38400  -0.37889  -0.37624
 Alpha  occ. eigenvalues --   -0.37305  -0.35374  -0.35138  -0.34803  -0.34660
 Alpha  occ. eigenvalues --   -0.33420  -0.32865  -0.32386  -0.31658  -0.30947
 Alpha  occ. eigenvalues --   -0.26114  -0.25931
 Alpha virt. eigenvalues --   -0.01552  -0.00944   0.05513   0.06992   0.08136
 Alpha virt. eigenvalues --    0.08695   0.09190   0.10029   0.10755   0.11637
 Alpha virt. eigenvalues --    0.12695   0.12854   0.13792   0.14145   0.14729
 Alpha virt. eigenvalues --    0.14811   0.15038   0.15641   0.15891   0.16172
 Alpha virt. eigenvalues --    0.17044   0.17496   0.17775   0.18468   0.18764
 Alpha virt. eigenvalues --    0.18993   0.19476   0.19838   0.20053   0.20386
 Alpha virt. eigenvalues --    0.21623   0.21762   0.22116   0.23165   0.23560
 Alpha virt. eigenvalues --    0.24657   0.25377   0.26373   0.26912   0.27493
 Alpha virt. eigenvalues --    0.27644   0.28691   0.29476   0.31927   0.33129
 Alpha virt. eigenvalues --    0.35791   0.37355   0.44506   0.47540   0.48786
[...]
     12          1           0        1.200747   -3.229741    2.191022
     13          6           0        0.615994   -1.416855    1.247794
     14          1           0        0.825544   -0.794517    2.115132
     15          1           0       -0.449993   -1.646006    1.225024
     16          7           0        0.897365   -0.592672    0.008224
     17          6           0        0.165251    0.806180   -0.009092
     18          6           0        0.600349    1.623698    1.233882
     19          6           0        2.063632    2.093327    1.249064
     20          6           0        2.422557    2.876159   -0.018106
     21          6           0        2.074392    2.069059   -1.274511
     22          6           0        0.606091    1.604983   -1.265109
     23          1           0        0.380277    1.066437   -2.186382
     24          1           0       -0.040806    2.488952   -1.272893
     25          1           0        2.756411    1.215122   -1.366898
     26          1           0        2.231179    2.674457   -2.174321
     27          1           0        3.485638    3.138204   -0.015548
     28          1           0        1.862125    3.820152   -0.028915
     29          1           0        2.749801    1.245747    1.370065
     30          1           0        2.204899    2.717779    2.137040
     31          1           0        0.372525    1.096321    2.158692
     32          1           0       -0.047892    2.506104    1.230561
     33          6           0       -1.348162    0.537053   -0.009239
     34          6           0       -2.077531    0.485885    1.189861
     35          1           0       -1.582675    0.643853    2.140156
     36          6           0       -3.450462    0.239660    1.191014
     37          1           0       -3.984919    0.207446    2.134208
     38          6           0       -4.131189    0.039978   -0.008796
     39          1           0       -5.199054   -0.150299   -0.008422
     40          6           0       -3.424600    0.093499   -1.209612
     41          1           0       -3.938667   -0.052926   -2.153941
     42          6           0       -2.052090    0.340223   -1.208300
     43          1           0       -1.540810    0.386549   -2.161571
     44          1           0        1.909358   -0.395062    0.019957
 ---------------------------------------------------------------------
 Rotational constants (GHZ):           0.4669472           0.3871563           0.2790706
 Leave Link  202 at Sun Jul 11 17:11:35 2021, MaxMem=   262144000 cpu:               0.0 elap:               0.0
 (Enter /prod/apps/gaussian/g16b1/l301.exe)
 Standard basis: Aug-CC-pVDZ (5D, 7F)
 Ernie: Thresh=  0.10000D-02 Tol=  0.10000D-05 Strict=F.
 Ernie:  36 primitive shells out of 632 were deleted.
 There are   684 symmetry adapted cartesian basis functions of A   symmetry.
 There are   648 symmetry adapted basis functions of A   symmetry.
   648 basis functions,  1060 primitive gaussians,   684 cartesian basis functions
    67 alpha electrons       67 beta electrons
       nuclear repulsion energy      1427.8832483371 Hartrees.
 IExCor=    0 DFT=F Ex=HF Corr=None ExCW=0 ScaHFX=  1.000000
 ScaDFX=  1.000000  1.000000  1.000000  1.000000 ScalE2=  1.000000  1.000000
 IRadAn=      5 IRanWt=     -1 IRanGd=            0 ICorTp=0 IEmpDi=  4
 NAtoms=   44 NActive=   44 NUniq=   44 SFac= 1.00D+00 NAtFMM=   60 NAOKFM=F Big=F
 Integral buffers will be    131072 words long.
 Raffenetti 1 integral format.
 Two-electron integral symmetry is turned on.
 Leave Link  301 at Sun Jul 11 17:11:35 2021, MaxMem=   262144000 cpu:               0.2 elap:               0.1
 (Enter /prod/apps/gaussian/g16b1/l302.exe)
 NPDir=0 NMtPBC=     1 NCelOv=     1 NCel=       1 NClECP=     1 NCelD=      1
         NCelK=      1 NCelE2=     1 NClLst=     1 CellRange=     0.0.
 One-electron integrals computed using PRISM.
 One-electron integral symmetry used in STVInt
 NBasis=   648 RedAO= T EigKep=  1.47D-06  NBF=   648
 NBsUse=   646 1.00D-06 EigRej=  9.64D-07 NBFU=   646
 Leave Link  302 at Sun Jul 11 17:11:36 2021, MaxMem=   262144000 cpu:               2.5 elap:               0.6
 (Enter /prod/apps/gaussian/g16b1/l303.exe)
 DipDrv:  MaxL=1.
 Leave Link  303 at Sun Jul 11 17:11:36 2021, MaxMem=   262144000 cpu:               0.5 elap:               0.2
 (Enter /prod/apps/gaussian/g16b1/l401.exe)
 ExpMin= 2.97D-02 ExpMax= 9.05D+03 ExpMxC= 3.09D+02 IAcc=3 IRadAn=         5 AccDes= 0.00D+00
 Harris functional with IExCor=  205 and IRadAn=       5 diagonalized for initial guess.
 HarFok:  IExCor=  205 AccDes= 0.00D+00 IRadAn=         5 IDoV= 1 UseB2=F ITyADJ=14
 ICtDFT=  3500011 ScaDFX=  1.000000  1.000000  1.000000  1.000000
 FoFCou: FMM=F IPFlag=           0 FMFlag=      100000 FMFlg1=           0
         NFxFlg=           0 DoJE=T BraDBF=F KetDBF=T FulRan=T
         wScrn=  0.000000 ICntrl=       500 IOpCl=  0 I1Cent=   200000004 NGrid=           0
         NMat0=    1 NMatS0=      1 NMatT0=    0 NMatD0=    1 NMtDS0=    0 NMtDT0=    0
 Petite list used in FoFCou.
 Harris En= -714.580241873767    
 JPrj=0 DoOrth=F DoCkMO=F.
 Leave Link  401 at Sun Jul 11 17:11:42 2021, MaxMem=   262144000 cpu:              23.4 elap:               5.9
 (Enter /prod/apps/gaussian/g16b1/l502.exe)
 Integral symmetry usage will be decided dynamically.
 Closed shell SCF:
 Using DIIS extrapolation, IDIIS=  1040.
 NGot=   262144000 LenX=   261197610 LenY=   260729070
 Requested convergence on RMS density matrix=1.00D-08 within 128 cycles.
 Requested convergence on MAX density matrix=1.00D-06.
 Requested convergence on             energy=1.00D-06.
 No special actions if energy rises.
 Fock matrices will be formed incrementally for  20 cycles.

 Cycle   1  Pass 1  IDiag  1:
 FoFJK:  IHMeth= 1 ICntrl=       0 DoSepK=F KAlg= 0 I1Cent=           0 FoldK=F
 IRaf= 960000000 NMat=       1 IRICut=       1 DoRegI=T DoRafI=F ISym2E= 0 IDoP0=0 IntGTp=1.
 FoFCou: FMM=F IPFlag=           0 FMFlag=      100000 FMFlg1=           0
         NFxFlg=           0 DoJE=F BraDBF=F KetDBF=F FulRan=T
         wScrn=  0.000000 ICntrl=         0 IOpCl=  0 I1Cent=           0 NGrid=           0
         NMat0=    1 NMatS0=      1 NMatT0=    0 NMatD0=    1 NMtDS0=    0 NMtDT0=    0
 Symmetry not used in FoFCou.
 E= -712.462532351771    
 DIIS: error= 1.65D-02 at cycle   1 NSaved=   1.
 NSaved= 1 IEnMin= 1 EnMin= -712.462532351771     IErMin= 1 ErrMin= 1.65D-02
 ErrMax= 1.65D-02  0.00D+00 EMaxC= 1.00D-01 BMatC= 9.29D-01 BMatP= 9.29D-01
 IDIUse=3 WtCom= 8.35D-01 WtEn= 1.65D-01
 Coeff-Com:  0.100D+01
 Coeff-En:   0.100D+01
 Coeff:      0.100D+01
 Gap=     0.461 Goal=   None    Shift=    0.000
 GapD=    0.461 DampG=2.000 DampE=0.500 DampFc=1.0000 IDamp=-1.
 RMSDP=5.86D-02 MaxDP=4.74D+00              OVMax= 1.43D-01

 Cycle   2  Pass 1  IDiag  1:
 RMSU=  1.73D-02    CP:  4.13D-01
 E= -713.101531811607     Delta-E=       -0.638999459836 Rises=F Damp=F
 DIIS: error= 1.44D-02 at cycle   2 NSaved=   2.
 NSaved= 2 IEnMin= 2 EnMin= -713.101531811607     IErMin= 2 ErrMin= 1.44D-02
 ErrMax= 1.44D-02  0.00D+00 EMaxC= 1.00D-01 BMatC= 1.37D-01 BMatP= 9.29D-01
 IDIUse=3 WtCom= 8.56D-01 WtEn= 1.44D-01
 Coeff-Com:  0.222D+00 0.778D+00
 Coeff-En:   0.000D+00 0.100D+01
 Coeff:      0.190D+00 0.810D+00
 Gap=     0.408 Goal=   None    Shift=    0.000
 RMSDP=5.94D-03 MaxDP=1.09D+00 DE=-6.39D-01 OVMax= 5.05D-02

 Cycle   3  Pass 1  IDiag  1:
 RMSU=  5.57D-03    CP:  4.34D-01  9.95D-01
 E= -713.224901269049     Delta-E=       -0.123369457443 Rises=F Damp=F
 DIIS: error= 2.70D-03 at cycle   3 NSaved=   3.
 NSaved= 3 IEnMin= 3 EnMin= -713.224901269049     IErMin= 3 ErrMin= 2.70D-03
 ErrMax= 2.70D-03  0.00D+00 EMaxC= 1.00D-01 BMatC= 1.12D-02 BMatP= 1.37D-01
 IDIUse=3 WtCom= 9.73D-01 WtEn= 2.70D-02
 Coeff-Com: -0.186D-01 0.182D+00 0.837D+00
 Coeff-En:   0.000D+00 0.000D+00 0.100D+01
 Coeff:     -0.181D-01 0.177D+00 0.841D+00
 Gap=     0.395 Goal=   None    Shift=    0.000
 RMSDP=1.84D-03 MaxDP=3.20D-01 DE=-1.23D-01 OVMax= 2.09D-02

 Cycle   4  Pass 1  IDiag  1:
 RMSU=  1.07D-03    CP:  4.23D-01  9.90D-01  8.06D-01
 E= -713.235931630256     Delta-E=       -0.011030361206 Rises=F Damp=F
 DIIS: error= 6.15D-04 at cycle   4 NSaved=   4.
 NSaved= 4 IEnMin= 4 EnMin= -713.235931630256     IErMin= 4 ErrMin= 6.15D-04
 ErrMax= 6.15D-04  0.00D+00 EMaxC= 1.00D-01 BMatC= 5.54D-04 BMatP= 1.12D-02
 IDIUse=3 WtCom= 9.94D-01 WtEn= 6.15D-03
 Coeff-Com: -0.117D-01 0.837D-02 0.183D+00 0.821D+00
 Coeff-En:   0.000D+00 0.000D+00 0.000D+00 0.100D+01
 Coeff:     -0.116D-01 0.831D-02 0.182D+00 0.822D+00
 Gap=     0.388 Goal=   None    Shift=    0.000
 RMSDP=3.31D-04 MaxDP=2.38D-02 DE=-1.10D-02 OVMax= 6.43D-03

 Cycle   5  Pass 1  IDiag  1:
 RMSU=  2.52D-04    CP:  4.21D-01  9.94D-01  8.19D-01  9.52D-01
 E= -713.236534169407     Delta-E=       -0.000602539151 Rises=F Damp=F
 DIIS: error= 3.90D-04 at cycle   5 NSaved=   5.
 NSaved= 5 IEnMin= 5 EnMin= -713.236534169407     IErMin= 5 ErrMin= 3.90D-04
 ErrMax= 3.90D-04  0.00D+00 EMaxC= 1.00D-01 BMatC= 7.41D-05 BMatP= 5.54D-04
 IDIUse=3 WtCom= 9.96D-01 WtEn= 3.90D-03
 Coeff-Com: -0.107D-02-0.166D-01-0.394D-01 0.212D+00 0.845D+00
 Coeff-En:   0.000D+00 0.000D+00 0.000D+00 0.000D+00 0.100D+01
 Coeff:     -0.107D-02-0.166D-01-0.393D-01 0.212D+00 0.845D+00
 Gap=     0.389 Goal=   None    Shift=    0.000
 RMSDP=1.31D-04 MaxDP=9.58D-03 DE=-6.03D-04 OVMax= 4.08D-03

 Cycle   6  Pass 1  IDiag  1:
 RMSU=  9.73D-05    CP:  4.21D-01  9.92D-01  8.24D-01  1.01D+00  8.16D-01
 E= -713.236642460226     Delta-E=       -0.000108290819 Rises=F Damp=F
 DIIS: error= 7.82D-05 at cycle   6 NSaved=   6.
 NSaved= 6 IEnMin= 6 EnMin= -713.236642460226     IErMin= 6 ErrMin= 7.82D-05
 ErrMax= 7.82D-05  0.00D+00 EMaxC= 1.00D-01 BMatC= 5.53D-06 BMatP= 7.41D-05
 IDIUse=1 WtCom= 1.00D+00 WtEn= 0.00D+00
 Coeff-Com:  0.118D-02-0.342D-02-0.248D-01-0.794D-01 0.920D-01 0.101D+01
 Coeff:      0.118D-02-0.342D-02-0.248D-01-0.794D-01 0.920D-01 0.101D+01
 Gap=     0.389 Goal=   None    Shift=    0.000
 RMSDP=4.17D-05 MaxDP=2.70D-03 DE=-1.08D-04 OVMax= 9.01D-04

 Cycle   7  Pass 1  IDiag  1:
 RMSU=  2.66D-05    CP:  4.21D-01  9.91D-01  8.24D-01  1.02D+00  8.84D-01
                    CP:  1.16D+00
 E= -713.236652954952     Delta-E=       -0.000010494726 Rises=F Damp=F
 DIIS: error= 2.06D-05 at cycle   7 NSaved=   7.
 NSaved= 7 IEnMin= 7 EnMin= -713.236652954952     IErMin= 7 ErrMin= 2.06D-05
 ErrMax= 2.06D-05  0.00D+00 EMaxC= 1.00D-01 BMatC= 3.88D-07 BMatP= 5.53D-06
 IDIUse=1 WtCom= 1.00D+00 WtEn= 0.00D+00
 Coeff-Com:  0.274D-03-0.119D-03-0.302D-02-0.241D-01-0.110D-01 0.162D+00
 Coeff-Com:  0.876D+00
 Coeff:      0.274D-03-0.119D-03-0.302D-02-0.241D-01-0.110D-01 0.162D+00
 Coeff:      0.876D+00
 Gap=     0.389 Goal=   None    Shift=    0.000
 RMSDP=1.44D-05 MaxDP=1.93D-03 DE=-1.05D-05 OVMax= 5.24D-04

 Cycle   8  Pass 1  IDiag  1:
 RMSU=  1.11D-05    CP:  4.21D-01  9.91D-01  8.24D-01  1.03D+00  8.84D-01
                    CP:  1.22D+00  1.02D+00
 E= -713.236653872910     Delta-E=       -0.000000917958 Rises=F Damp=F
 DIIS: error= 1.50D-05 at cycle   8 NSaved=   8.
 NSaved= 8 IEnMin= 8 EnMin= -713.236653872910     IErMin= 8 ErrMin= 1.50D-05
 ErrMax= 1.50D-05  0.00D+00 EMaxC= 1.00D-01 BMatC= 1.06D-07 BMatP= 3.88D-07
 IDIUse=1 WtCom= 1.00D+00 WtEn= 0.00D+00
 Coeff-Com: -0.242D-03 0.696D-03 0.545D-02 0.166D-01-0.138D-01-0.231D+00
 Coeff-Com:  0.195D-01 0.120D+01
 Coeff:     -0.242D-03 0.696D-03 0.545D-02 0.166D-01-0.138D-01-0.231D+00
 Coeff:      0.195D-01 0.120D+01
 Gap=     0.389 Goal=   None    Shift=    0.000
 RMSDP=1.06D-05 MaxDP=9.77D-04 DE=-9.18D-07 OVMax= 3.76D-04

 Cycle   9  Pass 1  IDiag  1:
 RMSU=  5.49D-06    CP:  4.21D-01  9.91D-01  8.24D-01  1.03D+00  8.84D-01
                    CP:  1.27D+00  1.17D+00  1.54D+00
 E= -713.236654299531     Delta-E=       -0.000000426621 Rises=F Damp=F
 DIIS: error= 6.19D-06 at cycle   9 NSaved=   9.
 NSaved= 9 IEnMin= 9 EnMin= -713.236654299531     IErMin= 9 ErrMin= 6.19D-06
 ErrMax= 6.19D-06  0.00D+00 EMaxC= 1.00D-01 BMatC= 1.80D-08 BMatP= 1.06D-07
 IDIUse=1 WtCom= 1.00D+00 WtEn= 0.00D+00
 Coeff-Com: -0.420D-04 0.240D-04 0.417D-03 0.320D-02 0.297D-02-0.230D-01
 Coeff-Com: -0.140D+00-0.446D-01 0.120D+01
 Coeff:     -0.420D-04 0.240D-04 0.417D-03 0.320D-02 0.297D-02-0.230D-01
 Coeff:     -0.140D+00-0.446D-01 0.120D+01
 Gap=     0.389 Goal=   None    Shift=    0.000
 RMSDP=5.94D-06 MaxDP=3.90D-04 DE=-4.27D-07 OVMax= 2.24D-04

 Cycle  10  Pass 1  IDiag  1:
 RMSU=  1.69D-06    CP:  4.21D-01  9.91D-01  8.24D-01  1.03D+00  8.83D-01
                    CP:  1.29D+00  1.21D+00  1.90D+00  1.54D+00
 E= -713.236654396367     Delta-E=       -0.000000096837 Rises=F Damp=F
 DIIS: error= 2.99D-06 at cycle  10 NSaved=  10.
 NSaved=10 IEnMin=10 EnMin= -713.236654396367     IErMin=10 ErrMin= 2.99D-06
 ErrMax= 2.99D-06  0.00D+00 EMaxC= 1.00D-01 BMatC= 3.79D-09 BMatP= 1.80D-08
 IDIUse=1 WtCom= 1.00D+00 WtEn= 0.00D+00
 Coeff-Com:  0.584D-04-0.166D-03-0.134D-02-0.415D-02 0.368D-02 0.576D-01
 Coeff-Com: -0.352D-02-0.299D+00-0.785D-02 0.125D+01
 Coeff:      0.584D-04-0.166D-03-0.134D-02-0.415D-02 0.368D-02 0.576D-01
 Coeff:     -0.352D-02-0.299D+00-0.785D-02 0.125D+01
 Gap=     0.389 Goal=   None    Shift=    0.000
 RMSDP=3.25D-06 MaxDP=2.17D-04 DE=-9.68D-08 OVMax= 1.19D-04

 Cycle  11  Pass 1  IDiag  1:
 RMSU=  8.97D-07    CP:  4.21D-01  9.91D-01  8.24D-01  1.03D+00  8.84D-01
                    CP:  1.30D+00  1.23D+00  2.08D+00  1.85D+00  1.50D+00
 E= -713.236654418265     Delta-E=       -0.000000021898 Rises=F Damp=F
 DIIS: error= 1.04D-06 at cycle  11 NSaved=  11.
 NSaved=11 IEnMin=11 EnMin= -713.236654418265     IErMin=11 ErrMin= 1.04D-06
 ErrMax= 1.04D-06  0.00D+00 EMaxC= 1.00D-01 BMatC= 4.14D-10 BMatP= 3.79D-09
 IDIUse=1 WtCom= 1.00D+00 WtEn= 0.00D+00
 Coeff-Com:  0.541D-05-0.464D-05-0.449D-04-0.372D-03-0.600D-03 0.222D-02
 Coeff-Com:  0.214D-01 0.158D-01-0.188D+00-0.227D-01 0.117D+01
 Coeff:      0.541D-05-0.464D-05-0.449D-04-0.372D-03-0.600D-03 0.222D-02
 Coeff:      0.214D-01 0.158D-01-0.188D+00-0.227D-01 0.117D+01
 Gap=     0.389 Goal=   None    Shift=    0.000
 RMSDP=1.06D-06 MaxDP=8.20D-05 DE=-2.19D-08 OVMax= 3.75D-05

 Cycle  12  Pass 1  IDiag  1:
 RMSU=  2.74D-07    CP:  4.21D-01  9.91D-01  8.24D-01  1.03D+00  8.83D-01
                    CP:  1.30D+00  1.24D+00  2.13D+00  1.94D+00  1.72D+00
                    CP:  1.28D+00
 E= -713.236654420345     Delta-E=       -0.000000002080 Rises=F Damp=F
 DIIS: error= 2.23D-07 at cycle  12 NSaved=  12.
 NSaved=12 IEnMin=12 EnMin= -713.236654420345     IErMin=12 ErrMin= 2.23D-07
 ErrMax= 2.23D-07  0.00D+00 EMaxC= 1.00D-01 BMatC= 4.19D-11 BMatP= 4.14D-10
 IDIUse=1 WtCom= 1.00D+00 WtEn= 0.00D+00
 Coeff-Com: -0.658D-05 0.175D-04 0.151D-03 0.537D-03-0.434D-03-0.687D-02
 Coeff-Com: -0.171D-02 0.357D-01 0.104D-01-0.157D+00-0.434D-01 0.116D+01
 Coeff:     -0.658D-05 0.175D-04 0.151D-03 0.537D-03-0.434D-03-0.687D-02
 Coeff:     -0.171D-02 0.357D-01 0.104D-01-0.157D+00-0.434D-01 0.116D+01
 Gap=     0.389 Goal=   None    Shift=    0.000
 RMSDP=2.98D-07 MaxDP=2.73D-05 DE=-2.08D-09 OVMax= 9.58D-06

 Cycle  13  Pass 1  IDiag  1:
 RMSU=  9.59D-08    CP:  4.21D-01  9.91D-01  8.24D-01  1.03D+00  8.83D-01
                    CP:  1.30D+00  1.24D+00  2.14D+00  1.95D+00  1.78D+00
                    CP:  1.40D+00  1.26D+00
 E= -713.236654420462     Delta-E=       -0.000000000117 Rises=F Damp=F
 DIIS: error= 3.71D-08 at cycle  13 NSaved=  13.
 NSaved=13 IEnMin=13 EnMin= -713.236654420462     IErMin=13 ErrMin= 3.71D-08
 ErrMax= 3.71D-08  0.00D+00 EMaxC= 1.00D-01 BMatC= 3.50D-12 BMatP= 4.19D-11
 IDIUse=1 WtCom= 1.00D+00 WtEn= 0.00D+00
 Coeff-Com: -0.114D-05 0.209D-05 0.188D-04 0.925D-04-0.185D-05-0.850D-03
 Coeff-Com: -0.217D-02 0.284D-02 0.177D-01-0.138D-01-0.100D+00 0.949D-01
 Coeff-Com:  0.100D+01
 Coeff:     -0.114D-05 0.209D-05 0.188D-04 0.925D-04-0.185D-05-0.850D-03
 Coeff:     -0.217D-02 0.284D-02 0.177D-01-0.138D-01-0.100D+00 0.949D-01
 Coeff:      0.100D+01
 Gap=     0.389 Goal=   None    Shift=    0.000
 RMSDP=4.50D-08 MaxDP=7.02D-06 DE=-1.17D-10 OVMax= 1.20D-06

 Cycle  14  Pass 1  IDiag  1:
 RMSU=  2.68D-08    CP:  4.21D-01  9.91D-01  8.24D-01  1.03D+00  8.83D-01
                    CP:  1.30D+00  1.24D+00  2.14D+00  1.96D+00  1.78D+00
                    CP:  1.40D+00  1.32D+00  1.18D+00
 E= -713.236654420505     Delta-E=       -0.000000000043 Rises=F Damp=F
 DIIS: error= 1.28D-08 at cycle  14 NSaved=  14.
 NSaved=14 IEnMin=14 EnMin= -713.236654420505     IErMin=14 ErrMin= 1.28D-08
 ErrMax= 1.28D-08  0.00D+00 EMaxC= 1.00D-01 BMatC= 3.74D-13 BMatP= 3.50D-12
 IDIUse=1 WtCom= 1.00D+00 WtEn= 0.00D+00
 Coeff-Com:  0.586D-06-0.171D-05-0.146D-04-0.490D-04 0.418D-04 0.685D-03
 Coeff-Com: -0.549D-04-0.358D-02-0.571D-04 0.160D-01-0.228D-02-0.123D+00
 Coeff-Com:  0.858D-01 0.103D+01
 Coeff:      0.586D-06-0.171D-05-0.146D-04-0.490D-04 0.418D-04 0.685D-03
 Coeff:     -0.549D-04-0.358D-02-0.571D-04 0.160D-01-0.228D-02-0.123D+00
 Coeff:      0.858D-01 0.103D+01
 Gap=     0.389 Goal=   None    Shift=    0.000
 RMSDP=1.35D-08 MaxDP=1.32D-06 DE=-4.27D-11 OVMax= 3.64D-07

 Cycle  15  Pass 1  IDiag  1:
 RMSU=  8.42D-09    CP:  4.21D-01  9.91D-01  8.24D-01  1.03D+00  8.83D-01
                    CP:  1.30D+00  1.24D+00  2.14D+00  1.96D+00  1.78D+00
                    CP:  1.40D+00  1.31D+00  1.22D+00  1.05D+00
 E= -713.236654420545     Delta-E=       -0.000000000041 Rises=F Damp=F
 DIIS: error= 4.18D-09 at cycle  15 NSaved=  15.
 NSaved=15 IEnMin=15 EnMin= -713.236654420545     IErMin=15 ErrMin= 4.18D-09
 ErrMax= 4.18D-09  0.00D+00 EMaxC= 1.00D-01 BMatC= 3.42D-14 BMatP= 3.74D-13
 IDIUse=1 WtCom= 1.00D+00 WtEn= 0.00D+00
 Coeff-Com:  0.137D-06-0.319D-06-0.272D-05-0.121D-04 0.327D-05 0.135D-03
 Coeff-Com:  0.168D-03-0.563D-03-0.155D-02 0.277D-02 0.808D-02-0.223D-01
 Coeff-Com: -0.740D-01 0.125D+00 0.963D+00
 Coeff:      0.137D-06-0.319D-06-0.272D-05-0.121D-04 0.327D-05 0.135D-03
 Coeff:      0.168D-03-0.563D-03-0.155D-02 0.277D-02 0.808D-02-0.223D-01
 Coeff:     -0.740D-01 0.125D+00 0.963D+00
 Gap=     0.389 Goal=   None    Shift=    0.000
 RMSDP=3.90D-09 MaxDP=3.21D-07 DE=-4.09D-11 OVMax= 9.54D-08

 SCF Done:  E(RHF) =  -713.236654421     A.U. after   15 cycles
            NFock= 15  Conv=0.39D-08     -V/T= 2.0011
 KE= 7.124481710680D+02 PE=-4.495946467701D+03 EE= 1.642378393875D+03
 Leave Link  502 at Sun Jul 11 17:36:19 2021, MaxMem=   262144000 cpu:            5905.9 elap:            1477.0
 (Enter /prod/apps/gaussian/g16b1/l801.exe)
 ExpMin= 2.97D-02 ExpMax= 9.05D+03 ExpMxC= 3.09D+02 IAcc=3 IRadAn=         5 AccDes= 0.00D+00
 HarFok:  IExCor=  205 AccDes= 0.00D+00 IRadAn=         5 IDoV=-2 UseB2=F ITyADJ=14
 ICtDFT= 12500011 ScaDFX=  1.000000  1.000000  1.000000  1.000000
 Largest valence mixing into a core orbital is  1.17D-04
 Largest core mixing into a valence orbital is  4.21D-05
 Range of M.O.s used for correlation:    19   646
 NBasis=   648 NAE=    67 NBE=    67 NFC=    18 NFV=     0
 NROrb=    628 NOA=    49 NOB=    49 NVA=   579 NVB=   579

 **** Warning!!: The largest alpha MO coefficient is  0.14672818D+03

 Leave Link  801 at Sun Jul 11 17:36:19 2021, MaxMem=   262144000 cpu:               1.2 elap:               0.3
 (Enter /prod/apps/gaussian/g16b1/l906.exe)
 FulOut=F Deriv=F AODrv=F NAtomX=    44
   MMem=           3  MDisk=          49 MDiskD=          49
  W3Min=    19405764 MinDsk=    20453927 NBas6D=         684
 NBas2D=      235128    NTT=      234270    LW2=     2000000
    MDV=   259096363 MDiskM=        5220 NBas2p=      222975
 Disk-based method using OVN memory for 49 occupieds at a time.
 Estimated scratch disk usage= 19236814893 words.
 IMap=   1   2   3   4   5   6   7   8   9  10  11  12  13  14  15  16  17  18  19  20
 IMap=  21  22  23  24  25  26  27  28  29  30  31  32  33  34  35  36  37  38  39  40
 IMap=  41  42  43  44  45  46  47  48  49
 Actual    scratch disk usage= 19027699757 words.
 JobTyp=1 Pass  1:  I=   1 to  49 NPSUse=  4 ParTrn=T ParDer=T DoDerP=F.
