 Entering Gaussian System, Link 0=g16
 Initial command:
 /prod/apps/gaussian/g16b1/l1.exe "/tmp/ubator02/1834600/Gau-200966.inp" -scrdir="/tmp/ubator02/1834600/"
 Entering Link 1 = /prod/apps/gaussian/g16b1/l1.exe PID=    200967.
  
 Copyright (c) 1988-2017, Gaussian, Inc.  All Rights Reserved.
  
 This is part of the Gaussian(R) 16 program.  It is based on
 the Gaussian(R) 09 system (copyright 2009, Gaussian, Inc.),
 the Gaussian(R) 03 system (copyright 2003, Gaussian, Inc.),
 the Gaussian(R) 98 system (copyright 1998, Gaussian, Inc.),
 the Gaussian(R) 94 system (copyright 1995, Gaussian, Inc.),
 the Gaussian 92(TM) system (copyright 1992, Gaussian, Inc.),
 the Gaussian 90(TM) system (copyright 1990, Gaussian, Inc.),
 the Gaussian 88(TM) system (copyright 1988, Gaussian, Inc.),
 the Gaussian 86(TM) system (copyright 1986, Carnegie Mellon
 University), and the Gaussian 82(TM) system (copyright 1983,
 Carnegie Mellon University). Gaussian is a federally registered
 trademark of Gaussian, Inc.
  
 This software contains proprietary and confidential information,
 including trade secrets, belonging to Gaussian, Inc.
  
 This software is provided under written license and may be
 used, copied, transmitted, or stored only in accord with that
 written license.
  
 The following legend is applicable only to US Government
 contracts under FAR:
  
                    RESTRICTED RIGHTS LEGEND
  
 Use, reproduction and disclosure by the US Government is
 subject to restrictions as set forth in subparagraphs (a)
 and (c) of the Commercial Computer Software - Restricted
 Rights clause in FAR 52.227-19.
  
 Gaussian, Inc.
 340 Quinnipiac St., Bldg. 40, Wallingford CT 06492
  
  
 ---------------------------------------------------------------
 Warning -- This program may not be used in any manner that
 competes with the business of Gaussian, Inc. or will provide
 assistance to any competitor of Gaussian, Inc.  The licensee
 of this program is prohibited from giving any competitor of
 Gaussian, Inc. access to this program.  By using this program,
 the user acknowledges that Gaussian, Inc. is engaged in the
 business of creating and licensing software in the field of
 computational chemistry and represents and warrants to the
 licensee that it is not a competitor of Gaussian, Inc. and that
 it will not use this program in any manner prohibited above.
 ---------------------------------------------------------------
  

 Cite this work as:
 Gaussian 16, Revision B.01,
 M. J. Frisch, G. W. Trucks, H. B. Schlegel, G. E. Scuseria, 
 M. A. Robb, J. R. Cheeseman, G. Scalmani, V. Barone, 
 G. A. Petersson, H. Nakatsuji, X. Li, M. Caricato, A. V. Marenich, 
 J. Bloino, B. G. Janesko, R. Gomperts, B. Mennucci, H. P. Hratchian, 
 J. V. Ortiz, A. F. Izmaylov, J. L. Sonnenberg, D. Williams-Young, 
 F. Ding, F. Lipparini, F. Egidi, J. Goings, B. Peng, A. Petrone, 
 T. Henderson, D. Ranasinghe, V. G. Zakrzewski, J. Gao, N. Rega, 
 G. Zheng, W. Liang, M. Hada, M. Ehara, K. Toyota, R. Fukuda, 
 J. Hasegawa, M. Ishida, T. Nakajima, Y. Honda, O. Kitao, H. Nakai, 
 T. Vreven, K. Throssell, J. A. Montgomery, Jr., J. E. Peralta, 
 F. Ogliaro, M. J. Bearpark, J. J. Heyd, E. N. Brothers, K. N. Kudin, 
 V. N. Staroverov, T. A. Keith, R. Kobayashi, J. Normand, 
 K. Raghavachari, A. P. Rendell, J. C. Burant, S. S. Iyengar, 
 J. Tomasi, M. Cossi, J. M. Millam, M. Klene, C. Adamo, R. Cammi, 
 J. W. Ochterski, R. L. Martin, K. Morokuma, O. Farkas, 
 J. B. Foresman, and D. J. Fox, Gaussian, Inc., Wallingford CT, 2016.
 
 ******************************************
 Gaussian 16:  ES64L-G16RevB.01 20-Dec-2017
                11-Jul-2021 
 ******************************************
 %mem=800MB
 %nproc=4
 Will use up to    4 processors via shared memory.
 %chk=SET_328_BBB65_conf1.geo_060_150.chk
 -----------------------------------------------------------
 #p b3lyp/6-31G(d) opt freq scrf=(iefpcm,read,solvent=water)
 -----------------------------------------------------------
 1/18=20,19=15,26=3,38=1,40=2/1,3;
 2/9=110,12=2,17=6,18=5,40=1/2;
 3/5=1,6=6,7=1,11=2,25=1,30=1,70=2203,71=1,72=1,74=-5/1,2,3;
 4//1;
 5/5=2,38=5,53=1/2;
 6/7=2,8=2,9=2,10=2,28=1/1;
 7//1,2,3,16;
 1/18=20,19=15,26=3/3(2);
 2/9=110/2;
 99//99;
 2/9=110/2;
 3/5=1,6=6,7=1,11=2,25=1,30=1,70=2205,71=1,72=1,74=-5/1,2,3;
 4/5=5,16=3,69=1/1;
 5/5=2,38=5,53=1/2;
 7//1,2,3,16;
 1/18=20,19=15,26=3/3(-5);
 2/9=110/2;
 6/7=2,8=2,9=2,10=2,19=2,28=1/1;
 99/9=1/99;
 Leave Link    1 at Sun Jul 11 16:19:24 2021, MaxMem=   104857600 cpu:               0.1 elap:               0.0
 (Enter /prod/apps/gaussian/g16b1/l101.exe)
 ----------------------------------------
 SET_328_BBB65_conf1.geo_060_150 geometry
 ----------------------------------------
 Symbolic Z-matrix:
 Charge =  1 Multiplicity = 1
 C                    -0.776     0.69     -3.478 
 C                     0.412     1.364    -2.824 
 C                     0.2       1.429    -1.262 
 H                     1.002     2.105    -0.955 
 H                    -0.709     2.011    -1.084 
 H                     1.271     0.7      -2.947 
 H                     0.587     2.378    -3.189 
 H                    -1.549     1.405    -3.187 
 H                    -0.542     0.63     -4.542 
 C                    -1.186    -0.702    -2.873 
 H                    -0.374    -1.373    -3.164 
 H                    -2.172    -0.891    -3.303 
 C                    -1.236    -0.675    -1.377 
 H                    -1.327    -1.731    -1.11 
 H                    -2.133    -0.176    -1.001 
 N                     0.032    -0.027    -0.797 
 C                     0.301    -0.243     0.67 
 C                     0.433    -1.795     0.865 
 C                     1.481    -2.379    -0.093 
 C                     2.906    -1.679     0.067 
 C                     2.91     -0.171     0.221 
 C                     1.764     0.351     1.057 
 H                     1.817     1.44      1.125 
 H                     1.904    -0.027     2.072 
 H                     2.776     0.304    -0.753 
 H                     3.88      0.211     0.546 
 H                     3.475    -2.018    -0.801 
 H                     3.415    -2.157     0.907 
 H                     1.201    -2.423    -1.148 
 H                     1.508    -3.448     0.127 
 H                    -0.519    -2.322     0.769 
 H                     0.69     -1.98      1.91 
 C                    -0.811     0.326     1.61 
 C                    -0.751     1.634     2.113 
 H                     0.062     2.272     1.774 
 C                    -1.668     2.235     3.02 
 H                    -1.629     3.318     3.113 
 C                    -2.704     1.5       3.484 
 H                    -3.545     1.955     4.001 
 C                    -2.836     0.246     2.97 
 H                    -3.658    -0.412     3.241 
 C                    -1.855    -0.415     2.226 
 H                    -2.045    -1.461     1.998 
 H                     0.779    -0.514    -1.25 
 
 ITRead=  0  0  0  0  0  0  0  0  0  0  0  0  0  0  0  0  0  0  0  0
 ITRead=  0  0  0  0  0  0  0  0  0  0  0  0  0  0  0  0  0  0  0  0
 ITRead=  0  0  0  0
 MicOpt= -1 -1 -1 -1 -1 -1 -1 -1 -1 -1 -1 -1 -1 -1 -1 -1 -1 -1 -1 -1
 MicOpt= -1 -1 -1 -1 -1 -1 -1 -1 -1 -1 -1 -1 -1 -1 -1 -1 -1 -1 -1 -1
 MicOpt= -1 -1 -1 -1
 NAtoms=     44 NQM=       44 NQMF=       0 NMMI=      0 NMMIF=      0
                NMic=       0 NMicF=      0.
                    Isotopes and Nuclear Properties:
 (Nuclear quadrupole moments (NQMom) in fm**2, nuclear magnetic moments (NMagM)
  in nuclear magnetons)

  Atom         1           2           3           4           5           6           7           8           9          10
 IAtWgt=          12          12          12           1           1           1           1           1           1          12
 AtmWgt=  12.0000000  12.0000000  12.0000000   1.0078250   1.0078250   1.0078250   1.0078250   1.0078250   1.0078250  12.0000000
 NucSpn=           0           0           0           1           1           1           1           1           1           0
 AtZEff=  -0.0000000  -0.0000000  -0.0000000  -0.0000000  -0.0000000  -0.0000000  -0.0000000  -0.0000000  -0.0000000  -0.0000000
 NQMom=    0.0000000   0.0000000   0.0000000   0.0000000   0.0000000   0.0000000   0.0000000   0.0000000   0.0000000   0.0000000
 NMagM=    0.0000000   0.0000000   0.0000000   2.7928460   2.7928460   2.7928460   2.7928460   2.7928460   2.7928460   0.0000000
 AtZNuc=   6.0000000   6.0000000   6.0000000   1.0000000   1.0000000   1.0000000   1.0000000   1.0000000   1.0000000   6.0000000

  Atom        11          12          13          14          15          16          17          18          19          20
 IAtWgt=           1           1          12           1           1          14          12          12          12          12
 AtmWgt=   1.0078250   1.0078250  12.0000000   1.0078250   1.0078250  14.0030740  12.0000000  12.0000000  12.0000000  12.0000000
 NucSpn=           1           1           0           1           1           2           0           0           0           0
 AtZEff=  -0.0000000  -0.0000000  -0.0000000  -0.0000000  -0.0000000  -0.0000000  -0.0000000  -0.0000000  -0.0000000  -0.0000000
 NQMom=    0.0000000   0.0000000   0.0000000   0.0000000   0.0000000   2.0440000   0.0000000   0.0000000   0.0000000   0.0000000
 NMagM=    2.7928460   2.7928460   0.0000000   2.7928460   2.7928460   0.4037610   0.0000000   0.0000000   0.0000000   0.0000000
 AtZNuc=   1.0000000   1.0000000   6.0000000   1.0000000   1.0000000   7.0000000   6.0000000   6.0000000   6.0000000   6.0000000

  Atom        21          22          23          24          25          26          27          28          29          30
 IAtWgt=          12          12           1           1           1           1           1           1           1           1
 AtmWgt=  12.0000000  12.0000000   1.0078250   1.0078250   1.0078250   1.0078250   1.0078250   1.0078250   1.0078250   1.0078250
 NucSpn=           0           0           1           1           1           1           1           1           1           1
 AtZEff=  -0.0000000  -0.0000000  -0.0000000  -0.0000000  -0.0000000  -0.0000000  -0.0000000  -0.0000000  -0.0000000  -0.0000000
 NQMom=    0.0000000   0.0000000   0.0000000   0.0000000   0.0000000   0.0000000   0.0000000   0.0000000   0.0000000   0.0000000
 NMagM=    0.0000000   0.0000000   2.7928460   2.7928460   2.7928460   2.7928460   2.7928460   2.7928460   2.7928460   2.7928460
 AtZNuc=   6.0000000   6.0000000   1.0000000   1.0000000   1.0000000   1.0000000   1.0000000   1.0000000   1.0000000   1.0000000

  Atom        31          32          33          34          35          36          37          38          39          40
 IAtWgt=           1           1          12          12           1          12           1          12           1          12
 AtmWgt=   1.0078250   1.0078250  12.0000000  12.0000000   1.0078250  12.0000000   1.0078250  12.0000000   1.0078250  12.0000000
 NucSpn=           1           1           0           0           1           0           1           0           1           0
 AtZEff=  -0.0000000  -0.0000000  -0.0000000  -0.0000000  -0.0000000  -0.0000000  -0.0000000  -0.0000000  -0.0000000  -0.0000000
 NQMom=    0.0000000   0.0000000   0.0000000   0.0000000   0.0000000   0.0000000   0.0000000   0.0000000   0.0000000   0.0000000
 NMagM=    2.7928460   2.7928460   0.0000000   0.0000000   2.7928460   0.0000000   2.7928460   0.0000000   2.7928460   0.0000000
 AtZNuc=   1.0000000   1.0000000   6.0000000   6.0000000   1.0000000   6.0000000   1.0000000   6.0000000   1.0000000   6.0000000

  Atom        41          42          43          44
 IAtWgt=           1          12           1           1
 AtmWgt=   1.0078250  12.0000000   1.0078250   1.0078250
 NucSpn=           1           0           1           1
 AtZEff=  -0.0000000  -0.0000000  -0.0000000  -0.0000000
 NQMom=    0.0000000   0.0000000   0.0000000   0.0000000
 NMagM=    2.7928460   0.0000000   2.7928460   2.7928460
 AtZNuc=   1.0000000   6.0000000   1.0000000   1.0000000
 Leave Link  101 at Sun Jul 11 16:19:24 2021, MaxMem=   104857600 cpu:               0.6 elap:               0.2
 (Enter /prod/apps/gaussian/g16b1/l103.exe)

 GradGradGradGradGradGradGradGradGradGradGradGradGradGradGradGradGradGrad
 Berny optimization.
 Initialization pass.
                           ----------------------------
                           !    Initial Parameters    !
                           ! (Angstroms and Degrees)  !
 --------------------------                            --------------------------
 ! Name  Definition              Value          Derivative Info.                !
 --------------------------------------------------------------------------------
 ! R1    R(1,2)                  1.5144         estimate D2E/DX2                !
 ! R2    R(1,8)                  1.0924         estimate D2E/DX2                !
 ! R3    R(1,9)                  1.0911         estimate D2E/DX2                !
 ! R4    R(1,10)                 1.5722         estimate D2E/DX2                !
 ! R5    R(2,3)                  1.5777         estimate D2E/DX2                !
 ! R6    R(2,6)                  1.0927         estimate D2E/DX2                !
 ! R7    R(2,7)                  1.0918         estimate D2E/DX2                !
 ! R8    R(3,4)                  1.0929         estimate D2E/DX2                !
 ! R9    R(3,5)                  1.0939         estimate D2E/DX2                !
 ! R10   R(3,16)                 1.5377         estimate D2E/DX2                !
 ! R11   R(10,11)                1.0928         estimate D2E/DX2                !
 ! R12   R(10,12)                1.0922         estimate D2E/DX2                !
 ! R13   R(10,13)                1.4971         estimate D2E/DX2                !
 ! R14   R(13,14)                1.093          estimate D2E/DX2                !
 ! R15   R(13,15)                1.0932         estimate D2E/DX2                !
 ! R16   R(13,16)                1.5376         estimate D2E/DX2                !
 ! R17   R(16,17)                1.507          estimate D2E/DX2                !
 ! R18   R(16,44)                1.0002         estimate D2E/DX2                !
 ! R19   R(17,18)                1.5698         estimate D2E/DX2                !
 ! R20   R(17,22)                1.6257         estimate D2E/DX2                !
 ! R21   R(17,33)                1.5633         estimate D2E/DX2                !
 ! R22   R(18,19)                1.5353         estimate D2E/DX2                !
 ! R23   R(18,31)                1.0924         estimate D2E/DX2                !
 ! R24   R(18,32)                1.0919         estimate D2E/DX2                !
 ! R25   R(19,20)                1.5957         estimate D2E/DX2                !
 ! R26   R(19,29)                1.0924         estimate D2E/DX2                !
 ! R27   R(19,30)                1.0917         estimate D2E/DX2                !
 ! R28   R(20,21)                1.5158         estimate D2E/DX2                !
 ! R29   R(20,27)                1.0918         estimate D2E/DX2                !
 ! R30   R(20,28)                1.0923         estimate D2E/DX2                !
 ! R31   R(21,22)                1.5115         estimate D2E/DX2                !
 ! R32   R(21,25)                1.0919         estimate D2E/DX2                !
 ! R33   R(21,26)                1.092          estimate D2E/DX2                !
 ! R34   R(22,23)                1.0924         estimate D2E/DX2                !
 ! R35   R(22,24)                1.0921         estimate D2E/DX2                !
 ! R36   R(33,34)                1.4027         estimate D2E/DX2                !
 ! R37   R(33,42)                1.4207         estimate D2E/DX2                !
 ! R38   R(34,35)                1.0876         estimate D2E/DX2                !
 ! R39   R(34,36)                1.4229         estimate D2E/DX2                !
 ! R40   R(36,37)                1.0877         estimate D2E/DX2                !
 ! R41   R(36,38)                1.3523         estimate D2E/DX2                !
 ! R42   R(38,39)                1.087          estimate D2E/DX2                !
 ! R43   R(38,40)                1.3617         estimate D2E/DX2                !
 ! R44   R(40,41)                1.0872         estimate D2E/DX2                !
 ! R45   R(40,42)                1.3974         estimate D2E/DX2                !
 ! R46   R(42,43)                1.0873         estimate D2E/DX2                !
 ! A1    A(2,1,8)               98.5549         estimate D2E/DX2                !
 ! A2    A(2,1,9)              106.1035         estimate D2E/DX2                !
 ! A3    A(2,1,10)             115.6232         estimate D2E/DX2                !
 ! A4    A(8,1,9)              116.584          estimate D2E/DX2                !
 ! A5    A(8,1,10)             107.0048         estimate D2E/DX2                !
 ! A6    A(9,1,10)             112.4888         estimate D2E/DX2                !
 ! A7    A(1,2,3)              109.9071         estimate D2E/DX2                !
 ! A8    A(1,2,6)              107.3163         estimate D2E/DX2                !
 ! A9    A(1,2,7)              113.2482         estimate D2E/DX2                !
 ! A10   A(3,2,6)              104.0123         estimate D2E/DX2                !
 ! A11   A(3,2,7)              108.3164         estimate D2E/DX2                !
 ! A12   A(6,2,7)              113.6246         estimate D2E/DX2                !
 ! A13   A(2,3,4)              101.829          estimate D2E/DX2                !
 ! A14   A(2,3,5)              107.1383         estimate D2E/DX2                !
 ! A15   A(2,3,16)             105.9665         estimate D2E/DX2                !
 ! A16   A(4,3,5)              103.5908         estimate D2E/DX2                !
 ! A17   A(4,3,16)             125.5152         estimate D2E/DX2                !
 ! A18   A(5,3,16)             111.3325         estimate D2E/DX2                !
 ! A19   A(1,10,11)            104.3234         estimate D2E/DX2                !
 ! A20   A(1,10,12)            103.7181         estimate D2E/DX2                !
 ! A21   A(1,10,13)            112.1651         estimate D2E/DX2                !
 ! A22   A(11,10,12)           117.3684         estimate D2E/DX2                !
 ! A23   A(11,10,13)           107.5766         estimate D2E/DX2                !
 ! A24   A(12,10,13)           111.4938         estimate D2E/DX2                !
 ! A25   A(10,13,14)           103.2651         estimate D2E/DX2                !
 ! A26   A(10,13,15)           112.2934         estimate D2E/DX2                !
 ! A27   A(10,13,16)           110.9163         estimate D2E/DX2                !
 ! A28   A(14,13,15)           106.7788         estimate D2E/DX2                !
 ! A29   A(14,13,16)           112.5619         estimate D2E/DX2                !
 ! A30   A(15,13,16)           110.7671         estimate D2E/DX2                !
 ! A31   A(3,16,13)            112.03           estimate D2E/DX2                !
 ! A32   A(3,16,17)            114.2421         estimate D2E/DX2                !
 ! A33   A(3,16,44)            104.0333         estimate D2E/DX2                !
 ! A34   A(13,16,17)           117.0005         estimate D2E/DX2                !
 ! A35   A(13,16,44)           103.8785         estimate D2E/DX2                !
 ! A36   A(17,16,44)           103.7559         estimate D2E/DX2                !
 ! A37   A(16,17,18)           106.1195         estimate D2E/DX2                !
 ! A38   A(16,17,22)           109.8762         estimate D2E/DX2                !
 ! A39   A(16,17,33)           113.9656         estimate D2E/DX2                !
 ! A40   A(18,17,22)           104.8327         estimate D2E/DX2                !
 ! A41   A(18,17,33)           110.1803         estimate D2E/DX2                !
 ! A42   A(22,17,33)           111.3457         estimate D2E/DX2                !
 ! A43   A(17,18,19)           110.8527         estimate D2E/DX2                !
 ! A44   A(17,18,31)           113.1277         estimate D2E/DX2                !
 ! A45   A(17,18,32)           107.8294         estimate D2E/DX2                !
 ! A46   A(19,18,31)           110.8882         estimate D2E/DX2                !
 ! A47   A(19,18,32)           111.8429         estimate D2E/DX2                !
 ! A48   A(31,18,32)           101.9753         estimate D2E/DX2                !
 ! A49   A(18,19,20)           112.3432         estimate D2E/DX2                !
 ! A50   A(18,19,29)           116.2939         estimate D2E/DX2                !
 ! A51   A(18,19,30)           105.2839         estimate D2E/DX2                !
 ! A52   A(20,19,29)           110.0843         estimate D2E/DX2                !
 ! A53   A(20,19,30)           112.7837         estimate D2E/DX2                !
 ! A54   A(29,19,30)            99.2947         estimate D2E/DX2                !
 ! A55   A(19,20,21)           116.6766         estimate D2E/DX2                !
 ! A56   A(19,20,27)           104.4465         estimate D2E/DX2                !
 ! A57   A(19,20,28)           107.5342         estimate D2E/DX2                !
 ! A58   A(21,20,27)           112.8468         estimate D2E/DX2                !
 ! A59   A(21,20,28)           110.8535         estimate D2E/DX2                !
 ! A60   A(27,20,28)           103.4527         estimate D2E/DX2                !
 ! A61   A(20,21,22)           113.4375         estimate D2E/DX2                !
 ! A62   A(20,21,25)           109.9878         estimate D2E/DX2                !
 ! A63   A(20,21,26)           112.3701         estimate D2E/DX2                !
 ! A64   A(22,21,25)           104.4826         estimate D2E/DX2                !
 ! A65   A(22,21,26)           112.8337         estimate D2E/DX2                !
 ! A66   A(25,21,26)           102.8451         estimate D2E/DX2                !
 ! A67   A(17,22,21)           115.1156         estimate D2E/DX2                !
 ! A68   A(17,22,23)           115.0061         estimate D2E/DX2                !
 ! A69   A(17,22,24)           102.1304         estimate D2E/DX2                !
 ! A70   A(21,22,23)           109.9936         estimate D2E/DX2                !
 ! A71   A(21,22,24)           107.2961         estimate D2E/DX2                !
 ! A72   A(23,22,24)           106.3179         estimate D2E/DX2                !
 ! A73   A(17,33,34)           121.6418         estimate D2E/DX2                !
 ! A74   A(17,33,42)           126.4109         estimate D2E/DX2                !
 ! A75   A(34,33,42)           111.2423         estimate D2E/DX2                !
 ! A76   A(33,34,35)           117.8534         estimate D2E/DX2                !
 ! A77   A(33,34,36)           126.5036         estimate D2E/DX2                !
 ! A78   A(35,34,36)           115.6349         estimate D2E/DX2                !
 ! A79   A(34,36,37)           116.8683         estimate D2E/DX2                !
 ! A80   A(34,36,38)           118.8711         estimate D2E/DX2                !
 ! A81   A(37,36,38)           122.6356         estimate D2E/DX2                !
 ! A82   A(36,38,39)           121.8968         estimate D2E/DX2                !
 ! A83   A(36,38,40)           116.441          estimate D2E/DX2                !
 ! A84   A(39,38,40)           119.3416         estimate D2E/DX2                !
 ! A85   A(38,40,41)           122.4492         estimate D2E/DX2                !
 ! A86   A(38,40,42)           124.6477         estimate D2E/DX2                !
 ! A87   A(41,40,42)           112.1592         estimate D2E/DX2                !
 ! A88   A(33,42,40)           119.9993         estimate D2E/DX2                !
 ! A89   A(33,42,43)           122.6323         estimate D2E/DX2                !
 ! A90   A(40,42,43)           116.3605         estimate D2E/DX2                !
 ! D1    D(8,1,2,3)             62.0054         estimate D2E/DX2                !
 ! D2    D(8,1,2,6)            174.5032         estimate D2E/DX2                !
 ! D3    D(8,1,2,7)            -59.2829         estimate D2E/DX2                !
 ! D4    D(9,1,2,3)           -177.0335         estimate D2E/DX2                !
 ! D5    D(9,1,2,6)            -64.5357         estimate D2E/DX2                !
 ! D6    D(9,1,2,7)             61.6782         estimate D2E/DX2                !
 ! D7    D(10,1,2,3)           -51.582          estimate D2E/DX2                !
 ! D8    D(10,1,2,6)            60.9158         estimate D2E/DX2                !
 ! D9    D(10,1,2,7)          -172.8703         estimate D2E/DX2                !
 ! D10   D(2,1,10,11)          -69.8039         estimate D2E/DX2                !
 ! D11   D(2,1,10,12)          166.7798         estimate D2E/DX2                !
 ! D12   D(2,1,10,13)           46.3355         estimate D2E/DX2                !
 ! D13   D(8,1,10,11)         -178.4186         estimate D2E/DX2                !
 ! D14   D(8,1,10,12)           58.1651         estimate D2E/DX2                !
 ! D15   D(8,1,10,13)          -62.2792         estimate D2E/DX2                !
 ! D16   D(9,1,10,11)           52.3029         estimate D2E/DX2                !
 ! D17   D(9,1,10,12)          -71.1134         estimate D2E/DX2                !
 ! D18   D(9,1,10,13)          168.4423         estimate D2E/DX2                !
 ! D19   D(1,2,3,4)           -168.7126         estimate D2E/DX2                !
 ! D20   D(1,2,3,5)            -60.3019         estimate D2E/DX2                !
 ! D21   D(1,2,3,16)            58.6573         estimate D2E/DX2                !
 ! D22   D(6,2,3,4)             76.6646         estimate D2E/DX2                !
 ! D23   D(6,2,3,5)           -174.9247         estimate D2E/DX2                !
 ! D24   D(6,2,3,16)           -55.9655         estimate D2E/DX2                !
 ! D25   D(7,2,3,4)            -44.5126         estimate D2E/DX2                !
 ! D26   D(7,2,3,5)             63.8981         estimate D2E/DX2                !
 ! D27   D(7,2,3,16)          -177.1427         estimate D2E/DX2                !
 ! D28   D(2,3,16,13)          -64.5345         estimate D2E/DX2                !
 ! D29   D(2,3,16,17)          159.4664         estimate D2E/DX2                !
 ! D30   D(2,3,16,44)           47.0488         estimate D2E/DX2                !
 ! D31   D(4,3,16,13)          177.6811         estimate D2E/DX2                !
 ! D32   D(4,3,16,17)           41.6819         estimate D2E/DX2                !
 ! D33   D(4,3,16,44)          -70.7356         estimate D2E/DX2                !
 ! D34   D(5,3,16,13)           51.6196         estimate D2E/DX2                !
 ! D35   D(5,3,16,17)          -84.3796         estimate D2E/DX2                !
 ! D36   D(5,3,16,44)          163.2028         estimate D2E/DX2                !
 ! D37   D(1,10,13,14)        -168.9034         estimate D2E/DX2                !
 ! D38   D(1,10,13,15)          76.4383         estimate D2E/DX2                !
 ! D39   D(1,10,13,16)         -48.0992         estimate D2E/DX2                !
 ! D40   D(11,10,13,14)        -54.7448         estimate D2E/DX2                !
 ! D41   D(11,10,13,15)       -169.4031         estimate D2E/DX2                !
 ! D42   D(11,10,13,16)         66.0595         estimate D2E/DX2                !
 ! D43   D(12,10,13,14)         75.2713         estimate D2E/DX2                !
 ! D44   D(12,10,13,15)        -39.3869         estimate D2E/DX2                !
 ! D45   D(12,10,13,16)       -163.9244         estimate D2E/DX2                !
 ! D46   D(10,13,16,3)          60.7824         estimate D2E/DX2                !
 ! D47   D(10,13,16,17)       -164.5257         estimate D2E/DX2                !
 ! D48   D(10,13,16,44)        -50.8979         estimate D2E/DX2                !
 ! D49   D(14,13,16,3)         175.92           estimate D2E/DX2                !
 ! D50   D(14,13,16,17)        -49.3881         estimate D2E/DX2                !
 ! D51   D(14,13,16,44)         64.2397         estimate D2E/DX2                !
 ! D52   D(15,13,16,3)         -64.6161         estimate D2E/DX2                !
 ! D53   D(15,13,16,17)         70.0759         estimate D2E/DX2                !
 ! D54   D(15,13,16,44)       -176.2963         estimate D2E/DX2                !
 ! D55   D(3,16,17,18)        -166.1666         estimate D2E/DX2                !
 ! D56   D(3,16,17,22)         -53.3466         estimate D2E/DX2                !
 ! D57   D(3,16,17,33)          72.4048         estimate D2E/DX2                !
 ! D58   D(13,16,17,18)         60.1134         estimate D2E/DX2                !
 ! D59   D(13,16,17,22)        172.9333         estimate D2E/DX2                !
 ! D60   D(13,16,17,33)        -61.3153         estimate D2E/DX2                !
 ! D61   D(44,16,17,18)        -53.5833         estimate D2E/DX2                !
 ! D62   D(44,16,17,22)         59.2366         estimate D2E/DX2                !
 ! D63   D(44,16,17,33)       -175.012          estimate D2E/DX2                !
 ! D64   D(16,17,18,19)         53.8268         estimate D2E/DX2                !
 ! D65   D(16,17,18,31)        -71.4531         estimate D2E/DX2                !
 ! D66   D(16,17,18,32)        176.561          estimate D2E/DX2                !
 ! D67   D(22,17,18,19)        -62.4454         estimate D2E/DX2                !
 ! D68   D(22,17,18,31)        172.2746         estimate D2E/DX2                !
 ! D69   D(22,17,18,32)         60.2887         estimate D2E/DX2                !
 ! D70   D(33,17,18,19)        177.6536         estimate D2E/DX2                !
 ! D71   D(33,17,18,31)         52.3736         estimate D2E/DX2                !
 ! D72   D(33,17,18,32)        -59.6122         estimate D2E/DX2                !
 ! D73   D(16,17,22,21)        -54.2188         estimate D2E/DX2                !
 ! D74   D(16,17,22,23)         75.2253         estimate D2E/DX2                !
 ! D75   D(16,17,22,24)       -170.1065         estimate D2E/DX2                !
 ! D76   D(18,17,22,21)         59.431          estimate D2E/DX2                !
 ! D77   D(18,17,22,23)       -171.1249         estimate D2E/DX2                !
 ! D78   D(18,17,22,24)        -56.4567         estimate D2E/DX2                !
 ! D79   D(33,17,22,21)        178.5513         estimate D2E/DX2                !
 ! D80   D(33,17,22,23)        -52.0046         estimate D2E/DX2                !
 ! D81   D(33,17,22,24)         62.6636         estimate D2E/DX2                !
 ! D82   D(16,17,33,34)        -90.7343         estimate D2E/DX2                !
 ! D83   D(16,17,33,42)         99.7511         estimate D2E/DX2                !
 ! D84   D(18,17,33,34)        150.1168         estimate D2E/DX2                !
 ! D85   D(18,17,33,42)        -19.3978         estimate D2E/DX2                !
 ! D86   D(22,17,33,34)         34.2383         estimate D2E/DX2                !
 ! D87   D(22,17,33,42)       -135.2763         estimate D2E/DX2                !
 ! D88   D(17,18,19,20)         56.1472         estimate D2E/DX2                !
 ! D89   D(17,18,19,29)        -71.965          estimate D2E/DX2                !
 ! D90   D(17,18,19,30)        179.2645         estimate D2E/DX2                !
 ! D91   D(31,18,19,20)       -177.3225         estimate D2E/DX2                !
 ! D92   D(31,18,19,29)         54.5653         estimate D2E/DX2                !
 ! D93   D(31,18,19,30)        -54.2052         estimate D2E/DX2                !
 ! D94   D(32,18,19,20)        -64.2289         estimate D2E/DX2                !
 ! D95   D(32,18,19,29)        167.6589         estimate D2E/DX2                !
 ! D96   D(32,18,19,30)         58.8884         estimate D2E/DX2                !
 ! D97   D(18,19,20,21)        -42.3624         estimate D2E/DX2                !
 ! D98   D(18,19,20,27)       -167.6828         estimate D2E/DX2                !
 ! D99   D(18,19,20,28)         82.8455         estimate D2E/DX2                !
 ! D100  D(29,19,20,21)         88.9546         estimate D2E/DX2                !
 ! D101  D(29,19,20,27)        -36.3658         estimate D2E/DX2                !
 ! D102  D(29,19,20,28)       -145.8375         estimate D2E/DX2                !
 ! D103  D(30,19,20,21)       -161.1624         estimate D2E/DX2                !
 ! D104  D(30,19,20,27)         73.5172         estimate D2E/DX2                !
 ! D105  D(30,19,20,28)        -35.9545         estimate D2E/DX2                !
 ! D106  D(19,20,21,22)         37.6977         estimate D2E/DX2                !
 ! D107  D(19,20,21,25)        -78.9003         estimate D2E/DX2                !
 ! D108  D(19,20,21,26)        167.1764         estimate D2E/DX2                !
 ! D109  D(27,20,21,22)        158.6719         estimate D2E/DX2                !
 ! D110  D(27,20,21,25)         42.0739         estimate D2E/DX2                !
 ! D111  D(27,20,21,26)        -71.8494         estimate D2E/DX2                !
 ! D112  D(28,20,21,22)        -85.82           estimate D2E/DX2                !
 ! D113  D(28,20,21,25)        157.5821         estimate D2E/DX2                !
 ! D114  D(28,20,21,26)         43.6587         estimate D2E/DX2                !
 ! D115  D(20,21,22,17)        -47.7222         estimate D2E/DX2                !
 ! D116  D(20,21,22,23)       -179.5853         estimate D2E/DX2                !
 ! D117  D(20,21,22,24)         65.1726         estimate D2E/DX2                !
 ! D118  D(25,21,22,17)         72.0636         estimate D2E/DX2                !
 ! D119  D(25,21,22,23)        -59.7995         estimate D2E/DX2                !
 ! D120  D(25,21,22,24)       -175.0415         estimate D2E/DX2                !
 ! D121  D(26,21,22,17)       -176.9656         estimate D2E/DX2                !
 ! D122  D(26,21,22,23)         51.1713         estimate D2E/DX2                !
 ! D123  D(26,21,22,24)        -64.0708         estimate D2E/DX2                !
 ! D124  D(17,33,34,35)          4.1712         estimate D2E/DX2                !
 ! D125  D(17,33,34,36)       -176.9095         estimate D2E/DX2                !
 ! D126  D(42,33,34,35)        175.1306         estimate D2E/DX2                !
 ! D127  D(42,33,34,36)         -5.9501         estimate D2E/DX2                !
 ! D128  D(17,33,42,40)       -175.5448         estimate D2E/DX2                !
 ! D129  D(17,33,42,43)         -7.4512         estimate D2E/DX2                !
 ! D130  D(34,33,42,40)         14.0236         estimate D2E/DX2                !
 ! D131  D(34,33,42,43)       -177.8828         estimate D2E/DX2                !
 ! D132  D(33,34,36,37)       -164.7635         estimate D2E/DX2                !
 ! D133  D(33,34,36,38)          1.098          estimate D2E/DX2                !
 ! D134  D(35,34,36,37)         14.1768         estimate D2E/DX2                !
 ! D135  D(35,34,36,38)       -179.9617         estimate D2E/DX2                !
 ! D136  D(34,36,38,39)       -166.6622         estimate D2E/DX2                !
 ! D137  D(34,36,38,40)         -4.0894         estimate D2E/DX2                !
 ! D138  D(37,36,38,39)         -1.6581         estimate D2E/DX2                !
 ! D139  D(37,36,38,40)        160.9148         estimate D2E/DX2                !
 ! D140  D(36,38,40,41)       -177.2581         estimate D2E/DX2                !
 ! D141  D(36,38,40,42)         13.407          estimate D2E/DX2                !
 ! D142  D(39,38,40,41)        -14.2173         estimate D2E/DX2                !
 ! D143  D(39,38,40,42)        176.4478         estimate D2E/DX2                !
 ! D144  D(38,40,42,33)        -19.364          estimate D2E/DX2                !
 ! D145  D(38,40,42,43)        171.817          estimate D2E/DX2                !
 ! D146  D(41,40,42,33)        170.3441         estimate D2E/DX2                !
 ! D147  D(41,40,42,43)          1.5251         estimate D2E/DX2                !
 --------------------------------------------------------------------------------
 Trust Radius=3.00D-01 FncErr=1.00D-07 GrdErr=1.00D-06 EigMax=2.50D+02 EigMin=1.00D-04
 Number of steps in this run=    264 maximum allowed number of steps=    264.
 GradGradGradGradGradGradGradGradGradGradGradGradGradGradGradGradGradGrad

 Leave Link  103 at Sun Jul 11 16:19:24 2021, MaxMem=   104857600 cpu:               0.1 elap:               0.0
 (Enter /prod/apps/gaussian/g16b1/l202.exe)
                          Input orientation:                          
 ---------------------------------------------------------------------
 Center     Atomic      Atomic             Coordinates (Angstroms)
 Number     Number       Type             X           Y           Z
 ---------------------------------------------------------------------
      1          6           0       -0.776000    0.690000   -3.478000
      2          6           0        0.412000    1.364000   -2.824000
      3          6           0        0.200000    1.429000   -1.262000
      4          1           0        1.002000    2.105000   -0.955000
      5          1           0       -0.709000    2.011000   -1.084000
      6          1           0        1.271000    0.700000   -2.947000
      7          1           0        0.587000    2.378000   -3.189000
      8          1           0       -1.549000    1.405000   -3.187000
      9          1           0       -0.542000    0.630000   -4.542000
     10          6           0       -1.186000   -0.702000   -2.873000
     11          1           0       -0.374000   -1.373000   -3.164000
     12          1           0       -2.172000   -0.891000   -3.303000
     13          6           0       -1.236000   -0.675000   -1.377000
     14          1           0       -1.327000   -1.731000   -1.110000
     15          1           0       -2.133000   -0.176000   -1.001000
     16          7           0        0.032000   -0.027000   -0.797000
     17          6           0        0.301000   -0.243000    0.670000
     18          6           0        0.433000   -1.795000    0.865000
     19          6           0        1.481000   -2.379000   -0.093000
     20          6           0        2.906000   -1.679000    0.067000
     21          6           0        2.910000   -0.171000    0.221000
     22          6           0        1.764000    0.351000    1.057000
     23          1           0        1.817000    1.440000    1.125000
     24          1           0        1.904000   -0.027000    2.072000
     25          1           0        2.776000    0.304000   -0.753000
     26          1           0        3.880000    0.211000    0.546000
     27          1           0        3.475000   -2.018000   -0.801000
     28          1           0        3.415000   -2.157000    0.907000
     29          1           0        1.201000   -2.423000   -1.148000
     30          1           0        1.508000   -3.448000    0.127000
     31          1           0       -0.519000   -2.322000    0.769000
     32          1           0        0.690000   -1.980000    1.910000
     33          6           0       -0.811000    0.326000    1.610000
     34          6           0       -0.751000    1.634000    2.113000
     35          1           0        0.062000    2.272000    1.774000
     36          6           0       -1.668000    2.235000    3.020000
     37          1           0       -1.629000    3.318000    3.113000
     38          6           0       -2.704000    1.500000    3.484000
     39          1           0       -3.545000    1.955000    4.001000
     40          6           0       -2.836000    0.246000    2.970000
     41          1           0       -3.658000   -0.412000    3.241000
     42          6           0       -1.855000   -0.415000    2.226000
     43          1           0       -2.045000   -1.461000    1.998000
     44          1           0        0.779000   -0.514000   -1.250000
 ---------------------------------------------------------------------
                    Distance matrix (angstroms):
                    1          2          3          4          5
     1  C    0.000000
     2  C    1.514376   0.000000
     3  C    2.531670   1.577661   0.000000
     4  H    3.395444   2.095314   1.092899   0.000000
     5  H    2.735099   2.168606   1.093933   1.718429   0.000000
     6  H    2.114774   1.092660   2.125490   2.452438   3.018259
     7  H    2.188752   1.091809   2.182590   2.288561   2.499066
     8  H    1.092445   1.994736   2.601000   3.461131   2.344237
     9  H    1.091078   2.097712   3.456496   4.174462   3.727307
    10  C    1.572192   2.612348   3.009564   4.042934   3.284573
    11  H    2.125128   2.867850   3.434863   4.343908   3.986236
    12  H    2.116365   3.462878   3.895442   4.956147   3.935217
    13  C    2.547357   2.994534   2.549929   3.593762   2.752848
    14  H    3.431074   3.942200   3.512895   4.490341   3.792778
    15  H    2.954138   3.488833   2.843771   3.877280   2.611060
    16  N    2.890452   2.487571   1.537656   2.347613   2.187440
    17  C    4.385923   3.847441   2.557031   2.940260   3.029378
    18  C    5.147675   4.856793   3.869444   4.341217   4.425879
    19  C    5.096178   4.755121   4.184302   4.591159   5.005026
    20  C    5.633499   4.882393   4.329935   4.357563   5.292365
    21  C    5.292496   4.227086   3.478993   3.194310   4.422817
    22  C    5.208910   4.232757   2.997656   2.775843   3.668134
    23  H    5.336081   4.192183   2.883154   2.330847   3.403880
    24  H    6.204755   5.303938   4.017351   3.810742   4.576194
    25  H    4.493476   3.316796   2.856656   2.536036   3.894693
    26  H    6.172548   4.971251   4.277241   3.758074   5.191900
    27  H    5.707065   4.991235   4.777024   4.810257   5.815392
    28  H    6.700606   5.944393   5.282062   5.239681   6.192227
    29  H    4.362132   4.215788   3.981570   4.536478   4.828307
    30  H    5.944386   5.750214   5.236918   5.680015   6.015172
    31  H    5.212984   5.230966   4.325728   4.988381   4.716418
    32  H    6.189394   5.802618   4.682197   4.999279   5.181633
    33  C    5.101124   4.715244   3.238381   3.609852   3.179193
    34  C    5.670189   5.079315   3.512414   3.564754   3.219426
    35  H    5.548736   4.699848   3.153885   2.891181   2.971654
    36  C    6.738449   6.263975   4.740737   4.790243   4.220506
    37  H    7.146697   6.575087   5.104330   4.994212   4.491042
    38  C    7.269300   7.036961   5.564420   5.814222   5.010765
    39  H    8.074839   7.911242   6.480808   6.727529   5.822650
    40  C    6.783616   6.735716   5.341031   5.795839   4.906554
    41  H    7.393598   7.516868   6.208901   6.757019   5.768289
    42  C    5.909389   5.814347   4.448540   4.963024   4.260856
    43  H    6.018616   6.104847   4.900992   5.542632   4.830984
    44  H    2.971805   2.477710   2.027470   2.644979   2.935528
                    6          7          8          9         10
     6  H    0.000000
     7  H    1.828142   0.000000
     8  H    2.916680   2.347175   0.000000
     9  H    2.415760   2.482087   1.857606   0.000000
    10  C    2.829828   3.567882   2.160975   2.230363   0.000000
    11  H    2.655267   3.872228   3.016362   2.437030   1.092825
    12  H    3.809497   4.279187   2.381848   2.550581   1.092162
    13  C    3.261989   3.990925   2.774972   3.493120   1.497079
    14  H    4.004240   4.986935   3.767985   4.239006   2.046189
    15  H    4.017650   4.325351   2.760292   3.964795   2.162838
    16  N    2.585759   3.437108   3.203480   3.845276   2.499785
    17  C    3.861714   4.673684   4.584196   5.351422   3.869716
    18  C    4.632344   5.820014   5.530554   6.005572   4.217636
    19  C    4.203529   5.745738   5.750860   5.739356   4.201621
    20  C    4.173375   5.695485   6.320332   6.201860   5.132504
    21  C    3.671673   4.849931   5.829316   5.936672   5.160621
    22  C    4.049304   4.850008   5.486203   6.061706   5.025556
    23  H    4.174554   4.582940   5.470331   6.191597   5.439685
    24  H    5.110732   5.932675   6.452202   7.082341   5.869987
    25  H    2.689884   3.876505   5.083521   5.046971   4.604767
    26  H    4.387146   5.430466   6.695892   6.754065   6.179602
    27  H    4.104931   5.776496   6.530735   6.094528   5.267823
    28  H    5.254760   6.733574   7.354589   7.288129   6.129815
    29  H    3.604779   5.252835   5.135524   4.886522   3.411046
    30  H    5.168322   6.766563   6.624157   6.529330   4.878335
    31  H    5.113242   6.243316   5.531850   6.076311   4.041467
    32  H    5.577671   6.708396   6.515424   7.068113   5.294313
    33  C    5.024027   5.403287   4.971931   6.165378   4.614618
    34  C    5.528512   5.518603   5.364629   6.733552   5.523252
    35  H    5.120616   4.991816   5.287583   6.553841   5.656570
    36  C    6.826349   6.607356   6.263378   7.812026   6.601950
    37  H    7.210237   6.746070   6.584525   8.185715   7.224185
    38  C    7.602525   7.492029   6.770915   8.357501   6.896708
    39  H    8.546554   8.303521   7.480231   9.151857   7.737985
    40  C    7.216956   7.361768   6.395960   7.863844   6.145067
    41  H    7.988925   8.194451   7.004895   8.448095   6.601203
    42  C    6.146139   6.564026   5.718969   6.972935   5.150702
    43  H    6.333940   6.969241   5.945099   7.028719   5.004059
    44  H    2.143751   3.487155   3.585263   3.727069   2.555523
                   11         12         13         14         15
    11  H    0.000000
    12  H    1.866668   0.000000
    13  C    2.103240   2.152261   0.000000
    14  H    2.292442   2.495771   1.093026   0.000000
    15  H    3.034050   2.410799   1.093154   1.754862   0.000000
    16  N    2.753042   3.447339   1.537572   2.201923   2.179689
    17  C    4.053650   4.724443   2.595997   2.834242   2.953148
    18  C    4.130638   4.997546   3.011067   2.646190   3.561948
    19  C    3.726138   5.085534   3.454614   3.055987   4.328818
    20  C    4.614260   6.145236   4.499924   4.393896   5.365739
    21  C    4.867000   6.226050   4.471793   4.707157   5.188946
    22  C    5.035877   6.003687   3.997128   4.311020   4.438435
    23  H    5.577542   6.399443   4.478174   4.993516   4.768001
    24  H    5.866574   6.800801   4.709045   4.844389   5.075717
    25  H    4.306710   5.693262   4.176597   4.593831   4.938642
    26  H    5.862565   7.256439   5.536820   5.798840   6.220864
    27  H    4.562302   6.278435   4.932438   4.820483   5.906152
    28  H    5.616424   7.109249   5.389321   5.170718   6.192344
    29  H    2.765390   4.285811   3.007809   2.621277   4.023204
    30  H    4.321832   5.643186   4.181038   3.537723   5.023470
    31  H    4.048471   4.621834   2.798574   2.129034   3.216086
    32  H    5.219772   6.045853   4.027018   3.640150   4.438205
    33  C    5.086123   5.241276   3.178804   3.449044   2.969345
    34  C    6.085303   6.142306   4.212696   4.694969   3.857852
    35  H    6.153045   6.385237   4.505376   5.125503   4.302482
    36  C    7.275573   7.071508   5.290400   5.736056   4.711432
    37  H    7.936072   7.692567   6.021511   6.589183   5.420982
    38  C    7.607821   7.215488   5.524036   5.782761   4.821850
    39  H    8.512817   7.958220   6.416484   6.680452   5.617376
    40  C    6.805039   6.409695   4.722780   4.778285   4.054767
    41  H    7.261694   6.727672   5.221224   5.109259   4.513966
    42  C    5.671263   5.558499   3.665020   3.624850   3.247758
    43  H    5.426438   5.333069   3.558497   3.201264   3.263889
    44  H    2.393885   3.614601   2.025407   2.436375   2.942106
                   16         17         18         19         20
    16  N    0.000000
    17  C    1.507019   0.000000
    18  C    2.459445   1.569762   0.000000
    19  C    2.850811   2.556768   1.535293   0.000000
    20  C    3.425708   3.035083   2.601151   1.595690   0.000000
    21  C    3.056132   2.648333   3.031112   2.648755   1.515848
    22  C    2.565156   1.625723   2.532536   2.975817   2.530843
    23  H    3.005395   2.310361   3.528212   4.022584   3.468926
    24  H    3.425718   2.140530   2.597405   3.224602   2.784445
    25  H    2.764242   2.906848   3.537425   3.051412   2.149788
    26  H    4.082572   3.609811   4.000951   3.587704   2.179499
    27  H    3.977228   3.922849   3.475493   2.146537   1.091836
    28  H    4.345711   3.662862   3.004186   2.188525   1.092321
    29  H    2.688973   2.977839   2.244187   1.092411   2.221888
    30  H    3.838697   3.467524   2.105393   1.091737   2.255519
    31  H    2.832487   2.237061   1.092359   2.178599   3.554839
    32  H    3.402208   2.169352   1.091924   2.190181   2.897914
    33  C    2.574666   1.563299   2.569280   3.933255   4.496328
    34  C    3.440946   2.590769   3.836326   5.094353   5.341885
    35  H    3.449107   2.757020   4.183827   5.208748   5.158739
    36  C    4.751435   3.942074   5.029824   6.394995   6.705302
    37  H    5.407037   4.730103   5.953832   7.239223   7.403671
    38  C    5.305128   4.470645   5.249472   6.734671   7.297536
    39  H    6.304289   5.542426   6.302498   7.797760   8.384373
    40  C    4.742388   3.920445   4.391249   5.908391   6.715921
    41  H    5.483591   4.723588   4.928929   6.433814   7.400382
    42  C    3.584668   2.664405   2.998611   4.512644   5.378299
    43  H    3.765941   2.958179   2.745128   4.200914   5.318711
    44  H    1.000193   1.997079   2.496778   2.304274   2.759682
                   21         22         23         24         25
    21  C    0.000000
    22  C    1.511521   0.000000
    23  H    2.146436   1.092407   0.000000
    24  H    2.111628   1.092112   1.748275   0.000000
    25  H    1.091905   2.074236   2.395216   2.974991   0.000000
    26  H    1.091993   2.181325   2.470152   2.507967   1.707298
    27  H    2.185204   3.462924   4.291410   3.832264   2.425405
    28  H    2.160976   3.006387   3.942022   2.859588   3.036518
    29  H    3.141074   3.588045   4.524241   4.074730   3.173827
    30  H    3.565553   3.919546   4.998403   3.955134   4.057059
    31  H    4.084746   3.527033   4.442553   3.582703   4.479887
    32  H    3.324696   2.704560   3.685479   2.305265   4.081620
    33  C    4.002770   2.633830   2.895273   2.776559   4.295442
    34  C    4.498957   3.014374   2.758334   3.132032   4.735249
    35  H    4.060931   2.664795   2.047791   2.960941   4.198160
    36  C    5.880588   4.379663   4.045772   4.332959   6.141126
    37  H    6.413993   4.954056   4.399312   4.975419   6.590461
    38  C    6.704954   5.212826   5.099796   5.055605   7.029437
    39  H    7.776587   6.278968   6.106361   6.110725   8.079688
    40  C    6.383369   4.983031   5.145879   4.832032   6.734882
    41  H    7.233056   5.894922   6.154916   5.696545   7.606645
    42  C    5.175402   3.879495   4.258733   3.782108   5.553158
    43  H    5.419765   4.321725   4.908459   4.201956   5.824540
    44  H    2.612020   2.653432   3.245949   3.540971   2.214530
                   26         27         28         29         30
    26  H    0.000000
    27  H    2.635693   0.000000
    28  H    2.440076   1.714697   0.000000
    29  H    4.121242   2.335703   3.032421   0.000000
    30  H    4.380665   2.602916   2.431405   1.664482   0.000000
    31  H    5.081045   4.302250   3.939876   2.577497   2.405986
    32  H    4.103301   3.886797   2.909117   3.131890   2.450150
    33  C    4.811528   5.447665   4.951623   4.383116   4.671202
    34  C    5.091815   6.299808   5.760354   5.559107   5.905421
    35  H    4.509194   6.056674   5.622307   5.646099   6.125514
    36  C    6.402933   7.690156   7.042111   6.877525   7.124108
    37  H    6.825835   8.357219   7.764277   7.689220   8.033413
    38  C    7.324099   8.301662   7.580022   7.217644   7.313898
    39  H    8.373123   9.387456   8.655806   8.258547   8.350634
    40  C    7.140144   7.692520   7.007523   6.354436   6.371705
    41  H    8.029483   8.354441   7.649831   6.849622   6.752914
    42  C    6.008702   6.335711   5.705018   4.975447   4.991459
    43  H    6.325307   6.214101   5.611265   4.621610   4.480248
    44  H    3.656151   3.119621   3.781613   1.957746   3.322036
                   31         32         33         34         35
    31  H    0.000000
    32  H    1.697211   0.000000
    33  C    2.793644   2.767786   0.000000
    34  C    4.184507   3.895983   1.402666   0.000000
    35  H    4.738399   4.300277   2.139145   1.087628   0.000000
    36  C    5.210897   4.955652   2.523258   1.422933   2.132319
    37  H    6.207740   5.907095   3.446766   2.146332   2.397190
    38  C    5.172343   5.109512   2.910945   2.389938   3.342281
    39  H    6.155910   6.147498   3.980613   3.387332   4.250937
    40  C    4.099697   4.302482   2.440620   2.647304   3.732760
    41  H    4.428567   4.809916   3.363066   3.729497   4.816051
    42  C    2.746706   3.004348   1.420730   2.330233   3.331540
    43  H    2.140196   2.785198   2.206053   3.356588   4.292425
    44  H    3.005001   3.484634   3.378358   4.273707   4.173783
                   36         37         38         39         40
    36  C    0.000000
    37  H    1.087685   0.000000
    38  C    1.352338   2.144386   0.000000
    39  H    2.136326   2.513438   1.087012   0.000000
    40  C    2.307129   3.303707   1.361667   2.118094   0.000000
    41  H    3.318968   4.248073   2.150560   2.488586   1.087239
    42  C    2.772707   3.843583   2.443479   3.409344   1.397433
    43  H    3.853184   4.924949   3.377869   4.234509   2.117620
    44  H    5.637172   6.286371   6.212748   7.236431   5.608407
                   41         42         43         44
    41  H    0.000000
    42  C    2.069068   0.000000
    43  H    2.290681   1.087290   0.000000
    44  H    6.313989   4.362377   4.406959   0.000000
 Stoichiometry    C17H26N(1+)
 Framework group  C1[X(C17H26N)]
 Deg. of freedom   126
 Full point group                 C1      NOp   1
 Largest Abelian subgroup         C1      NOp   1
 Largest concise Abelian subgroup C1      NOp   1
                         Standard orientation:                         
 ---------------------------------------------------------------------
 Center     Atomic      Atomic             Coordinates (Angstroms)
 Number     Number       Type             X           Y           Z
 ---------------------------------------------------------------------
      1          6           0        2.580699   -2.762803   -0.084889
      2          6           0        2.457530   -1.843941   -1.282327
      3          6           0        1.034296   -1.163275   -1.292988
      4          1           0        1.009093   -0.712289   -2.288179
      5          1           0        0.293595   -1.965850   -1.355631
      6          1           0        3.147759   -1.011475   -1.125833
      7          1           0        2.599692   -2.356898   -2.235590
      8          1           0        1.780404   -3.463256   -0.334546
      9          1           0        3.598335   -3.155641   -0.108274
     10          6           0        2.214926   -2.122734    1.303747
     11          1           0        3.023714   -1.413367    1.495911
     12          1           0        2.132241   -2.982881    1.971674
     13          6           0        0.936159   -1.346238    1.248475
     14          1           0        0.927555   -0.809105    2.200378
     15          1           0        0.056652   -1.995420    1.244488
     16          7           0        0.920633   -0.399739    0.036854
     17          6           0       -0.116595    0.693542    0.035955
     18          6           0        0.166781    1.564203    1.311024
     19          6           0        1.627103    2.037438    1.336157
     20          6           0        2.026672    2.842449    0.017625
     21          6           0        1.530335    2.280167   -1.299677
     22          6           0        0.138486    1.696415   -1.217901
     23          1           0       -0.159131    1.302386   -2.192334
     24          1           0       -0.545903    2.518385   -0.997251
     25          1           0        2.159710    1.443258   -1.609076
     26          1           0        1.645318    2.987868   -2.123319
     27          1           0        3.114977    2.917262    0.063458
     28          1           0        1.695211    3.874907    0.149266
     29          1           0        2.379128    1.275251    1.552697
     30          1           0        1.719232    2.638638    2.242778
     31          1           0       -0.094682    1.057978    2.243023
     32          1           0       -0.532106    2.403143    1.305091
     33          6           0       -1.589878    0.171112    0.056174
     34          6           0       -2.300472   -0.072741   -1.128336
     35          1           0       -1.772256    0.046723   -2.071549
     36          6           0       -3.657656   -0.487751   -1.231080
     37          1           0       -3.981571   -0.875433   -2.194325
     38          6           0       -4.376585   -0.655970   -0.098092
     39          1           0       -5.335178   -1.168507   -0.096892
     40          6           0       -3.705670   -0.492915    1.075544
     41          1           0       -4.176730   -0.647641    2.043145
     42          6           0       -2.438034    0.083469    1.192582
     43          1           0       -2.085300    0.272922    2.203466
     44          1           0        1.787224    0.094645    0.107502
 ---------------------------------------------------------------------
 Rotational constants (GHZ):           0.5478786           0.3319136           0.2725784
 Leave Link  202 at Sun Jul 11 16:19:25 2021, MaxMem=   104857600 cpu:               0.1 elap:               0.0
 (Enter /prod/apps/gaussian/g16b1/l301.exe)
 Standard basis: 6-31G(d) (6D, 7F)
 Ernie: Thresh=  0.10000D-02 Tol=  0.10000D-05 Strict=F.
 There are   322 symmetry adapted cartesian basis functions of A   symmetry.
 There are   322 symmetry adapted basis functions of A   symmetry.
   322 basis functions,   608 primitive gaussians,   322 cartesian basis functions
    67 alpha electrons       67 beta electrons
       nuclear repulsion energy      1422.4807132104 Hartrees.
 IExCor=  402 DFT=T Ex+Corr=B3LYP ExCW=0 ScaHFX=  0.200000
 ScaDFX=  0.800000  0.720000  1.000000  0.810000 ScalE2=  1.000000  1.000000
 IRadAn=      5 IRanWt=     -1 IRanGd=            0 ICorTp=0 IEmpDi=  4
 NAtoms=   44 NActive=   44 NUniq=   44 SFac= 1.00D+00 NAtFMM=   60 NAOKFM=F Big=F
 Integral buffers will be    131072 words long.
 Raffenetti 2 integral format.
 Two-electron integral symmetry is turned on.
 Using the following non-standard input for PCM:
 MSTModel=DFT cav MSTCharged
 --- end of non-standard input.
 MST model for solvation energy: B3LYP parametrization.
 MST cavity parameters:
 ISph   IAn     Re0     Alpha   Atom Type   QCorr
 ------------------------------------------------
   1      6     1.50     1.25      CH2        F
   2      6     1.50     1.25      CH2        F
   3      6     1.50     1.25      CH2        F
   4      1     1.20     1.25      CH2        F
   5      1     1.20     1.25      CH2        F
   6      1     1.20     1.25      CH2        F
   7      1     1.20     1.25      CH2        F
   8      1     1.20     1.25      CH2        F
   9      1     1.20     1.25      CH2        F
  10      6     1.50     1.25      CH2        F
  11      1     1.20     1.25      CH2        F
  12      1     1.20     1.25      CH2        F
  13      6     1.50     1.25      CH2        F
  14      1     1.20     1.25      CH2        F
  15      1     1.20     1.25      CH2        F
  16      7     1.50     1.15      NH         T
  17      6     1.50     1.25      C          F
  18      6     1.50     1.25      CH2        F
  19      6     1.50     1.25      CH2        F
  20      6     1.50     1.25      CH2        F
  21      6     1.50     1.25      CH2        F
  22      6     1.50     1.25      CH2        F
  23      1     1.20     1.25      CH2        F
  24      1     1.20     1.25      CH2        F
  25      1     1.20     1.25      CH2        F
  26      1     1.20     1.25      CH2        F
  27      1     1.20     1.25      CH2        F
  28      1     1.20     1.25      CH2        F
  29      1     1.20     1.25      CH2        F
  30      1     1.20     1.25      CH2        F
  31      1     1.20     1.25      CH2        F
  32      1     1.20     1.25      CH2        F
  33      6     1.50     1.25      C          F
  34      6     1.50     1.25      CH         F
  35      1     1.20     1.25      CH         F
  36      6     1.50     1.25      CH         F
  37      1     1.20     1.25      CH         F
  38      6     1.50     1.25      CH         F
  39      1     1.20     1.25      CH         F
  40      6     1.50     1.25      CH         F
  41      1     1.20     1.25      CH         F
  42      6     1.50     1.25      CH         F
  43      1     1.20     1.25      CH         F
  44      1     0.90     1.15      NH         T
 ------------------------------------------------------------------------------
 Polarizable Continuum Model (PCM)
 =================================
 Model                : PCM.
 Atomic radii         : MST.
 Polarization charges : Total charges.
 Charge compensation  : None.
 Solution method      : On-the-fly selection.
 Cavity type          : Scaled VdW (van der Waals Surface) (Alpha=1.250).
 Cavity algorithm     : GePol (No added spheres)
                        Default sphere list used, NSphG=   44.
                        Lebedev-Laikov grids with approx.  5.0 points / Ang**2.
                        Smoothing algorithm: York/Karplus (Gamma=1.0000).
                        Polarization charges: spherical gaussians, with
                                              point-specific exponents (IZeta= 3).
                        Self-potential: point-specific (ISelfS= 7).
                        Self-field    : sphere-specific E.n sum rule (ISelfD= 2).
 1st derivatives      : Analytical E(r).r(x)/FMM algorithm (CHGder, D1EAlg=3).
                        Cavity 1st derivative terms included.
 Solvent              : Water, Eps=  78.355300 Eps(inf)=   1.777849
 ------------------------------------------------------------------------------
 GePol: Number of generator spheres                  =      44
 GePol: Total number of spheres                      =      44
 GePol: Number of exposed spheres                    =      44 (100.00%)
 GePol: Number of points                             =    2606
 GePol: Average weight of points                     =       0.13
 GePol: Minimum weight of points                     =   0.52D-11
 GePol: Maximum weight of points                     =    0.21416
 GePol: Number of points with low weight             =     244
 GePol: Fraction of low-weight points (<1% of avg)   =       9.36%
 GePol: Cavity surface area                          =    336.662 Ang**2
 GePol: Cavity volume                                =    345.339 Ang**3
 PCM non-electrostatic energy =         0.0025134556 Hartrees.
 Nuclear repulsion after PCM non-electrostatic terms =     1422.4832266660 Hartrees.
 Leave Link  301 at Sun Jul 11 16:19:25 2021, MaxMem=   104857600 cpu:               0.3 elap:               0.1
 (Enter /prod/apps/gaussian/g16b1/l302.exe)
 NPDir=0 NMtPBC=     1 NCelOv=     1 NCel=       1 NClECP=     1 NCelD=      1
         NCelK=      1 NCelE2=     1 NClLst=     1 CellRange=     0.0.
 One-electron integrals computed using PRISM.
 One-electron integral symmetry used in STVInt
 NBasis=   322 RedAO= T EigKep=  6.74D-04  NBF=   322
 NBsUse=   322 1.00D-06 EigRej= -1.00D+00 NBFU=   322
 Precomputing XC quadrature grid using
 IXCGrd= 4 IRadAn=           5 IRanWt=          -1 IRanGd=           0 AccXCQ= 0.00D+00.
 Generated NRdTot=       0 NPtTot=           0 NUsed=           0 NTot=          32
 NSgBfM=   321   321   321   321   321 MxSgAt=    44 MxSgA2=    44.
 Leave Link  302 at Sun Jul 11 16:19:25 2021, MaxMem=   104857600 cpu:               3.2 elap:               0.8
 (Enter /prod/apps/gaussian/g16b1/l303.exe)
 DipDrv:  MaxL=1.
 Leave Link  303 at Sun Jul 11 16:19:25 2021, MaxMem=   104857600 cpu:               0.2 elap:               0.1
 (Enter /prod/apps/gaussian/g16b1/l401.exe)
 ExpMin= 1.61D-01 ExpMax= 4.17D+03 ExpMxC= 6.27D+02 IAcc=3 IRadAn=         5 AccDes= 0.00D+00
 Harris functional with IExCor=  402 and IRadAn=       5 diagonalized for initial guess.
 HarFok:  IExCor=  402 AccDes= 0.00D+00 IRadAn=         5 IDoV= 1 UseB2=F ITyADJ=14
 ICtDFT=  3500011 ScaDFX=  1.000000  1.000000  1.000000  1.000000
 FoFCou: FMM=F IPFlag=           0 FMFlag=      100000 FMFlg1=           0
         NFxFlg=           0 DoJE=T BraDBF=F KetDBF=T FulRan=T
         wScrn=  0.000000 ICntrl=       500 IOpCl=  0 I1Cent=   200000004 NGrid=           0
         NMat0=    1 NMatS0=      1 NMatT0=    0 NMatD0=    1 NMtDS0=    0 NMtDT0=    0
 Petite list used in FoFCou.
 Harris En= -717.989554703297    
 JPrj=0 DoOrth=F DoCkMO=F.
 Leave Link  401 at Sun Jul 11 16:19:29 2021, MaxMem=   104857600 cpu:              13.3 elap:               3.3
 (Enter /prod/apps/gaussian/g16b1/l502.exe)
 Integral symmetry usage will be decided dynamically.
 Closed shell SCF:
 Using DIIS extrapolation, IDIIS=  1040.
 NGot=   104857600 LenX=   104644392 LenY=   104540267
 Requested convergence on RMS density matrix=1.00D-08 within 128 cycles.
 Requested convergence on MAX density matrix=1.00D-06.
 Requested convergence on             energy=1.00D-06.
 No special actions if energy rises.
 Fock matrices will be formed incrementally for  20 cycles.

 Cycle   1  Pass 1  IDiag  1:
 FoFJK:  IHMeth= 1 ICntrl=       0 DoSepK=F KAlg= 0 I1Cent=           0 FoldK=F
 IRaf= 870000000 NMat=       1 IRICut=       1 DoRegI=T DoRafI=F ISym2E= 0 IDoP0=0 IntGTp=1.
 FoFCou: FMM=F IPFlag=           0 FMFlag=      100000 FMFlg1=           0
         NFxFlg=           0 DoJE=F BraDBF=F KetDBF=F FulRan=T
         wScrn=  0.000000 ICntrl=         0 IOpCl=  0 I1Cent=           0 NGrid=           0
         NMat0=    1 NMatS0=      1 NMatT0=    0 NMatD0=    1 NMtDS0=    0 NMtDT0=    0
 Symmetry not used in FoFCou.
 Inv3:  Mode=1 IEnd=    20373708.
 Iteration    1 A*A^-1 deviation from unit magnitude is 3.33D-15 for   1875.
 Iteration    1 A*A^-1 deviation from orthogonality  is 2.44D-15 for   2603    565.
 Iteration    1 A^-1*A deviation from unit magnitude is 3.33D-15 for   1875.
 Iteration    1 A^-1*A deviation from orthogonality  is 7.66D-14 for   2282   2227.
 E= -717.546610212302    
 DIIS: error= 2.58D-02 at cycle   1 NSaved=   1.
 NSaved= 1 IEnMin= 1 EnMin= -717.546610212302     IErMin= 1 ErrMin= 2.58D-02
 ErrMax= 2.58D-02  0.00D+00 EMaxC= 1.00D-01 BMatC= 4.37D-01 BMatP= 4.37D-01
 IDIUse=3 WtCom= 7.42D-01 WtEn= 2.58D-01
 Coeff-Com:  0.100D+01
 Coeff-En:   0.100D+01
 Coeff:      0.100D+01
 Gap=     0.227 Goal=   None    Shift=    0.000
 GapD=    0.227 DampG=1.000 DampE=0.500 DampFc=0.5000 IDamp=-1.
 Damping current iteration by 5.00D-01
 RMSDP=4.52D-03 MaxDP=1.14D-01              OVMax= 1.66D-01

 Cycle   2  Pass 1  IDiag  1:
 RMSU=  2.22D-03    CP:  9.75D-01
 E= -717.757104849143     Delta-E=       -0.210494636841 Rises=F Damp=T
 DIIS: error= 5.80D-03 at cycle   2 NSaved=   2.
 NSaved= 2 IEnMin= 2 EnMin= -717.757104849143     IErMin= 2 ErrMin= 5.80D-03
 ErrMax= 5.80D-03  0.00D+00 EMaxC= 1.00D-01 BMatC= 3.05D-02 BMatP= 4.37D-01
 IDIUse=3 WtCom= 9.42D-01 WtEn= 5.80D-02
 Coeff-Com:  0.584D-01 0.942D+00
 Coeff-En:   0.874D-01 0.913D+00
 Coeff:      0.601D-01 0.940D+00
 Gap=     0.247 Goal=   None    Shift=    0.000
 RMSDP=1.03D-03 MaxDP=4.07D-02 DE=-2.10D-01 OVMax= 1.26D-01

 Cycle   3  Pass 1  IDiag  1:
 RMSU=  1.01D-03    CP:  9.70D-01  9.26D-01
 E= -718.001264252398     Delta-E=       -0.244159403255 Rises=F Damp=F
 DIIS: error= 4.70D-03 at cycle   3 NSaved=   3.
 NSaved= 3 IEnMin= 3 EnMin= -718.001264252398     IErMin= 3 ErrMin= 4.70D-03
 ErrMax= 4.70D-03  0.00D+00 EMaxC= 1.00D-01 BMatC= 1.46D-02 BMatP= 3.05D-02
 IDIUse=3 WtCom= 9.53D-01 WtEn= 4.70D-02
 Coeff-Com: -0.222D-01 0.395D+00 0.627D+00
 Coeff-En:   0.000D+00 0.000D+00 0.100D+01
 Coeff:     -0.212D-01 0.376D+00 0.645D+00
 Gap=     0.227 Goal=   None    Shift=    0.000
 RMSDP=5.98D-04 MaxDP=2.86D-02 DE=-2.44D-01 OVMax= 5.46D-02

 Cycle   4  Pass 1  IDiag  1:
 RMSU=  4.72D-04    CP:  9.71D-01  9.80D-01  6.58D-01
 E= -718.010969178498     Delta-E=       -0.009704926099 Rises=F Damp=F
 DIIS: error= 2.28D-03 at cycle   4 NSaved=   4.
 NSaved= 4 IEnMin= 4 EnMin= -718.010969178498     IErMin= 4 ErrMin= 2.28D-03
 ErrMax= 2.28D-03  0.00D+00 EMaxC= 1.00D-01 BMatC= 4.13D-03 BMatP= 1.46D-02
 IDIUse=3 WtCom= 9.77D-01 WtEn= 2.28D-02
 Coeff-Com: -0.146D-01 0.102D+00 0.373D+00 0.540D+00
 Coeff-En:   0.000D+00 0.000D+00 0.248D+00 0.752D+00
 Coeff:     -0.143D-01 0.993D-01 0.370D+00 0.545D+00
 Gap=     0.229 Goal=   None    Shift=    0.000
 RMSDP=2.73D-04 MaxDP=1.42D-02 DE=-9.70D-03 OVMax= 2.82D-02

 Cycle   5  Pass 1  IDiag  1:
 RMSU=  1.14D-04    CP:  9.70D-01  9.70D-01  7.40D-01  5.08D-01
 E= -718.015111989984     Delta-E=       -0.004142811486 Rises=F Damp=F
 DIIS: error= 4.95D-04 at cycle   5 NSaved=   5.
 NSaved= 5 IEnMin= 5 EnMin= -718.015111989984     IErMin= 5 ErrMin= 4.95D-04
 ErrMax= 4.95D-04  0.00D+00 EMaxC= 1.00D-01 BMatC= 2.07D-04 BMatP= 4.13D-03
 IDIUse=3 WtCom= 9.95D-01 WtEn= 4.95D-03
 Coeff-Com: -0.467D-02 0.138D-01 0.119D+00 0.263D+00 0.608D+00
 Coeff-En:   0.000D+00 0.000D+00 0.000D+00 0.000D+00 0.100D+01
 Coeff:     -0.465D-02 0.137D-01 0.119D+00 0.262D+00 0.610D+00
 Gap=     0.228 Goal=   None    Shift=    0.000
 RMSDP=5.52D-05 MaxDP=2.64D-03 DE=-4.14D-03 OVMax= 6.25D-03

 Cycle   6  Pass 1  IDiag  1:
 RMSU=  3.01D-05    CP:  9.70D-01  9.72D-01  7.43D-01  5.64D-01  6.70D-01
 E= -718.015316427410     Delta-E=       -0.000204437426 Rises=F Damp=F
 DIIS: error= 1.43D-04 at cycle   6 NSaved=   6.
 NSaved= 6 IEnMin= 6 EnMin= -718.015316427410     IErMin= 6 ErrMin= 1.43D-04
 ErrMax= 1.43D-04  0.00D+00 EMaxC= 1.00D-01 BMatC= 1.67D-05 BMatP= 2.07D-04
 IDIUse=3 WtCom= 9.99D-01 WtEn= 1.43D-03
 Coeff-Com: -0.177D-02 0.266D-02 0.452D-01 0.114D+00 0.327D+00 0.513D+00
 Coeff-En:   0.000D+00 0.000D+00 0.000D+00 0.000D+00 0.000D+00 0.100D+01
 Coeff:     -0.177D-02 0.266D-02 0.451D-01 0.114D+00 0.327D+00 0.514D+00
 Gap=     0.228 Goal=   None    Shift=    0.000
 RMSDP=1.49D-05 MaxDP=5.65D-04 DE=-2.04D-04 OVMax= 1.59D-03

 Cycle   7  Pass 1  IDiag  1:
 RMSU=  7.09D-06    CP:  9.70D-01  9.72D-01  7.46D-01  5.69D-01  6.86D-01
                    CP:  5.88D-01
 E= -718.015332992141     Delta-E=       -0.000016564732 Rises=F Damp=F
 DIIS: error= 2.96D-05 at cycle   7 NSaved=   7.
 NSaved= 7 IEnMin= 7 EnMin= -718.015332992141     IErMin= 7 ErrMin= 2.96D-05
 ErrMax= 2.96D-05  0.00D+00 EMaxC= 1.00D-01 BMatC= 7.17D-07 BMatP= 1.67D-05
 IDIUse=1 WtCom= 1.00D+00 WtEn= 0.00D+00
 Coeff-Com: -0.592D-03 0.456D-03 0.149D-01 0.397D-01 0.121D+00 0.247D+00
 Coeff-Com:  0.577D+00
 Coeff:     -0.592D-03 0.456D-03 0.149D-01 0.397D-01 0.121D+00 0.247D+00
 Coeff:      0.577D+00
 Gap=     0.228 Goal=   None    Shift=    0.000
 RMSDP=3.48D-06 MaxDP=1.43D-04 DE=-1.66D-05 OVMax= 3.43D-04

 Cycle   8  Pass 1  IDiag  1:
 RMSU=  2.17D-06    CP:  9.70D-01  9.72D-01  7.46D-01  5.70D-01  6.90D-01
                    CP:  6.02D-01  6.57D-01
 E= -718.015333616050     Delta-E=       -0.000000623908 Rises=F Damp=F
 DIIS: error= 8.42D-06 at cycle   8 NSaved=   8.
 NSaved= 8 IEnMin= 8 EnMin= -718.015333616050     IErMin= 8 ErrMin= 8.42D-06
 ErrMax= 8.42D-06  0.00D+00 EMaxC= 1.00D-01 BMatC= 8.09D-08 BMatP= 7.17D-07
 IDIUse=1 WtCom= 1.00D+00 WtEn= 0.00D+00
 Coeff-Com: -0.477D-04-0.168D-03 0.121D-02 0.416D-02 0.161D-01 0.545D-01
 Coeff-Com:  0.287D+00 0.637D+00
 Coeff:     -0.477D-04-0.168D-03 0.121D-02 0.416D-02 0.161D-01 0.545D-01
 Coeff:      0.287D+00 0.637D+00
 Gap=     0.228 Goal=   None    Shift=    0.000
 RMSDP=1.02D-06 MaxDP=4.55D-05 DE=-6.24D-07 OVMax= 7.92D-05

 Cycle   9  Pass 1  IDiag  1:
 RMSU=  4.59D-07    CP:  9.70D-01  9.72D-01  7.46D-01  5.70D-01  6.91D-01
                    CP:  6.11D-01  7.21D-01  6.65D-01
 E= -718.015333694765     Delta-E=       -0.000000078716 Rises=F Damp=F
 DIIS: error= 1.40D-06 at cycle   9 NSaved=   9.
 NSaved= 9 IEnMin= 9 EnMin= -718.015333694765     IErMin= 9 ErrMin= 1.40D-06
 ErrMax= 1.40D-06  0.00D+00 EMaxC= 1.00D-01 BMatC= 1.90D-09 BMatP= 8.09D-08
 IDIUse=1 WtCom= 1.00D+00 WtEn= 0.00D+00
 Coeff-Com:  0.137D-04-0.785D-04-0.337D-03-0.700D-03-0.798D-03 0.535D-02
 Coeff-Com:  0.612D-01 0.209D+00 0.727D+00
 Coeff:      0.137D-04-0.785D-04-0.337D-03-0.700D-03-0.798D-03 0.535D-02
 Coeff:      0.612D-01 0.209D+00 0.727D+00
 Gap=     0.228 Goal=   None    Shift=    0.000
 RMSDP=1.74D-07 MaxDP=6.64D-06 DE=-7.87D-08 OVMax= 6.89D-06

 Cycle  10  Pass 1  IDiag  1:
 RMSU=  1.23D-07    CP:  9.70D-01  9.72D-01  7.46D-01  5.70D-01  6.91D-01
                    CP:  6.11D-01  7.29D-01  6.92D-01  8.10D-01
 E= -718.015333696283     Delta-E=       -0.000000001517 Rises=F Damp=F
 DIIS: error= 5.77D-07 at cycle  10 NSaved=  10.
 NSaved=10 IEnMin=10 EnMin= -718.015333696283     IErMin=10 ErrMin= 5.77D-07
 ErrMax= 5.77D-07  0.00D+00 EMaxC= 1.00D-01 BMatC= 2.97D-10 BMatP= 1.90D-09
 IDIUse=1 WtCom= 1.00D+00 WtEn= 0.00D+00
 Coeff-Com:  0.926D-05-0.274D-04-0.225D-03-0.580D-03-0.125D-02-0.250D-03
 Coeff-Com:  0.137D-01 0.685D-01 0.361D+00 0.559D+00
 Coeff:      0.926D-05-0.274D-04-0.225D-03-0.580D-03-0.125D-02-0.250D-03
 Coeff:      0.137D-01 0.685D-01 0.361D+00 0.559D+00
 Gap=     0.228 Goal=   None    Shift=    0.000
 RMSDP=6.03D-08 MaxDP=2.14D-06 DE=-1.52D-09 OVMax= 3.22D-06

 Cycle  11  Pass 1  IDiag  1:
 RMSU=  3.43D-08    CP:  9.70D-01  9.72D-01  7.46D-01  5.70D-01  6.91D-01
                    CP:  6.11D-01  7.28D-01  6.99D-01  8.39D-01  6.55D-01
 E= -718.015333696570     Delta-E=       -0.000000000287 Rises=F Damp=F
 DIIS: error= 8.87D-08 at cycle  11 NSaved=  11.
 NSaved=11 IEnMin=11 EnMin= -718.015333696570     IErMin=11 ErrMin= 8.87D-08
 ErrMax= 8.87D-08  0.00D+00 EMaxC= 1.00D-01 BMatC= 1.00D-11 BMatP= 2.97D-10
 IDIUse=1 WtCom= 1.00D+00 WtEn= 0.00D+00
 Coeff-Com:  0.239D-05-0.470D-05-0.569D-04-0.165D-03-0.381D-03-0.376D-03
 Coeff-Com:  0.760D-03 0.112D-01 0.815D-01 0.207D+00 0.701D+00
 Coeff:      0.239D-05-0.470D-05-0.569D-04-0.165D-03-0.381D-03-0.376D-03
 Coeff:      0.760D-03 0.112D-01 0.815D-01 0.207D+00 0.701D+00
 Gap=     0.228 Goal=   None    Shift=    0.000
 RMSDP=1.33D-08 MaxDP=9.13D-07 DE=-2.87D-10 OVMax= 1.48D-06

 Cycle  12  Pass 1  IDiag  1:
 RMSU=  9.17D-09    CP:  9.70D-01  9.72D-01  7.46D-01  5.70D-01  6.91D-01
                    CP:  6.11D-01  7.28D-01  7.00D-01  8.45D-01  6.93D-01
                    CP:  7.85D-01
 E= -718.015333696568     Delta-E=        0.000000000003 Rises=F Damp=F
 DIIS: error= 5.37D-08 at cycle  12 NSaved=  12.
 NSaved=12 IEnMin=11 EnMin= -718.015333696570     IErMin=12 ErrMin= 5.37D-08
 ErrMax= 5.37D-08  0.00D+00 EMaxC= 1.00D-01 BMatC= 1.60D-12 BMatP= 1.00D-11
 IDIUse=1 WtCom= 1.00D+00 WtEn= 0.00D+00
 Coeff-Com:  0.702D-06-0.747D-06-0.164D-04-0.527D-04-0.127D-03-0.196D-03
 Coeff-Com: -0.607D-03 0.138D-02 0.189D-01 0.719D-01 0.366D+00 0.543D+00
 Coeff:      0.702D-06-0.747D-06-0.164D-04-0.527D-04-0.127D-03-0.196D-03
 Coeff:     -0.607D-03 0.138D-02 0.189D-01 0.719D-01 0.366D+00 0.543D+00
 Gap=     0.228 Goal=   None    Shift=    0.000
 RMSDP=4.86D-09 MaxDP=3.04D-07 DE= 2.73D-12 OVMax= 6.33D-07

 Error on total polarization charges =  0.01949
 SCF Done:  E(RB3LYP) =  -718.015333697     A.U. after   12 cycles
            NFock= 12  Conv=0.49D-08     -V/T= 2.0100
 KE= 7.109019297346D+02 PE=-4.484992680457D+03 EE= 1.633592190360D+03
 Leave Link  502 at Sun Jul 11 16:20:57 2021, MaxMem=   104857600 cpu:             351.2 elap:              87.9
 (Enter /prod/apps/gaussian/g16b1/l601.exe)
 Copying SCF densities to generalized density rwf, IOpCl= 0 IROHF=0.

 **********************************************************************

            Population analysis using the SCF Density.

 **********************************************************************

 Orbital symmetries:
       Occupied  (A) (A) (A) (A) (A) (A) (A) (A) (A) (A) (A) (A)
                 (A) (A) (A) (A) (A) (A) (A) (A) (A) (A) (A) (A)
                 (A) (A) (A) (A) (A) (A) (A) (A) (A) (A) (A) (A)
                 (A) (A) (A) (A) (A) (A) (A) (A) (A) (A) (A) (A)
                 (A) (A) (A) (A) (A) (A) (A) (A) (A) (A) (A) (A)
                 (A) (A) (A) (A) (A) (A) (A)
       Virtual   (A) (A) (A) (A) (A) (A) (A) (A) (A) (A) (A) (A)
                 (A) (A) (A) (A) (A) (A) (A) (A) (A) (A) (A) (A)
                 (A) (A) (A) (A) (A) (A) (A) (A) (A) (A) (A) (A)
                 (A) (A) (A) (A) (A) (A) (A) (A) (A) (A) (A) (A)
                 (A) (A) (A) (A) (A) (A) (A) (A) (A) (A) (A) (A)
                 (A) (A) (A) (A) (A) (A) (A) (A) (A) (A) (A) (A)
                 (A) (A) (A) (A) (A) (A) (A) (A) (A) (A) (A) (A)
                 (A) (A) (A) (A) (A) (A) (A) (A) (A) (A) (A) (A)
                 (A) (A) (A) (A) (A) (A) (A) (A) (A) (A) (A) (A)
                 (A) (A) (A) (A) (A) (A) (A) (A) (A) (A) (A) (A)
                 (A) (A) (A) (A) (A) (A) (A) (A) (A) (A) (A) (A)
                 (A) (A) (A) (A) (A) (A) (A) (A) (A) (A) (A) (A)
                 (A) (A) (A) (A) (A) (A) (A) (A) (A) (A) (A) (A)
                 (A) (A) (A) (A) (A) (A) (A) (A) (A) (A) (A) (A)
                 (A) (A) (A) (A) (A) (A) (A) (A) (A) (A) (A) (A)
                 (A) (A) (A) (A) (A) (A) (A) (A) (A) (A) (A) (A)
                 (A) (A) (A) (A) (A) (A) (A) (A) (A) (A) (A) (A)
                 (A) (A) (A) (A) (A) (A) (A) (A) (A) (A) (A) (A)
                 (A) (A) (A) (A) (A) (A) (A) (A) (A) (A) (A) (A)
                 (A) (A) (A) (A) (A) (A) (A) (A) (A) (A) (A) (A)
                 (A) (A) (A) (A) (A) (A) (A) (A) (A) (A) (A) (A)
                 (A) (A) (A)
 The electronic state is 1-A.
 Alpha  occ. eigenvalues --  -14.46762 -10.27698 -10.25125 -10.24920 -10.21821
 Alpha  occ. eigenvalues --  -10.20271 -10.20144 -10.20132 -10.20097 -10.19861
 Alpha  occ. eigenvalues --  -10.19742 -10.19520 -10.19498 -10.19179 -10.19101
 Alpha  occ. eigenvalues --  -10.18980 -10.18728 -10.18719  -1.02239  -0.87067
 Alpha  occ. eigenvalues --   -0.84534  -0.81101  -0.79256  -0.78133  -0.76055
 Alpha  occ. eigenvalues --   -0.74623  -0.73109  -0.69011  -0.65223  -0.65177
 Alpha  occ. eigenvalues --   -0.62759  -0.60324  -0.59918  -0.59540  -0.57808
 Alpha  occ. eigenvalues --   -0.53648  -0.52379  -0.51112  -0.50579  -0.48138
 Alpha  occ. eigenvalues --   -0.47388  -0.46199  -0.45989  -0.45439  -0.44379
 Alpha  occ. eigenvalues --   -0.43982  -0.43854  -0.41764  -0.41007  -0.40520
 Alpha  occ. eigenvalues --   -0.40242  -0.39881  -0.38724  -0.38291  -0.37995
 Alpha  occ. eigenvalues --   -0.37382  -0.35596  -0.35333  -0.34408  -0.33815
 Alpha  occ. eigenvalues --   -0.33446  -0.32267  -0.32015  -0.31635  -0.31082
 Alpha  occ. eigenvalues --   -0.26625  -0.25018
 Alpha virt. eigenvalues --   -0.02170  -0.01260   0.04961   0.05764   0.08557
 Alpha virt. eigenvalues --    0.08643   0.08814   0.09387   0.10833   0.11192
 Alpha virt. eigenvalues --    0.11734   0.12191   0.12917   0.13676   0.13853
 Alpha virt. eigenvalues --    0.14200   0.14590   0.15062   0.15807   0.16023
 Alpha virt. eigenvalues --    0.16153   0.16992   0.17541   0.17987   0.18437
 Alpha virt. eigenvalues --    0.18521   0.19595   0.20056   0.20294   0.20776
 Alpha virt. eigenvalues --    0.21055   0.21701   0.22084   0.22996   0.23394
 Alpha virt. eigenvalues --    0.25295   0.25700   0.25945   0.26717   0.26921
 Alpha virt. eigenvalues --    0.27912   0.29001   0.30190   0.31185   0.33788
 Alpha virt. eigenvalues --    0.35571   0.36471   0.44439   0.46418   0.47295
[...]
    16  N    0.358810  -0.337324   0.304366   0.320030  -0.551512   0.274362
    17  C   -0.959075   0.395498  -1.115822  -1.582634   0.036367   0.476999
    18  C    0.332721  -0.675932   0.226423   0.522452   0.166352  -0.196267
    19  C    6.051840   0.536423  -0.186567   0.090829   0.014936  -0.029163
    20  C    0.536423   5.237553   0.584705  -0.586198   0.062053  -0.039593
    21  C   -0.186567   0.584705   6.010371   0.484954   0.232131  -0.316215
    22  C    0.090829  -0.586198   0.484954   8.261466  -0.261979  -0.224738
    23  H    0.014936   0.062053   0.232131  -0.261979   2.620575  -0.817586
    24  H   -0.029163  -0.039593  -0.316215  -0.224738  -0.817586   2.014811
    25  H   -0.032765  -0.093630   0.098153   0.026544  -0.101380   0.091699
    26  H    0.064132  -0.018012  -0.097863  -0.054544  -0.073718  -0.037757
    27  H    0.000247  -0.021849   0.026356   0.182915  -0.000909   0.007947
    28  H   -0.059610   0.171127  -0.097044   0.080168   0.027461  -0.028315
    29  H    0.158457  -0.058434  -0.063573  -0.052949   0.019214  -0.022533
    30  H   -0.119377  -0.017314   0.068120  -0.033873  -0.009194   0.013577
    31  H    0.210836   0.057578   0.024302   0.142760   0.007683   0.000424
    32  H   -0.284979  -0.025638  -0.045061  -0.143121   0.004792  -0.044961
    33  C   -0.208687   0.179781  -0.388958  -0.968838   0.094979  -0.117806
    34  C    0.003872  -0.039900   0.015687   0.419512   0.139292   0.093019
    35  H   -0.005908   0.010874  -0.022228  -0.115477  -0.196520  -0.047095
    36  C   -0.011689   0.012443   0.001156  -0.187179   0.004036   0.036736
    37  H    0.000079   0.000069  -0.002094  -0.006859   0.002755   0.000491
    38  C   -0.004703  -0.004323  -0.001077  -0.064567   0.004222   0.009451
    39  H    0.000141  -0.000067   0.000239   0.004510  -0.000325  -0.000650
    40  C   -0.009169  -0.003389  -0.014819   0.011766  -0.025060   0.001746
    41  H   -0.002954  -0.000079  -0.000056   0.016425   0.001014  -0.001336
    42  C   -0.052905  -0.091430  -0.038193  -0.798642  -0.079593  -0.036099
    43  H    0.002127   0.011804  -0.001182   0.039266  -0.004169   0.020945
    44  H   -0.030416   0.048910   0.000916  -0.031653  -0.000959  -0.003750
              25         26         27         28         29         30
     1  C   -0.001144  -0.000318   0.000080   0.000027   0.000561  -0.000911
     2  C   -0.010426  -0.001595   0.002770  -0.002272  -0.017672   0.002749
     3  C   -0.101621   0.053765   0.003847  -0.002188   0.043496  -0.006152
     4  H   -0.074200   0.019647   0.002687  -0.004215   0.001820  -0.001299
     5  H   -0.002097   0.005403   0.000638  -0.000154   0.000118  -0.000927
     6  H   -0.007461   0.003463   0.000993  -0.000039  -0.006123  -0.000554
     7  H    0.007357  -0.001077  -0.000225   0.000040   0.001392   0.000161
     8  H   -0.002098  -0.000005   0.000123   0.000029  -0.002280   0.000054
     9  H    0.000814   0.000136   0.000017  -0.000085   0.001345   0.000036
    10  C   -0.017183   0.002829   0.002308  -0.002225  -0.009700   0.000128
    11  H   -0.003597  -0.000155   0.000677  -0.000162  -0.006451   0.004279
    12  H    0.001261   0.000069  -0.000142   0.000086   0.005070  -0.001170
    13  C    0.066949  -0.009453   0.002343  -0.001639  -0.082516   0.048673
    14  H   -0.003404  -0.001424   0.002963  -0.005010  -0.051434   0.017019
    15  H    0.002417  -0.000672   0.000033   0.000316   0.006267   0.003126
    16  N    0.131738   0.005869   0.046219  -0.044250   0.001246   0.037718
    17  C    0.006978   0.177830  -0.249049  -0.011031  -0.023232   0.229838
    18  C   -0.054131  -0.009878   0.210752   0.049502  -0.002264  -0.035261
    19  C   -0.032765   0.064132   0.000247  -0.059610   0.158457  -0.119377
    20  C   -0.093630  -0.018012  -0.021849   0.171127  -0.058434  -0.017314
    21  C    0.098153  -0.097863   0.026356  -0.097044  -0.063573   0.068120
    22  C    0.026544  -0.054544   0.182915   0.080168  -0.052949  -0.033873
    23  H   -0.101380  -0.073718  -0.000909   0.027461   0.019214  -0.009194
    24  H    0.091699  -0.037757   0.007947  -0.028315  -0.022533   0.013577
    25  H    1.654757  -0.421257  -0.108595   0.102748  -0.014411   0.009781
    26  H   -0.421257   1.519292   0.023753  -0.111926   0.008608   0.002214
    27  H   -0.108595   0.023753   1.421793  -0.323013  -0.112513   0.030018
    28  H    0.102748  -0.111926  -0.323013   1.398460   0.099763  -0.113731
    29  H   -0.014411   0.008608  -0.112513   0.099763   1.611921  -0.415704
    30  H    0.009781   0.002214   0.030018  -0.113731  -0.415704   1.477074
    31  H    0.017521  -0.007995   0.001264   0.023487  -0.117844  -0.064406
    32  H   -0.025002   0.013550   0.007826  -0.027731   0.100568  -0.039459
    33  C    0.010932   0.012922  -0.029824   0.008125   0.049503  -0.003209
    34  C   -0.023552   0.043282  -0.000117  -0.007588   0.010198   0.004511
    35  H   -0.003424   0.012077  -0.000905  -0.002007  -0.002109   0.002054
    36  C   -0.013805   0.003399   0.001406  -0.001260   0.002148  -0.003038
    37  H    0.000052  -0.000338   0.000054   0.000082  -0.000030  -0.000155
    38  C   -0.000152   0.002663  -0.000351  -0.001221   0.000894   0.001138
    39  H   -0.000013   0.000106  -0.000005   0.000014   0.000046   0.000035
    40  C    0.003518  -0.003793   0.000644  -0.003974  -0.013849   0.008441
    41  H    0.000070  -0.000213   0.000066   0.000031  -0.000260  -0.000003
    42  C    0.017787   0.004836  -0.004162  -0.005132  -0.008595   0.031229
    43  H   -0.002209   0.002976  -0.001454  -0.000202   0.000649   0.006789
    44  H   -0.017239   0.007614   0.013075  -0.008316   0.026683  -0.000212
              31         32         33         34         35         36
     1  C   -0.007910   0.001473   0.032662   0.028723   0.002047  -0.019623
     2  C    0.007979  -0.002161  -0.036194  -0.034084   0.018725  -0.041206
     3  C   -0.089053   0.073375  -0.092223   0.301624   0.100345   0.038294
     4  H    0.001710   0.001583   0.216013   0.018456   0.011873   0.033475
     5  H   -0.009272   0.006057  -0.131994   0.158003  -0.069371  -0.048358
     6  H   -0.001378   0.001132   0.014788   0.002733   0.000299   0.002693
     7  H   -0.000422  -0.000136  -0.000973  -0.004662   0.002296  -0.005096
     8  H    0.000458  -0.000435   0.005319   0.000728   0.000202   0.006174
     9  H   -0.000008   0.000327  -0.004601   0.002797  -0.000708  -0.001445
    10  C   -0.098005   0.030061  -0.007162  -0.004100   0.004883  -0.050370
    11  H    0.013202  -0.002560   0.002340  -0.005209   0.001199  -0.002395
    12  H   -0.000616   0.001737  -0.002510   0.002425   0.000151  -0.001543
    13  C    0.173449  -0.071627   0.158895  -0.172238   0.021827   0.073701
    14  H   -0.074032   0.018058   0.209836  -0.032222  -0.004050   0.032526
    15  H   -0.000050   0.001224  -0.011282  -0.094393   0.025731  -0.033614
    16  N   -0.425078   0.158183  -2.834459   0.306704  -0.197892  -0.403282
    17  C    0.069968   0.473384  -1.014247  -6.166181   0.277014   2.007770
    18  C   -0.296141  -0.201064  -1.030753   0.000258   0.046486  -0.201319
    19  C    0.210836  -0.284979  -0.208687   0.003872  -0.005908  -0.011689
    20  C    0.057578  -0.025638   0.179781  -0.039900   0.010874   0.012443
    21  C    0.024302  -0.045061  -0.388958   0.015687  -0.022228   0.001156
    22  C    0.142760  -0.143121  -0.968838   0.419512  -0.115477  -0.187179
    23  H    0.007683   0.004792   0.094979   0.139292  -0.196520   0.004036
    24  H    0.000424  -0.044961  -0.117806   0.093019  -0.047095   0.036736
    25  H    0.017521  -0.025002   0.010932  -0.023552  -0.003424  -0.013805
    26  H   -0.007995   0.013550   0.012922   0.043282   0.012077   0.003399
    27  H    0.001264   0.007826  -0.029824  -0.000117  -0.000905   0.001406
    28  H    0.023487  -0.027731   0.008125  -0.007588  -0.002007  -0.001260
    29  H   -0.117844   0.100568   0.049503   0.010198  -0.002109   0.002148
    30  H   -0.064406  -0.039459  -0.003209   0.004511   0.002054  -0.003038
    31  H    2.577078  -0.779556  -0.035135  -0.059236  -0.000518  -0.023071
    32  H   -0.779556   1.929349  -0.132618  -0.008259   0.012452  -0.032133
    33  C   -0.035135  -0.132618  24.279175  -7.369373   0.633346   1.303355
    34  C   -0.059236  -0.008259  -7.369373  22.643428  -1.807605  -5.036645
    35  H   -0.000518   0.012452   0.633346  -1.807605   2.990357   0.329401
    36  C   -0.023071  -0.032133   1.303355  -5.036645   0.329401  12.852321
    37  H    0.000919  -0.000684   0.106745   0.552182  -0.106067  -0.939292
    38  C    0.014102   0.026722  -3.684426   3.375886  -0.125966  -3.186992
    39  H   -0.000721  -0.000141   0.019201   0.043997  -0.011425   0.228374
    40  C    0.008424   0.036651   0.426834  -4.032781   0.085939   3.523010
    41  H    0.004229   0.001559   0.306821   0.119615   0.006738  -0.207832
    42  C    0.166454   0.125056  -5.949659   1.682669  -0.032180  -4.021141
    43  H   -0.110855  -0.101750   0.469119   0.022500  -0.035461   0.064398
    44  H   -0.012824   0.010599   0.094824   0.000101   0.001182   0.000315
              37         38         39         40         41         42
     1  C   -0.000704   0.005076   0.000204  -0.023912  -0.000470   0.023581
     2  C    0.000284   0.016214   0.000245  -0.002387  -0.000252   0.017186
     3  C   -0.008651   0.033294  -0.001352  -0.010272   0.008590  -0.259127
     4  H   -0.002645  -0.000840   0.000024   0.004804   0.000081   0.024213
     5  H    0.004297   0.067922  -0.002740  -0.032453   0.001787  -0.115657
     6  H    0.000178  -0.000779  -0.000034   0.001518   0.000042  -0.008247
     7  H   -0.000240   0.001688   0.000073  -0.001230  -0.000092   0.004440
     8  H   -0.000259  -0.004490   0.000159   0.003617  -0.000049  -0.003009
     9  H    0.000073   0.000560   0.000008  -0.001724   0.000037   0.000877
    10  C   -0.000749   0.049771   0.000412  -0.049727   0.000570   0.066039
    11  H   -0.000119   0.002137   0.000019  -0.000671  -0.000019   0.004519
    12  H   -0.000004   0.001619   0.000002  -0.003803   0.000026  -0.005348
    13  C    0.012930  -0.001218  -0.002901   0.099139  -0.003515   0.454982
    14  H    0.000499  -0.025697   0.000319   0.066699  -0.001743   0.020555
    15  H   -0.000579   0.071828  -0.003686  -0.032694   0.000893   0.066019
    16  N   -0.009168   0.067263   0.005242  -0.158413  -0.012264   0.108367
    17  C   -0.001552  -1.161766  -0.066916   2.068263  -0.043102  -7.114682
    18  C    0.007855   0.177589   0.008970  -0.718435   0.005624   1.139205
    19  C    0.000079  -0.004703   0.000141  -0.009169  -0.002954  -0.052905
    20  C    0.000069  -0.004323  -0.000067  -0.003389  -0.000079  -0.091430
    21  C   -0.002094  -0.001077   0.000239  -0.014819  -0.000056  -0.038193
    22  C   -0.006859  -0.064567   0.004510   0.011766   0.016425  -0.798642
    23  H    0.002755   0.004222  -0.000325  -0.025060   0.001014  -0.079593
    24  H    0.000491   0.009451  -0.000650   0.001746  -0.001336  -0.036099
    25  H    0.000052  -0.000152  -0.000013   0.003518   0.000070   0.017787
    26  H   -0.000338   0.002663   0.000106  -0.003793  -0.000213   0.004836
    27  H    0.000054  -0.000351  -0.000005   0.000644   0.000066  -0.004162
    28  H    0.000082  -0.001221   0.000014  -0.003974   0.000031  -0.005132
    29  H   -0.000030   0.000894   0.000046  -0.013849  -0.000260  -0.008595
    30  H   -0.000155   0.001138   0.000035   0.008441  -0.000003   0.031229
    31  H    0.000919   0.014102  -0.000721   0.008424   0.004229   0.166454
    32  H   -0.000684   0.026722  -0.000141   0.036651   0.001559   0.125056
    33  C    0.106745  -3.684426   0.019201   0.426834   0.306821  -5.949659
    34  C    0.552182   3.375886   0.043997  -4.032781   0.119615   1.682669
    35  H   -0.106067  -0.125966  -0.011425   0.085939   0.006738  -0.032180
    36  C   -0.939292  -3.186992   0.228374   3.523010  -0.207832  -4.021141
    37  H    1.773593   0.288924  -0.045637  -0.241003  -0.018641   0.162668
    38  C    0.288924   9.391935  -0.568518  -2.845807   0.203742   3.013372
    39  H   -0.045637  -0.568518   1.602085   0.199781  -0.045426   0.064617
    40  C   -0.241003  -2.845807   0.199781  12.124812  -0.885862  -3.559700
    41  H   -0.018641   0.203742  -0.045426  -0.885862   1.777479   0.405342
    42  C    0.162668   3.013372   0.064617  -3.559700   0.405342  21.323125
    43  H    0.008384  -0.103949  -0.010300   0.040258  -0.098098  -1.558100
    44  H    0.000866  -0.001766   0.000030  -0.008825   0.000443  -0.027153
              43         44
     1  C    0.001603   0.071189
     2  C   -0.004950  -0.039456
     3  C    0.028043  -0.034263
     4  H    0.003691   0.002068
     5  H    0.015142   0.045256
     6  H   -0.000800   0.036259
     7  H    0.000193  -0.006611
     8  H   -0.000192   0.012639
     9  H   -0.000451  -0.013826
    10  C    0.011985  -0.020529
    11  H    0.001854   0.015671
    12  H    0.001573  -0.002134
    13  C    0.073328  -0.094076
    14  H   -0.053460   0.014969
    15  H   -0.039007   0.038420
    16  N    0.000486  -0.047439
    17  C    0.497320   0.037282
    18  C   -0.260172  -0.024887
    19  C    0.002127  -0.030416
    20  C    0.011804   0.048910
    21  C   -0.001182   0.000916
    22  C    0.039266  -0.031653
    23  H   -0.004169  -0.000959
    24  H    0.020945  -0.003750
    25  H   -0.002209  -0.017239
    26  H    0.002976   0.007614
    27  H   -0.001454   0.013075
    28  H   -0.000202  -0.008316
    29  H    0.000649   0.026683
    30  H    0.006789  -0.000212
    31  H   -0.110855  -0.012824
    32  H   -0.101750   0.010599
    33  C    0.469119   0.094824
    34  C    0.022500   0.000101
    35  H   -0.035461   0.001182
    36  C    0.064398   0.000315
    37  H    0.008384   0.000866
    38  C   -0.103949  -0.001766
    39  H   -0.010300   0.000030
    40  C    0.040258  -0.008825
    41  H   -0.098098   0.000443
    42  C   -1.558100  -0.027153
    43  H    2.861973   0.000497
    44  H    0.000497   0.647916
 Mulliken charges:
               1
     1  C    0.438147
     2  C    0.527690
     3  C    0.703292
     4  H   -0.288583
     5  H   -0.199083
     6  H   -0.023814
     7  H   -0.095321
     8  H   -0.066117
     9  H   -0.122344
    10  C    0.564508
    11  H   -0.029841
    12  H   -0.086884
    13  C    0.535102
    14  H   -0.259666
    15  H   -0.155053
    16  N   -1.037723
    17  C   -2.602443
    18  C    1.064911
    19  C    0.424972
    20  C    0.565851
    21  C    0.531595
    22  C    0.904211
    23  H   -0.299415
    24  H   -0.129865
    25  H   -0.116278
    26  H   -0.138442
    27  H   -0.140701
    28  H   -0.097126
    29  H   -0.065490
    30  H   -0.132811
    31  H   -0.309701
    32  H   -0.066643
    33  C    1.419414
    34  C    0.905940
    35  H   -0.810583
    36  C   -0.084806
    37  H   -0.538505
    38  C    0.960596
    39  H   -0.417999
    40  C   -0.032110
    41  H   -0.538960
    42  C    0.841614
    43  H   -0.800142
    44  H    0.298610
 Sum of Mulliken charges =   1.00000
 Mulliken charges with hydrogens summed into heavy atoms:
               1
     1  C    0.249687
     2  C    0.408555
     3  C    0.215627
    10  C    0.447783
    13  C    0.120382
    16  N   -0.739113
    17  C   -2.602443
    18  C    0.688567
    19  C    0.226670
    20  C    0.328024
    21  C    0.276874
    22  C    0.474930
    33  C    1.419414
    34  C    0.095357
    36  C   -0.623312
    38  C    0.542597
    40  C   -0.571070
    42  C    0.041472
 Electronic spatial extent (au):  <R**2>=           4546.1760
 Charge=              1.0000 electrons
 Dipole moment (field-independent basis, Debye):
    X=              2.5314    Y=             -1.9816    Z=              0.0986  Tot=              3.2163
 Quadrupole moment (field-independent basis, Debye-Ang):
   XX=            -86.5923   YY=            -92.4292   ZZ=            -95.9636
   XY=             -0.6100   XZ=             -0.2380   YZ=              0.6575
 Traceless Quadrupole moment (field-independent basis, Debye-Ang):
   XX=              5.0694   YY=             -0.7675   ZZ=             -4.3019
   XY=             -0.6100   XZ=             -0.2380   YZ=              0.6575
 Octapole moment (field-independent basis, Debye-Ang**2):
  XXX=            -38.4308  YYY=            -20.8605  ZZZ=             -0.3031  XYY=             43.8570
  XXY=            -13.6960  XXZ=              0.5662  XZZ=             -3.4030  YZZ=             -4.9431
  YYZ=              1.3262  XYZ=             -2.4597
 Hexadecapole moment (field-independent basis, Debye-Ang**3):
 XXXX=          -2507.0983 YYYY=          -2130.9994 ZZZZ=           -884.2865 XXXY=             47.1843
 XXXZ=             -2.7903 YYYX=            -26.1439 YYYZ=             -3.3190 ZZZX=             -2.2396
 ZZZY=              4.5957 XXYY=           -859.6700 XXZZ=           -588.9047 YYZZ=           -506.6380
 XXYZ=             10.0166 YYXZ=             -1.2816 ZZXY=             -1.1850
 N-N= 1.427478200468D+03 E-N=-4.495135328009D+03  KE= 7.124477602948D+02
 Leave Link  601 at Sun Jul 11 17:55:12 2021, MaxMem=   262144000 cpu:               1.4 elap:               0.5
 (Enter /prod/apps/gaussian/g16b1/l9999.exe)
 1\1\GINC-PIRINEUS39\SP\RMP2-FC\Aug-CC-pVDZ\C17H26N1(1+)\UBATOR02\11-Ju
 l-2021\0\\#p mp2/aug-cc-pVDZ scf=tight maxdisk=180GB geom=allcheck\\SE
 T_328_BBB65_conf1.geo_060_150 geometry\\1,1\C,0,-1.2636328682,1.002606
 0165,-3.31097674\C,0,0.0545797863,1.59002023,-2.8054717424\C,0,0.20993
 82878,1.4269621103,-1.2955550255\H,0,1.1767596867,1.8016395315,-0.9718
 387126\H,0,-0.5744158349,1.9492665009,-0.7473850868\H,0,0.9017635822,1
 .110907734,-3.310985431\H,0,0.1204370798,2.6599659423,-3.0232962355\H,
 0,-2.1036463537,1.5887092905,-2.9193447259\H,0,-1.3121316427,1.0611105
 787,-4.4019151944\C,0,-1.3912826503,-0.4500153089,-2.8521952016\H,0,-0
 .6494911592,-1.0747693666,-3.3639598986\H,0,-2.3750697459,-0.858412341
 6,-3.1050102583\C,0,-1.2164776727,-0.5903773171,-1.3426972381\H,0,-1.2
 538966359,-1.6370486099,-1.049405389\H,0,-1.9804056579,-0.0411181623,-
 0.7914368797\N,0,0.1165508237,-0.0294322899,-0.8883412934\C,0,0.443848
 3899,-0.3154414902,0.6276199381\C,0,0.528832838,-1.8487666461,0.837866
 1119\C,0,1.7276140245,-2.5517789662,0.1813555024\C,0,3.0590916134,-1.9
 075751964,0.5797734105\C,0,3.0366887642,-0.399114499,0.3054698157\C,0,
 1.8322369083,0.279602026,0.9827669406\H,0,1.8648829801,1.3566680082,0.
 8134389509\H,0,1.9214308128,0.1483817626,2.0667160842\H,0,3.0350571126
 ,-0.2190786682,-0.7765595265\H,0,3.9493522793,0.0731875342,0.685677662
 5\H,0,3.8864217967,-2.3817782506,0.04185752\H,0,3.2363845556,-2.076662
 373,1.649944922\H,0,1.632853491,-2.5606200671,-0.9113979095\H,0,1.7048
 919927,-3.6027829246,0.486920369\H,0,-0.3941128211,-2.3433078368,0.538
 4297234\H,0,0.5981725142,-1.9824676992,1.9220546941\C,0,-0.6734624419,
 0.3132464204,1.4749268632\C,0,-0.6195507974,1.6610061268,1.8677390997\
 H,0,0.2203249215,2.2843316455,1.5864099794\C,0,-1.6336138971,2.2296433
 017,2.638473083\H,0,-1.5618063546,3.2726171654,2.9270007277\C,0,-2.726
 9272467,1.4638570942,3.0403619197\H,0,-3.5141900595,1.9053087326,3.641
 91177\C,0,-2.7936660185,0.1226856,2.6651303917\H,0,-3.6340927445,-0.49
 07541939,2.9732211432\C,0,-1.7791227227,-0.4433057647,1.8937254867\H,0
 ,-1.86013567,-1.4894842468,1.6270630965\H,0,0.834016754,-0.5226311335,
 -1.4400827176\\Version=ES64L-G16RevB.01\State=1-A\HF=-713.237007\MP2=-
 715.8548782\RMSD=4.210e-09\PG=C01 [X(C17H26N1)]\\@


 NATURE REVEALS EVERY SECRET ONCE.
                    - RALPH WALDO EMERSON
 Job cpu time:       0 days  3 hours 16 minutes  7.6 seconds.
 Elapsed time:       0 days  0 hours 52 minutes 38.1 seconds.
 File lengths (MBytes):  RWF= 145406 Int=      0 D2E=      0 Chk=     36 Scr=      1
 Normal termination of Gaussian 16 at Sun Jul 11 17:55:14 2021.
