 Entering Gaussian System, Link 0=g16
 Initial command:
 /prod/apps/gaussian/g16b1/l1.exe "/tmp/ubator02/1834624/Gau-94705.inp" -scrdir="/tmp/ubator02/1834624/"
 Entering Link 1 = /prod/apps/gaussian/g16b1/l1.exe PID=     94706.
  
 Copyright (c) 1988-2017, Gaussian, Inc.  All Rights Reserved.
  
 This is part of the Gaussian(R) 16 program.  It is based on
 the Gaussian(R) 09 system (copyright 2009, Gaussian, Inc.),
 the Gaussian(R) 03 system (copyright 2003, Gaussian, Inc.),
 the Gaussian(R) 98 system (copyright 1998, Gaussian, Inc.),
 the Gaussian(R) 94 system (copyright 1995, Gaussian, Inc.),
 the Gaussian 92(TM) system (copyright 1992, Gaussian, Inc.),
 the Gaussian 90(TM) system (copyright 1990, Gaussian, Inc.),
 the Gaussian 88(TM) system (copyright 1988, Gaussian, Inc.),
 the Gaussian 86(TM) system (copyright 1986, Carnegie Mellon
 University), and the Gaussian 82(TM) system (copyright 1983,
 Carnegie Mellon University). Gaussian is a federally registered
 trademark of Gaussian, Inc.
  
 This software contains proprietary and confidential information,
 including trade secrets, belonging to Gaussian, Inc.
  
 This software is provided under written license and may be
 used, copied, transmitted, or stored only in accord with that
 written license.
  
 The following legend is applicable only to US Government
 contracts under FAR:
  
                    RESTRICTED RIGHTS LEGEND
  
 Use, reproduction and disclosure by the US Government is
 subject to restrictions as set forth in subparagraphs (a)
 and (c) of the Commercial Computer Software - Restricted
 Rights clause in FAR 52.227-19.
  
 Gaussian, Inc.
 340 Quinnipiac St., Bldg. 40, Wallingford CT 06492
  
  
 ---------------------------------------------------------------
 Warning -- This program may not be used in any manner that
 competes with the business of Gaussian, Inc. or will provide
 assistance to any competitor of Gaussian, Inc.  The licensee
 of this program is prohibited from giving any competitor of
 Gaussian, Inc. access to this program.  By using this program,
 the user acknowledges that Gaussian, Inc. is engaged in the
 business of creating and licensing software in the field of
 computational chemistry and represents and warrants to the
 licensee that it is not a competitor of Gaussian, Inc. and that
 it will not use this program in any manner prohibited above.
 ---------------------------------------------------------------
  

 Cite this work as:
 Gaussian 16, Revision B.01,
 M. J. Frisch, G. W. Trucks, H. B. Schlegel, G. E. Scuseria, 
 M. A. Robb, J. R. Cheeseman, G. Scalmani, V. Barone, 
 G. A. Petersson, H. Nakatsuji, X. Li, M. Caricato, A. V. Marenich, 
 J. Bloino, B. G. Janesko, R. Gomperts, B. Mennucci, H. P. Hratchian, 
 J. V. Ortiz, A. F. Izmaylov, J. L. Sonnenberg, D. Williams-Young, 
 F. Ding, F. Lipparini, F. Egidi, J. Goings, B. Peng, A. Petrone, 
 T. Henderson, D. Ranasinghe, V. G. Zakrzewski, J. Gao, N. Rega, 
 G. Zheng, W. Liang, M. Hada, M. Ehara, K. Toyota, R. Fukuda, 
 J. Hasegawa, M. Ishida, T. Nakajima, Y. Honda, O. Kitao, H. Nakai, 
 T. Vreven, K. Throssell, J. A. Montgomery, Jr., J. E. Peralta, 
 F. Ogliaro, M. J. Bearpark, J. J. Heyd, E. N. Brothers, K. N. Kudin, 
 V. N. Staroverov, T. A. Keith, R. Kobayashi, J. Normand, 
 K. Raghavachari, A. P. Rendell, J. C. Burant, S. S. Iyengar, 
 J. Tomasi, M. Cossi, J. M. Millam, M. Klene, C. Adamo, R. Cammi, 
 J. W. Ochterski, R. L. Martin, K. Morokuma, O. Farkas, 
 J. B. Foresman, and D. J. Fox, Gaussian, Inc., Wallingford CT, 2016.
 
 ******************************************
 Gaussian 16:  ES64L-G16RevB.01 20-Dec-2017
                11-Jul-2021 
 ******************************************
 %mem=800MB
 %nproc=4
 Will use up to    4 processors via shared memory.
 %chk=SET_328_BBB315_conf1.geo_300_105.chk
 -----------------------------------------------------------
 #p b3lyp/6-31G(d) opt freq scrf=(iefpcm,read,solvent=water)
 -----------------------------------------------------------
 1/18=20,19=15,26=3,38=1,40=2/1,3;
 2/9=110,12=2,17=6,18=5,40=1/2;
 3/5=1,6=6,7=1,11=2,25=1,30=1,70=2203,71=1,72=1,74=-5/1,2,3;
 4//1;
 5/5=2,38=5,53=1/2;
 6/7=2,8=2,9=2,10=2,28=1/1;
 7//1,2,3,16;
 1/18=20,19=15,26=3/3(2);
 2/9=110/2;
 99//99;
 2/9=110/2;
 3/5=1,6=6,7=1,11=2,25=1,30=1,70=2205,71=1,72=1,74=-5/1,2,3;
 4/5=5,16=3,69=1/1;
 5/5=2,38=5,53=1/2;
 7//1,2,3,16;
 1/18=20,19=15,26=3/3(-5);
 2/9=110/2;
 6/7=2,8=2,9=2,10=2,19=2,28=1/1;
 99/9=1/99;
 Leave Link    1 at Sun Jul 11 16:24:54 2021, MaxMem=   104857600 cpu:               0.1 elap:               0.0
 (Enter /prod/apps/gaussian/g16b1/l101.exe)
 -----------------------------------------
 SET_328_BBB315_conf1.geo_300_105 geometry
 -----------------------------------------
 Symbolic Z-matrix:
 Charge =  1 Multiplicity = 1
 N                     1.816     2.435    -1.67 
 H                     1.813     3.278    -2.208 
 H                     1.007     1.892    -1.896 
 C                     1.798     2.766    -0.245 
 H                     0.837     3.229    -0.004 
 H                     2.549     3.53     -0.033 
 C                     1.896     1.421     0.504 
 H                     1.886     1.672     1.567 
 H                     2.85      0.906     0.378 
 C                     0.815     0.387     0.287 
 C                    -0.341     0.35      1.011 
 H                    -0.715     1.02      1.775 
 N                    -1.05     -0.75      0.641 
 C                    -2.227    -1.285     1.12 
 H                    -2.853    -0.747     1.822 
 C                    -2.694    -2.387     0.416 
 H                    -3.682    -2.731     0.705 
 C                    -1.824    -3.149    -0.48 
 H                    -2.06     -4.076    -0.991 
 C                    -0.597    -2.578    -0.757 
 H                     0.081    -3.119    -1.41 
 C                    -0.162    -1.419    -0.201 
 N                     0.983    -0.758    -0.48 
 H                     2.64      1.909    -1.88 
 
 ITRead=  0  0  0  0  0  0  0  0  0  0  0  0  0  0  0  0  0  0  0  0
 ITRead=  0  0  0  0
 MicOpt= -1 -1 -1 -1 -1 -1 -1 -1 -1 -1 -1 -1 -1 -1 -1 -1 -1 -1 -1 -1
 MicOpt= -1 -1 -1 -1
 NAtoms=     24 NQM=       24 NQMF=       0 NMMI=      0 NMMIF=      0
                NMic=       0 NMicF=      0.
                    Isotopes and Nuclear Properties:
 (Nuclear quadrupole moments (NQMom) in fm**2, nuclear magnetic moments (NMagM)
  in nuclear magnetons)

  Atom         1           2           3           4           5           6           7           8           9          10
 IAtWgt=          14           1           1          12           1           1          12           1           1          12
 AtmWgt=  14.0030740   1.0078250   1.0078250  12.0000000   1.0078250   1.0078250  12.0000000   1.0078250   1.0078250  12.0000000
 NucSpn=           2           1           1           0           1           1           0           1           1           0
 AtZEff=  -0.0000000  -0.0000000  -0.0000000  -0.0000000  -0.0000000  -0.0000000  -0.0000000  -0.0000000  -0.0000000  -0.0000000
 NQMom=    2.0440000   0.0000000   0.0000000   0.0000000   0.0000000   0.0000000   0.0000000   0.0000000   0.0000000   0.0000000
 NMagM=    0.4037610   2.7928460   2.7928460   0.0000000   2.7928460   2.7928460   0.0000000   2.7928460   2.7928460   0.0000000
 AtZNuc=   7.0000000   1.0000000   1.0000000   6.0000000   1.0000000   1.0000000   6.0000000   1.0000000   1.0000000   6.0000000

  Atom        11          12          13          14          15          16          17          18          19          20
 IAtWgt=          12           1          14          12           1          12           1          12           1          12
 AtmWgt=  12.0000000   1.0078250  14.0030740  12.0000000   1.0078250  12.0000000   1.0078250  12.0000000   1.0078250  12.0000000
 NucSpn=           0           1           2           0           1           0           1           0           1           0
 AtZEff=  -0.0000000  -0.0000000  -0.0000000  -0.0000000  -0.0000000  -0.0000000  -0.0000000  -0.0000000  -0.0000000  -0.0000000
 NQMom=    0.0000000   0.0000000   2.0440000   0.0000000   0.0000000   0.0000000   0.0000000   0.0000000   0.0000000   0.0000000
 NMagM=    0.0000000   2.7928460   0.4037610   0.0000000   2.7928460   0.0000000   2.7928460   0.0000000   2.7928460   0.0000000
 AtZNuc=   6.0000000   1.0000000   7.0000000   6.0000000   1.0000000   6.0000000   1.0000000   6.0000000   1.0000000   6.0000000

  Atom        21          22          23          24
 IAtWgt=           1          12          14           1
 AtmWgt=   1.0078250  12.0000000  14.0030740   1.0078250
 NucSpn=           1           0           2           1
 AtZEff=  -0.0000000  -0.0000000  -0.0000000  -0.0000000
 NQMom=    0.0000000   0.0000000   2.0440000   0.0000000
 NMagM=    2.7928460   0.0000000   0.4037610   2.7928460
 AtZNuc=   1.0000000   6.0000000   7.0000000   1.0000000
 Leave Link  101 at Sun Jul 11 16:24:54 2021, MaxMem=   104857600 cpu:               0.5 elap:               0.1
 (Enter /prod/apps/gaussian/g16b1/l103.exe)

 GradGradGradGradGradGradGradGradGradGradGradGradGradGradGradGradGradGrad
 Berny optimization.
 Initialization pass.
                           ----------------------------
                           !    Initial Parameters    !
                           ! (Angstroms and Degrees)  !
 --------------------------                            --------------------------
 ! Name  Definition              Value          Derivative Info.                !
 --------------------------------------------------------------------------------
 ! R1    R(1,2)                  1.0001         estimate D2E/DX2                !
 ! R2    R(1,3)                  1.0002         estimate D2E/DX2                !
 ! R3    R(1,4)                  1.463          estimate D2E/DX2                !
 ! R4    R(1,24)                 0.9999         estimate D2E/DX2                !
 ! R5    R(4,5)                  1.0936         estimate D2E/DX2                !
 ! R6    R(4,6)                  1.0921         estimate D2E/DX2                !
 ! R7    R(4,7)                  1.5426         estimate D2E/DX2                !
 ! R8    R(7,8)                  1.0923         estimate D2E/DX2                !
 ! R9    R(7,9)                  1.0914         estimate D2E/DX2                !
 ! R10   R(7,10)                 1.5116         estimate D2E/DX2                !
 ! R11   R(10,11)                1.3645         estimate D2E/DX2                !
 ! R12   R(10,23)                1.3884         estimate D2E/DX2                !
 ! R13   R(11,12)                1.0828         estimate D2E/DX2                !
 ! R14   R(11,13)                1.36           estimate D2E/DX2                !
 ! R15   R(13,14)                1.3788         estimate D2E/DX2                !
 ! R16   R(13,22)                1.3947         estimate D2E/DX2                !
 ! R17   R(14,15)                1.0836         estimate D2E/DX2                !
 ! R18   R(14,16)                1.3886         estimate D2E/DX2                !
 ! R19   R(16,17)                1.0854         estimate D2E/DX2                !
 ! R20   R(16,18)                1.463          estimate D2E/DX2                !
 ! R21   R(18,19)                1.0845         estimate D2E/DX2                !
 ! R22   R(18,20)                1.3814         estimate D2E/DX2                !
 ! R23   R(20,21)                1.0857         estimate D2E/DX2                !
 ! R24   R(20,22)                1.3571         estimate D2E/DX2                !
 ! R25   R(22,23)                1.3512         estimate D2E/DX2                !
 ! A1    A(2,1,3)              109.4904         estimate D2E/DX2                !
 ! A2    A(2,1,4)              109.4652         estimate D2E/DX2                !
 ! A3    A(2,1,24)             109.447          estimate D2E/DX2                !
 ! A4    A(3,1,4)              109.4479         estimate D2E/DX2                !
 ! A5    A(3,1,24)             109.4821         estimate D2E/DX2                !
 ! A6    A(4,1,24)             109.4947         estimate D2E/DX2                !
 ! A7    A(1,4,5)              108.7377         estimate D2E/DX2                !
 ! A8    A(1,4,6)              109.8092         estimate D2E/DX2                !
 ! A9    A(1,4,7)              105.9545         estimate D2E/DX2                !
 ! A10   A(5,4,6)              105.3867         estimate D2E/DX2                !
 ! A11   A(5,4,7)              108.5398         estimate D2E/DX2                !
 ! A12   A(6,4,7)              118.1657         estimate D2E/DX2                !
 ! A13   A(4,7,8)              105.7588         estimate D2E/DX2                !
 ! A14   A(4,7,9)              114.2608         estimate D2E/DX2                !
 ! A15   A(4,7,10)             118.7702         estimate D2E/DX2                !
 ! A16   A(8,7,9)              103.2255         estimate D2E/DX2                !
 ! A17   A(8,7,10)             106.8795         estimate D2E/DX2                !
 ! A18   A(9,7,10)             106.6038         estimate D2E/DX2                !
 ! A19   A(7,10,11)            123.2471         estimate D2E/DX2                !
 ! A20   A(7,10,23)            123.8437         estimate D2E/DX2                !
 ! A21   A(11,10,23)           111.918          estimate D2E/DX2                !
 ! A22   A(10,11,12)           130.5577         estimate D2E/DX2                !
 ! A23   A(10,11,13)           108.6171         estimate D2E/DX2                !
 ! A24   A(12,11,13)           120.8215         estimate D2E/DX2                !
 ! A25   A(11,13,14)           131.6338         estimate D2E/DX2                !
 ! A26   A(11,13,22)           102.7266         estimate D2E/DX2                !
 ! A27   A(14,13,22)           124.5518         estimate D2E/DX2                !
 ! A28   A(13,14,15)           121.7082         estimate D2E/DX2                !
 ! A29   A(13,14,16)           114.7661         estimate D2E/DX2                !
 ! A30   A(15,14,16)           121.8843         estimate D2E/DX2                !
 ! A31   A(14,16,17)           115.0044         estimate D2E/DX2                !
 ! A32   A(14,16,18)           121.592          estimate D2E/DX2                !
 ! A33   A(17,16,18)           122.6375         estimate D2E/DX2                !
 ! A34   A(16,18,19)           127.1836         estimate D2E/DX2                !
 ! A35   A(16,18,20)           115.8308         estimate D2E/DX2                !
 ! A36   A(19,18,20)           116.8798         estimate D2E/DX2                !
 ! A37   A(18,20,21)           117.9894         estimate D2E/DX2                !
 ! A38   A(18,20,22)           123.7503         estimate D2E/DX2                !
 ! A39   A(21,20,22)           118.1517         estimate D2E/DX2                !
 ! A40   A(13,22,20)           116.932          estimate D2E/DX2                !
 ! A41   A(13,22,23)           115.4386         estimate D2E/DX2                !
 ! A42   A(20,22,23)           127.2156         estimate D2E/DX2                !
 ! A43   A(10,23,22)           100.768          estimate D2E/DX2                !
 ! D1    D(2,1,4,5)             67.06           estimate D2E/DX2                !
 ! D2    D(2,1,4,6)            -47.7739         estimate D2E/DX2                !
 ! D3    D(2,1,4,7)           -176.4407         estimate D2E/DX2                !
 ! D4    D(3,1,4,5)            -52.9456         estimate D2E/DX2                !
 ! D5    D(3,1,4,6)           -167.7795         estimate D2E/DX2                !
 ! D6    D(3,1,4,7)             63.5538         estimate D2E/DX2                !
 ! D7    D(24,1,4,5)          -172.959          estimate D2E/DX2                !
 ! D8    D(24,1,4,6)            72.2071         estimate D2E/DX2                !
 ! D9    D(24,1,4,7)           -56.4596         estimate D2E/DX2                !
 ! D10   D(1,4,7,8)            179.7979         estimate D2E/DX2                !
 ! D11   D(1,4,7,9)             66.9722         estimate D2E/DX2                !
 ! D12   D(1,4,7,10)           -60.2594         estimate D2E/DX2                !
 ! D13   D(5,4,7,8)            -63.5692         estimate D2E/DX2                !
 ! D14   D(5,4,7,9)           -176.395          estimate D2E/DX2                !
 ! D15   D(5,4,7,10)            56.3734         estimate D2E/DX2                !
 ! D16   D(6,4,7,8)             56.2331         estimate D2E/DX2                !
 ! D17   D(6,4,7,9)            -56.5926         estimate D2E/DX2                !
 ! D18   D(6,4,7,10)           176.1758         estimate D2E/DX2                !
 ! D19   D(4,7,10,11)          -87.1519         estimate D2E/DX2                !
 ! D20   D(4,7,10,23)          105.1665         estimate D2E/DX2                !
 ! D21   D(8,7,10,11)           32.2144         estimate D2E/DX2                !
 ! D22   D(8,7,10,23)         -135.4672         estimate D2E/DX2                !
 ! D23   D(9,7,10,11)          142.0891         estimate D2E/DX2                !
 ! D24   D(9,7,10,23)          -25.5925         estimate D2E/DX2                !
 ! D25   D(7,10,11,12)           3.7485         estimate D2E/DX2                !
 ! D26   D(7,10,11,13)        -175.5389         estimate D2E/DX2                !
 ! D27   D(23,10,11,12)        172.7373         estimate D2E/DX2                !
 ! D28   D(23,10,11,13)         -6.5501         estimate D2E/DX2                !
 ! D29   D(7,10,23,22)         171.4905         estimate D2E/DX2                !
 ! D30   D(11,10,23,22)          2.579          estimate D2E/DX2                !
 ! D31   D(10,11,13,14)        175.3629         estimate D2E/DX2                !
 ! D32   D(10,11,13,22)          7.2112         estimate D2E/DX2                !
 ! D33   D(12,11,13,14)         -4.0066         estimate D2E/DX2                !
 ! D34   D(12,11,13,22)       -172.1584         estimate D2E/DX2                !
 ! D35   D(11,13,14,15)         10.1721         estimate D2E/DX2                !
 ! D36   D(11,13,14,16)        175.8208         estimate D2E/DX2                !
 ! D37   D(22,13,14,15)        176.0985         estimate D2E/DX2                !
 ! D38   D(22,13,14,16)        -18.2528         estimate D2E/DX2                !
 ! D39   D(11,13,22,20)       -179.2488         estimate D2E/DX2                !
 ! D40   D(11,13,22,23)         -6.0916         estimate D2E/DX2                !
 ! D41   D(14,13,22,20)         11.4895         estimate D2E/DX2                !
 ! D42   D(14,13,22,23)       -175.3533         estimate D2E/DX2                !
 ! D43   D(13,14,16,17)       -172.3035         estimate D2E/DX2                !
 ! D44   D(13,14,16,18)         17.4729         estimate D2E/DX2                !
 ! D45   D(15,14,16,17)         -6.6827         estimate D2E/DX2                !
 ! D46   D(15,14,16,18)       -176.9063         estimate D2E/DX2                !
 ! D47   D(14,16,18,19)        173.1827         estimate D2E/DX2                !
 ! D48   D(14,16,18,20)        -10.7003         estimate D2E/DX2                !
 ! D49   D(17,16,18,19)          3.7123         estimate D2E/DX2                !
 ! D50   D(17,16,18,20)        179.8293         estimate D2E/DX2                !
 ! D51   D(16,18,20,21)        179.361          estimate D2E/DX2                !
 ! D52   D(16,18,20,22)          3.2267         estimate D2E/DX2                !
 ! D53   D(19,18,20,21)         -4.1069         estimate D2E/DX2                !
 ! D54   D(19,18,20,22)        179.7589         estimate D2E/DX2                !
 ! D55   D(18,20,22,13)         -3.424          estimate D2E/DX2                !
 ! D56   D(18,20,22,23)       -175.6593         estimate D2E/DX2                !
 ! D57   D(21,20,22,13)       -179.5524         estimate D2E/DX2                !
 ! D58   D(21,20,22,23)          8.2123         estimate D2E/DX2                !
 ! D59   D(13,22,23,10)          2.288          estimate D2E/DX2                !
 ! D60   D(20,22,23,10)        174.6228         estimate D2E/DX2                !
 --------------------------------------------------------------------------------
 Trust Radius=3.00D-01 FncErr=1.00D-07 GrdErr=1.00D-06 EigMax=2.50D+02 EigMin=1.00D-04
 Number of steps in this run=    138 maximum allowed number of steps=    144.
 GradGradGradGradGradGradGradGradGradGradGradGradGradGradGradGradGradGrad

 Leave Link  103 at Sun Jul 11 16:24:55 2021, MaxMem=   104857600 cpu:               0.1 elap:               0.0
 (Enter /prod/apps/gaussian/g16b1/l202.exe)
                          Input orientation:                          
 ---------------------------------------------------------------------
 Center     Atomic      Atomic             Coordinates (Angstroms)
 Number     Number       Type             X           Y           Z
 ---------------------------------------------------------------------
      1          7           0        1.816000    2.435000   -1.670000
      2          1           0        1.813000    3.278000   -2.208000
      3          1           0        1.007000    1.892000   -1.896000
      4          6           0        1.798000    2.766000   -0.245000
      5          1           0        0.837000    3.229000   -0.004000
      6          1           0        2.549000    3.530000   -0.033000
      7          6           0        1.896000    1.421000    0.504000
      8          1           0        1.886000    1.672000    1.567000
      9          1           0        2.850000    0.906000    0.378000
     10          6           0        0.815000    0.387000    0.287000
     11          6           0       -0.341000    0.350000    1.011000
     12          1           0       -0.715000    1.020000    1.775000
     13          7           0       -1.050000   -0.750000    0.641000
     14          6           0       -2.227000   -1.285000    1.120000
     15          1           0       -2.853000   -0.747000    1.822000
     16          6           0       -2.694000   -2.387000    0.416000
     17          1           0       -3.682000   -2.731000    0.705000
     18          6           0       -1.824000   -3.149000   -0.480000
     19          1           0       -2.060000   -4.076000   -0.991000
     20          6           0       -0.597000   -2.578000   -0.757000
     21          1           0        0.081000   -3.119000   -1.410000
     22          6           0       -0.162000   -1.419000   -0.201000
     23          7           0        0.983000   -0.758000   -0.480000
     24          1           0        2.640000    1.909000   -1.880000
 ---------------------------------------------------------------------
                    Distance matrix (angstroms):
                    1          2          3          4          5
     1  N    0.000000
     2  H    1.000051   0.000000
     3  H    1.000203   1.633394   0.000000
     4  C    1.463048   2.028728   2.028635   0.000000
     5  H    2.089123   2.410932   2.322958   1.093605   0.000000
     6  H    2.101448   2.309940   2.920886   1.092081   1.738501
     7  C    2.400182   3.287899   2.602338   1.542605   2.156017
     8  H    3.326445   4.103071   3.579582   2.118472   2.447997
     9  H    2.757046   3.659119   3.088676   2.225856   3.097486
    10  C    3.004356   3.947013   2.658454   2.628489   2.856944
    11  C    4.023386   4.855395   3.556054   3.462645   3.272086
    12  H    4.502911   5.230070   4.147518   3.666618   3.233145
    13  N    4.868152   5.704240   4.200926   4.610678   4.450757
    14  C    6.161846   6.943929   5.445029   5.871495   5.570248
    15  H    6.642195   7.362953   5.973897   6.184291   5.723544
    16  C    6.924101   7.700042   6.111676   6.867925   6.647091
    17  H    7.909247   8.648045   7.079834   7.819841   7.513031
    18  C    6.771023   7.584199   5.952420   6.939837   6.927220
    19  H    7.607729   8.400151   6.770712   7.890098   7.920215
    20  C    5.637935   6.496633   4.883752   5.878478   6.028649
    21  H    5.824495   6.675196   5.118964   6.240075   6.545646
    22  C    4.574250   5.476357   3.899014   4.621446   4.758226
    23  N    3.507882   4.468129   3.004685   3.624641   4.017967
    24  H    0.999876   1.632689   1.633167   2.028950   2.917633
                    6          7          8          9         10
     6  H    0.000000
     7  C    2.272149   0.000000
     8  H    2.540026   1.092277   0.000000
     9  H    2.672994   1.091429   1.711658   0.000000
    10  C    3.603832   1.511557   2.106339   2.102110   0.000000
    11  C    4.422040   2.531454   2.648839   3.300349   1.364508
    12  H    4.496961   2.931478   2.689530   3.830644   2.226148
    13  N    5.632537   3.662093   3.917098   4.245174   2.212761
    14  C    6.879230   4.970012   5.085315   5.579155   3.569767
    15  H    7.135500   5.384269   5.326791   6.110790   4.134780
    16  C    7.918430   5.964621   6.227093   6.448351   4.474908
    17  H    8.863979   6.956550   7.150670   7.483430   5.488138
    18  C    7.995748   5.974241   6.418438   6.247036   4.478382
    19  H    8.944936   6.935558   7.426559   7.127593   5.460520
    20  C    6.908629   4.878234   5.443231   5.030735   3.445998
    21  H    7.224704   5.250640   5.922350   5.202397   3.963660
    22  C    5.645383   3.577428   4.107847   3.848767   2.110523
    23  N    4.586841   2.559271   3.303107   2.644002   1.388358
    24  H    2.459132   2.544629   3.536452   2.479652   3.216053
                   11         12         13         14         15
    11  C    0.000000
    12  H    1.082807   0.000000
    13  N    1.359993   2.128634   0.000000
    14  C    2.498420   2.833407   1.378766   0.000000
    15  H    2.858544   2.774084   2.155361   1.083570   0.000000
    16  C    3.658115   4.167850   2.330908   1.388564   2.166037
    17  H    4.555050   4.900815   3.294826   2.092885   2.423053
    18  C    4.082324   4.867799   2.758789   2.489358   3.482477
    19  H    5.152906   5.952226   3.840026   3.503411   4.429905
    20  C    3.429948   4.401199   2.345463   2.802120   3.885015
    21  H    4.251269   5.282912   3.331355   3.884755   4.967954
    22  C    2.151824   3.187335   1.394657   2.455040   3.433015
    23  N    2.281167   3.336092   2.321593   3.625166   4.473726
    24  H    4.435620   5.040374   5.200175   6.548994   7.136679
                   16         17         18         19         20
    16  C    0.000000
    17  H    1.085358   0.000000
    18  C    1.462997   2.243014   0.000000
    19  H    2.287865   2.704871   1.084503   0.000000
    20  C    2.410357   3.417320   1.381412   2.106924   0.000000
    21  H    3.401577   4.334044   2.120100   2.382287   1.085714
    22  C    2.780061   3.864270   2.415157   3.359487   1.357071
    23  N    4.120290   5.201844   3.687293   4.531015   2.426011
    24  H    7.223489   8.257088   6.889895   7.661628   5.645571
                   21         22         23         24
    21  H    0.000000
    22  C    2.100174   0.000000
    23  N    2.693107   1.351217   0.000000
    24  H    5.661287   4.663242   3.437810   0.000000
 Stoichiometry    C9H12N3(1+)
 Framework group  C1[X(C9H12N3)]
 Deg. of freedom    66
 Full point group                 C1      NOp   1
 Largest Abelian subgroup         C1      NOp   1
 Largest concise Abelian subgroup C1      NOp   1
                         Standard orientation:                         
 ---------------------------------------------------------------------
 Center     Atomic      Atomic             Coordinates (Angstroms)
 Number     Number       Type             X           Y           Z
 ---------------------------------------------------------------------
      1          7           0       -3.423833   -0.814769    0.984592
      2          1           0       -4.134545   -0.835282    1.687849
      3          1           0       -2.524827   -0.890742    1.416357
      4          6           0       -3.504703    0.445768    0.246339
      5          1           0       -3.233854    1.264653    0.918678
      6          1           0       -4.539695    0.639138   -0.043557
      7          6           0       -2.441577    0.353706   -0.867626
      8          1           0       -2.507200    1.294438   -1.418794
      9          1           0       -2.654711   -0.397728   -1.629950
     10          6           0       -0.992420    0.173948   -0.477196
     11          6           0       -0.158235    1.216794   -0.197040
     12          1           0       -0.354138    2.280398   -0.143735
     13          7           0        1.091808    0.726793    0.019461
     14          6           0        2.295523    1.357799    0.251613
     15          1           0        2.351943    2.421522    0.450195
     16          6           0        3.357535    0.504314    0.519572
     17          1           0        4.273850    0.995805    0.830707
     18          6           0        3.299299   -0.919311    0.187518
     19          1           0        4.103940   -1.642775    0.260311
     20          6           0        2.059703   -1.399542   -0.188089
     21          1           0        1.978716   -2.449473   -0.452399
     22          6           0        0.956708   -0.619679   -0.317928
     23          7           0       -0.301350   -1.023895   -0.600213
     24          1           0       -3.556850   -1.579628    0.354473
 ---------------------------------------------------------------------
 Rotational constants (GHZ):           2.5917004           0.5161967           0.4699894
 Leave Link  202 at Sun Jul 11 16:24:55 2021, MaxMem=   104857600 cpu:               0.1 elap:               0.0
 (Enter /prod/apps/gaussian/g16b1/l301.exe)
 Standard basis: 6-31G(d) (6D, 7F)
 Ernie: Thresh=  0.10000D-02 Tol=  0.10000D-05 Strict=F.
 There are   204 symmetry adapted cartesian basis functions of A   symmetry.
 There are   204 symmetry adapted basis functions of A   symmetry.
   204 basis functions,   384 primitive gaussians,   204 cartesian basis functions
    43 alpha electrons       43 beta electrons
       nuclear repulsion energy       677.6341710482 Hartrees.
 IExCor=  402 DFT=T Ex+Corr=B3LYP ExCW=0 ScaHFX=  0.200000
 ScaDFX=  0.800000  0.720000  1.000000  0.810000 ScalE2=  1.000000  1.000000
 IRadAn=      5 IRanWt=     -1 IRanGd=            0 ICorTp=0 IEmpDi=  4
 NAtoms=   24 NActive=   24 NUniq=   24 SFac= 1.00D+00 NAtFMM=   60 NAOKFM=F Big=F
 Integral buffers will be    131072 words long.
 Raffenetti 2 integral format.
 Two-electron integral symmetry is turned on.
 Using the following non-standard input for PCM:
 MSTModel=DFT cav MSTCharged
 --- end of non-standard input.
 MST model for solvation energy: B3LYP parametrization.
 MST cavity parameters:
 ISph   IAn     Re0     Alpha   Atom Type   QCorr
 ------------------------------------------------
   1      7     1.70     1.15      NH         T
   2      1     0.90     1.15      NH         T
   3      1     0.90     1.15      NH         T
   4      6     1.50     1.25      CH2        F
   5      1     1.20     1.25      CH2        F
   6      1     1.20     1.25      CH2        F
   7      6     1.50     1.25      CH2        F
   8      1     1.20     1.25      CH2        F
   9      1     1.20     1.25      CH2        F
  10      6     1.50     1.25      C          F
  11      6     1.50     1.25      CH         F
  12      1     1.20     1.25      CH         F
  13      7     1.40     1.25      N          F
  14      6     1.50     1.25      CH         F
  15      1     1.20     1.25      CH         F
  16      6     1.50     1.25      CH         F
  17      1     1.20     1.25      CH         F
  18      6     1.50     1.25      CH         F
  19      1     1.20     1.25      CH         F
  20      6     1.50     1.25      CH         F
  21      1     1.20     1.25      CH         F
  22      6     1.50     1.25      C          F
  23      7     1.40     1.25      N          F
  24      1     0.90     1.15      NH         T
 ------------------------------------------------------------------------------
 Polarizable Continuum Model (PCM)
 =================================
 Model                : PCM.
 Atomic radii         : MST.
 Polarization charges : Total charges.
 Charge compensation  : None.
 Solution method      : On-the-fly selection.
 Cavity type          : Scaled VdW (van der Waals Surface) (Alpha=1.250).
 Cavity algorithm     : GePol (No added spheres)
                        Default sphere list used, NSphG=   24.
                        Lebedev-Laikov grids with approx.  5.0 points / Ang**2.
                        Smoothing algorithm: York/Karplus (Gamma=1.0000).
                        Polarization charges: spherical gaussians, with
                                              point-specific exponents (IZeta= 3).
                        Self-potential: point-specific (ISelfS= 7).
                        Self-field    : sphere-specific E.n sum rule (ISelfD= 2).
 1st derivatives      : Analytical E(r).r(x)/FMM algorithm (CHGder, D1EAlg=3).
                        Cavity 1st derivative terms included.
 Solvent              : Water, Eps=  78.355300 Eps(inf)=   1.777849
 ------------------------------------------------------------------------------
 GePol: Number of generator spheres                  =      24
 GePol: Total number of spheres                      =      24
 GePol: Number of exposed spheres                    =      24 (100.00%)
 GePol: Number of points                             =    1791
 GePol: Average weight of points                     =       0.13
 GePol: Minimum weight of points                     =   0.21D-11
 GePol: Maximum weight of points                     =    0.22001
 GePol: Number of points with low weight             =     134
 GePol: Fraction of low-weight points (<1% of avg)   =       7.48%
 GePol: Cavity surface area                          =    225.809 Ang**2
 GePol: Cavity volume                                =    202.776 Ang**3
 PCM non-electrostatic energy =         0.0009552781 Hartrees.
 Nuclear repulsion after PCM non-electrostatic terms =      677.6351263263 Hartrees.
 Leave Link  301 at Sun Jul 11 16:24:55 2021, MaxMem=   104857600 cpu:               0.4 elap:               0.1
 (Enter /prod/apps/gaussian/g16b1/l302.exe)
 NPDir=0 NMtPBC=     1 NCelOv=     1 NCel=       1 NClECP=     1 NCelD=      1
         NCelK=      1 NCelE2=     1 NClLst=     1 CellRange=     0.0.
 One-electron integrals computed using PRISM.
 One-electron integral symmetry used in STVInt
 NBasis=   204 RedAO= T EigKep=  8.83D-04  NBF=   204
 NBsUse=   204 1.00D-06 EigRej= -1.00D+00 NBFU=   204
 Precomputing XC quadrature grid using
 IXCGrd= 4 IRadAn=           5 IRanWt=          -1 IRanGd=           0 AccXCQ= 0.00D+00.
 Generated NRdTot=       0 NPtTot=           0 NUsed=           0 NTot=          32
 NSgBfM=   203   203   203   203   203 MxSgAt=    24 MxSgA2=    24.
 Leave Link  302 at Sun Jul 11 16:24:55 2021, MaxMem=   104857600 cpu:               1.1 elap:               0.3
 (Enter /prod/apps/gaussian/g16b1/l303.exe)
 DipDrv:  MaxL=1.
 Leave Link  303 at Sun Jul 11 16:24:55 2021, MaxMem=   104857600 cpu:               0.1 elap:               0.0
 (Enter /prod/apps/gaussian/g16b1/l401.exe)
 ExpMin= 1.61D-01 ExpMax= 4.17D+03 ExpMxC= 6.27D+02 IAcc=3 IRadAn=         5 AccDes= 0.00D+00
 Harris functional with IExCor=  402 and IRadAn=       5 diagonalized for initial guess.
 HarFok:  IExCor=  402 AccDes= 0.00D+00 IRadAn=         5 IDoV= 1 UseB2=F ITyADJ=14
 ICtDFT=  3500011 ScaDFX=  1.000000  1.000000  1.000000  1.000000
 FoFCou: FMM=F IPFlag=           0 FMFlag=      100000 FMFlg1=           0
         NFxFlg=           0 DoJE=T BraDBF=F KetDBF=T FulRan=T
         wScrn=  0.000000 ICntrl=       500 IOpCl=  0 I1Cent=   200000004 NGrid=           0
         NMat0=    1 NMatS0=      1 NMatT0=    0 NMatD0=    1 NMtDS0=    0 NMtDT0=    0
 Petite list used in FoFCou.
 Harris En= -514.181261436148    
 JPrj=0 DoOrth=F DoCkMO=F.
 Leave Link  401 at Sun Jul 11 16:24:56 2021, MaxMem=   104857600 cpu:               5.5 elap:               1.4
 (Enter /prod/apps/gaussian/g16b1/l502.exe)
 Integral symmetry usage will be decided dynamically.
 Closed shell SCF:
 Using DIIS extrapolation, IDIIS=  1040.
 NGot=   104857600 LenX=   104770734 LenY=   104728677
 Requested convergence on RMS density matrix=1.00D-08 within 128 cycles.
 Requested convergence on MAX density matrix=1.00D-06.
 Requested convergence on             energy=1.00D-06.
 No special actions if energy rises.
 Fock matrices will be formed incrementally for  20 cycles.

 Cycle   1  Pass 1  IDiag  1:
 FoFJK:  IHMeth= 1 ICntrl=       0 DoSepK=F KAlg= 0 I1Cent=           0 FoldK=F
 IRaf= 890000000 NMat=       1 IRICut=       1 DoRegI=T DoRafI=F ISym2E= 0 IDoP0=0 IntGTp=1.
 FoFCou: FMM=F IPFlag=           0 FMFlag=      100000 FMFlg1=           0
         NFxFlg=           0 DoJE=F BraDBF=F KetDBF=F FulRan=T
         wScrn=  0.000000 ICntrl=         0 IOpCl=  0 I1Cent=           0 NGrid=           0
         NMat0=    1 NMatS0=      1 NMatT0=    0 NMatD0=    1 NMtDS0=    0 NMtDT0=    0
 Symmetry not used in FoFCou.
 Inv3:  Mode=1 IEnd=     9623043.
 Iteration    1 A*A^-1 deviation from unit magnitude is 3.55D-15 for   1451.
 Iteration    1 A*A^-1 deviation from orthogonality  is 2.42D-15 for   1772    195.
 Iteration    1 A^-1*A deviation from unit magnitude is 3.55D-15 for   1451.
 Iteration    1 A^-1*A deviation from orthogonality  is 2.11D-15 for   1641     13.
 E= -514.077564667899    
 DIIS: error= 2.74D-02 at cycle   1 NSaved=   1.
 NSaved= 1 IEnMin= 1 EnMin= -514.077564667899     IErMin= 1 ErrMin= 2.74D-02
 ErrMax= 2.74D-02  0.00D+00 EMaxC= 1.00D-01 BMatC= 2.05D-01 BMatP= 2.05D-01
 IDIUse=3 WtCom= 7.26D-01 WtEn= 2.74D-01
 Coeff-Com:  0.100D+01
 Coeff-En:   0.100D+01
 Coeff:      0.100D+01
 Gap=     0.175 Goal=   None    Shift=    0.000
 GapD=    0.175 DampG=1.000 DampE=0.500 DampFc=0.5000 IDamp=-1.
 Damping current iteration by 5.00D-01
 RMSDP=4.96D-03 MaxDP=1.51D-01              OVMax= 1.99D-01

 Cycle   2  Pass 1  IDiag  1:
 RMSU=  2.41D-03    CP:  9.76D-01
 E= -514.172957362998     Delta-E=       -0.095392695099 Rises=F Damp=T
 DIIS: error= 6.68D-03 at cycle   2 NSaved=   2.
 NSaved= 2 IEnMin= 2 EnMin= -514.172957362998     IErMin= 2 ErrMin= 6.68D-03
 ErrMax= 6.68D-03  0.00D+00 EMaxC= 1.00D-01 BMatC= 1.83D-02 BMatP= 2.05D-01
 IDIUse=3 WtCom= 9.33D-01 WtEn= 6.68D-02
 Coeff-Com:  0.259D-01 0.974D+00
 Coeff-En:   0.342D-01 0.966D+00
 Coeff:      0.264D-01 0.974D+00
 Gap=     0.184 Goal=   None    Shift=    0.000
 RMSDP=1.41D-03 MaxDP=5.06D-02 DE=-9.54D-02 OVMax= 1.61D-01

 Cycle   3  Pass 1  IDiag  1:
 RMSU=  1.39D-03    CP:  9.65D-01  9.96D-01
 E= -514.267067723953     Delta-E=       -0.094110360954 Rises=F Damp=F
 DIIS: error= 7.17D-03 at cycle   3 NSaved=   3.
 NSaved= 3 IEnMin= 3 EnMin= -514.267067723953     IErMin= 2 ErrMin= 6.68D-03
 ErrMax= 7.17D-03  0.00D+00 EMaxC= 1.00D-01 BMatC= 1.90D-02 BMatP= 1.83D-02
 IDIUse=3 WtCom= 9.28D-01 WtEn= 7.17D-02
 Coeff-Com: -0.568D-01 0.534D+00 0.522D+00
 Coeff-En:   0.000D+00 0.000D+00 0.100D+01
 Coeff:     -0.528D-01 0.496D+00 0.557D+00
 Gap=     0.175 Goal=   None    Shift=    0.000
 RMSDP=8.91D-04 MaxDP=4.06D-02 DE=-9.41D-02 OVMax= 6.28D-02

 Cycle   4  Pass 1  IDiag  1:
 RMSU=  5.93D-04    CP:  9.68D-01  1.10D+00  5.57D-01
 E= -514.281916078729     Delta-E=       -0.014848354776 Rises=F Damp=F
 DIIS: error= 3.52D-03 at cycle   4 NSaved=   4.
 NSaved= 4 IEnMin= 4 EnMin= -514.281916078729     IErMin= 4 ErrMin= 3.52D-03
 ErrMax= 3.52D-03  0.00D+00 EMaxC= 1.00D-01 BMatC= 3.67D-03 BMatP= 1.83D-02
 IDIUse=3 WtCom= 9.65D-01 WtEn= 3.52D-02
 Coeff-Com: -0.227D-01 0.109D+00 0.329D+00 0.585D+00
 Coeff-En:   0.000D+00 0.000D+00 0.185D+00 0.815D+00
 Coeff:     -0.219D-01 0.105D+00 0.324D+00 0.593D+00
 Gap=     0.176 Goal=   None    Shift=    0.000
 RMSDP=3.21D-04 MaxDP=1.28D-02 DE=-1.48D-02 OVMax= 1.97D-02

 Cycle   5  Pass 1  IDiag  1:
 RMSU=  1.37D-04    CP:  9.67D-01  1.07D+00  6.74D-01  6.18D-01
 E= -514.285261808562     Delta-E=       -0.003345729833 Rises=F Damp=F
 DIIS: error= 5.73D-04 at cycle   5 NSaved=   5.
 NSaved= 5 IEnMin= 5 EnMin= -514.285261808562     IErMin= 5 ErrMin= 5.73D-04
 ErrMax= 5.73D-04  0.00D+00 EMaxC= 1.00D-01 BMatC= 1.70D-04 BMatP= 3.67D-03
 IDIUse=3 WtCom= 9.94D-01 WtEn= 5.73D-03
 Coeff-Com: -0.775D-02 0.232D-01 0.138D+00 0.311D+00 0.535D+00
 Coeff-En:   0.000D+00 0.000D+00 0.000D+00 0.000D+00 0.100D+01
 Coeff:     -0.771D-02 0.231D-01 0.137D+00 0.310D+00 0.538D+00
 Gap=     0.175 Goal=   None    Shift=    0.000
 RMSDP=8.31D-05 MaxDP=3.61D-03 DE=-3.35D-03 OVMax= 4.86D-03

 Cycle   6  Pass 1  IDiag  1:
 RMSU=  5.11D-05    CP:  9.67D-01  1.07D+00  6.78D-01  6.45D-01  5.57D-01
 E= -514.285408569266     Delta-E=       -0.000146760704 Rises=F Damp=F
 DIIS: error= 1.83D-04 at cycle   6 NSaved=   6.
 NSaved= 6 IEnMin= 6 EnMin= -514.285408569266     IErMin= 6 ErrMin= 1.83D-04
 ErrMax= 1.83D-04  0.00D+00 EMaxC= 1.00D-01 BMatC= 1.43D-05 BMatP= 1.70D-04
 IDIUse=3 WtCom= 9.98D-01 WtEn= 1.83D-03
 Coeff-Com: -0.212D-02 0.352D-02 0.450D-01 0.114D+00 0.289D+00 0.551D+00
 Coeff-En:   0.000D+00 0.000D+00 0.000D+00 0.000D+00 0.000D+00 0.100D+01
 Coeff:     -0.212D-02 0.352D-02 0.449D-01 0.114D+00 0.288D+00 0.552D+00
 Gap=     0.175 Goal=   None    Shift=    0.000
 RMSDP=2.30D-05 MaxDP=9.47D-04 DE=-1.47D-04 OVMax= 1.61D-03

 Cycle   7  Pass 1  IDiag  1:
 RMSU=  1.11D-05    CP:  9.67D-01  1.07D+00  6.79D-01  6.49D-01  6.26D-01
                    CP:  6.58D-01
 E= -514.285421547959     Delta-E=       -0.000012978693 Rises=F Damp=F
 DIIS: error= 4.58D-05 at cycle   7 NSaved=   7.
 NSaved= 7 IEnMin= 7 EnMin= -514.285421547959     IErMin= 7 ErrMin= 4.58D-05
 ErrMax= 4.58D-05  0.00D+00 EMaxC= 1.00D-01 BMatC= 1.25D-06 BMatP= 1.43D-05
 IDIUse=1 WtCom= 1.00D+00 WtEn= 0.00D+00
 Coeff-Com: -0.662D-03 0.279D-03 0.157D-01 0.419D-01 0.125D+00 0.308D+00
 Coeff-Com:  0.510D+00
 Coeff:     -0.662D-03 0.279D-03 0.157D-01 0.419D-01 0.125D+00 0.308D+00
 Coeff:      0.510D+00
 Gap=     0.175 Goal=   None    Shift=    0.000
 RMSDP=5.70D-06 MaxDP=1.99D-04 DE=-1.30D-05 OVMax= 4.38D-04

 Cycle   8  Pass 1  IDiag  1:
 RMSU=  2.99D-06    CP:  9.67D-01  1.07D+00  6.79D-01  6.51D-01  6.21D-01
                    CP:  6.82D-01  5.96D-01
 E= -514.285422714114     Delta-E=       -0.000001166155 Rises=F Damp=F
 DIIS: error= 7.75D-06 at cycle   8 NSaved=   8.
 NSaved= 8 IEnMin= 8 EnMin= -514.285422714114     IErMin= 8 ErrMin= 7.75D-06
 ErrMax= 7.75D-06  0.00D+00 EMaxC= 1.00D-01 BMatC= 3.16D-08 BMatP= 1.25D-06
 IDIUse=1 WtCom= 1.00D+00 WtEn= 0.00D+00
 Coeff-Com:  0.120D-04-0.264D-03 0.801D-03 0.234D-02 0.128D-01 0.454D-01
 Coeff-Com:  0.166D+00 0.773D+00
 Coeff:      0.120D-04-0.264D-03 0.801D-03 0.234D-02 0.128D-01 0.454D-01
 Coeff:      0.166D+00 0.773D+00
 Gap=     0.175 Goal=   None    Shift=    0.000
 RMSDP=1.13D-06 MaxDP=2.98D-05 DE=-1.17D-06 OVMax= 7.17D-05

 Cycle   9  Pass 1  IDiag  1:
 RMSU=  8.34D-07    CP:  9.67D-01  1.07D+00  6.79D-01  6.50D-01  6.24D-01
                    CP:  6.88D-01  6.38D-01  8.74D-01
 E= -514.285422739876     Delta-E=       -0.000000025763 Rises=F Damp=F
 DIIS: error= 2.19D-06 at cycle   9 NSaved=   9.
 NSaved= 9 IEnMin= 9 EnMin= -514.285422739876     IErMin= 9 ErrMin= 2.19D-06
 ErrMax= 2.19D-06  0.00D+00 EMaxC= 1.00D-01 BMatC= 4.97D-09 BMatP= 3.16D-08
 IDIUse=1 WtCom= 1.00D+00 WtEn= 0.00D+00
 Coeff-Com:  0.394D-04-0.148D-03-0.330D-03-0.888D-03 0.362D-03 0.736D-02
 Coeff-Com:  0.589D-01 0.387D+00 0.548D+00
 Coeff:      0.394D-04-0.148D-03-0.330D-03-0.888D-03 0.362D-03 0.736D-02
 Coeff:      0.589D-01 0.387D+00 0.548D+00
 Gap=     0.175 Goal=   None    Shift=    0.000
 RMSDP=4.09D-07 MaxDP=1.71D-05 DE=-2.58D-08 OVMax= 3.13D-05

 Cycle  10  Pass 1  IDiag  1:
 RMSU=  2.83D-07    CP:  9.67D-01  1.07D+00  6.79D-01  6.50D-01  6.24D-01
                    CP:  6.89D-01  6.45D-01  9.13D-01  7.17D-01
 E= -514.285422744625     Delta-E=       -0.000000004748 Rises=F Damp=F
 DIIS: error= 7.01D-07 at cycle  10 NSaved=  10.
 NSaved=10 IEnMin=10 EnMin= -514.285422744625     IErMin=10 ErrMin= 7.01D-07
 ErrMax= 7.01D-07  0.00D+00 EMaxC= 1.00D-01 BMatC= 3.51D-10 BMatP= 4.97D-09
 IDIUse=1 WtCom= 1.00D+00 WtEn= 0.00D+00
 Coeff-Com:  0.176D-04-0.352D-04-0.234D-03-0.702D-03-0.143D-02-0.246D-02
 Coeff-Com:  0.560D-02 0.712D-01 0.238D+00 0.690D+00
 Coeff:      0.176D-04-0.352D-04-0.234D-03-0.702D-03-0.143D-02-0.246D-02
 Coeff:      0.560D-02 0.712D-01 0.238D+00 0.690D+00
 Gap=     0.175 Goal=   None    Shift=    0.000
 RMSDP=1.14D-07 MaxDP=3.75D-06 DE=-4.75D-09 OVMax= 1.06D-05

 Cycle  11  Pass 1  IDiag  1:
 RMSU=  7.35D-08    CP:  9.67D-01  1.07D+00  6.79D-01  6.50D-01  6.24D-01
                    CP:  6.89D-01  6.46D-01  9.24D-01  7.92D-01  8.63D-01
 E= -514.285422744981     Delta-E=       -0.000000000357 Rises=F Damp=F
 DIIS: error= 2.90D-07 at cycle  11 NSaved=  11.
 NSaved=11 IEnMin=11 EnMin= -514.285422744981     IErMin=11 ErrMin= 2.90D-07
 ErrMax= 2.90D-07  0.00D+00 EMaxC= 1.00D-01 BMatC= 3.34D-11 BMatP= 3.51D-10
 IDIUse=1 WtCom= 1.00D+00 WtEn= 0.00D+00
 Coeff-Com:  0.570D-05-0.657D-05-0.778D-04-0.258D-03-0.668D-03-0.164D-02
 Coeff-Com: -0.142D-02 0.483D-02 0.727D-01 0.310D+00 0.617D+00
 Coeff:      0.570D-05-0.657D-05-0.778D-04-0.258D-03-0.668D-03-0.164D-02
 Coeff:     -0.142D-02 0.483D-02 0.727D-01 0.310D+00 0.617D+00
 Gap=     0.175 Goal=   None    Shift=    0.000
 RMSDP=3.73D-08 MaxDP=1.32D-06 DE=-3.57D-10 OVMax= 3.09D-06

 Cycle  12  Pass 1  IDiag  1:
 RMSU=  2.75D-08    CP:  9.67D-01  1.07D+00  6.79D-01  6.50D-01  6.24D-01
                    CP:  6.89D-01  6.47D-01  9.28D-01  8.00D-01  9.08D-01
                    CP:  8.12D-01
 E= -514.285422745012     Delta-E=       -0.000000000031 Rises=F Damp=F
 DIIS: error= 1.08D-07 at cycle  12 NSaved=  12.
 NSaved=12 IEnMin=12 EnMin= -514.285422745012     IErMin=12 ErrMin= 1.08D-07
 ErrMax= 1.08D-07  0.00D+00 EMaxC= 1.00D-01 BMatC= 4.84D-12 BMatP= 3.34D-11
 IDIUse=1 WtCom= 1.00D+00 WtEn= 0.00D+00
 Coeff-Com: -0.171D-06 0.249D-05 0.575D-05 0.274D-06-0.621D-04-0.348D-03
 Coeff-Com: -0.152D-02-0.104D-01-0.796D-02 0.120D-01 0.286D+00 0.723D+00
 Coeff:     -0.171D-06 0.249D-05 0.575D-05 0.274D-06-0.621D-04-0.348D-03
 Coeff:     -0.152D-02-0.104D-01-0.796D-02 0.120D-01 0.286D+00 0.723D+00
 Gap=     0.175 Goal=   None    Shift=    0.000
 RMSDP=1.56D-08 MaxDP=4.48D-07 DE=-3.07D-11 OVMax= 1.75D-06

 Cycle  13  Pass 1  IDiag  1:
 RMSU=  7.58D-09    CP:  9.67D-01  1.07D+00  6.79D-01  6.50D-01  6.24D-01
                    CP:  6.89D-01  6.47D-01  9.29D-01  8.07D-01  9.29D-01
                    CP:  9.20D-01  8.32D-01
 E= -514.285422745022     Delta-E=       -0.000000000010 Rises=F Damp=F
 DIIS: error= 3.10D-08 at cycle  13 NSaved=  13.
 NSaved=13 IEnMin=13 EnMin= -514.285422745022     IErMin=13 ErrMin= 3.10D-08
 ErrMax= 3.10D-08  0.00D+00 EMaxC= 1.00D-01 BMatC= 3.39D-13 BMatP= 4.84D-12
 IDIUse=1 WtCom= 1.00D+00 WtEn= 0.00D+00
 Coeff-Com: -0.400D-06 0.151D-05 0.794D-05 0.164D-04 0.118D-04-0.727D-04
 Coeff-Com: -0.629D-03-0.530D-02-0.775D-02-0.135D-01 0.103D+00 0.336D+00
 Coeff-Com:  0.588D+00
 Coeff:     -0.400D-06 0.151D-05 0.794D-05 0.164D-04 0.118D-04-0.727D-04
 Coeff:     -0.629D-03-0.530D-02-0.775D-02-0.135D-01 0.103D+00 0.336D+00
 Coeff:      0.588D+00
 Gap=     0.175 Goal=   None    Shift=    0.000
 RMSDP=3.99D-09 MaxDP=1.51D-07 DE=-1.00D-11 OVMax= 3.66D-07

 Error on total polarization charges =  0.01568
 SCF Done:  E(RB3LYP) =  -514.285422745     A.U. after   13 cycles
            NFock= 13  Conv=0.40D-08     -V/T= 2.0094
 KE= 5.094876761644D+02 PE=-2.534895169276D+03 EE= 8.334869440405D+02
 Leave Link  502 at Sun Jul 11 16:25:23 2021, MaxMem=   104857600 cpu:             106.9 elap:              26.8
 (Enter /prod/apps/gaussian/g16b1/l601.exe)
 Copying SCF densities to generalized density rwf, IOpCl= 0 IROHF=0.

 **********************************************************************

            Population analysis using the SCF Density.

 **********************************************************************

 Orbital symmetries:
       Occupied  (A) (A) (A) (A) (A) (A) (A) (A) (A) (A) (A) (A)
                 (A) (A) (A) (A) (A) (A) (A) (A) (A) (A) (A) (A)
                 (A) (A) (A) (A) (A) (A) (A) (A) (A) (A) (A) (A)
                 (A) (A) (A) (A) (A) (A) (A)
       Virtual   (A) (A) (A) (A) (A) (A) (A) (A) (A) (A) (A) (A)
                 (A) (A) (A) (A) (A) (A) (A) (A) (A) (A) (A) (A)
                 (A) (A) (A) (A) (A) (A) (A) (A) (A) (A) (A) (A)
                 (A) (A) (A) (A) (A) (A) (A) (A) (A) (A) (A) (A)
                 (A) (A) (A) (A) (A) (A) (A) (A) (A) (A) (A) (A)
                 (A) (A) (A) (A) (A) (A) (A) (A) (A) (A) (A) (A)
                 (A) (A) (A) (A) (A) (A) (A) (A) (A) (A) (A) (A)
                 (A) (A) (A) (A) (A) (A) (A) (A) (A) (A) (A) (A)
                 (A) (A) (A) (A) (A) (A) (A) (A) (A) (A) (A) (A)
                 (A) (A) (A) (A) (A) (A) (A) (A) (A) (A) (A) (A)
                 (A) (A) (A) (A) (A) (A) (A) (A) (A) (A) (A) (A)
                 (A) (A) (A) (A) (A) (A) (A) (A) (A) (A) (A) (A)
                 (A) (A) (A) (A) (A) (A) (A) (A) (A) (A) (A) (A)
                 (A) (A) (A) (A) (A)
 The electronic state is 1-A.
 Alpha  occ. eigenvalues --  -14.44587 -14.42144 -14.32642 -10.25296 -10.25136
 Alpha  occ. eigenvalues --  -10.24507 -10.22240 -10.21314 -10.20924 -10.20833
 Alpha  occ. eigenvalues --  -10.20656 -10.19650  -1.04128  -1.01683  -0.91237
 Alpha  occ. eigenvalues --   -0.83632  -0.79550  -0.76012  -0.73463  -0.67857
 Alpha  occ. eigenvalues --   -0.64134  -0.62369  -0.59887  -0.59338  -0.57433
 Alpha  occ. eigenvalues --   -0.53204  -0.51343  -0.49372  -0.47574  -0.46909
 Alpha  occ. eigenvalues --   -0.46378  -0.44300  -0.43977  -0.40485  -0.39853
 Alpha  occ. eigenvalues --   -0.37557  -0.37282  -0.36815  -0.33832  -0.32526
 Alpha  occ. eigenvalues --   -0.29890  -0.24712  -0.21321
 Alpha virt. eigenvalues --   -0.03791  -0.00491   0.03991   0.07168   0.09822
 Alpha virt. eigenvalues --    0.11157   0.11362   0.12104   0.12761   0.13245
 Alpha virt. eigenvalues --    0.14571   0.15468   0.15916   0.16796   0.17252
 Alpha virt. eigenvalues --    0.17562   0.17966   0.20532   0.21150   0.24856
 Alpha virt. eigenvalues --    0.25796   0.27096   0.29561   0.30999   0.32514
 Alpha virt. eigenvalues --    0.40243   0.42221   0.44778   0.46534   0.47650
 Alpha virt. eigenvalues --    0.49155   0.50147   0.51665   0.52585   0.53247
 Alpha virt. eigenvalues --    0.55756   0.56744   0.57125   0.57487   0.58442
 Alpha virt. eigenvalues --    0.59131   0.61652   0.62338   0.62973   0.63912
 Alpha virt. eigenvalues --    0.64513   0.66348   0.69808   0.69977   0.70966
 Alpha virt. eigenvalues --    0.73843   0.75336   0.76628   0.80090   0.80212
 Alpha virt. eigenvalues --    0.81543   0.82577   0.83133   0.83433   0.85709
 Alpha virt. eigenvalues --    0.86286   0.86793   0.87762   0.88725   0.89372
 Alpha virt. eigenvalues --    0.90883   0.91728   0.93702   0.94170   0.95271
 Alpha virt. eigenvalues --    0.97928   0.98435   1.00986   1.04128   1.05709
 Alpha virt. eigenvalues --    1.08956   1.10311   1.13536   1.16545   1.20747
 Alpha virt. eigenvalues --    1.21666   1.27218   1.30319   1.35493   1.36765
 Alpha virt. eigenvalues --    1.37531   1.40988   1.41647   1.42615   1.44769
 Alpha virt. eigenvalues --    1.46291   1.50397   1.50754   1.52496   1.55657
 Alpha virt. eigenvalues --    1.61698   1.65265   1.68844   1.74199   1.76060
 Alpha virt. eigenvalues --    1.80098   1.81833   1.82845   1.86651   1.89727
 Alpha virt. eigenvalues --    1.90602   1.92481   1.94901   1.97237   1.97972
 Alpha virt. eigenvalues --    1.99494   2.02255   2.03622   2.04385   2.08672
 Alpha virt. eigenvalues --    2.09292   2.14256   2.15218   2.18608   2.19539
 Alpha virt. eigenvalues --    2.22569   2.25227   2.25771   2.29555   2.31280
 Alpha virt. eigenvalues --    2.32318   2.32997   2.37937   2.40783   2.41940
 Alpha virt. eigenvalues --    2.45520   2.48730   2.53059   2.57554   2.58089
 Alpha virt. eigenvalues --    2.60466   2.62297   2.63821   2.67423   2.69848
 Alpha virt. eigenvalues --    2.71118   2.77724   2.80381   2.80719   2.92147
 Alpha virt. eigenvalues --    2.99676   3.11588   3.19158   3.42004   3.78656
 Alpha virt. eigenvalues --    4.04592   4.06174   4.12220   4.16865   4.17430
 Alpha virt. eigenvalues --    4.25939   4.30248   4.38430   4.43973   4.53118
 Alpha virt. eigenvalues --    4.64273
          Condensed to atoms (all electrons):
               1          2          3          4          5          6
     1  N    6.691124   0.305126   0.299063   0.241924  -0.034975  -0.032323
     2  H    0.305126   0.270457  -0.009857  -0.018068  -0.001772  -0.002540
     3  H    0.299063  -0.009857   0.274700  -0.022170  -0.003712   0.003630
     4  C    0.241924  -0.018068  -0.022170   4.995339   0.384046   0.378139
     5  H   -0.034975  -0.001772  -0.003712   0.384046   0.501065  -0.030817
     6  H   -0.032323  -0.002540   0.003630   0.378139  -0.030817   0.483633
     7  C   -0.066049   0.004608  -0.004671   0.352649  -0.035744  -0.019039
     8  H    0.004436  -0.000144   0.000148  -0.034282  -0.002390  -0.001112
     9  H   -0.003896  -0.000033   0.000061  -0.032096   0.004096  -0.002339
    10  C   -0.004815   0.000073   0.010986  -0.035027  -0.003631   0.002787
    11  C   -0.000351  -0.000011   0.000684  -0.001713   0.002875  -0.000014
    12  H    0.000003  -0.000000  -0.000005   0.000112   0.000260  -0.000001
    13  N    0.000002  -0.000000  -0.000064  -0.000045  -0.000051   0.000001
    14  C   -0.000000   0.000000   0.000002  -0.000002   0.000000  -0.000000
    15  H   -0.000000   0.000000   0.000000  -0.000000   0.000000  -0.000000
    16  C    0.000000   0.000000   0.000000   0.000000  -0.000000  -0.000000
    17  H    0.000000  -0.000000  -0.000000   0.000000   0.000000  -0.000000
    18  C   -0.000000  -0.000000   0.000001  -0.000000   0.000000   0.000000
    19  H   -0.000000  -0.000000   0.000000  -0.000000   0.000000  -0.000000
    20  C    0.000002   0.000000  -0.000032   0.000008  -0.000000  -0.000000
    21  H    0.000000   0.000000   0.000000   0.000000   0.000000  -0.000000
    22  C    0.000073   0.000001  -0.000118   0.000116  -0.000005  -0.000001
    23  N   -0.000058   0.000014   0.003090  -0.000524  -0.000045  -0.000052
    24  H    0.303982  -0.010306  -0.010253  -0.022421   0.003909  -0.002531
               7          8          9         10         11         12
     1  N   -0.066049   0.004436  -0.003896  -0.004815  -0.000351   0.000003
     2  H    0.004608  -0.000144  -0.000033   0.000073  -0.000011  -0.000000
     3  H   -0.004671   0.000148   0.000061   0.010986   0.000684  -0.000005
     4  C    0.352649  -0.034282  -0.032096  -0.035027  -0.001713   0.000112
     5  H   -0.035744  -0.002390   0.004096  -0.003631   0.002875   0.000260
     6  H   -0.019039  -0.001112  -0.002339   0.002787  -0.000014  -0.000001
     7  C    5.173651   0.372231   0.363860   0.346882  -0.060348  -0.000556
     8  H    0.372231   0.526194  -0.028182  -0.030223  -0.004340   0.001809
     9  H    0.363860  -0.028182   0.537074  -0.036920   0.004127  -0.000093
    10  C    0.346882  -0.030223  -0.036920   4.717983   0.556875  -0.033595
    11  C   -0.060348  -0.004340   0.004127   0.556875   5.019541   0.363967
    12  H   -0.000556   0.001809  -0.000093  -0.033595   0.363967   0.516892
    13  N    0.004477   0.000127  -0.000070  -0.028878   0.332522  -0.043554
    14  C   -0.000099   0.000001   0.000002   0.005998  -0.053376   0.000304
    15  H   -0.000001   0.000001   0.000000  -0.000003  -0.002496   0.001828
    16  C    0.000005  -0.000000  -0.000000  -0.000466   0.004899   0.000101
    17  H   -0.000000  -0.000000   0.000000   0.000008  -0.000150  -0.000003
    18  C    0.000005   0.000000   0.000000  -0.000181   0.001097   0.000007
    19  H   -0.000000   0.000000  -0.000000   0.000001   0.000012  -0.000000
    20  C   -0.000515   0.000004  -0.000002   0.000993   0.014247  -0.000442
    21  H   -0.000003   0.000000   0.000003   0.000376  -0.000304   0.000002
    22  C    0.003287  -0.000193   0.000419  -0.084582  -0.086013   0.004589
    23  N   -0.055786   0.002441   0.001779   0.413548  -0.078501   0.005215
    24  H   -0.002049  -0.000019   0.004464  -0.001007   0.000070  -0.000002
              13         14         15         16         17         18
     1  N    0.000002  -0.000000  -0.000000   0.000000   0.000000  -0.000000
     2  H   -0.000000   0.000000   0.000000   0.000000  -0.000000  -0.000000
     3  H   -0.000064   0.000002   0.000000   0.000000  -0.000000   0.000001
     4  C   -0.000045  -0.000002  -0.000000   0.000000   0.000000  -0.000000
     5  H   -0.000051   0.000000   0.000000  -0.000000   0.000000   0.000000
     6  H    0.000001  -0.000000  -0.000000  -0.000000  -0.000000   0.000000
     7  C    0.004477  -0.000099  -0.000001   0.000005  -0.000000   0.000005
     8  H    0.000127   0.000001   0.000001  -0.000000  -0.000000   0.000000
     9  H   -0.000070   0.000002   0.000000  -0.000000   0.000000   0.000000
    10  C   -0.028878   0.005998  -0.000003  -0.000466   0.000008  -0.000181
    11  C    0.332522  -0.053376  -0.002496   0.004899  -0.000150   0.001097
    12  H   -0.043554   0.000304   0.001828   0.000101  -0.000003   0.000007
    13  N    6.777367   0.326885  -0.038153  -0.021182   0.003762  -0.038698
    14  C    0.326885   4.864129   0.373437   0.553605  -0.040620  -0.031736
    15  H   -0.038153   0.373437   0.491001  -0.036402  -0.003852   0.003061
    16  C   -0.021182   0.553605  -0.036402   4.965110   0.364741   0.462669
    17  H    0.003762  -0.040620  -0.003852   0.364741   0.538359  -0.031960
    18  C   -0.038698  -0.031736   0.003061   0.462669  -0.031960   4.914538
    19  H   -0.000030   0.003491  -0.000086  -0.036404  -0.002871   0.368238
    20  C   -0.039059  -0.038038   0.000184  -0.017738   0.003813   0.526873
    21  H    0.006038   0.000213   0.000017   0.005383  -0.000141  -0.043323
    22  C    0.309065  -0.020220   0.001780  -0.036439   0.000797  -0.007012
    23  N   -0.100480   0.005675  -0.000136  -0.000044   0.000002   0.004328
    24  H    0.000000   0.000000   0.000000  -0.000000  -0.000000   0.000000
              19         20         21         22         23         24
     1  N   -0.000000   0.000002   0.000000   0.000073  -0.000058   0.303982
     2  H   -0.000000   0.000000   0.000000   0.000001   0.000014  -0.010306
     3  H    0.000000  -0.000032   0.000000  -0.000118   0.003090  -0.010253
     4  C   -0.000000   0.000008   0.000000   0.000116  -0.000524  -0.022421
     5  H    0.000000  -0.000000   0.000000  -0.000005  -0.000045   0.003909
     6  H   -0.000000  -0.000000  -0.000000  -0.000001  -0.000052  -0.002531
     7  C   -0.000000  -0.000515  -0.000003   0.003287  -0.055786  -0.002049
     8  H    0.000000   0.000004   0.000000  -0.000193   0.002441  -0.000019
     9  H   -0.000000  -0.000002   0.000003   0.000419   0.001779   0.004464
    10  C    0.000001   0.000993   0.000376  -0.084582   0.413548  -0.001007
    11  C    0.000012   0.014247  -0.000304  -0.086013  -0.078501   0.000070
    12  H   -0.000000  -0.000442   0.000002   0.004589   0.005215  -0.000002
    13  N   -0.000030  -0.039059   0.006038   0.309065  -0.100480   0.000000
    14  C    0.003491  -0.038038   0.000213  -0.020220   0.005675   0.000000
    15  H   -0.000086   0.000184   0.000017   0.001780  -0.000136   0.000000
    16  C   -0.036404  -0.017738   0.005383  -0.036439  -0.000044  -0.000000
    17  H   -0.002871   0.003813  -0.000141   0.000797   0.000002  -0.000000
    18  C    0.368238   0.526873  -0.043323  -0.007012   0.004328   0.000000
    19  H    0.534844  -0.036012  -0.006789   0.003667  -0.000101   0.000000
    20  C   -0.036012   5.047510   0.357391   0.465447  -0.072214  -0.000001
    21  H   -0.006789   0.357391   0.561832  -0.039384  -0.002262   0.000000
    22  C    0.003667   0.465447  -0.039384   4.486246   0.456139   0.000005
    23  N   -0.000101  -0.072214  -0.002262   0.456139   7.029961   0.000825
    24  H    0.000000  -0.000001   0.000000   0.000005   0.000825   0.276292
 Mulliken charges:
               1
     1  N   -0.703268
     2  H    0.462451
     3  H    0.458516
     4  C   -0.185986
     5  H    0.216892
     6  H    0.222582
     7  C   -0.376793
     8  H    0.193493
     9  H    0.187747
    10  C    0.202820
    11  C   -0.013299
    12  H    0.183159
    13  N   -0.449983
    14  C    0.050349
    15  H    0.209819
    16  C   -0.207837
    17  H    0.168114
    18  C   -0.127906
    19  H    0.172040
    20  C   -0.212423
    21  H    0.160951
    22  C    0.542335
    23  N   -0.612815
    24  H    0.459042
 Sum of Mulliken charges =   1.00000
 Mulliken charges with hydrogens summed into heavy atoms:
               1
     1  N    0.676742
     4  C    0.253488
     7  C    0.004446
    10  C    0.202820
    11  C    0.169860
    13  N   -0.449983
    14  C    0.260168
    16  C   -0.039723
    18  C    0.044134
    20  C   -0.051472
    22  C    0.542335
    23  N   -0.612815
 Electronic spatial extent (au):  <R**2>=           2391.2001
 Charge=              1.0000 electrons
 Dipole moment (field-independent basis, Debye):
    X=            -13.0683    Y=              0.5829    Z=              5.1901  Tot=             14.0733
 Quadrupole moment (field-independent basis, Debye-Ang):
   XX=              2.0155   YY=            -56.8357   ZZ=            -64.4767
   XY=             10.0938   XZ=            -12.6205   YZ=             -3.8622
 Traceless Quadrupole moment (field-independent basis, Debye-Ang):
   XX=             41.7812   YY=            -17.0701   ZZ=            -24.7111
   XY=             10.0938   XZ=            -12.6205   YZ=             -3.8622
 Octapole moment (field-independent basis, Debye-Ang**2):
  XXX=           -211.4464  YYY=              6.9151  ZZZ=             16.7260  XYY=            -10.3828
  XXY=            -38.6774  XXZ=             64.7964  XZZ=            -38.6726  YZZ=             -4.3743
  YYZ=              8.8020  XYZ=             17.4705
 Hexadecapole moment (field-independent basis, Debye-Ang**3):
 XXXX=          -1401.8972 YYYY=           -400.4357 ZZZZ=           -181.5533 XXXY=            152.8383
 XXXZ=           -187.7146 YYYX=             37.2358 YYYZ=             -3.6781 ZZZX=            -62.0322
 ZZZY=            -15.7297 XXYY=           -360.6935 XXZZ=           -362.6559 YYZZ=           -109.1412
 XXYZ=            -35.5485 YYXZ=            -14.5384 ZZXY=             26.2031
 N-N= 6.776351263263D+02 E-N=-2.534895167625D+03  KE= 5.094876761644D+02
 No NMR shielding tensors so no spin-rotation constants.
 Leave Link  601 at Sun Jul 11 16:25:23 2021, MaxMem=   104857600 cpu:               0.6 elap:               0.2
 (Enter /prod/apps/gaussian/g16b1/l701.exe)
 ... and contract with generalized density number  0.
 Compute integral first derivatives.
 D1PCM: PCM CHGder 1st derivatives, ID1Alg=3 FixD1E=F DoIter=F DoCFld=F I1PDM=0.
 GePol: Maximum number of non-zero 1st derivatives   =     295
 Leave Link  701 at Sun Jul 11 16:25:25 2021, MaxMem=   104857600 cpu:               4.9 elap:               1.2
 (Enter /prod/apps/gaussian/g16b1/l702.exe)
 L702 exits ... SP integral derivatives will be done elsewhere.
 Leave Link  702 at Sun Jul 11 16:25:25 2021, MaxMem=   104857600 cpu:               0.1 elap:               0.0
 (Enter /prod/apps/gaussian/g16b1/l703.exe)
 Integral derivatives from FoFJK, PRISM(SPDF).
 Compute integral first derivatives, UseDBF=F ICtDFT=           0.
 Calling FoFJK, ICntrl=      2127 FMM=F ISym2X=0 I1Cent= 0 IOpClX= 0 NMat=1 NMatS=1 NMatT=0.
 FoFJK:  IHMeth= 1 ICntrl=    2127 DoSepK=F KAlg= 0 I1Cent=           0 FoldK=F
 IRaf=         0 NMat=       1 IRICut=       1 DoRegI=T DoRafI=F ISym2E= 0 IDoP0=0 IntGTp=1.
 FoFCou: FMM=F IPFlag=           0 FMFlag=      100000 FMFlg1=         800
         NFxFlg=           0 DoJE=F BraDBF=F KetDBF=F FulRan=T
         wScrn=  0.000000 ICntrl=      2127 IOpCl=  0 I1Cent=           0 NGrid=           0
         NMat0=    1 NMatS0=      1 NMatT0=    0 NMatD0=    1 NMtDS0=    0 NMtDT0=    0
 Symmetry not used in FoFCou.
 Leave Link  703 at Sun Jul 11 16:25:30 2021, MaxMem=   104857600 cpu:              21.7 elap:               5.4
 (Enter /prod/apps/gaussian/g16b1/l716.exe)
 Dipole        =-5.14144783D+00 2.29321377D-01 2.04195179D+00
 ***** Axes restored to original set *****
 -------------------------------------------------------------------
 Center     Atomic                   Forces (Hartrees/Bohr)
 Number     Number              X              Y              Z
 -------------------------------------------------------------------
      1        7          -0.004253595    0.015360522    0.013741287
      2        1          -0.000484983    0.022047421   -0.023128223
      3        1          -0.018966638   -0.014636405   -0.011181394
      4        6          -0.013622440   -0.012624683    0.021268476
      5        1          -0.000462377   -0.001158817   -0.004782144
      6        1           0.006113526   -0.010556326    0.001155404
      7        6           0.007114457    0.002149958    0.018987351
      8        1          -0.001249487    0.001308118    0.002165362
      9        1           0.004465547    0.005311690   -0.008257181
     10        6           0.022071997    0.000887428    0.001385296
     11        6          -0.017873624    0.027912413    0.017064550
     12        1           0.000844485    0.000886725   -0.003840057
     13        7           0.022888566    0.002247513    0.023727518
     14        6          -0.008820448   -0.015240760   -0.042793650
     15        1           0.008177098    0.003746909   -0.000679924
     16        6           0.009774593   -0.018423306    0.011808740
     17        1           0.001727057   -0.005001809   -0.003106503
     18        6          -0.005674509    0.035177162    0.011967028
     19        1          -0.009890210    0.002020662    0.005746398
     20        6          -0.008632821   -0.058618162   -0.021948118
     21        1           0.001392441    0.002618369   -0.000860143
     22        6           0.005453884    0.013356958   -0.017658013
     23        7          -0.024442174    0.016973281    0.021028597
     24        1           0.024349655   -0.015744863   -0.011810659
 -------------------------------------------------------------------
 Cartesian Forces:  Max     0.058618162 RMS     0.015756498
 Leave Link  716 at Sun Jul 11 16:25:30 2021, MaxMem=   104857600 cpu:               0.1 elap:               0.0
 (Enter /prod/apps/gaussian/g16b1/l103.exe)

 GradGradGradGradGradGradGradGradGradGradGradGradGradGradGradGradGradGrad
 Berny optimization.
 FormGI is forming the generalized inverse of G from B-inverse, IUseBI=4.
 GSVD:  received Info=                   1 from GESDD.
 Internal  Forces:  Max     0.047732038 RMS     0.010616790
 Search for a local minimum.
 Step number   1 out of a maximum of  138
 All quantities printed in internal units (Hartrees-Bohrs-Radians)
 RMS Force = .10617D-01 SwitMx=.10000D-02 MixMth= 1
 Mixed Optimization -- RFO/linear search
 Second derivative matrix not updated -- first step.
 ITU=  0
     Eigenvalues ---    0.00230   0.00613   0.00858   0.01528   0.01601
     Eigenvalues ---    0.01836   0.01870   0.02052   0.02139   0.02185
     Eigenvalues ---    0.02243   0.02338   0.02417   0.02427   0.02510
     Eigenvalues ---    0.03232   0.03962   0.05131   0.05140   0.06124
     Eigenvalues ---    0.06126   0.07554   0.10481   0.11511   0.13556
     Eigenvalues ---    0.15387   0.15799   0.15957   0.15977   0.15998
     Eigenvalues ---    0.16000   0.16000   0.16000   0.21680   0.21724
     Eigenvalues ---    0.21916   0.22246   0.23589   0.23933   0.24528
     Eigenvalues ---    0.24808   0.28289   0.31194   0.34399   0.34551
     Eigenvalues ---    0.34573   0.34648   0.34997   0.35313   0.35355
     Eigenvalues ---    0.35456   0.35566   0.35657   0.36585   0.40045
     Eigenvalues ---    0.44280   0.45755   0.47038   0.47653   0.47679
     Eigenvalues ---    0.47710   0.48405   0.49061   0.51543   0.52369
     Eigenvalues ---    0.53947
 RFO step:  Lambda=-4.60790227D-02 EMin= 2.30000000D-03
 Linear search not attempted -- first point.
 Maximum step size (   0.300) exceeded in Quadratic search.
    -- Step size scaled by   0.848
 Iteration  1 RMS(Cart)=  0.05365167 RMS(Int)=  0.00151212
 Iteration  2 RMS(Cart)=  0.00290104 RMS(Int)=  0.00068413
 Iteration  3 RMS(Cart)=  0.00000259 RMS(Int)=  0.00068413
 Iteration  4 RMS(Cart)=  0.00000000 RMS(Int)=  0.00068413
 ITry= 1 IFail=0 DXMaxC= 1.75D-01 DCOld= 1.00D+10 DXMaxT= 3.00D-01 DXLimC= 3.00D+00 Rises=F
 Variable       Old X    -DE/DX   Delta X   Delta X   Delta X     New X
                                 (Linear)    (Quad)   (Total)
    R1        1.88982   0.03103   0.00000   0.05030   0.05030   1.94013
    R2        1.89011   0.02581   0.00000   0.04187   0.04187   1.93198
    R3        2.76476   0.02994   0.00000   0.06162   0.06162   2.82638
    R4        1.88949   0.03083   0.00000   0.04996   0.04996   1.93945
    R5        2.06661  -0.00114   0.00000  -0.00249  -0.00249   2.06413
    R6        2.06373  -0.00295   0.00000  -0.00639  -0.00639   2.05734
    R7        2.91510  -0.00750   0.00000  -0.01932  -0.01932   2.89578
    R8        2.06411   0.00242   0.00000   0.00524   0.00524   2.06934
    R9        2.06250   0.00236   0.00000   0.00509   0.00509   2.06759
   R10        2.85643  -0.00394   0.00000  -0.00934  -0.00934   2.84709
   R11        2.57855   0.01135   0.00000   0.01817   0.01805   2.59660
   R12        2.62362  -0.00351   0.00000  -0.00755  -0.00734   2.61627
   R13        2.04621  -0.00245   0.00000  -0.00517  -0.00517   2.04104
   R14        2.57001   0.02046   0.00000   0.03271   0.03246   2.60247
   R15        2.60549  -0.00302   0.00000  -0.00546  -0.00549   2.60000
   R16        2.63552   0.00458   0.00000   0.01057   0.01058   2.64610
   R17        2.04765  -0.00330   0.00000  -0.00697  -0.00697   2.04068
   R18        2.62400  -0.01141   0.00000  -0.02219  -0.02238   2.60162
   R19        2.05103  -0.00081   0.00000  -0.00172  -0.00172   2.04931
   R20        2.76466  -0.02747   0.00000  -0.06016  -0.06024   2.70442
   R21        2.04941  -0.00228   0.00000  -0.00483  -0.00483   2.04458
   R22        2.61049  -0.00083   0.00000  -0.00025  -0.00018   2.61031
   R23        2.05170   0.00008   0.00000   0.00017   0.00017   2.05187
   R24        2.56449   0.04773   0.00000   0.07289   0.07306   2.63755
   R25        2.55343  -0.00789   0.00000  -0.01343  -0.01319   2.54024
    A1        1.91097  -0.00633   0.00000  -0.02527  -0.02566   1.88531
    A2        1.91053   0.00811   0.00000   0.03384   0.03346   1.94399
    A3        1.91021  -0.00626   0.00000  -0.02560  -0.02593   1.88428
    A4        1.91023   0.00506   0.00000   0.02074   0.02045   1.93068
    A5        1.91082  -0.00508   0.00000  -0.02184  -0.02199   1.88884
    A6        1.91104   0.00450   0.00000   0.01813   0.01788   1.92893
    A7        1.89783  -0.00957   0.00000  -0.02665  -0.02787   1.86996
    A8        1.91653  -0.00784   0.00000  -0.02549  -0.02429   1.89224
    A9        1.84926   0.02579   0.00000   0.08230   0.08264   1.93190
   A10        1.83934   0.00780   0.00000   0.02797   0.02760   1.86695
   A11        1.89438  -0.00247   0.00000   0.00807   0.00794   1.90232
   A12        2.06238  -0.01468   0.00000  -0.06747  -0.06694   1.99544
   A13        1.84584   0.00538   0.00000   0.02314   0.02382   1.86966
   A14        1.99423  -0.00522   0.00000  -0.03965  -0.03974   1.95449
   A15        2.07293  -0.01400   0.00000  -0.04928  -0.04972   2.02321
   A16        1.80162   0.00106   0.00000   0.02241   0.02218   1.82381
   A17        1.86540   0.00381   0.00000   0.01923   0.01933   1.88473
   A18        1.86059   0.01124   0.00000   0.03720   0.03533   1.89592
   A19        2.15107   0.01203   0.00000   0.03693   0.03662   2.18769
   A20        2.16148  -0.00534   0.00000  -0.01419  -0.01491   2.14657
   A21        1.95334  -0.00584   0.00000  -0.01175  -0.01253   1.94080
   A22        2.27866   0.00596   0.00000   0.01222   0.01247   2.29113
   A23        1.89573  -0.01516   0.00000  -0.03789  -0.03856   1.85717
   A24        2.10873   0.00918   0.00000   0.02549   0.02579   2.13453
   A25        2.29744  -0.00009   0.00000  -0.00401  -0.00400   2.29344
   A26        1.79292   0.01879   0.00000   0.06297   0.06245   1.85537
   A27        2.17384  -0.01800   0.00000  -0.04904  -0.04970   2.12414
   A28        2.12421  -0.01804   0.00000  -0.05731  -0.05826   2.06594
   A29        2.00305   0.02128   0.00000   0.06460   0.06303   2.06608
   A30        2.12728  -0.00164   0.00000   0.01069   0.01026   2.13754
   A31        2.00721   0.00642   0.00000   0.03345   0.03350   2.04070
   A32        2.12218  -0.00005   0.00000  -0.00914  -0.01035   2.11183
   A33        2.14043  -0.00574   0.00000  -0.01620  -0.01627   2.12415
   A34        2.21977  -0.01805   0.00000  -0.06721  -0.06713   2.15264
   A35        2.02163   0.01277   0.00000   0.03967   0.03903   2.06066
   A36        2.03994   0.00545   0.00000   0.02937   0.02948   2.06941
   A37        2.05930   0.01140   0.00000   0.03313   0.03325   2.09255
   A38        2.15985  -0.01739   0.00000  -0.04373  -0.04395   2.11590
   A39        2.06214   0.00594   0.00000   0.01065   0.01076   2.07290
   A40        2.04085   0.00384   0.00000   0.02584   0.02534   2.06619
   A41        2.01478  -0.02343   0.00000  -0.07327  -0.07347   1.94131
   A42        2.22033   0.01997   0.00000   0.05192   0.05189   2.27223
   A43        1.75873   0.02627   0.00000   0.06831   0.06860   1.82733
    D1        1.17042  -0.00232   0.00000  -0.01639  -0.01612   1.15430
    D2       -0.83381  -0.00208   0.00000  -0.02119  -0.02119  -0.85501
    D3       -3.07947   0.00358   0.00000   0.02290   0.02269  -3.05678
    D4       -0.92407  -0.00263   0.00000  -0.01884  -0.01865  -0.94273
    D5       -2.92831  -0.00239   0.00000  -0.02365  -0.02373  -2.95204
    D6        1.10922   0.00327   0.00000   0.02045   0.02015   1.12937
    D7       -3.01870  -0.00226   0.00000  -0.01591  -0.01561  -3.03432
    D8        1.26025  -0.00202   0.00000  -0.02072  -0.02069   1.23956
    D9       -0.98541   0.00364   0.00000   0.02338   0.02319  -0.96221
   D10        3.13807   0.00030   0.00000  -0.00913  -0.00996   3.12810
   D11        1.16889  -0.00165   0.00000  -0.03051  -0.03057   1.13831
   D12       -1.05173   0.00058   0.00000   0.00284   0.00148  -1.05025
   D13       -1.10949   0.00134   0.00000   0.00650   0.00679  -1.10270
   D14       -3.07867  -0.00061   0.00000  -0.01487  -0.01382  -3.09250
   D15        0.98390   0.00162   0.00000   0.01847   0.01823   1.00213
   D16        0.98145  -0.00046   0.00000   0.00345   0.00376   0.98521
   D17       -0.98773  -0.00241   0.00000  -0.01793  -0.01686  -1.00458
   D18        3.07485  -0.00018   0.00000   0.01541   0.01519   3.09004
   D19       -1.52109  -0.00121   0.00000   0.00217   0.00185  -1.51924
   D20        1.83550  -0.00580   0.00000  -0.06406  -0.06435   1.77115
   D21        0.56225  -0.00029   0.00000   0.01565   0.01521   0.57746
   D22       -2.36435  -0.00487   0.00000  -0.05057  -0.05099  -2.41534
   D23        2.47992   0.00737   0.00000   0.06517   0.06589   2.54581
   D24       -0.44667   0.00279   0.00000  -0.00105  -0.00031  -0.44698
   D25        0.06542  -0.00059   0.00000  -0.01623  -0.01698   0.04844
   D26       -3.06373   0.00155   0.00000   0.00124  -0.00031  -3.06404
   D27        3.01484   0.00326   0.00000   0.04185   0.04143   3.05626
   D28       -0.11432   0.00539   0.00000   0.05932   0.05810  -0.05622
   D29        2.99307   0.00442   0.00000   0.03841   0.03615   3.02922
   D30        0.04501  -0.00170   0.00000  -0.02669  -0.02731   0.01770
   D31        3.06066  -0.00175   0.00000  -0.00569  -0.00463   3.05603
   D32        0.12586  -0.00381   0.00000  -0.05487  -0.05598   0.06988
   D33       -0.06993   0.00014   0.00000   0.00982   0.01025  -0.05968
   D34       -3.00473  -0.00192   0.00000  -0.03936  -0.04110  -3.04583
   D35        0.17754  -0.00561   0.00000  -0.05925  -0.05763   0.11991
   D36        3.06865   0.00141   0.00000   0.02061   0.02073   3.08938
   D37        3.07350   0.00102   0.00000   0.01155   0.01245   3.08595
   D38       -0.31857   0.00804   0.00000   0.09140   0.09081  -0.22776
   D39       -3.12848  -0.00123   0.00000   0.00256   0.00431  -3.12417
   D40       -0.10632   0.00333   0.00000   0.04324   0.04352  -0.06279
   D41        0.20053  -0.00542   0.00000  -0.04762  -0.04620   0.15433
   D42       -3.06049  -0.00086   0.00000  -0.00694  -0.00698  -3.06747
   D43       -3.00726  -0.00309   0.00000  -0.04937  -0.05000  -3.05726
   D44        0.30496  -0.00653   0.00000  -0.09931  -0.10041   0.20455
   D45       -0.11664   0.00134   0.00000   0.01987   0.02137  -0.09526
   D46       -3.08760  -0.00209   0.00000  -0.03007  -0.02904  -3.11663
   D47        3.02261   0.00339   0.00000   0.04137   0.04136   3.06396
   D48       -0.18676   0.00688   0.00000   0.07655   0.07549  -0.11127
   D49        0.06479  -0.00156   0.00000  -0.01733  -0.01640   0.04840
   D50        3.13861   0.00193   0.00000   0.01784   0.01774  -3.12684
   D51        3.13044  -0.00154   0.00000  -0.01831  -0.01882   3.11162
   D52        0.05632  -0.00103   0.00000  -0.01972  -0.02048   0.03583
   D53       -0.07168   0.00058   0.00000   0.00910   0.00971  -0.06197
   D54        3.13738   0.00109   0.00000   0.00769   0.00804  -3.13776
   D55       -0.05976  -0.00106   0.00000   0.00235   0.00343  -0.05633
   D56       -3.06583  -0.00265   0.00000  -0.03374  -0.03416  -3.09999
   D57       -3.13378  -0.00074   0.00000   0.00014   0.00094  -3.13284
   D58        0.14333  -0.00234   0.00000  -0.03596  -0.03665   0.10668
   D59        0.03993  -0.00135   0.00000  -0.01246  -0.01182   0.02811
   D60        3.04774   0.00199   0.00000   0.02962   0.02955   3.07729
         Item               Value     Threshold  Converged?
 Maximum Force            0.047732     0.000450     NO 
 RMS     Force            0.010617     0.000300     NO 
 Maximum Displacement     0.175023     0.001800     NO 
 RMS     Displacement     0.053748     0.001200     NO 
 Predicted change in Energy=-2.620751D-02
 Lowest energy point so far.  Saving SCF results.
 GradGradGradGradGradGradGradGradGradGradGradGradGradGradGradGradGradGrad

 Leave Link  103 at Sun Jul 11 16:25:30 2021, MaxMem=   104857600 cpu:               0.1 elap:               0.0
 (Enter /prod/apps/gaussian/g16b1/l202.exe)
                          Input orientation:                          
 ---------------------------------------------------------------------
 Center     Atomic      Atomic             Coordinates (Angstroms)
 Number     Number       Type             X           Y           Z
 ---------------------------------------------------------------------
      1          7           0        1.800748    2.423762   -1.703662
      2          1           0        1.802012    3.285115   -2.262341
      3          1           0        0.972786    1.881637   -1.960169
      4          6           0        1.800531    2.724132   -0.238478
      5          1           0        0.846475    3.203602   -0.008301
      6          1           0        2.580766    3.456281   -0.037343
      7          6           0        1.920079    1.433415    0.578801
      8          1           0        1.928306    1.720500    1.635516
      9          1           0        2.882568    0.937204    0.422302
     10          6           0        0.819958    0.423490    0.379618
     11          6           0       -0.369494    0.397745    1.067068
[...]
                 (A) (A) (A) (A) (A) (A) (A) (A) (A) (A) (A) (A)
                 (A) (A) (A) (A) (A) (A) (A) (A) (A) (A) (A) (A)
                 (A) (A) (A) (A) (A) (A) (A) (A) (A) (A) (A) (A)
                 (A) (A) (A) (A) (A) (A) (A) (A) (A) (A) (A) (A)
                 (A) (A) (A) (A) (A) (A) (A) (A) (A) (A) (A) (A)
                 (A) (A) (A) (A) (A) (A) (A) (A) (A) (A) (A) (A)
                 (A) (A) (A) (A) (A) (A) (A) (A) (A) (A) (A) (A)
                 (A) (A) (A) (A) (A) (A) (A) (A) (A) (A) (A) (A)
                 (A) (A) (A) (A) (A) (A) (A) (A) (A) (A) (A) (A)
                 (A) (A) (A) (A) (A) (A) (A) (A) (A) (A) (A) (A)
                 (A) (A) (A) (A) (A) (A) (A) (A) (A) (A) (A) (A)
                 (A) (A) (A) (A) (A) (A) (A) (A) (A) (A) (A) (A)
                 (A) (A) (A) (A) (A) (A) (A) (A) (A) (A) (A) (A)
                 (A) (A) (A) (A) (A) (A) (A) (A) (A) (A) (A) (A)
                 (A) (A) (A) (A) (A) (A) (A) (A) (A) (A) (A) (A)
                 (A) (A) (A) (A) (A) (A) (A) (A) (A) (A) (A) (A)
                 (A) (A) (A) (A) (A) (A) (A) (A) (A) (A) (A) (A)
                 (A) (A) (A) (A) (A) (A) (A) (A) (A) (A) (A) (A)
                 (A) (A) (A) (A) (A) (A) (A) (A) (A) (A) (A) (A)
                 (A) (A) (A) (A) (A) (A) (A) (A) (A) (A) (A) (A)
                 (A) (A) (A) (A) (A) (A) (A) (A) (A) (A) (A) (A)
                 (A) (A) (A) (A) (A) (A) (A) (A) (A) (A) (A) (A)
                 (A) (A) (A) (A) (A) (A) (A) (A) (A) (A) (A) (A)
                 (A) (A) (A) (A) (A) (A) (A) (A) (A) (A) (A) (A)
                 (A) (A) (A) (A) (A) (A) (A) (A) (A) (A) (A) (A)
                 (A) (A) (A) (A) (A)
 The electronic state is 1-A.
 Alpha  occ. eigenvalues --  -15.84968 -15.77749 -15.68506 -11.45726 -11.44217
 Alpha  occ. eigenvalues --  -11.41624 -11.40287 -11.39821 -11.38870 -11.37658
 Alpha  occ. eigenvalues --  -11.36567 -11.36182  -1.48935  -1.46415  -1.34181
 Alpha  occ. eigenvalues --   -1.24116  -1.21244  -1.14404  -1.12335  -1.04551
 Alpha  occ. eigenvalues --   -0.98463  -0.96529  -0.93194  -0.91795  -0.90861
 Alpha  occ. eigenvalues --   -0.83567  -0.81737  -0.80440  -0.78709  -0.75993
 Alpha  occ. eigenvalues --   -0.75236  -0.74560  -0.73283  -0.69735  -0.69106
 Alpha  occ. eigenvalues --   -0.67151  -0.65599  -0.64215  -0.59263  -0.57977
 Alpha  occ. eigenvalues --   -0.55677  -0.44865  -0.41260
 Alpha virt. eigenvalues --   -0.08842  -0.06184  -0.05978  -0.05135  -0.03838
 Alpha virt. eigenvalues --   -0.03583  -0.03467  -0.02951  -0.02462  -0.01748
 Alpha virt. eigenvalues --   -0.01509  -0.00603   0.00128   0.00506   0.00912
 Alpha virt. eigenvalues --    0.01282   0.01694   0.02332   0.02989   0.03725
 Alpha virt. eigenvalues --    0.03976   0.04383   0.04765   0.04940   0.05698
 Alpha virt. eigenvalues --    0.05925   0.06130   0.06567   0.07026   0.07057
 Alpha virt. eigenvalues --    0.07234   0.07378   0.07539   0.08124   0.08416
 Alpha virt. eigenvalues --    0.09306   0.09611   0.10469   0.11181   0.11407
 Alpha virt. eigenvalues --    0.11598   0.11874   0.12480   0.12688   0.12955
 Alpha virt. eigenvalues --    0.14109   0.14666   0.14868   0.15094   0.16326
 Alpha virt. eigenvalues --    0.17140   0.18435   0.19020   0.19525   0.20128
 Alpha virt. eigenvalues --    0.20428   0.20625   0.21000   0.21642   0.22448
 Alpha virt. eigenvalues --    0.22952   0.23194   0.23369   0.23754   0.24485
 Alpha virt. eigenvalues --    0.24992   0.25270   0.25826   0.26648   0.27325
 Alpha virt. eigenvalues --    0.27638   0.28493   0.29115   0.29322   0.30009
 Alpha virt. eigenvalues --    0.30875   0.31386   0.31653   0.32256   0.32606
 Alpha virt. eigenvalues --    0.33490   0.33651   0.34482   0.34833   0.35023
 Alpha virt. eigenvalues --    0.35904   0.36613   0.36647   0.37419   0.38086
 Alpha virt. eigenvalues --    0.38410   0.38767   0.39641   0.40402   0.40799
 Alpha virt. eigenvalues --    0.41510   0.42363   0.43302   0.43846   0.44105
 Alpha virt. eigenvalues --    0.44653   0.45400   0.45640   0.46513   0.47241
 Alpha virt. eigenvalues --    0.47718   0.48454   0.48863   0.48923   0.50350
 Alpha virt. eigenvalues --    0.50848   0.51241   0.52150   0.52499   0.53220
 Alpha virt. eigenvalues --    0.54202   0.54659   0.55595   0.56009   0.56396
 Alpha virt. eigenvalues --    0.56687   0.57749   0.57784   0.58090   0.58440
 Alpha virt. eigenvalues --    0.60138   0.60728   0.61080   0.62002   0.62104
 Alpha virt. eigenvalues --    0.63087   0.63409   0.63834   0.64980   0.65528
 Alpha virt. eigenvalues --    0.65668   0.66059   0.66607   0.67184   0.67871
 Alpha virt. eigenvalues --    0.69375   0.70493   0.70861   0.71352   0.72886
 Alpha virt. eigenvalues --    0.73587   0.73975   0.74299   0.74914   0.75448
 Alpha virt. eigenvalues --    0.76626   0.77612   0.77858   0.78638   0.79481
 Alpha virt. eigenvalues --    0.80008   0.80828   0.82306   0.82586   0.82759
 Alpha virt. eigenvalues --    0.83483   0.83784   0.84864   0.85183   0.85730
 Alpha virt. eigenvalues --    0.87747   0.88219   0.88955   0.89550   0.90236
 Alpha virt. eigenvalues --    0.91383   0.93031   0.93564   0.93927   0.94592
 Alpha virt. eigenvalues --    0.95760   0.96719   0.99210   1.00147   1.01076
 Alpha virt. eigenvalues --    1.01405   1.03031   1.03964   1.04351   1.05607
 Alpha virt. eigenvalues --    1.07501   1.07947   1.09302   1.10894   1.12467
 Alpha virt. eigenvalues --    1.14676   1.15227   1.16354   1.19402   1.21140
 Alpha virt. eigenvalues --    1.23037   1.23821   1.25784   1.27688   1.28769
 Alpha virt. eigenvalues --    1.31534   1.31967   1.32030   1.35200   1.36851
 Alpha virt. eigenvalues --    1.39914   1.41638   1.43985   1.45220   1.45740
 Alpha virt. eigenvalues --    1.47617   1.48917   1.49288   1.50840   1.51557
 Alpha virt. eigenvalues --    1.52008   1.52356   1.53035   1.54705   1.54837
 Alpha virt. eigenvalues --    1.56547   1.58106   1.59606   1.61183   1.62436
 Alpha virt. eigenvalues --    1.63319   1.64069   1.66087   1.67618   1.68285
 Alpha virt. eigenvalues --    1.68988   1.69211   1.70106   1.71739   1.73910
 Alpha virt. eigenvalues --    1.75568   1.76679   1.77190   1.79377   1.80704
 Alpha virt. eigenvalues --    1.81980   1.82373   1.82842   1.83030   1.84868
 Alpha virt. eigenvalues --    1.86689   1.88204   1.88943   1.91303   1.91811
 Alpha virt. eigenvalues --    1.92450   1.93240   1.93569   1.95393   1.97807
 Alpha virt. eigenvalues --    1.98249   2.00691   2.01508   2.02004   2.03307
 Alpha virt. eigenvalues --    2.06081   2.06798   2.07434   2.08480   2.10136
 Alpha virt. eigenvalues --    2.11196   2.13571   2.13880   2.16616   2.17042
 Alpha virt. eigenvalues --    2.18237   2.18564   2.19517   2.21707   2.23503
 Alpha virt. eigenvalues --    2.23798   2.24399   2.25469   2.28073   2.29578
 Alpha virt. eigenvalues --    2.31309   2.32934   2.33877   2.34855   2.36863
 Alpha virt. eigenvalues --    2.38234   2.39193   2.40462   2.42727   2.43830
 Alpha virt. eigenvalues --    2.46856   2.47758   2.49640   2.52617   2.53874
 Alpha virt. eigenvalues --    2.55145   2.57126   2.58888   2.60205   2.61781
 Alpha virt. eigenvalues --    2.65865   2.66461   2.67424   2.69858   2.70396
 Alpha virt. eigenvalues --    2.71848   2.74845   2.75620   2.77356   2.78755
 Alpha virt. eigenvalues --    2.79503   2.81582   2.82613   2.83259   2.85793
 Alpha virt. eigenvalues --    2.86215   2.89130   2.93792   2.96119   2.98023
 Alpha virt. eigenvalues --    3.00041   3.02066   3.04050   3.07170   3.09478
 Alpha virt. eigenvalues --    3.13112   3.13414   3.22727   3.24750   3.30517
 Alpha virt. eigenvalues --    3.36998   3.39227   3.40878   3.47387   3.49213
 Alpha virt. eigenvalues --    3.57091   3.58188   3.69380   3.86712   4.15801
 Alpha virt. eigenvalues --    4.47689
          Condensed to atoms (all electrons):
               1          2          3          4          5          6
     1  N    6.499572   0.408742   0.401960  -0.044609  -0.059874  -0.124117
     2  H    0.408742   0.610357  -0.076538  -0.043977  -0.044926   0.002644
     3  H    0.401960  -0.076538   0.474600  -0.033899   0.001152   0.007269
     4  C   -0.044609  -0.043977  -0.033899   4.555113   0.184213   0.344985
     5  H   -0.059874  -0.044926   0.001152   0.184213   1.265884  -0.210408
     6  H   -0.124117   0.002644   0.007269   0.344985  -0.210408   1.222703
     7  C    0.010614   0.058042  -0.029175   0.482844  -0.066557  -0.131483
     8  H   -0.001772   0.001491  -0.005261   0.075847  -0.053949  -0.032412
     9  H    0.040158  -0.005062   0.010022  -0.250050   0.064372  -0.046928
    10  C    0.093360  -0.029091  -0.012749  -0.242853   0.020946   0.115163
    11  C   -0.008252  -0.006448   0.031794   0.016777   0.052742  -0.023737
    12  H    0.003380  -0.000577   0.003712  -0.015285   0.002779  -0.000042
    13  N   -0.011571   0.000785  -0.001525   0.002343   0.000244   0.001199
    14  C   -0.006206   0.000788  -0.005244   0.003578   0.001646  -0.001794
    15  H   -0.000975  -0.000010  -0.000394   0.002196  -0.000101   0.000175
    16  C    0.000471  -0.000551   0.004775   0.004346   0.000482   0.000065
    17  H    0.000148   0.000004   0.000078  -0.000235   0.000045  -0.000017
    18  C    0.002406   0.000529  -0.006894  -0.004129  -0.001582   0.000550
    19  H   -0.000390  -0.000044   0.001045   0.000323  -0.000027   0.000020
    20  C    0.038683  -0.004785   0.004056  -0.063006  -0.005842   0.001651
    21  H    0.003908  -0.000021  -0.007936  -0.000460   0.000358   0.000199
    22  C   -0.113222   0.002652  -0.027953   0.015196  -0.009447   0.032518
    23  N   -0.071884   0.003753   0.049578   0.083677  -0.020155   0.014551
    24  H    0.373443  -0.061340  -0.036758  -0.014600   0.019448  -0.033000
               7          8          9         10         11         12
     1  N    0.010614  -0.001772   0.040158   0.093360  -0.008252   0.003380
     2  H    0.058042   0.001491  -0.005062  -0.029091  -0.006448  -0.000577
     3  H   -0.029175  -0.005261   0.010022  -0.012749   0.031794   0.003712
     4  C    0.482844   0.075847  -0.250050  -0.242853   0.016777  -0.015285
     5  H   -0.066557  -0.053949   0.064372   0.020946   0.052742   0.002779
     6  H   -0.131483  -0.032412  -0.046928   0.115163  -0.023737  -0.000042
     7  C    5.810391  -0.049272   0.352794  -0.355807   0.037864   0.024881
     8  H   -0.049272   1.135984  -0.188699   0.250842  -0.254468  -0.004325
     9  H    0.352794  -0.188699   0.958192  -0.049949   0.166676   0.013108
    10  C   -0.355807   0.250842  -0.049949   7.943457  -2.246632   0.097746
    11  C    0.037864  -0.254468   0.166676  -2.246632   9.684165  -0.399267
    12  H    0.024881  -0.004325   0.013108   0.097746  -0.399267   1.525866
    13  N   -0.034961   0.020277  -0.000404   0.387784  -0.112859   0.012747
    14  C   -0.025942  -0.006583   0.004507  -0.099032  -0.612148   0.093582
    15  H    0.009676   0.002250  -0.000916  -0.058223   0.027000  -0.056148
    16  C    0.058819  -0.002905   0.002663  -0.128401   0.228222  -0.030585
    17  H    0.000281  -0.000026   0.000148   0.009365   0.016216  -0.000847
    18  C   -0.033345   0.000525  -0.002504  -0.221488   0.057114   0.035870
    19  H    0.000315   0.000043   0.000015   0.017757  -0.013499   0.001173
    20  C   -0.099725   0.012172  -0.006723   0.643443  -1.052434  -0.040000
    21  H   -0.003639  -0.000029   0.000427  -0.076159   0.101699   0.002603
    22  C   -0.265448   0.049860  -0.059809  -0.250105  -0.964637   0.153751
    23  N   -0.025341   0.018346  -0.058119   0.109217   0.125965   0.021438
    24  H   -0.020964   0.005475  -0.000537   0.012738  -0.009717  -0.000558
              13         14         15         16         17         18
     1  N   -0.011571  -0.006206  -0.000975   0.000471   0.000148   0.002406
     2  H    0.000785   0.000788  -0.000010  -0.000551   0.000004   0.000529
     3  H   -0.001525  -0.005244  -0.000394   0.004775   0.000078  -0.006894
     4  C    0.002343   0.003578   0.002196   0.004346  -0.000235  -0.004129
     5  H    0.000244   0.001646  -0.000101   0.000482   0.000045  -0.001582
     6  H    0.001199  -0.001794   0.000175   0.000065  -0.000017   0.000550
     7  C   -0.034961  -0.025942   0.009676   0.058819   0.000281  -0.033345
     8  H    0.020277  -0.006583   0.002250  -0.002905  -0.000026   0.000525
     9  H   -0.000404   0.004507  -0.000916   0.002663   0.000148  -0.002504
    10  C    0.387784  -0.099032  -0.058223  -0.128401   0.009365  -0.221488
    11  C   -0.112859  -0.612148   0.027000   0.228222   0.016216   0.057114
    12  H    0.012747   0.093582  -0.056148  -0.030585  -0.000847   0.035870
    13  N    8.018902  -0.012753  -0.104898  -0.184660   0.054320  -0.346069
    14  C   -0.012753   7.182541  -0.291470  -1.367605   0.248267   0.731255
    15  H   -0.104898  -0.291470   1.732685   0.337819  -0.070004   0.006865
    16  C   -0.184660  -1.367605   0.337819   7.588789  -0.571807  -1.210292
    17  H    0.054320   0.248267  -0.070004  -0.571807   1.609859   0.282781
    18  C   -0.346069   0.731255   0.006865  -1.210292   0.282781   7.666656
    19  H   -0.009669  -0.126216  -0.010499   0.301705  -0.062685  -0.449893
    20  C    0.142529  -0.534853   0.030077   1.123090  -0.078552  -1.441491
    21  H    0.038403   0.041141  -0.000929  -0.150274  -0.009044   0.295748
    22  C    0.060329   0.129556  -0.052752  -0.808187  -0.007409   0.640891
    23  N   -0.189642  -0.078044  -0.013131   0.049621   0.006056  -0.008087
    24  H    0.001511   0.000406   0.000079  -0.000096  -0.000009   0.000764
              19         20         21         22         23         24
     1  N   -0.000390   0.038683   0.003908  -0.113222  -0.071884   0.373443
     2  H   -0.000044  -0.004785  -0.000021   0.002652   0.003753  -0.061340
     3  H    0.001045   0.004056  -0.007936  -0.027953   0.049578  -0.036758
     4  C    0.000323  -0.063006  -0.000460   0.015196   0.083677  -0.014600
     5  H   -0.000027  -0.005842   0.000358  -0.009447  -0.020155   0.019448
     6  H    0.000020   0.001651   0.000199   0.032518   0.014551  -0.033000
     7  C    0.000315  -0.099725  -0.003639  -0.265448  -0.025341  -0.020964
     8  H    0.000043   0.012172  -0.000029   0.049860   0.018346   0.005475
     9  H    0.000015  -0.006723   0.000427  -0.059809  -0.058119  -0.000537
    10  C    0.017757   0.643443  -0.076159  -0.250105   0.109217   0.012738
    11  C   -0.013499  -1.052434   0.101699  -0.964637   0.125965  -0.009717
    12  H    0.001173  -0.040000   0.002603   0.153751   0.021438  -0.000558
    13  N   -0.009669   0.142529   0.038403   0.060329  -0.189642   0.001511
    14  C   -0.126216  -0.534853   0.041141   0.129556  -0.078044   0.000406
    15  H   -0.010499   0.030077  -0.000929  -0.052752  -0.013131   0.000079
    16  C    0.301705   1.123090  -0.150274  -0.808187   0.049621  -0.000096
    17  H   -0.062685  -0.078552  -0.009044  -0.007409   0.006056  -0.000009
    18  C   -0.449893  -1.441491   0.295748   0.640891  -0.008087   0.000764
    19  H    1.527293   0.297653  -0.065882   0.017163  -0.012043  -0.000001
    20  C    0.297653   9.654110  -0.990061  -3.045390  -0.054833   0.005574
    21  H   -0.065882  -0.990061   1.725754   0.708169  -0.102460   0.000464
    22  C    0.017163  -3.045390   0.708169  10.170376   0.158296  -0.005005
    23  N   -0.012043  -0.054833  -0.102460   0.158296   7.927728  -0.016666
    24  H   -0.000001   0.005574   0.000464  -0.005005  -0.016666   0.536673
 Mulliken charges:
               1
     1  N   -0.433972
     2  H    0.183583
     3  H    0.254286
     4  C    0.941666
     5  H   -0.141442
     6  H   -0.139754
     7  C    0.295137
     8  H    0.026590
     9  H    0.056617
    10  C    0.068669
    11  C    1.157863
    12  H   -0.445000
    13  N   -0.732363
    14  C    0.730624
    15  H   -0.488371
    16  C    0.754495
    17  H   -0.426934
    18  C    0.003822
    19  H   -0.413656
    20  C    1.464657
    21  H   -0.511980
    22  C   -0.529393
    23  N   -0.917821
    24  H    0.242677
 Sum of Mulliken charges =   1.00000
 Mulliken charges with hydrogens summed into heavy atoms:
               1
     1  N    0.246573
     4  C    0.660470
     7  C    0.378344
    10  C    0.068669
    11  C    0.712863
    13  N   -0.732363
    14  C    0.242254
    16  C    0.327561
    18  C   -0.409834
    20  C    0.952677
    22  C   -0.529393
    23  N   -0.917821
 Electronic spatial extent (au):  <R**2>=           2316.1357
 Charge=              1.0000 electrons
 Dipole moment (field-independent basis, Debye):
    X=             -8.1335    Y=             -1.9299    Z=              0.7878  Tot=              8.3964
 Quadrupole moment (field-independent basis, Debye-Ang):
   XX=             -6.5205   YY=            -50.3172   ZZ=            -71.5851
   XY=             12.2365   XZ=             -0.1256   YZ=              0.1266
 Traceless Quadrupole moment (field-independent basis, Debye-Ang):
   XX=             36.2871   YY=             -7.5096   ZZ=            -28.7775
   XY=             12.2365   XZ=             -0.1256   YZ=              0.1266
 Octapole moment (field-independent basis, Debye-Ang**2):
  XXX=           -122.2081  YYY=            -10.2403  ZZZ=              1.0241  XYY=            -20.5709
  XXY=            -50.8444  XXZ=              8.2220  XZZ=            -25.8918  YZZ=             -4.5488
  YYZ=              3.0707  XYZ=              3.0236
 Hexadecapole moment (field-independent basis, Debye-Ang**3):
 XXXX=          -1489.7935 YYYY=           -472.4240 ZZZZ=           -115.3386 XXXY=            177.1065
 XXXZ=             10.4585 YYYX=             68.6701 YYYZ=              1.7523 ZZZX=             -3.7672
 ZZZY=             -1.1701 XXYY=           -325.6652 XXZZ=           -405.0147 YYZZ=           -122.2736
 XXYZ=              1.3306 YYXZ=             -5.3357 ZZXY=             22.1911
 N-N= 6.821517460395D+02 E-N=-2.542873884886D+03  KE= 5.102968305709D+02
 Leave Link  601 at Sun Jul 11 16:47:54 2021, MaxMem=   262144000 cpu:               1.3 elap:               0.5
 (Enter /prod/apps/gaussian/g16b1/l9999.exe)
 1\1\GINC-PIRINEUS47\SP\RMP2-FC\Aug-CC-pVDZ\C9H12N3(1+)\UBATOR02\11-Jul
 -2021\0\\#p mp2/aug-cc-pVDZ scf=tight maxdisk=180GB geom=allcheck\\SET
 _328_BBB315_conf1.geo_300_105 geometry\\1,1\N,0,2.2013249318,1.8302426
 18,-1.6960361235\H,0,2.1080099186,2.3408327482,-2.5906998998\H,0,1.635
 7904707,0.9487643967,-1.7321662108\C,0,1.7167023687,2.6493091041,-0.53
 24515686\H,0,0.7405711348,3.04501489,-0.8144920093\H,0,2.412876277,3.4
 758301108,-0.3997188373\C,0,1.6256671072,1.7811564114,0.7242789144\H,0
 ,1.3523451104,2.4261407702,1.5628190438\H,0,2.6201401043,1.3769992091,
 0.9521642475\C,0,0.62873052,0.66632116,0.5888209688\C,0,-0.3151688442,
 0.2458455929,1.4982384494\H,0,-0.572050265,0.5894427893,2.4867370073\N
 ,0,-0.9745907766,-0.8082747464,0.8947307607\C,0,-2.0035718071,-1.59875
 65089,1.3431667865\H,0,-2.3775594837,-1.3857938021,2.3342121681\C,0,-2
 .487717267,-2.5859954983,0.5314505961\H,0,-3.2991171433,-3.2068851038,
 0.8883248434\C,0,-1.9312273911,-2.7907571023,-0.7616790466\H,0,-2.3255
 022345,-3.577714091,-1.3937739235\C,0,-0.9010827818,-1.9988946719,-1.2
 100392305\H,0,-0.455797571,-2.128762505,-2.1884957786\C,0,-0.401047824
 7,-0.979401255,-0.3709821302\N,0,0.5765919593,-0.0880321585,-0.5594250
 664\H,0,3.1916834873,1.5693676427,-1.5839839609\\Version=ES64L-G16RevB
 .01\State=1-A\HF=-511.0124992\MP2=-512.7681191\RMSD=3.403e-09\PG=C01 [
 X(C9H12N3)]\\@


 SEEN ON A WALL AT THE UNIVERSITY OF ILLINOIS AT CHICAGO CIRCLE:

 TO DO IS TO BE  -- SOCRATES
 TO BE IS TO DO  -- SARTRE
 OO BE DO BE DO  -- SINATRA
 Job cpu time:       0 days  0 hours 27 minutes  3.5 seconds.
 Elapsed time:       0 days  0 hours  7 minutes  1.9 seconds.
 File lengths (MBytes):  RWF=  16292 Int=      0 D2E=      0 Chk=     13 Scr=      1
 Normal termination of Gaussian 16 at Sun Jul 11 16:48:17 2021.
