 Entering Gaussian System, Link 0=g16
 Initial command:
 /prod/apps/gaussian/g16b1/l1.exe "/tmp/ubator02/1834572/Gau-99245.inp" -scrdir="/tmp/ubator02/1834572/"
 Entering Link 1 = /prod/apps/gaussian/g16b1/l1.exe PID=     99246.
  
 Copyright (c) 1988-2017, Gaussian, Inc.  All Rights Reserved.
  
 This is part of the Gaussian(R) 16 program.  It is based on
 the Gaussian(R) 09 system (copyright 2009, Gaussian, Inc.),
 the Gaussian(R) 03 system (copyright 2003, Gaussian, Inc.),
 the Gaussian(R) 98 system (copyright 1998, Gaussian, Inc.),
 the Gaussian(R) 94 system (copyright 1995, Gaussian, Inc.),
 the Gaussian 92(TM) system (copyright 1992, Gaussian, Inc.),
 the Gaussian 90(TM) system (copyright 1990, Gaussian, Inc.),
 the Gaussian 88(TM) system (copyright 1988, Gaussian, Inc.),
 the Gaussian 86(TM) system (copyright 1986, Carnegie Mellon
 University), and the Gaussian 82(TM) system (copyright 1983,
 Carnegie Mellon University). Gaussian is a federally registered
 trademark of Gaussian, Inc.
  
 This software contains proprietary and confidential information,
 including trade secrets, belonging to Gaussian, Inc.
  
 This software is provided under written license and may be
 used, copied, transmitted, or stored only in accord with that
 written license.
  
 The following legend is applicable only to US Government
 contracts under FAR:
  
                    RESTRICTED RIGHTS LEGEND
  
 Use, reproduction and disclosure by the US Government is
 subject to restrictions as set forth in subparagraphs (a)
 and (c) of the Commercial Computer Software - Restricted
 Rights clause in FAR 52.227-19.
  
 Gaussian, Inc.
 340 Quinnipiac St., Bldg. 40, Wallingford CT 06492
  
  
 ---------------------------------------------------------------
 Warning -- This program may not be used in any manner that
 competes with the business of Gaussian, Inc. or will provide
 assistance to any competitor of Gaussian, Inc.  The licensee
 of this program is prohibited from giving any competitor of
 Gaussian, Inc. access to this program.  By using this program,
 the user acknowledges that Gaussian, Inc. is engaged in the
 business of creating and licensing software in the field of
 computational chemistry and represents and warrants to the
 licensee that it is not a competitor of Gaussian, Inc. and that
 it will not use this program in any manner prohibited above.
 ---------------------------------------------------------------
  

 Cite this work as:
 Gaussian 16, Revision B.01,
 M. J. Frisch, G. W. Trucks, H. B. Schlegel, G. E. Scuseria, 
 M. A. Robb, J. R. Cheeseman, G. Scalmani, V. Barone, 
 G. A. Petersson, H. Nakatsuji, X. Li, M. Caricato, A. V. Marenich, 
 J. Bloino, B. G. Janesko, R. Gomperts, B. Mennucci, H. P. Hratchian, 
 J. V. Ortiz, A. F. Izmaylov, J. L. Sonnenberg, D. Williams-Young, 
 F. Ding, F. Lipparini, F. Egidi, J. Goings, B. Peng, A. Petrone, 
 T. Henderson, D. Ranasinghe, V. G. Zakrzewski, J. Gao, N. Rega, 
 G. Zheng, W. Liang, M. Hada, M. Ehara, K. Toyota, R. Fukuda, 
 J. Hasegawa, M. Ishida, T. Nakajima, Y. Honda, O. Kitao, H. Nakai, 
 T. Vreven, K. Throssell, J. A. Montgomery, Jr., J. E. Peralta, 
 F. Ogliaro, M. J. Bearpark, J. J. Heyd, E. N. Brothers, K. N. Kudin, 
 V. N. Staroverov, T. A. Keith, R. Kobayashi, J. Normand, 
 K. Raghavachari, A. P. Rendell, J. C. Burant, S. S. Iyengar, 
 J. Tomasi, M. Cossi, J. M. Millam, M. Klene, C. Adamo, R. Cammi, 
 J. W. Ochterski, R. L. Martin, K. Morokuma, O. Farkas, 
 J. B. Foresman, and D. J. Fox, Gaussian, Inc., Wallingford CT, 2016.
 
 ******************************************
 Gaussian 16:  ES64L-G16RevB.01 20-Dec-2017
                11-Jul-2021 
 ******************************************
 %mem=800MB
 %nproc=4
 Will use up to    4 processors via shared memory.
 %chk=SET_328_BBB299_conf1.geo_165_180.chk
 -----------------------------------------------------------
 #p b3lyp/6-31G(d) opt freq scrf=(iefpcm,read,solvent=water)
 -----------------------------------------------------------
 1/18=20,19=15,26=3,38=1,40=2/1,3;
 2/9=110,12=2,17=6,18=5,40=1/2;
 3/5=1,6=6,7=1,11=2,25=1,30=1,70=2203,71=1,72=1,74=-5/1,2,3;
 4//1;
 5/5=2,38=5,53=1/2;
 6/7=2,8=2,9=2,10=2,28=1/1;
 7//1,2,3,16;
 1/18=20,19=15,26=3/3(2);
 2/9=110/2;
 99//99;
 2/9=110/2;
 3/5=1,6=6,7=1,11=2,25=1,30=1,70=2205,71=1,72=1,74=-5/1,2,3;
 4/5=5,16=3,69=1/1;
 5/5=2,38=5,53=1/2;
 7//1,2,3,16;
 1/18=20,19=15,26=3/3(-5);
 2/9=110/2;
 6/7=2,8=2,9=2,10=2,19=2,28=1/1;
 99/9=1/99;
 Leave Link    1 at Sun Jul 11 16:10:14 2021, MaxMem=   104857600 cpu:               0.1 elap:               0.0
 (Enter /prod/apps/gaussian/g16b1/l101.exe)
 -----------------------------------------
 SET_328_BBB299_conf1.geo_165_180 geometry
 -----------------------------------------
 Symbolic Z-matrix:
 Charge = -1 Multiplicity = 1
 O                     1.518    -1.803    -1.834 
 C                     1.134    -1.667    -0.641 
 O                     1.402    -2.559     0.076 
 C                     0.347    -0.462    -0.24 
 C                    -0.356    -0.374     0.959 
 O                    -0.45     -1.386     1.913 
 H                    -1.004    -0.986     2.608 
 C                    -1.159     0.779     1.153 
 H                    -1.835     0.867     2. 
 C                    -1.093     1.895     0.358 
 H                    -1.743     2.755     0.497 
 C                    -0.255     1.788    -0.761 
 H                    -0.162     2.638    -1.431 
 C                     0.536     0.663    -1.029 
 H                     1.291     0.579    -1.807 
 
 ITRead=  0  0  0  0  0  0  0  0  0  0  0  0  0  0  0
 MicOpt= -1 -1 -1 -1 -1 -1 -1 -1 -1 -1 -1 -1 -1 -1 -1
 NAtoms=     15 NQM=       15 NQMF=       0 NMMI=      0 NMMIF=      0
                NMic=       0 NMicF=      0.
                    Isotopes and Nuclear Properties:
 (Nuclear quadrupole moments (NQMom) in fm**2, nuclear magnetic moments (NMagM)
  in nuclear magnetons)

  Atom         1           2           3           4           5           6           7           8           9          10
 IAtWgt=          16          12          16          12          12          16           1          12           1          12
 AtmWgt=  15.9949146  12.0000000  15.9949146  12.0000000  12.0000000  15.9949146   1.0078250  12.0000000   1.0078250  12.0000000
 NucSpn=           0           0           0           0           0           0           1           0           1           0
 AtZEff=  -0.0000000  -0.0000000  -0.0000000  -0.0000000  -0.0000000  -0.0000000  -0.0000000  -0.0000000  -0.0000000  -0.0000000
 NQMom=    0.0000000   0.0000000   0.0000000   0.0000000   0.0000000   0.0000000   0.0000000   0.0000000   0.0000000   0.0000000
 NMagM=    0.0000000   0.0000000   0.0000000   0.0000000   0.0000000   0.0000000   2.7928460   0.0000000   2.7928460   0.0000000
 AtZNuc=   8.0000000   6.0000000   8.0000000   6.0000000   6.0000000   8.0000000   1.0000000   6.0000000   1.0000000   6.0000000

  Atom        11          12          13          14          15
 IAtWgt=           1          12           1          12           1
 AtmWgt=   1.0078250  12.0000000   1.0078250  12.0000000   1.0078250
 NucSpn=           1           0           1           0           1
 AtZEff=  -0.0000000  -0.0000000  -0.0000000  -0.0000000  -0.0000000
 NQMom=    0.0000000   0.0000000   0.0000000   0.0000000   0.0000000
 NMagM=    2.7928460   0.0000000   2.7928460   0.0000000   2.7928460
 AtZNuc=   1.0000000   6.0000000   1.0000000   6.0000000   1.0000000
 Leave Link  101 at Sun Jul 11 16:10:14 2021, MaxMem=   104857600 cpu:               0.5 elap:               0.1
 (Enter /prod/apps/gaussian/g16b1/l103.exe)

 GradGradGradGradGradGradGradGradGradGradGradGradGradGradGradGradGradGrad
 Berny optimization.
 Initialization pass.
                           ----------------------------
                           !    Initial Parameters    !
                           ! (Angstroms and Degrees)  !
 --------------------------                            --------------------------
 ! Name  Definition              Value          Derivative Info.                !
 --------------------------------------------------------------------------------
 ! R1    R(1,2)                  1.2606         estimate D2E/DX2                !
 ! R2    R(2,3)                  1.1754         estimate D2E/DX2                !
 ! R3    R(2,4)                  1.4941         estimate D2E/DX2                !
 ! R4    R(4,5)                  1.3927         estimate D2E/DX2                !
 ! R5    R(4,14)                 1.387          estimate D2E/DX2                !
 ! R6    R(5,6)                  1.3939         estimate D2E/DX2                !
 ! R7    R(5,8)                  1.4184         estimate D2E/DX2                !
 ! R8    R(6,7)                  0.9746         estimate D2E/DX2                !
 ! R9    R(8,9)                  1.0873         estimate D2E/DX2                !
 ! R10   R(8,10)                 1.3718         estimate D2E/DX2                !
 ! R11   R(10,11)                1.0869         estimate D2E/DX2                !
 ! R12   R(10,12)                1.4021         estimate D2E/DX2                !
 ! R13   R(12,13)                1.0863         estimate D2E/DX2                !
 ! R14   R(12,14)                1.4011         estimate D2E/DX2                !
 ! R15   R(14,15)                1.0874         estimate D2E/DX2                !
 ! A1    A(1,2,3)              115.2109         estimate D2E/DX2                !
 ! A2    A(1,2,4)              120.0968         estimate D2E/DX2                !
 ! A3    A(3,2,4)              124.642          estimate D2E/DX2                !
 ! A4    A(2,4,5)              123.2252         estimate D2E/DX2                !
 ! A5    A(2,4,14)             115.4492         estimate D2E/DX2                !
 ! A6    A(5,4,14)             120.4817         estimate D2E/DX2                !
 ! A7    A(4,5,6)              125.2661         estimate D2E/DX2                !
 ! A8    A(4,5,8)              117.0579         estimate D2E/DX2                !
 ! A9    A(6,5,8)              117.282          estimate D2E/DX2                !
 ! A10   A(5,6,7)              103.2028         estimate D2E/DX2                !
 ! A11   A(5,8,9)              121.6235         estimate D2E/DX2                !
 ! A12   A(5,8,10)             123.6974         estimate D2E/DX2                !
 ! A13   A(9,8,10)             114.5531         estimate D2E/DX2                !
 ! A14   A(8,10,11)            122.7378         estimate D2E/DX2                !
 ! A15   A(8,10,12)            115.4163         estimate D2E/DX2                !
 ! A16   A(11,10,12)           121.3232         estimate D2E/DX2                !
 ! A17   A(10,12,13)           118.9271         estimate D2E/DX2                !
 ! A18   A(10,12,14)           123.4598         estimate D2E/DX2                !
 ! A19   A(13,12,14)           117.514          estimate D2E/DX2                !
 ! A20   A(4,14,12)            117.7433         estimate D2E/DX2                !
 ! A21   A(4,14,15)            116.0372         estimate D2E/DX2                !
 ! A22   A(12,14,15)           126.2189         estimate D2E/DX2                !
 ! D1    D(1,2,4,5)            165.4563         estimate D2E/DX2                !
 ! D2    D(1,2,4,14)           -25.0389         estimate D2E/DX2                !
 ! D3    D(3,2,4,5)            -11.8355         estimate D2E/DX2                !
 ! D4    D(3,2,4,14)           157.6694         estimate D2E/DX2                !
 ! D5    D(2,4,5,6)             -1.7375         estimate D2E/DX2                !
 ! D6    D(2,4,5,8)           -174.3102         estimate D2E/DX2                !
 ! D7    D(14,4,5,6)          -170.7348         estimate D2E/DX2                !
 ! D8    D(14,4,5,8)            16.6925         estimate D2E/DX2                !
 ! D9    D(2,4,14,12)          175.1232         estimate D2E/DX2                !
 ! D10   D(2,4,14,15)           -4.5997         estimate D2E/DX2                !
 ! D11   D(5,4,14,12)          -15.0609         estimate D2E/DX2                !
 ! D12   D(5,4,14,15)          165.2162         estimate D2E/DX2                !
 ! D13   D(4,5,6,7)            179.8227         estimate D2E/DX2                !
 ! D14   D(8,5,6,7)             -7.6196         estimate D2E/DX2                !
 ! D15   D(4,5,8,9)            172.1097         estimate D2E/DX2                !
 ! D16   D(4,5,8,10)           -12.1968         estimate D2E/DX2                !
 ! D17   D(6,5,8,9)             -1.07           estimate D2E/DX2                !
 ! D18   D(6,5,8,10)           174.6235         estimate D2E/DX2                !
 ! D19   D(5,8,10,11)          177.545          estimate D2E/DX2                !
 ! D20   D(5,8,10,12)            5.7477         estimate D2E/DX2                !
 ! D21   D(9,8,10,11)           -6.4861         estimate D2E/DX2                !
 ! D22   D(9,8,10,12)         -178.2834         estimate D2E/DX2                !
 ! D23   D(8,10,12,13)         179.8693         estimate D2E/DX2                !
 ! D24   D(8,10,12,14)          -3.8447         estimate D2E/DX2                !
 ! D25   D(11,10,12,13)          7.9454         estimate D2E/DX2                !
 ! D26   D(11,10,12,14)       -175.7686         estimate D2E/DX2                !
 ! D27   D(10,12,14,4)           8.5343         estimate D2E/DX2                !
 ! D28   D(10,12,14,15)       -171.7743         estimate D2E/DX2                !
 ! D29   D(13,12,14,4)        -175.1308         estimate D2E/DX2                !
 ! D30   D(13,12,14,15)          4.5606         estimate D2E/DX2                !
 --------------------------------------------------------------------------------
 Trust Radius=3.00D-01 FncErr=1.00D-07 GrdErr=1.00D-06 EigMax=2.50D+02 EigMin=1.00D-04
 Number of steps in this run=     77 maximum allowed number of steps=    100.
 GradGradGradGradGradGradGradGradGradGradGradGradGradGradGradGradGradGrad

 Leave Link  103 at Sun Jul 11 16:10:14 2021, MaxMem=   104857600 cpu:               0.1 elap:               0.0
 (Enter /prod/apps/gaussian/g16b1/l202.exe)
                          Input orientation:                          
 ---------------------------------------------------------------------
 Center     Atomic      Atomic             Coordinates (Angstroms)
 Number     Number       Type             X           Y           Z
 ---------------------------------------------------------------------
      1          8           0        1.518000   -1.803000   -1.834000
      2          6           0        1.134000   -1.667000   -0.641000
      3          8           0        1.402000   -2.559000    0.076000
      4          6           0        0.347000   -0.462000   -0.240000
      5          6           0       -0.356000   -0.374000    0.959000
      6          8           0       -0.450000   -1.386000    1.913000
      7          1           0       -1.004000   -0.986000    2.608000
      8          6           0       -1.159000    0.779000    1.153000
      9          1           0       -1.835000    0.867000    2.000000
     10          6           0       -1.093000    1.895000    0.358000
     11          1           0       -1.743000    2.755000    0.497000
     12          6           0       -0.255000    1.788000   -0.761000
     13          1           0       -0.162000    2.638000   -1.431000
     14          6           0        0.536000    0.663000   -1.029000
     15          1           0        1.291000    0.579000   -1.807000
 ---------------------------------------------------------------------
                    Distance matrix (angstroms):
                    1          2          3          4          5
     1  O    0.000000
     2  C    1.260635   0.000000
     3  O    2.057448   1.175405   0.000000
     4  C    2.389636   1.494053   2.368605   0.000000
     5  C    3.654417   2.540069   2.940149   1.392679   0.000000
     6  O    4.252872   3.018432   2.860140   2.474751   1.393950
     7  H    5.172943   3.948519   3.830690   3.195447   1.874473
     8  C    4.770243   3.802526   4.342913   2.397617   1.418398
     9  H    5.750745   4.712855   5.090916   3.397788   2.193445
    10  C    5.029651   4.318029   5.112990   2.826067   2.460230
    11  H    6.069847   5.396875   6.189254   3.906451   3.453673
    12  C    4.146099   3.725687   4.726799   2.386702   2.764570
    13  H    4.765217   4.564728   5.632580   3.359697   3.849919
    14  C    2.773717   2.436606   3.514579   1.387035   2.413126
    15  H    2.392944   2.535492   3.661291   2.104829   3.357316
                    6          7          8          9         10
     6  O    0.000000
     7  H    0.974649   0.000000
     8  C    2.401563   2.292657   0.000000
     9  H    2.646092   2.119867   1.087258   0.000000
    10  C    3.687334   3.656581   1.371801   2.074491   0.000000
    11  H    4.563418   4.358615   2.162399   2.414957   1.086932
    12  C    4.154826   4.427893   2.344929   3.311761   1.402089
    13  H    5.240024   5.491435   3.335708   4.207984   2.149263
    14  C    3.718328   4.280020   2.765430   3.852025   2.468853
    15  H    4.553099   5.216174   3.847610   4.934376   3.478870
                   11         12         13         14         15
    11  H    0.000000
    12  C    2.175269   0.000000
    13  H    2.496084   1.086301   0.000000
    14  C    3.449490   1.401117   2.132940   0.000000
    15  H    4.387317   2.223941   2.547953   1.087366   0.000000
 Stoichiometry    C7H5O3(1-)
 Framework group  C1[X(C7H5O3)]
 Deg. of freedom    39
 Full point group                 C1      NOp   1
 Largest Abelian subgroup         C1      NOp   1
 Largest concise Abelian subgroup C1      NOp   1
                         Standard orientation:                         
 ---------------------------------------------------------------------
 Center     Atomic      Atomic             Coordinates (Angstroms)
 Number     Number       Type             X           Y           Z
 ---------------------------------------------------------------------
      1          8           0        2.389181   -1.281125    0.303026
      2          6           0        1.759762   -0.229270    0.008690
      3          8           0        2.430560    0.710061   -0.213266
      4          6           0        0.265733   -0.223577    0.015071
      5          6           0       -0.493017    0.944050   -0.007288
      6          8           0        0.022586    2.239131   -0.003479
      7          1           0       -0.776370    2.796886   -0.026297
      8          6           0       -1.897986    0.803222    0.127190
      9          1           0       -2.548592    1.666123    0.246534
     10          6           0       -2.554917   -0.397440    0.033980
     11          1           0       -3.627998   -0.493094    0.178093
     12          6           0       -1.731648   -1.526366   -0.082677
     13          1           0       -2.192452   -2.507187   -0.158169
     14          6           0       -0.335851   -1.457505   -0.183382
     15          1           0        0.334339   -2.285949   -0.399923
 ---------------------------------------------------------------------
 Rotational constants (GHZ):           2.3482220           1.2218791           0.8118473
 Leave Link  202 at Sun Jul 11 16:10:14 2021, MaxMem=   104857600 cpu:               0.1 elap:               0.0
 (Enter /prod/apps/gaussian/g16b1/l301.exe)
 Standard basis: 6-31G(d) (6D, 7F)
 Ernie: Thresh=  0.10000D-02 Tol=  0.10000D-05 Strict=F.
 There are   160 symmetry adapted cartesian basis functions of A   symmetry.
 There are   160 symmetry adapted basis functions of A   symmetry.
   160 basis functions,   300 primitive gaussians,   160 cartesian basis functions
    36 alpha electrons       36 beta electrons
       nuclear repulsion energy       488.0892559097 Hartrees.
 IExCor=  402 DFT=T Ex+Corr=B3LYP ExCW=0 ScaHFX=  0.200000
 ScaDFX=  0.800000  0.720000  1.000000  0.810000 ScalE2=  1.000000  1.000000
 IRadAn=      5 IRanWt=     -1 IRanGd=            0 ICorTp=0 IEmpDi=  4
 NAtoms=   15 NActive=   15 NUniq=   15 SFac= 1.00D+00 NAtFMM=   60 NAOKFM=F Big=F
 Integral buffers will be    131072 words long.
 Raffenetti 2 integral format.
 Two-electron integral symmetry is turned on.
 Using the following non-standard input for PCM:
 MSTModel=DFT cav MSTCharged
 --- end of non-standard input.
 MST model for solvation energy: B3LYP parametrization.
 MST cavity parameters:
 ISph   IAn     Re0     Alpha   Atom Type   QCorr
 ------------------------------------------------
   1      8     1.40     1.15      O          T
   2      6     1.50     1.15      C          T
   3      8     1.40     1.15      O          T
   4      6     1.50     1.25      C          F
   5      6     1.50     1.25      C          F
   6      8     1.45     1.25      OH         F
   7      1     0.90     1.25      OH         F
   8      6     1.50     1.25      CH         F
   9      1     1.20     1.25      CH         F
  10      6     1.50     1.25      CH         F
  11      1     1.20     1.25      CH         F
  12      6     1.50     1.25      CH         F
  13      1     1.20     1.25      CH         F
  14      6     1.50     1.25      CH         F
  15      1     1.20     1.25      CH         F
 ------------------------------------------------------------------------------
 Polarizable Continuum Model (PCM)
 =================================
 Model                : PCM.
 Atomic radii         : MST.
 Polarization charges : Total charges.
 Charge compensation  : None.
 Solution method      : On-the-fly selection.
 Cavity type          : Scaled VdW (van der Waals Surface) (Alpha=1.250).
 Cavity algorithm     : GePol (No added spheres)
                        Default sphere list used, NSphG=   15.
                        Lebedev-Laikov grids with approx.  5.0 points / Ang**2.
                        Smoothing algorithm: York/Karplus (Gamma=1.0000).
                        Polarization charges: spherical gaussians, with
                                              point-specific exponents (IZeta= 3).
                        Self-potential: point-specific (ISelfS= 7).
                        Self-field    : sphere-specific E.n sum rule (ISelfD= 2).
 1st derivatives      : Analytical E(r).r(x)/FMM algorithm (CHGder, D1EAlg=3).
                        Cavity 1st derivative terms included.
 Solvent              : Water, Eps=  78.355300 Eps(inf)=   1.777849
 ------------------------------------------------------------------------------
 Spheres list:
 ISph  on   Nord     Re0    Alpha      Xe            Ye            Ze
    1   O      1    1.4000  1.150      2.389181     -1.281125      0.303026
    2   C      2    1.5000  1.150      1.759762     -0.229270      0.008690
    3   O      3    1.4000  1.150      2.430560      0.710061     -0.213266
    4   C      4    1.5000  1.250      0.265733     -0.223577      0.015071
    5   C      5    1.5000  1.250     -0.493017      0.944050     -0.007288
    6   O      6    1.4500  1.250      0.022586      2.239131     -0.003479
    7   H      7    0.9000  1.250     -0.776370      2.796886     -0.026297
    8   C      8    1.5000  1.250     -1.897986      0.803222      0.127190
    9   H      9    1.2000  1.250     -2.548592      1.666123      0.246534
   10   C     10    1.5000  1.250     -2.554917     -0.397440      0.033980
   11   H     11    1.2000  1.250     -3.627998     -0.493094      0.178093
   12   C     12    1.5000  1.250     -1.731648     -1.526366     -0.082677
   13   H     13    1.2000  1.250     -2.192452     -2.507187     -0.158169
   14   C     14    1.5000  1.250     -0.335851     -1.457505     -0.183382
   15   H     15    1.2000  1.250      0.334339     -2.285949     -0.399923
 ------------------------------------------------------------------------------
 GePol: Number of generator spheres                  =      15
 GePol: Total number of spheres                      =      15
 GePol: Number of exposed spheres                    =      15 (100.00%)
 GePol: Number of points                             =    1289
 GePol: Average weight of points                     =       0.13
 GePol: Minimum weight of points                     =   0.47D-10
 GePol: Maximum weight of points                     =    0.21416
 GePol: Number of points with low weight             =      69
 GePol: Fraction of low-weight points (<1% of avg)   =       5.35%
 GePol: Cavity surface area                          =    165.448 Ang**2
 GePol: Cavity volume                                =    144.657 Ang**3
 PCM non-electrostatic energy =         0.0015405717 Hartrees.
 Nuclear repulsion after PCM non-electrostatic terms =      488.0907964815 Hartrees.
 Leave Link  301 at Sun Jul 11 16:10:14 2021, MaxMem=   104857600 cpu:               0.4 elap:               0.1
 (Enter /prod/apps/gaussian/g16b1/l302.exe)
 NPDir=0 NMtPBC=     1 NCelOv=     1 NCel=       1 NClECP=     1 NCelD=      1
         NCelK=      1 NCelE2=     1 NClLst=     1 CellRange=     0.0.
 One-electron integrals computed using PRISM.
 One-electron integral symmetry used in STVInt
 NBasis=   160 RedAO= T EigKep=  6.39D-04  NBF=   160
 NBsUse=   160 1.00D-06 EigRej= -1.00D+00 NBFU=   160
 Precomputing XC quadrature grid using
 IXCGrd= 4 IRadAn=           5 IRanWt=          -1 IRanGd=           0 AccXCQ= 0.00D+00.
 Generated NRdTot=       0 NPtTot=           0 NUsed=           0 NTot=          32
 NSgBfM=   160   160   160   160   160 MxSgAt=    15 MxSgA2=    15.
 Leave Link  302 at Sun Jul 11 16:10:15 2021, MaxMem=   104857600 cpu:               0.8 elap:               0.2
 (Enter /prod/apps/gaussian/g16b1/l303.exe)
 DipDrv:  MaxL=1.
 Leave Link  303 at Sun Jul 11 16:10:15 2021, MaxMem=   104857600 cpu:               0.1 elap:               0.1
 (Enter /prod/apps/gaussian/g16b1/l401.exe)
 ExpMin= 1.61D-01 ExpMax= 5.48D+03 ExpMxC= 8.25D+02 IAcc=3 IRadAn=         5 AccDes= 0.00D+00
 Harris functional with IExCor=  402 and IRadAn=       5 diagonalized for initial guess.
 HarFok:  IExCor=  402 AccDes= 0.00D+00 IRadAn=         5 IDoV= 1 UseB2=F ITyADJ=14
 ICtDFT=  3500011 ScaDFX=  1.000000  1.000000  1.000000  1.000000
 FoFCou: FMM=F IPFlag=           0 FMFlag=      100000 FMFlg1=           0
         NFxFlg=           0 DoJE=T BraDBF=F KetDBF=T FulRan=T
         wScrn=  0.000000 ICntrl=       500 IOpCl=  0 I1Cent=   200000004 NGrid=           0
         NMat0=    1 NMatS0=      1 NMatT0=    0 NMatD0=    1 NMtDS0=    0 NMtDT0=    0
 Petite list used in FoFCou.
 Harris En= -495.661261257322    
 JPrj=0 DoOrth=F DoCkMO=F.
 Leave Link  401 at Sun Jul 11 16:10:16 2021, MaxMem=   104857600 cpu:               3.4 elap:               0.9
 (Enter /prod/apps/gaussian/g16b1/l502.exe)
 Keep R1 ints in memory in canonical form, NReq=86910067.
 FoFCou: FMM=F IPFlag=           0 FMFlag=           0 FMFlg1=           0
         NFxFlg=           0 DoJE=F BraDBF=F KetDBF=F FulRan=T
         wScrn=  0.000000 ICntrl=       600 IOpCl=  0 I1Cent=           0 NGrid=           0
         NMat0=    1 NMatS0=  12880 NMatT0=    0 NMatD0=    1 NMtDS0=    0 NMtDT0=    0
 Symmetry not used in FoFCou.
 Two-electron integral symmetry not used.
 Closed shell SCF:
 Using DIIS extrapolation, IDIIS=  1040.
 NGot=   104857600 LenX=    21850029 LenY=    21823988
 Requested convergence on RMS density matrix=1.00D-08 within 128 cycles.
 Requested convergence on MAX density matrix=1.00D-06.
 Requested convergence on             energy=1.00D-06.
 No special actions if energy rises.

 Cycle   1  Pass 1  IDiag  1:
 Inv3:  Mode=1 IEnd=     4984563.
 Iteration    1 A*A^-1 deviation from unit magnitude is 3.11D-15 for    585.
 Iteration    1 A*A^-1 deviation from orthogonality  is 1.78D-15 for    972     34.
 Iteration    1 A^-1*A deviation from unit magnitude is 2.89D-15 for    585.
 Iteration    1 A^-1*A deviation from orthogonality  is 1.02D-13 for    997    972.
 E= -495.235890313830    
 DIIS: error= 5.13D-02 at cycle   1 NSaved=   1.
 NSaved= 1 IEnMin= 1 EnMin= -495.235890313830     IErMin= 1 ErrMin= 5.13D-02
 ErrMax= 5.13D-02  0.00D+00 EMaxC= 1.00D-01 BMatC= 3.63D-01 BMatP= 3.63D-01
 IDIUse=3 WtCom= 4.87D-01 WtEn= 5.13D-01
 Coeff-Com:  0.100D+01
 Coeff-En:   0.100D+01
 Coeff:      0.100D+01
 Gap=     0.215 Goal=   None    Shift=    0.000
 GapD=    0.215 DampG=1.000 DampE=0.500 DampFc=0.5000 IDamp=-1.
 Damping current iteration by 5.00D-01
 RMSDP=9.78D-03 MaxDP=2.28D-01              OVMax= 1.98D-01

 Cycle   2  Pass 1  IDiag  1:
 E= -495.364687205947     Delta-E=       -0.128796892118 Rises=F Damp=T
 DIIS: error= 9.63D-03 at cycle   2 NSaved=   2.
 NSaved= 2 IEnMin= 2 EnMin= -495.364687205947     IErMin= 2 ErrMin= 9.63D-03
 ErrMax= 9.63D-03  0.00D+00 EMaxC= 1.00D-01 BMatC= 2.29D-02 BMatP= 3.63D-01
 IDIUse=3 WtCom= 9.04D-01 WtEn= 9.63D-02
 Coeff-Com:  0.110D+00 0.890D+00
 Coeff-En:   0.158D+00 0.842D+00
 Coeff:      0.114D+00 0.886D+00
 Gap=     0.187 Goal=   None    Shift=    0.000
 RMSDP=2.16D-03 MaxDP=5.98D-02 DE=-1.29D-01 OVMax= 1.35D-01

 Cycle   3  Pass 1  IDiag  1:
 E= -495.528630032976     Delta-E=       -0.163942827029 Rises=F Damp=F
 DIIS: error= 9.33D-03 at cycle   3 NSaved=   3.
 NSaved= 3 IEnMin= 3 EnMin= -495.528630032976     IErMin= 3 ErrMin= 9.33D-03
 ErrMax= 9.33D-03  0.00D+00 EMaxC= 1.00D-01 BMatC= 1.38D-02 BMatP= 2.29D-02
 IDIUse=3 WtCom= 9.07D-01 WtEn= 9.33D-02
 Coeff-Com:  0.132D-01 0.430D+00 0.556D+00
 Coeff-En:   0.000D+00 0.000D+00 0.100D+01
 Coeff:      0.120D-01 0.390D+00 0.598D+00
 Gap=     0.171 Goal=   None    Shift=    0.000
 RMSDP=1.09D-03 MaxDP=2.63D-02 DE=-1.64D-01 OVMax= 3.54D-02

 Cycle   4  Pass 1  IDiag  1:
 E= -495.539280431062     Delta-E=       -0.010650398087 Rises=F Damp=F
 DIIS: error= 2.99D-03 at cycle   4 NSaved=   4.
 NSaved= 4 IEnMin= 4 EnMin= -495.539280431062     IErMin= 4 ErrMin= 2.99D-03
 ErrMax= 2.99D-03  0.00D+00 EMaxC= 1.00D-01 BMatC= 2.43D-03 BMatP= 1.38D-02
 IDIUse=3 WtCom= 9.70D-01 WtEn= 2.99D-02
 Coeff-Com:  0.109D-02 0.753D-01 0.312D+00 0.612D+00
 Coeff-En:   0.000D+00 0.000D+00 0.138D+00 0.862D+00
 Coeff:      0.105D-02 0.730D-01 0.307D+00 0.619D+00
 Gap=     0.174 Goal=   None    Shift=    0.000
 RMSDP=4.09D-04 MaxDP=1.06D-02 DE=-1.07D-02 OVMax= 1.66D-02

 Cycle   5  Pass 1  IDiag  1:
 E= -495.541235347650     Delta-E=       -0.001954916588 Rises=F Damp=F
 DIIS: error= 1.49D-03 at cycle   5 NSaved=   5.
 NSaved= 5 IEnMin= 5 EnMin= -495.541235347650     IErMin= 5 ErrMin= 1.49D-03
 ErrMax= 1.49D-03  0.00D+00 EMaxC= 1.00D-01 BMatC= 3.49D-04 BMatP= 2.43D-03
 IDIUse=3 WtCom= 9.85D-01 WtEn= 1.49D-02
 Coeff-Com:  0.165D-03 0.890D-02 0.143D+00 0.386D+00 0.462D+00
 Coeff-En:   0.000D+00 0.000D+00 0.000D+00 0.383D-01 0.962D+00
 Coeff:      0.162D-03 0.877D-02 0.141D+00 0.381D+00 0.469D+00
 Gap=     0.174 Goal=   None    Shift=    0.000
 RMSDP=1.28D-04 MaxDP=4.02D-03 DE=-1.95D-03 OVMax= 6.64D-03

 Cycle   6  Pass 1  IDiag  1:
 E= -495.541500514080     Delta-E=       -0.000265166430 Rises=F Damp=F
 DIIS: error= 2.97D-04 at cycle   6 NSaved=   6.
 NSaved= 6 IEnMin= 6 EnMin= -495.541500514080     IErMin= 6 ErrMin= 2.97D-04
 ErrMax= 2.97D-04  0.00D+00 EMaxC= 1.00D-01 BMatC= 1.46D-05 BMatP= 3.49D-04
 IDIUse=3 WtCom= 9.97D-01 WtEn= 2.97D-03
 Coeff-Com:  0.544D-04-0.336D-03 0.511D-01 0.152D+00 0.244D+00 0.553D+00
 Coeff-En:   0.000D+00 0.000D+00 0.000D+00 0.000D+00 0.000D+00 0.100D+01
 Coeff:      0.542D-04-0.335D-03 0.509D-01 0.152D+00 0.243D+00 0.555D+00
 Gap=     0.174 Goal=   None    Shift=    0.000
 RMSDP=3.11D-05 MaxDP=8.20D-04 DE=-2.65D-04 OVMax= 1.36D-03

 Cycle   7  Pass 1  IDiag  1:
 E= -495.541510510874     Delta-E=       -0.000009996793 Rises=F Damp=F
 DIIS: error= 7.68D-05 at cycle   7 NSaved=   7.
 NSaved= 7 IEnMin= 7 EnMin= -495.541510510874     IErMin= 7 ErrMin= 7.68D-05
 ErrMax= 7.68D-05  0.00D+00 EMaxC= 1.00D-01 BMatC= 1.71D-06 BMatP= 1.46D-05
 IDIUse=1 WtCom= 1.00D+00 WtEn= 0.00D+00
 Coeff-Com:  0.577D-04-0.106D-02 0.170D-01 0.541D-01 0.982D-01 0.319D+00
 Coeff-Com:  0.513D+00
 Coeff:      0.577D-04-0.106D-02 0.170D-01 0.541D-01 0.982D-01 0.319D+00
 Coeff:      0.513D+00
 Gap=     0.174 Goal=   None    Shift=    0.000
 RMSDP=8.92D-06 MaxDP=2.81D-04 DE=-1.00D-05 OVMax= 4.69D-04

 Cycle   8  Pass 1  IDiag  1:
 E= -495.541512035407     Delta-E=       -0.000001524534 Rises=F Damp=F
 DIIS: error= 1.04D-05 at cycle   8 NSaved=   8.
 NSaved= 8 IEnMin= 8 EnMin= -495.541512035407     IErMin= 8 ErrMin= 1.04D-05
 ErrMax= 1.04D-05  0.00D+00 EMaxC= 1.00D-01 BMatC= 5.15D-08 BMatP= 1.71D-06
 IDIUse=1 WtCom= 1.00D+00 WtEn= 0.00D+00
 Coeff-Com:  0.285D-04-0.424D-03 0.319D-02 0.109D-01 0.214D-01 0.872D-01
 Coeff-Com:  0.212D+00 0.666D+00
 Coeff:      0.285D-04-0.424D-03 0.319D-02 0.109D-01 0.214D-01 0.872D-01
 Coeff:      0.212D+00 0.666D+00
 Gap=     0.174 Goal=   None    Shift=    0.000
 RMSDP=2.32D-06 MaxDP=4.60D-05 DE=-1.52D-06 OVMax= 8.42D-05

 Cycle   9  Pass 1  IDiag  1:
 E= -495.541512080396     Delta-E=       -0.000000044988 Rises=F Damp=F
 DIIS: error= 4.66D-06 at cycle   9 NSaved=   9.
 NSaved= 9 IEnMin= 9 EnMin= -495.541512080396     IErMin= 9 ErrMin= 4.66D-06
 ErrMax= 4.66D-06  0.00D+00 EMaxC= 1.00D-01 BMatC= 8.05D-09 BMatP= 5.15D-08
 IDIUse=1 WtCom= 1.00D+00 WtEn= 0.00D+00
 Coeff-Com:  0.105D-04-0.927D-04-0.497D-03-0.125D-02-0.175D-02 0.331D-02
 Coeff-Com:  0.442D-01 0.331D+00 0.625D+00
 Coeff:      0.105D-04-0.927D-04-0.497D-03-0.125D-02-0.175D-02 0.331D-02
 Coeff:      0.442D-01 0.331D+00 0.625D+00
 Gap=     0.174 Goal=   None    Shift=    0.000
 RMSDP=6.30D-07 MaxDP=1.75D-05 DE=-4.50D-08 OVMax= 3.00D-05

 Cycle  10  Pass 1  IDiag  1:
 E= -495.541512087998     Delta-E=       -0.000000007602 Rises=F Damp=F
 DIIS: error= 9.68D-07 at cycle  10 NSaved=  10.
 NSaved=10 IEnMin=10 EnMin= -495.541512087998     IErMin=10 ErrMin= 9.68D-07
 ErrMax= 9.68D-07  0.00D+00 EMaxC= 1.00D-01 BMatC= 4.47D-10 BMatP= 8.05D-09
 IDIUse=1 WtCom= 1.00D+00 WtEn= 0.00D+00
 Coeff-Com:  0.315D-05-0.193D-04-0.346D-03-0.100D-02-0.178D-02-0.257D-02
 Coeff-Com:  0.102D-01 0.111D+00 0.274D+00 0.611D+00
 Coeff:      0.315D-05-0.193D-04-0.346D-03-0.100D-02-0.178D-02-0.257D-02
 Coeff:      0.102D-01 0.111D+00 0.274D+00 0.611D+00
 Gap=     0.174 Goal=   None    Shift=    0.000
 RMSDP=1.86D-07 MaxDP=6.16D-06 DE=-7.60D-09 OVMax= 1.24D-05

 Cycle  11  Pass 1  IDiag  1:
 E= -495.541512088430     Delta-E=       -0.000000000432 Rises=F Damp=F
 DIIS: error= 4.32D-07 at cycle  11 NSaved=  11.
 NSaved=11 IEnMin=11 EnMin= -495.541512088430     IErMin=11 ErrMin= 4.32D-07
 ErrMax= 4.32D-07  0.00D+00 EMaxC= 1.00D-01 BMatC= 6.57D-11 BMatP= 4.47D-10
 IDIUse=1 WtCom= 1.00D+00 WtEn= 0.00D+00
 Coeff-Com: -0.679D-07 0.438D-05-0.112D-03-0.352D-03-0.718D-03-0.181D-02
 Coeff-Com: -0.668D-03 0.918D-02 0.454D-01 0.302D+00 0.647D+00
 Coeff:     -0.679D-07 0.438D-05-0.112D-03-0.352D-03-0.718D-03-0.181D-02
 Coeff:     -0.668D-03 0.918D-02 0.454D-01 0.302D+00 0.647D+00
 Gap=     0.174 Goal=   None    Shift=    0.000
 RMSDP=6.80D-08 MaxDP=1.44D-06 DE=-4.32D-10 OVMax= 3.13D-06

 Cycle  12  Pass 1  IDiag  1:
 E= -495.541512088501     Delta-E=       -0.000000000072 Rises=F Damp=F
 DIIS: error= 9.22D-08 at cycle  12 NSaved=  12.
 NSaved=12 IEnMin=12 EnMin= -495.541512088501     IErMin=12 ErrMin= 9.22D-08
 ErrMax= 9.22D-08  0.00D+00 EMaxC= 1.00D-01 BMatC= 3.51D-12 BMatP= 6.57D-11
 IDIUse=1 WtCom= 1.00D+00 WtEn= 0.00D+00
 Coeff-Com: -0.230D-06 0.269D-05-0.232D-04-0.760D-04-0.185D-03-0.568D-03
 Coeff-Com: -0.788D-03-0.325D-02-0.517D-03 0.926D-01 0.268D+00 0.644D+00
 Coeff:     -0.230D-06 0.269D-05-0.232D-04-0.760D-04-0.185D-03-0.568D-03
 Coeff:     -0.788D-03-0.325D-02-0.517D-03 0.926D-01 0.268D+00 0.644D+00
 Gap=     0.174 Goal=   None    Shift=    0.000
 RMSDP=1.83D-08 MaxDP=4.04D-07 DE=-7.15D-11 OVMax= 8.72D-07

 Cycle  13  Pass 1  IDiag  1:
 E= -495.541512088502     Delta-E=       -0.000000000001 Rises=F Damp=F
 DIIS: error= 5.25D-08 at cycle  13 NSaved=  13.
 NSaved=13 IEnMin=13 EnMin= -495.541512088502     IErMin=13 ErrMin= 5.25D-08
 ErrMax= 5.25D-08  0.00D+00 EMaxC= 1.00D-01 BMatC= 9.80D-13 BMatP= 3.51D-12
 IDIUse=1 WtCom= 1.00D+00 WtEn= 0.00D+00
 Coeff-Com: -0.119D-06 0.792D-06 0.636D-05 0.181D-04 0.159D-04-0.180D-04
 Coeff-Com: -0.334D-03-0.363D-02-0.896D-02 0.132D-02 0.390D-01 0.375D+00
 Coeff-Com:  0.597D+00
 Coeff:     -0.119D-06 0.792D-06 0.636D-05 0.181D-04 0.159D-04-0.180D-04
 Coeff:     -0.334D-03-0.363D-02-0.896D-02 0.132D-02 0.390D-01 0.375D+00
 Coeff:      0.597D+00
 Gap=     0.174 Goal=   None    Shift=    0.000
 RMSDP=7.15D-09 MaxDP=1.88D-07 DE=-5.68D-13 OVMax= 3.72D-07

 Error on total polarization charges =  0.01891
 SCF Done:  E(RB3LYP) =  -495.541512089     A.U. after   13 cycles
            NFock= 13  Conv=0.72D-08     -V/T= 2.0079
 KE= 4.916595392184D+02 PE=-2.148960825479D+03 EE= 6.736689776908D+02
 Leave Link  502 at Sun Jul 11 16:10:35 2021, MaxMem=   104857600 cpu:              69.5 elap:              19.0
 (Enter /prod/apps/gaussian/g16b1/l601.exe)
 Copying SCF densities to generalized density rwf, IOpCl= 0 IROHF=0.

 **********************************************************************

            Population analysis using the SCF Density.

 **********************************************************************

 Orbital symmetries:
       Occupied  (A) (A) (A) (A) (A) (A) (A) (A) (A) (A) (A) (A)
                 (A) (A) (A) (A) (A) (A) (A) (A) (A) (A) (A) (A)
                 (A) (A) (A) (A) (A) (A) (A) (A) (A) (A) (A) (A)
       Virtual   (A) (A) (A) (A) (A) (A) (A) (A) (A) (A) (A) (A)
                 (A) (A) (A) (A) (A) (A) (A) (A) (A) (A) (A) (A)
                 (A) (A) (A) (A) (A) (A) (A) (A) (A) (A) (A) (A)
                 (A) (A) (A) (A) (A) (A) (A) (A) (A) (A) (A) (A)
                 (A) (A) (A) (A) (A) (A) (A) (A) (A) (A) (A) (A)
                 (A) (A) (A) (A) (A) (A) (A) (A) (A) (A) (A) (A)
                 (A) (A) (A) (A) (A) (A) (A) (A) (A) (A) (A) (A)
                 (A) (A) (A) (A) (A) (A) (A) (A) (A) (A) (A) (A)
                 (A) (A) (A) (A) (A) (A) (A) (A) (A) (A) (A) (A)
                 (A) (A) (A) (A) (A) (A) (A) (A) (A) (A) (A) (A)
                 (A) (A) (A) (A)
 The electronic state is 1-A.
 Alpha  occ. eigenvalues --  -19.17094 -19.05590 -19.04116 -10.24933 -10.23715
 Alpha  occ. eigenvalues --  -10.18817 -10.18341 -10.18292 -10.17893 -10.17761
 Alpha  occ. eigenvalues --   -1.04477  -1.03163  -0.90006  -0.84708  -0.75377
 Alpha  occ. eigenvalues --   -0.72612  -0.61298  -0.60840  -0.53363  -0.51424
 Alpha  occ. eigenvalues --   -0.46798  -0.45553  -0.42264  -0.42081  -0.41017
 Alpha  occ. eigenvalues --   -0.39008  -0.37817  -0.37003  -0.35021  -0.34316
 Alpha  occ. eigenvalues --   -0.32784  -0.25081  -0.23180  -0.21864  -0.21702
 Alpha  occ. eigenvalues --   -0.18412
 Alpha virt. eigenvalues --   -0.01007   0.00970   0.10048   0.10722   0.11328
 Alpha virt. eigenvalues --    0.16043   0.17273   0.19861   0.19984   0.23334
 Alpha virt. eigenvalues --    0.29040   0.31977   0.33454   0.33904   0.34482
 Alpha virt. eigenvalues --    0.42716   0.43628   0.51090   0.51222   0.52703
 Alpha virt. eigenvalues --    0.56139   0.57195   0.58866   0.59385   0.60308
 Alpha virt. eigenvalues --    0.61383   0.62611   0.64122   0.64911   0.66429
 Alpha virt. eigenvalues --    0.68899   0.71659   0.73102   0.75429   0.77121
 Alpha virt. eigenvalues --    0.79157   0.82906   0.84502   0.85610   0.86865
 Alpha virt. eigenvalues --    0.90440   0.91486   0.92724   0.94725   0.96078
 Alpha virt. eigenvalues --    0.98186   1.01160   1.03134   1.03328   1.04886
 Alpha virt. eigenvalues --    1.08320   1.09904   1.11520   1.12671   1.16839
 Alpha virt. eigenvalues --    1.19816   1.24925   1.29405   1.33828   1.36114
 Alpha virt. eigenvalues --    1.37452   1.40410   1.45488   1.46730   1.50315
 Alpha virt. eigenvalues --    1.51154   1.52681   1.55193   1.69988   1.71327
 Alpha virt. eigenvalues --    1.73623   1.76306   1.77889   1.80825   1.82586
 Alpha virt. eigenvalues --    1.85936   1.89207   1.91014   1.91703   1.92972
 Alpha virt. eigenvalues --    1.94720   1.96875   1.99409   2.02590   2.06971
 Alpha virt. eigenvalues --    2.09522   2.15233   2.16847   2.19524   2.22668
 Alpha virt. eigenvalues --    2.23752   2.28452   2.31147   2.32185   2.39722
 Alpha virt. eigenvalues --    2.45334   2.46170   2.52752   2.57997   2.61888
 Alpha virt. eigenvalues --    2.62841   2.67873   2.68048   2.71681   2.75350
 Alpha virt. eigenvalues --    2.79783   2.82132   2.88484   2.94904   2.98024
 Alpha virt. eigenvalues --    3.04548   3.19162   3.28368   3.43395   3.87932
 Alpha virt. eigenvalues --    3.99206   4.09899   4.13159   4.17284   4.29971
 Alpha virt. eigenvalues --    4.40678   4.44110   4.55971   4.75040
          Condensed to atoms (all electrons):
               1          2          3          4          5          6
     1  O    8.493389   0.530843  -0.184236  -0.149527   0.003968   0.000007
     2  C    0.530843   4.354500   0.589715   0.181982  -0.034188  -0.002123
     3  O   -0.184236   0.589715   8.325166  -0.133650   0.003843  -0.002345
     4  C   -0.149527   0.181982  -0.133650   5.394502   0.421669  -0.049017
     5  C    0.003968  -0.034188   0.003843   0.421669   4.771967   0.275193
     6  O    0.000007  -0.002123  -0.002345  -0.049017   0.275193   8.270780
     7  H    0.000003   0.000060   0.000290   0.005237  -0.031788   0.243549
     8  C   -0.000103   0.006097   0.000443  -0.009950   0.429516  -0.062156
     9  H    0.000000  -0.000059   0.000006   0.004641  -0.042844  -0.006063
    10  C    0.000013  -0.000041  -0.000022  -0.050506  -0.003260   0.005177
    11  H    0.000000   0.000005  -0.000000  -0.000113   0.004097  -0.000039
    12  C    0.000595   0.005312  -0.000107  -0.016052  -0.052850  -0.000106
    13  H   -0.000006  -0.000123   0.000001   0.005632   0.000724   0.000002
    14  C   -0.000359  -0.025236   0.003950   0.451714  -0.050278   0.003758
    15  H    0.027780  -0.005627   0.000811  -0.062424   0.006674  -0.000041
               7          8          9         10         11         12
     1  O    0.000003  -0.000103   0.000000   0.000013   0.000000   0.000595
     2  C    0.000060   0.006097  -0.000059  -0.000041   0.000005   0.005312
     3  O    0.000290   0.000443   0.000006  -0.000022  -0.000000  -0.000107
     4  C    0.005237  -0.009950   0.004641  -0.050506  -0.000113  -0.016052
     5  C   -0.031788   0.429516  -0.042844  -0.003260   0.004097  -0.052850
     6  O    0.243549  -0.062156  -0.006063   0.005177  -0.000039  -0.000106
     7  H    0.319603  -0.000021   0.008639   0.000559  -0.000026  -0.000003
     8  C   -0.000021   5.169074   0.349640   0.473231  -0.038715  -0.019140
     9  H    0.008639   0.349640   0.581892  -0.041406  -0.006362   0.005845
    10  C    0.000559   0.473231  -0.041406   4.917765   0.366192   0.518595
    11  H   -0.000026  -0.038715  -0.006362   0.366192   0.559513  -0.040865
    12  C   -0.000003  -0.019140   0.005845   0.518595  -0.040865   4.994777
    13  H   -0.000001   0.006844  -0.000250  -0.048420  -0.005446   0.354757
    14  C   -0.000146  -0.065168   0.000898  -0.017137   0.004034   0.474562
    15  H    0.000005  -0.000413   0.000015   0.004692  -0.000099  -0.035904
              13         14         15
     1  O   -0.000006  -0.000359   0.027780
     2  C   -0.000123  -0.025236  -0.005627
     3  O    0.000001   0.003950   0.000811
     4  C    0.005632   0.451714  -0.062424
     5  C    0.000724  -0.050278   0.006674
     6  O    0.000002   0.003758  -0.000041
     7  H   -0.000001  -0.000146   0.000005
     8  C    0.006844  -0.065168  -0.000413
     9  H   -0.000250   0.000898   0.000015
    10  C   -0.048420  -0.017137   0.004692
    11  H   -0.005446   0.004034  -0.000099
    12  C    0.354757   0.474562  -0.035904
    13  H    0.608502  -0.043390  -0.005495
    14  C   -0.043390   5.089872   0.347496
    15  H   -0.005495   0.347496   0.577379
 Mulliken charges:
               1
     1  O   -0.722365
     2  C    0.398883
     3  O   -0.603865
     4  C    0.005864
     5  C    0.297557
     6  O   -0.676575
     7  H    0.454039
     8  C   -0.239179
     9  H    0.145408
    10  C   -0.125431
    11  H    0.157824
    12  C   -0.189414
    13  H    0.126670
    14  C   -0.174569
    15  H    0.145152
 Sum of Mulliken charges =  -1.00000
 Mulliken charges with hydrogens summed into heavy atoms:
               1
     1  O   -0.722365
     2  C    0.398883
     3  O   -0.603865
     4  C    0.005864
     5  C    0.297557
     6  O   -0.222536
     8  C   -0.093771
    10  C    0.032394
    12  C   -0.062744
    14  C   -0.029416
 Electronic spatial extent (au):  <R**2>=           1353.9417
 Charge=             -1.0000 electrons
 Dipole moment (field-independent basis, Debye):
    X=            -14.4683    Y=              2.5426    Z=             -0.4345  Tot=             14.6965
 Quadrupole moment (field-independent basis, Debye-Ang):
   XX=            -84.6667   YY=            -58.8536   ZZ=            -59.4803
   XY=             -1.1313   XZ=             -1.4920   YZ=              2.8106
 Traceless Quadrupole moment (field-independent basis, Debye-Ang):
   XX=            -16.9998   YY=              8.8132   ZZ=              8.1866
   XY=             -1.1313   XZ=             -1.4920   YZ=              2.8106
 Octapole moment (field-independent basis, Debye-Ang**2):
  XXX=            -93.4987  YYY=             29.8482  ZZZ=              0.0214  XYY=            -32.6722
  XXY=             17.9460  XXZ=              0.2426  XZZ=              7.4296  YZZ=              4.7369
  YYZ=             -3.1575  XYZ=              5.2016
 Hexadecapole moment (field-independent basis, Debye-Ang**3):
 XXXX=          -1227.6154 YYYY=           -506.0457 ZZZZ=            -63.5007 XXXY=             23.8045
 XXXZ=            -12.9771 YYYX=            -27.2379 YYYZ=              5.7158 ZZZX=             -0.3016
 ZZZY=             -1.1760 XXYY=           -302.0903 XXZZ=           -200.9170 YYZZ=           -111.2677
 XXYZ=             13.0651 YYXZ=             -4.2333 ZZXY=             -2.7362
 N-N= 4.880907964815D+02 E-N=-2.148960826191D+03  KE= 4.916595392184D+02
 No NMR shielding tensors so no spin-rotation constants.
 Leave Link  601 at Sun Jul 11 16:10:35 2021, MaxMem=   104857600 cpu:               0.5 elap:               0.2
 (Enter /prod/apps/gaussian/g16b1/l701.exe)
 ... and contract with generalized density number  0.
 Compute integral first derivatives.
 D1PCM: PCM CHGder 1st derivatives, ID1Alg=3 FixD1E=F DoIter=F DoCFld=F I1PDM=0.
 GePol: Maximum number of non-zero 1st derivatives   =     229
 Leave Link  701 at Sun Jul 11 16:10:36 2021, MaxMem=   104857600 cpu:               3.2 elap:               0.8
 (Enter /prod/apps/gaussian/g16b1/l702.exe)
 L702 exits ... SP integral derivatives will be done elsewhere.
 Leave Link  702 at Sun Jul 11 16:10:36 2021, MaxMem=   104857600 cpu:               0.1 elap:               0.0
 (Enter /prod/apps/gaussian/g16b1/l703.exe)
 Integral derivatives from FoFJK, PRISM(SPDF).
 Compute integral first derivatives, UseDBF=F ICtDFT=           0.
 Calling FoFJK, ICntrl=      2127 FMM=F ISym2X=0 I1Cent= 0 IOpClX= 0 NMat=1 NMatS=1 NMatT=0.
 FoFJK:  IHMeth= 1 ICntrl=    2127 DoSepK=F KAlg= 0 I1Cent=           0 FoldK=F
 IRaf=         0 NMat=       1 IRICut=       1 DoRegI=T DoRafI=F ISym2E= 0 IDoP0=0 IntGTp=1.
 FoFCou: FMM=F IPFlag=           0 FMFlag=      100000 FMFlg1=         800
         NFxFlg=           0 DoJE=F BraDBF=F KetDBF=F FulRan=T
         wScrn=  0.000000 ICntrl=      2127 IOpCl=  0 I1Cent=           0 NGrid=           0
         NMat0=    1 NMatS0=      1 NMatT0=    0 NMatD0=    1 NMtDS0=    0 NMtDT0=    0
 Symmetry not used in FoFCou.
 Leave Link  703 at Sun Jul 11 16:10:40 2021, MaxMem=   104857600 cpu:              17.4 elap:               4.4
 (Enter /prod/apps/gaussian/g16b1/l716.exe)
 Dipole        =-5.69228457D+00 1.00033187D+00-1.70930492D-01
 ***** Axes restored to original set *****
 -------------------------------------------------------------------
 Center     Atomic                   Forces (Hartrees/Bohr)
 Number     Number              X              Y              Z
 -------------------------------------------------------------------
      1        8          -0.003055192    0.040112826   -0.053438190
      2        6          -0.006105841    0.040804759   -0.084295898
      3        8           0.015282447   -0.098133928    0.137581787
      4        6           0.027362787   -0.015783718    0.012227229
      5        6          -0.031731651    0.007482690    0.011047859
      6        8           0.003269769    0.015466075   -0.018024964
      7        1           0.000919130   -0.006711945    0.002422815
      8        6          -0.002510573   -0.002954473    0.025928696
      9        1           0.001947755   -0.009041616    0.005052107
     10        6           0.007102629   -0.012635419   -0.029402335
     11        1           0.003257687   -0.001559649    0.002402569
     12        6           0.018286827    0.021499392   -0.017215187
     13        1           0.000560237    0.002651699    0.000484384
     14        6          -0.024967401    0.015078085    0.008987340
     15        1          -0.009618609    0.003725223   -0.003758211
 -------------------------------------------------------------------
 Cartesian Forces:  Max     0.137581787 RMS     0.033024550
 Leave Link  716 at Sun Jul 11 16:10:40 2021, MaxMem=   104857600 cpu:               0.1 elap:               0.1
 (Enter /prod/apps/gaussian/g16b1/l103.exe)

 GradGradGradGradGradGradGradGradGradGradGradGradGradGradGradGradGradGrad
 Berny optimization.
 FormGI is forming the generalized inverse of G from B-inverse, IUseBI=4.
 Internal  Forces:  Max     0.161908206 RMS     0.025009322
 Search for a local minimum.
 Step number   1 out of a maximum of   77
 All quantities printed in internal units (Hartrees-Bohrs-Radians)
 RMS Force = .25009D-01 SwitMx=.10000D-02 MixMth= 1
 Mixed Optimization -- RFO/linear search
 Second derivative matrix not updated -- first step.
 ITU=  0
     Eigenvalues ---    0.00845   0.00856   0.01772   0.01848   0.02005
     Eigenvalues ---    0.02042   0.02072   0.02153   0.02160   0.02199
     Eigenvalues ---    0.02288   0.02324   0.15811   0.15968   0.15975
     Eigenvalues ---    0.16000   0.16000   0.21926   0.22046   0.24013
     Eigenvalues ---    0.24582   0.24821   0.25000   0.25000   0.33009
     Eigenvalues ---    0.35119   0.35131   0.35170   0.35244   0.40277
     Eigenvalues ---    0.42753   0.44425   0.46025   0.46638   0.46882
     Eigenvalues ---    0.49816   0.52438   0.79428   1.18220
 RFO step:  Lambda=-6.75241340D-02 EMin= 8.44612131D-03
 Linear search not attempted -- first point.
 Maximum step size (   0.300) exceeded in Quadratic search.
    -- Step size scaled by   0.778
 Iteration  1 RMS(Cart)=  0.05123727 RMS(Int)=  0.00230353
 Iteration  2 RMS(Cart)=  0.00256355 RMS(Int)=  0.00019165
 Iteration  3 RMS(Cart)=  0.00000726 RMS(Int)=  0.00019156
 Iteration  4 RMS(Cart)=  0.00000000 RMS(Int)=  0.00019156
 ITry= 1 IFail=0 DXMaxC= 2.73D-01 DCOld= 1.00D+10 DXMaxT= 3.00D-01 DXLimC= 3.00D+00 Rises=F
 Variable       Old X    -DE/DX   Delta X   Delta X   Delta X     New X
                                 (Linear)    (Quad)   (Total)
    R1        2.38226   0.04529   0.00000   0.04086   0.04086   2.42311
    R2        2.22119   0.16191   0.00000   0.10073   0.10073   2.32192
    R3        2.82335   0.01716   0.00000   0.03355   0.03355   2.85690
    R4        2.63178   0.00777   0.00000   0.01192   0.01189   2.64368
    R5        2.62112   0.02231   0.00000   0.03196   0.03189   2.65301
    R6        2.63418  -0.01733   0.00000  -0.02524  -0.02524   2.60894
    R7        2.68038  -0.01046   0.00000  -0.01603  -0.01601   2.66437
    R8        1.84182  -0.00152   0.00000  -0.00200  -0.00200   1.83982
    R9        2.05462   0.00199   0.00000   0.00369   0.00369   2.05831
   R10        2.59233   0.02158   0.00000   0.02908   0.02914   2.62147
   R11        2.05400  -0.00287   0.00000  -0.00533  -0.00533   2.04867
   R12        2.64956  -0.00028   0.00000  -0.00107  -0.00103   2.64853
   R13        2.05281   0.00183   0.00000   0.00339   0.00339   2.05620
   R14        2.64773  -0.01001   0.00000  -0.01535  -0.01537   2.63236
   R15        2.05482  -0.00427   0.00000  -0.00793  -0.00793   2.04690
    A1        2.01081   0.07652   0.00000   0.18791   0.18755   2.19836
    A2        2.09608  -0.04005   0.00000  -0.09755  -0.09790   1.99818
    A3        2.17541  -0.03634   0.00000  -0.08845  -0.08881   2.08660
    A4        2.15069  -0.00035   0.00000  -0.00079  -0.00084   2.14985
    A5        2.01497   0.01198   0.00000   0.02973   0.02972   2.04469
    A6        2.10280  -0.01100   0.00000  -0.02324  -0.02373   2.07907
    A7        2.18631  -0.01813   0.00000  -0.04546  -0.04547   2.14083
    A8        2.04305   0.00792   0.00000   0.02298   0.02271   2.06576
    A9        2.04696   0.01048   0.00000   0.02493   0.02499   2.07195
   A10        1.80123   0.01287   0.00000   0.04399   0.04399   1.84521
   A11        2.12273  -0.00503   0.00000  -0.02177  -0.02175   2.10098
   A12        2.15893  -0.01117   0.00000  -0.02856  -0.02865   2.13028
   A13        1.99933   0.01627   0.00000   0.05105   0.05107   2.05040
   A14        2.14218  -0.00973   0.00000  -0.02616  -0.02629   2.11588
   A15        2.01439   0.01733   0.00000   0.04696   0.04675   2.06115
   A16        2.11749  -0.00709   0.00000  -0.01701  -0.01709   2.10040
   A17        2.07567   0.00752   0.00000   0.02011   0.02017   2.09584
   A18        2.15478  -0.01727   0.00000  -0.04727  -0.04745   2.10733
   A19        2.05101   0.00982   0.00000   0.02793   0.02798   2.07899
   A20        2.05501   0.01585   0.00000   0.04363   0.04339   2.09840
   A21        2.02523  -0.00138   0.00000   0.00056   0.00067   2.02590
   A22        2.20293  -0.01447   0.00000  -0.04417  -0.04405   2.15888
    D1        2.88776   0.00243   0.00000   0.02269   0.02243   2.91019
    D2       -0.43701   0.00522   0.00000   0.05550   0.05575  -0.38126
    D3       -0.20657  -0.00309   0.00000  -0.03365  -0.03389  -0.24046
    D4        2.75185  -0.00029   0.00000  -0.00083  -0.00058   2.75127
    D5       -0.03033   0.00201   0.00000   0.01131   0.01084  -0.01949
    D6       -3.04229  -0.00147   0.00000  -0.01397  -0.01397  -3.05625
    D7       -2.97989  -0.00329   0.00000  -0.02854  -0.02853  -3.00842
    D8        0.29134  -0.00677   0.00000  -0.05382  -0.05334   0.23800
    D9        3.05648   0.00255   0.00000   0.02002   0.02011   3.07658
   D10       -0.08028   0.00212   0.00000   0.01610   0.01602  -0.06426
   D11       -0.26286   0.00638   0.00000   0.05421   0.05432  -0.20855
   D12        2.88357   0.00595   0.00000   0.05028   0.05023   2.93380
   D13        3.13850  -0.00118   0.00000  -0.00829  -0.00805   3.13045
   D14       -0.13299   0.00213   0.00000   0.01690   0.01666  -0.11633
   D15        3.00388   0.00171   0.00000   0.02021   0.02051   3.02439
   D16       -0.21287   0.00354   0.00000   0.03457   0.03476  -0.17812
   D17       -0.01868   0.00069   0.00000   0.00239   0.00208  -0.01659
   D18        3.04776   0.00252   0.00000   0.01676   0.01633   3.06409
   D19        3.09874   0.00128   0.00000   0.00809   0.00776   3.10651
   D20        0.10032  -0.00231   0.00000  -0.02046  -0.02069   0.07962
   D21       -0.11320   0.00225   0.00000   0.01894   0.01889  -0.09432
   D22       -3.11163  -0.00134   0.00000  -0.00961  -0.00957  -3.12120
   D23        3.13931   0.00108   0.00000   0.00742   0.00738  -3.13650
   D24       -0.06710   0.00278   0.00000   0.02305   0.02291  -0.04420
   D25        0.13867  -0.00218   0.00000  -0.01977  -0.01993   0.11875
   D26       -3.06774  -0.00047   0.00000  -0.00414  -0.00439  -3.07214
   D27        0.14895  -0.00417   0.00000  -0.03859  -0.03865   0.11030
   D28       -2.99803  -0.00364   0.00000  -0.03404  -0.03407  -3.03210
   D29       -3.05661  -0.00255   0.00000  -0.02339  -0.02350  -3.08011
   D30        0.07960  -0.00202   0.00000  -0.01884  -0.01892   0.06067
         Item               Value     Threshold  Converged?
 Maximum Force            0.161908     0.000450     NO 
 RMS     Force            0.025009     0.000300     NO 
 Maximum Displacement     0.273150     0.001800     NO 
 RMS     Displacement     0.051541     0.001200     NO 
 Predicted change in Energy=-3.588471D-02
 Lowest energy point so far.  Saving SCF results.
 GradGradGradGradGradGradGradGradGradGradGradGradGradGradGradGradGradGrad

 Leave Link  103 at Sun Jul 11 16:10:40 2021, MaxMem=   104857600 cpu:               0.1 elap:               0.0
 (Enter /prod/apps/gaussian/g16b1/l202.exe)
                          Input orientation:                          
 ---------------------------------------------------------------------
 Center     Atomic      Atomic             Coordinates (Angstroms)
 Number     Number       Type             X           Y           Z
 ---------------------------------------------------------------------
      1          8           0        1.519383   -1.727382   -1.850253
      2          6           0        1.142204   -1.701040   -0.625009
      3          8           0        1.376155   -2.561290    0.220545
      4          6           0        0.352019   -0.471367   -0.238909
      5          6           0       -0.372981   -0.370373    0.953275
      6          8           0       -0.445411   -1.399512    1.870697
      7          1           0       -0.996115   -1.064323    2.600252
      8          6           0       -1.158417    0.781406    1.163937
      9          1           0       -1.819812    0.846805    2.026874
     10          6           0       -1.072835    1.892219    0.337409
     11          1           0       -1.706153    2.758342    0.492439
     12          6           0       -0.244759    1.813376   -0.790596
     13          1           0       -0.149950    2.667233   -1.458341
     14          6           0        0.510196    0.669842   -1.041151
     15          1           0        1.237474    0.593064   -1.840170
 ---------------------------------------------------------------------
                    Distance matrix (angstroms):
                    1          2          3          4          5
     1  O    0.000000
     2  C    1.282256   0.000000
     3  O    2.236989   1.228709   0.000000
     4  C    2.353029   1.511808   2.372284   0.000000
     5  C    3.644487   2.560750   2.897669   1.398973   0.000000
     6  O    4.220591   2.973213   2.718609   2.438808   1.380593
     7  H    5.155034   3.921751   3.678530   3.198421   1.892722
     8  C    4.748682   3.828280   4.299729   2.412226   1.409924
     9  H    5.727894   4.722027   5.009206   3.404144   2.174272
    10  C    4.960541   4.329453   5.083793   2.819378   2.447123
    11  H    6.001168   5.408135   6.154108   3.898970   3.431993
    12  C    4.095368   3.781826   4.773622   2.424985   2.797550
    13  H    4.717299   4.630973   5.699571   3.404379   3.884930
    14  C    2.723929   2.488713   3.575189   1.403913   2.416564
    15  H    2.337529   2.597808   3.770375   2.116856   3.365280
                    6          7          8          9         10
     6  O    0.000000
     7  H    0.973589   0.000000
     8  C    2.400894   2.344368   0.000000
     9  H    2.638050   2.158623   1.089210   0.000000
    10  C    3.685123   3.723908   1.387220   2.122535   0.000000
    11  H    4.558159   4.422646   2.158518   2.453850   1.084110
    12  C    4.176768   4.510381   2.391638   3.369449   1.401542
    13  H    5.263859   5.577875   3.383739   4.271899   2.162656
    14  C    3.697874   4.305360   2.767514   3.856557   2.429119
    15  H    4.535747   5.239580   3.847132   4.936133   3.430332
                   11         12         13         14         15
    11  H    0.000000
    12  C    2.162132   0.000000
    13  H    2.497121   1.088092   0.000000
    14  C    3.409683   1.392984   2.144623   0.000000
    15  H    4.335255   2.188100   2.524463   1.083171   0.000000
 Stoichiometry    C7H5O3(1-)
 Framework group  C1[X(C7H5O3)]
 Deg. of freedom    39
 Full point group                 C1      NOp   1
 RotChk:  IX=0 Diff= 5.52D-02
 Largest Abelian subgroup         C1      NOp   1
 Largest concise Abelian subgroup C1      NOp   1
                         Standard orientation:                         
 ---------------------------------------------------------------------
 Center     Atomic      Atomic             Coordinates (Angstroms)
 Number     Number       Type             X           Y           Z
 ---------------------------------------------------------------------
      1          8           0        2.285093   -1.422529    0.294481
      2          6           0        1.784789   -0.274603    0.018539
      3          8           0        2.418925    0.744723   -0.243322
      4          6           0        0.273544   -0.233392    0.018137
      5          6           0       -0.459809    0.957929    0.009497
      6          8           0        0.139237    2.201710    0.023221
      7          1           0       -0.590258    2.846138    0.002555
      8          6           0       -1.863620    0.880990    0.115710
      9          1           0       -2.458440    1.787212    0.222151
     10          6           0       -2.544384   -0.323818    0.018868
     11          1           0       -3.621224   -0.371874    0.134625
     12          6           0       -1.791121   -1.500385   -0.093406
     13          1           0       -2.291940   -2.462821   -0.176118
     14          6           0       -0.400554   -1.451982   -0.159633
     15          1           0        0.222752   -2.318332   -0.344525
 ---------------------------------------------------------------------
 Rotational constants (GHZ):           2.2927711           1.2433716           0.8143199
 Leave Link  202 at Sun Jul 11 16:10:40 2021, MaxMem=   104857600 cpu:               0.1 elap:               0.0
 (Enter /prod/apps/gaussian/g16b1/l301.exe)
 Standard basis: 6-31G(d) (6D, 7F)
 Ernie: Thresh=  0.10000D-02 Tol=  0.10000D-05 Strict=F.
 There are   160 symmetry adapted cartesian basis functions of A   symmetry.
 There are   160 symmetry adapted basis functions of A   symmetry.
   160 basis functions,   300 primitive gaussians,   160 cartesian basis functions
    36 alpha electrons       36 beta electrons
       nuclear repulsion energy       486.1634441563 Hartrees.
 IExCor=  402 DFT=T Ex+Corr=B3LYP ExCW=0 ScaHFX=  0.200000
 ScaDFX=  0.800000  0.720000  1.000000  0.810000 ScalE2=  1.000000  1.000000
 IRadAn=      5 IRanWt=     -1 IRanGd=            0 ICorTp=0 IEmpDi=  4
 NAtoms=   15 NActive=   15 NUniq=   15 SFac= 1.00D+00 NAtFMM=   60 NAOKFM=F Big=F
 Integral buffers will be    131072 words long.
 Raffenetti 2 integral format.
 Two-electron integral symmetry is turned on.
 ------------------------------------------------------------------------------
 Polarizable Continuum Model (PCM)
 =================================
 Model                : PCM.
 Atomic radii         : MST.
 Polarization charges : Total charges.
 Charge compensation  : None.
 Solution method      : On-the-fly selection.
 Cavity type          : Scaled VdW (van der Waals Surface) (Alpha=1.250).
 Cavity algorithm     : GePol (No added spheres)
                        Default sphere list used, NSphG=   15.
                        Lebedev-Laikov grids with approx.  5.0 points / Ang**2.
                        Smoothing algorithm: York/Karplus (Gamma=1.0000).
                        Polarization charges: spherical gaussians, with
                                              point-specific exponents (IZeta= 3).
                        Self-potential: point-specific (ISelfS= 7).
                        Self-field    : sphere-specific E.n sum rule (ISelfD= 2).
 1st derivatives      : Analytical E(r).r(x)/FMM algorithm (CHGder, D1EAlg=3).
                        Cavity 1st derivative terms included.
 Solvent              : Water, Eps=  78.355300 Eps(inf)=   1.777849
 ------------------------------------------------------------------------------
 Spheres list:
 ISph  on   Nord     Re0    Alpha      Xe            Ye            Ze
    1   O      1    1.4000  1.150      2.285093     -1.422529      0.294481
    2   C      2    1.5000  1.150      1.784789     -0.274603      0.018539
    3   O      3    1.4000  1.150      2.418925      0.744723     -0.243322
    4   C      4    1.5000  1.250      0.273544     -0.233392      0.018137
    5   C      5    1.5000  1.250     -0.459809      0.957929      0.009497
    6   O      6    1.4500  1.250      0.139237      2.201710      0.023221
    7   H      7    0.9000  1.250     -0.590258      2.846138      0.002555
    8   C      8    1.5000  1.250     -1.863620      0.880990      0.115710
    9   H      9    1.2000  1.250     -2.458440      1.787212      0.222151
   10   C     10    1.5000  1.250     -2.544384     -0.323818      0.018868
   11   H     11    1.2000  1.250     -3.621224     -0.371874      0.134625
   12   C     12    1.5000  1.250     -1.791121     -1.500385     -0.093406
   13   H     13    1.2000  1.250     -2.291940     -2.462821     -0.176118
   14   C     14    1.5000  1.250     -0.400554     -1.451982     -0.159633
   15   H     15    1.2000  1.250      0.222752     -2.318332     -0.344525
 ------------------------------------------------------------------------------
 GePol: Number of generator spheres                  =      15
 GePol: Total number of spheres                      =      15
 GePol: Number of exposed spheres                    =      15 (100.00%)
 GePol: Number of points                             =    1286
 GePol: Average weight of points                     =       0.13
 GePol: Minimum weight of points                     =   0.87D-09
 GePol: Maximum weight of points                     =    0.21416
 GePol: Number of points with low weight             =      56
 GePol: Fraction of low-weight points (<1% of avg)   =       4.35%
 GePol: Cavity surface area                          =    165.433 Ang**2
 GePol: Cavity volume                                =    145.005 Ang**3
 PCM non-electrostatic energy =         0.0015747712 Hartrees.
 Nuclear repulsion after PCM non-electrostatic terms =      486.1650189275 Hartrees.
 Leave Link  301 at Sun Jul 11 16:10:40 2021, MaxMem=   104857600 cpu:               0.3 elap:               0.1
 (Enter /prod/apps/gaussian/g16b1/l302.exe)
 NPDir=0 NMtPBC=     1 NCelOv=     1 NCel=       1 NClECP=     1 NCelD=      1
         NCelK=      1 NCelE2=     1 NClLst=     1 CellRange=     0.0.
 One-electron integrals computed using PRISM.
 One-electron integral symmetry used in STVInt
 NBasis=   160 RedAO= T EigKep=  5.64D-04  NBF=   160
 NBsUse=   160 1.00D-06 EigRej= -1.00D+00 NBFU=   160
 Precomputing XC quadrature grid using
 IXCGrd= 4 IRadAn=           5 IRanWt=          -1 IRanGd=           0 AccXCQ= 0.00D+00.
 Generated NRdTot=       0 NPtTot=           0 NUsed=           0 NTot=          32
 NSgBfM=   160   160   160   160   160 MxSgAt=    15 MxSgA2=    15.
 Leave Link  302 at Sun Jul 11 16:10:40 2021, MaxMem=   104857600 cpu:               0.7 elap:               0.2
 (Enter /prod/apps/gaussian/g16b1/l303.exe)
 DipDrv:  MaxL=1.
 Leave Link  303 at Sun Jul 11 16:10:41 2021, MaxMem=   104857600 cpu:               0.1 elap:               0.1
 (Enter /prod/apps/gaussian/g16b1/l401.exe)
 Initial guess from the checkpoint file:  "SET_328_BBB299_conf1.geo_165_180.chk"
 B after Tr=    -0.000000   -0.000000    0.000000
         Rot=    0.999851   -0.002568    0.000059    0.017064 Ang=  -1.98 deg.
 Guess basis will be translated and rotated to current coordinates.
 JPrj=2 DoOrth=T DoCkMO=T.
 Generating alternative initial guess.
 ExpMin= 1.61D-01 ExpMax= 5.48D+03 ExpMxC= 8.25D+02 IAcc=3 IRadAn=         5 AccDes= 0.00D+00
 Harris functional with IExCor=  402 and IRadAn=       5 diagonalized for initial guess.
 HarFok:  IExCor=  402 AccDes= 0.00D+00 IRadAn=         5 IDoV= 1 UseB2=F ITyADJ=14
 ICtDFT=  3500011 ScaDFX=  1.000000  1.000000  1.000000  1.000000
 FoFCou: FMM=F IPFlag=           0 FMFlag=      100000 FMFlg1=           0
         NFxFlg=           0 DoJE=T BraDBF=F KetDBF=T FulRan=T
         wScrn=  0.000000 ICntrl=       500 IOpCl=  0 I1Cent=   200000004 NGrid=           0
         NMat0=    1 NMatS0=      1 NMatT0=    0 NMatD0=    1 NMtDS0=    0 NMtDT0=    0
 Petite list used in FoFCou.
 Harris En= -495.676928243472    
 Leave Link  401 at Sun Jul 11 16:10:41 2021, MaxMem=   104857600 cpu:               3.7 elap:               0.9
 (Enter /prod/apps/gaussian/g16b1/l502.exe)
 Keep R1 ints in memory in canonical form, NReq=86910067.
 FoFCou: FMM=F IPFlag=           0 FMFlag=           0 FMFlg1=           0
         NFxFlg=           0 DoJE=F BraDBF=F KetDBF=F FulRan=T
         wScrn=  0.000000 ICntrl=       600 IOpCl=  0 I1Cent=           0 NGrid=           0
         NMat0=    1 NMatS0=  12880 NMatT0=    0 NMatD0=    1 NMtDS0=    0 NMtDT0=    0
 Symmetry not used in FoFCou.
 Two-electron integral symmetry not used.
 Closed shell SCF:
 Using DIIS extrapolation, IDIIS=  1040.
 NGot=   104857600 LenX=    21850029 LenY=    21823988
 Requested convergence on RMS density matrix=1.00D-08 within 128 cycles.
 Requested convergence on MAX density matrix=1.00D-06.
 Requested convergence on             energy=1.00D-06.
 No special actions if energy rises.

 Cycle   1  Pass 1  IDiag  1:
 Inv3:  Mode=1 IEnd=     4961388.
 Iteration    1 A*A^-1 deviation from unit magnitude is 2.78D-15 for   1143.
 Iteration    1 A*A^-1 deviation from orthogonality  is 2.38D-15 for    969     39.
 Iteration    1 A^-1*A deviation from unit magnitude is 2.78D-15 for   1143.
 Iteration    1 A^-1*A deviation from orthogonality  is 3.78D-15 for    936    256.
 E= -495.558258163004    
 DIIS: error= 4.44D-03 at cycle   1 NSaved=   1.
 NSaved= 1 IEnMin= 1 EnMin= -495.558258163004     IErMin= 1 ErrMin= 4.44D-03
 ErrMax= 4.44D-03  0.00D+00 EMaxC= 1.00D-01 BMatC= 8.49D-03 BMatP= 8.49D-03
 IDIUse=3 WtCom= 9.56D-01 WtEn= 4.44D-02
 Coeff-Com:  0.100D+01
 Coeff-En:   0.100D+01
 Coeff:      0.100D+01
 Gap=     1.858 Goal=   None    Shift=    0.000
 GapD=    1.858 DampG=2.000 DampE=1.000 DampFc=2.0000 IDamp=-1.
 RMSDP=1.46D-03 MaxDP=2.06D-02              OVMax= 3.33D-02

 Cycle   2  Pass 1  IDiag  1:
 E= -495.570507205321     Delta-E=       -0.012249042317 Rises=F Damp=F
 DIIS: error= 1.57D-03 at cycle   2 NSaved=   2.
 NSaved= 2 IEnMin= 2 EnMin= -495.570507205321     IErMin= 2 ErrMin= 1.57D-03
 ErrMax= 1.57D-03  0.00D+00 EMaxC= 1.00D-01 BMatC= 4.90D-04 BMatP= 8.49D-03
 IDIUse=3 WtCom= 9.84D-01 WtEn= 1.57D-02
 Coeff-Com:  0.429D-01 0.957D+00
 Coeff-En:   0.000D+00 0.100D+01
 Coeff:      0.423D-01 0.958D+00
 Gap=     0.196 Goal=   None    Shift=    0.000
 RMSDP=2.96D-04 MaxDP=7.07D-03 DE=-1.22D-02 OVMax= 1.23D-02

 Cycle   3  Pass 1  IDiag  1:
 E= -495.570177303499     Delta-E=        0.000329901822 Rises=F Damp=F
 DIIS: error= 2.14D-03 at cycle   3 NSaved=   3.
 NSaved= 3 IEnMin= 2 EnMin= -495.570507205321     IErMin= 2 ErrMin= 1.57D-03
 ErrMax= 2.14D-03  0.00D+00 EMaxC= 1.00D-01 BMatC= 9.39D-04 BMatP= 4.90D-04
 IDIUse=3 WtCom= 1.78D-01 WtEn= 8.22D-01
 Coeff-Com: -0.276D-01 0.599D+00 0.429D+00
 Coeff-En:   0.000D+00 0.623D+00 0.377D+00
 Coeff:     -0.491D-02 0.619D+00 0.386D+00
 Gap=     0.198 Goal=   None    Shift=    0.000
 RMSDP=1.86D-04 MaxDP=5.78D-03 DE= 3.30D-04 OVMax= 8.97D-03

 Cycle   4  Pass 1  IDiag  1:
 E= -495.570960937716     Delta-E=       -0.000783634216 Rises=F Damp=F
 DIIS: error= 3.22D-04 at cycle   4 NSaved=   4.
 NSaved= 4 IEnMin= 4 EnMin= -495.570960937716     IErMin= 4 ErrMin= 3.22D-04
 ErrMax= 3.22D-04  0.00D+00 EMaxC= 1.00D-01 BMatC= 2.08D-05 BMatP= 4.90D-04
 IDIUse=3 WtCom= 9.97D-01 WtEn= 3.22D-03
 Coeff-Com: -0.165D-01 0.237D+00 0.185D+00 0.594D+00
 Coeff-En:   0.000D+00 0.000D+00 0.000D+00 0.100D+01
 Coeff:     -0.165D-01 0.236D+00 0.185D+00 0.596D+00
 Gap=     0.196 Goal=   None    Shift=    0.000
 RMSDP=3.82D-05 MaxDP=1.12D-03 DE=-7.84D-04 OVMax= 1.85D-03

 Cycle   5  Pass 1  IDiag  1:
 E= -495.570974991646     Delta-E=       -0.000014053930 Rises=F Damp=F
 DIIS: error= 1.39D-04 at cycle   5 NSaved=   5.
 NSaved= 5 IEnMin= 5 EnMin= -495.570974991646     IErMin= 5 ErrMin= 1.39D-04
 ErrMax= 1.39D-04  0.00D+00 EMaxC= 1.00D-01 BMatC= 3.90D-06 BMatP= 2.08D-05
 IDIUse=3 WtCom= 9.99D-01 WtEn= 1.39D-03
 Coeff-Com: -0.668D-02 0.737D-01 0.648D-01 0.327D+00 0.541D+00
 Coeff-En:   0.000D+00 0.000D+00 0.000D+00 0.106D+00 0.894D+00
 Coeff:     -0.667D-02 0.736D-01 0.647D-01 0.327D+00 0.542D+00
 Gap=     0.196 Goal=   None    Shift=    0.000
 RMSDP=1.48D-05 MaxDP=4.36D-04 DE=-1.41D-05 OVMax= 6.86D-04

 Cycle   6  Pass 1  IDiag  1:
 E= -495.570977860375     Delta-E=       -0.000002868729 Rises=F Damp=F
 DIIS: error= 5.04D-05 at cycle   6 NSaved=   6.
 NSaved= 6 IEnMin= 6 EnMin= -495.570977860375     IErMin= 6 ErrMin= 5.04D-05
 ErrMax= 5.04D-05  0.00D+00 EMaxC= 1.00D-01 BMatC= 5.30D-07 BMatP= 3.90D-06
 IDIUse=1 WtCom= 1.00D+00 WtEn= 0.00D+00
 Coeff-Com: -0.150D-02 0.106D-01 0.138D-01 0.111D+00 0.314D+00 0.551D+00
 Coeff:     -0.150D-02 0.106D-01 0.138D-01 0.111D+00 0.314D+00 0.551D+00
 Gap=     0.196 Goal=   None    Shift=    0.000
 RMSDP=5.33D-06 MaxDP=1.83D-04 DE=-2.87D-06 OVMax= 2.20D-04

 Cycle   7  Pass 1  IDiag  1:
 E= -495.570978260307     Delta-E=       -0.000000399932 Rises=F Damp=F
 DIIS: error= 8.79D-06 at cycle   7 NSaved=   7.
 NSaved= 7 IEnMin= 7 EnMin= -495.570978260307     IErMin= 7 ErrMin= 8.79D-06
 ErrMax= 8.79D-06  0.00D+00 EMaxC= 1.00D-01 BMatC= 2.40D-08 BMatP= 5.30D-07
 IDIUse=1 WtCom= 1.00D+00 WtEn= 0.00D+00
 Coeff-Com: -0.108D-03-0.219D-02 0.969D-04 0.199D-01 0.916D-01 0.247D+00
 Coeff-Com:  0.644D+00
 Coeff:     -0.108D-03-0.219D-02 0.969D-04 0.199D-01 0.916D-01 0.247D+00
 Coeff:      0.644D+00
 Gap=     0.196 Goal=   None    Shift=    0.000
 RMSDP=1.28D-06 MaxDP=2.74D-05 DE=-4.00D-07 OVMax= 4.74D-05

 Cycle   8  Pass 1  IDiag  1:
 E= -495.570978279038     Delta-E=       -0.000000018731 Rises=F Damp=F
 DIIS: error= 2.91D-06 at cycle   8 NSaved=   8.
 NSaved= 8 IEnMin= 8 EnMin= -495.570978279038     IErMin= 8 ErrMin= 2.91D-06
 ErrMax= 2.91D-06  0.00D+00 EMaxC= 1.00D-01 BMatC= 3.23D-09 BMatP= 2.40D-08
 IDIUse=1 WtCom= 1.00D+00 WtEn= 0.00D+00
 Coeff-Com:  0.846D-04-0.219D-02-0.135D-02 0.137D-03 0.179D-01 0.778D-01
 Coeff-Com:  0.336D+00 0.572D+00
 Coeff:      0.846D-04-0.219D-02-0.135D-02 0.137D-03 0.179D-01 0.778D-01
 Coeff:      0.336D+00 0.572D+00
 Gap=     0.196 Goal=   None    Shift=    0.000
 RMSDP=3.90D-07 MaxDP=1.08D-05 DE=-1.87D-08 OVMax= 1.85D-05

 Cycle   9  Pass 1  IDiag  1:
 E= -495.570978282253     Delta-E=       -0.000000003215 Rises=F Damp=F
 DIIS: error= 4.62D-07 at cycle   9 NSaved=   9.
 NSaved= 9 IEnMin= 9 EnMin= -495.570978282253     IErMin= 9 ErrMin= 4.62D-07
 ErrMax= 4.62D-07  0.00D+00 EMaxC= 1.00D-01 BMatC= 9.57D-11 BMatP= 3.23D-09
 IDIUse=1 WtCom= 1.00D+00 WtEn= 0.00D+00
 Coeff-Com:  0.326D-04-0.553D-03-0.441D-03-0.871D-03 0.695D-03 0.133D-01
 Coeff-Com:  0.759D-01 0.201D+00 0.711D+00
 Coeff:      0.326D-04-0.553D-03-0.441D-03-0.871D-03 0.695D-03 0.133D-01
 Coeff:      0.759D-01 0.201D+00 0.711D+00
 Gap=     0.196 Goal=   None    Shift=    0.000
 RMSDP=9.29D-08 MaxDP=2.57D-06 DE=-3.22D-09 OVMax= 4.47D-06

 Cycle  10  Pass 1  IDiag  1:
 E= -495.570978282335     Delta-E=       -0.000000000082 Rises=F Damp=F
 DIIS: error= 3.04D-07 at cycle  10 NSaved=  10.
 NSaved=10 IEnMin=10 EnMin= -495.570978282335     IErMin=10 ErrMin= 3.04D-07
 ErrMax= 3.04D-07  0.00D+00 EMaxC= 1.00D-01 BMatC= 2.05D-11 BMatP= 9.57D-11
 IDIUse=1 WtCom= 1.00D+00 WtEn= 0.00D+00
 Coeff-Com:  0.558D-05 0.784D-05-0.483D-04-0.452D-03-0.201D-02-0.320D-02
 Coeff-Com: -0.567D-02 0.286D-01 0.356D+00 0.627D+00
 Coeff:      0.558D-05 0.784D-05-0.483D-04-0.452D-03-0.201D-02-0.320D-02
 Coeff:     -0.567D-02 0.286D-01 0.356D+00 0.627D+00
 Gap=     0.196 Goal=   None    Shift=    0.000
 RMSDP=3.61D-08 MaxDP=6.83D-07 DE=-8.15D-11 OVMax= 2.08D-06

 Cycle  11  Pass 1  IDiag  1:
 E= -495.570978282358     Delta-E=       -0.000000000023 Rises=F Damp=F
 DIIS: error= 7.71D-08 at cycle  11 NSaved=  11.
 NSaved=11 IEnMin=11 EnMin= -495.570978282358     IErMin=11 ErrMin= 7.71D-08
 ErrMax= 7.71D-08  0.00D+00 EMaxC= 1.00D-01 BMatC= 1.36D-12 BMatP= 2.05D-11
 IDIUse=1 WtCom= 1.00D+00 WtEn= 0.00D+00
 Coeff-Com:  0.103D-06 0.401D-04 0.113D-04-0.149D-03-0.928D-03-0.234D-02
 Coeff-Com: -0.803D-02-0.262D-02 0.959D-01 0.267D+00 0.651D+00
 Coeff:      0.103D-06 0.401D-04 0.113D-04-0.149D-03-0.928D-03-0.234D-02
 Coeff:     -0.803D-02-0.262D-02 0.959D-01 0.267D+00 0.651D+00
 Gap=     0.196 Goal=   None    Shift=    0.000
 RMSDP=1.02D-08 MaxDP=3.11D-07 DE=-2.29D-11 OVMax= 5.19D-07

 Cycle  12  Pass 1  IDiag  1:
 E= -495.570978282357     Delta-E=        0.000000000000 Rises=F Damp=F
 DIIS: error= 2.29D-08 at cycle  12 NSaved=  12.
 NSaved=12 IEnMin=11 EnMin= -495.570978282358     IErMin=12 ErrMin= 2.29D-08
 ErrMax= 2.29D-08  0.00D+00 EMaxC= 1.00D-01 BMatC= 2.28D-13 BMatP= 1.36D-12
 IDIUse=1 WtCom= 1.00D+00 WtEn= 0.00D+00
 Coeff-Com: -0.740D-06 0.178D-04 0.127D-04-0.155D-04-0.177D-03-0.746D-03
 Coeff-Com: -0.325D-02-0.570D-02-0.506D-02 0.383D-01 0.324D+00 0.652D+00
 Coeff:     -0.740D-06 0.178D-04 0.127D-04-0.155D-04-0.177D-03-0.746D-03
 Coeff:     -0.325D-02-0.570D-02-0.506D-02 0.383D-01 0.324D+00 0.652D+00
 Gap=     0.196 Goal=   None    Shift=    0.000
 RMSDP=3.82D-09 MaxDP=7.94D-08 DE= 3.41D-13 OVMax= 1.93D-07

 Error on total polarization charges =  0.01931
 SCF Done:  E(RB3LYP) =  -495.570978282     A.U. after   12 cycles
            NFock= 12  Conv=0.38D-08     -V/T= 2.0088
 KE= 4.912654429417D+02 PE=-2.144871552029D+03 EE= 6.718701118773D+02
 Leave Link  502 at Sun Jul 11 16:11:00 2021, MaxMem=   104857600 cpu:              67.0 elap:              18.5
 (Enter /prod/apps/gaussian/g16b1/l701.exe)
 ... and contract with generalized density number  0.
 Compute integral first derivatives.
 D1PCM: PCM CHGder 1st derivatives, ID1Alg=3 FixD1E=F DoIter=F DoCFld=F I1PDM=0.
 GePol: Maximum number of non-zero 1st derivatives   =     234
 Leave Link  701 at Sun Jul 11 16:11:01 2021, MaxMem=   104857600 cpu:               3.6 elap:               0.9
 (Enter /prod/apps/gaussian/g16b1/l702.exe)
 L702 exits ... SP integral derivatives will be done elsewhere.
 Leave Link  702 at Sun Jul 11 16:11:01 2021, MaxMem=   104857600 cpu:               0.2 elap:               0.1
 (Enter /prod/apps/gaussian/g16b1/l703.exe)
 Integral derivatives from FoFJK, PRISM(SPDF).
 Compute integral first derivatives, UseDBF=F ICtDFT=           0.
 Calling FoFJK, ICntrl=      2127 FMM=F ISym2X=0 I1Cent= 0 IOpClX= 0 NMat=1 NMatS=1 NMatT=0.
 FoFJK:  IHMeth= 1 ICntrl=    2127 DoSepK=F KAlg= 0 I1Cent=           0 FoldK=F
 IRaf=         0 NMat=       1 IRICut=       1 DoRegI=T DoRafI=F ISym2E= 0 IDoP0=0 IntGTp=1.
 FoFCou: FMM=F IPFlag=           0 FMFlag=      100000 FMFlg1=         800
         NFxFlg=           0 DoJE=F BraDBF=F KetDBF=F FulRan=T
         wScrn=  0.000000 ICntrl=      2127 IOpCl=  0 I1Cent=           0 NGrid=           0
         NMat0=    1 NMatS0=      1 NMatT0=    0 NMatD0=    1 NMtDS0=    0 NMtDT0=    0
 Symmetry not used in FoFCou.
 Leave Link  703 at Sun Jul 11 16:11:05 2021, MaxMem=   104857600 cpu:              16.3 elap:               4.1
 (Enter /prod/apps/gaussian/g16b1/l716.exe)
 Dipole        =-5.34570966D+00 1.14954287D+00-1.04153662D-01
 ***** Axes restored to original set *****
 -------------------------------------------------------------------
 Center     Atomic                   Forces (Hartrees/Bohr)
 Number     Number              X              Y              Z
 -------------------------------------------------------------------
      1        8          -0.001851685   -0.002297918    0.009230634
[...]
 NSaved=12 IEnMin=12 EnMin= -492.673472039932     IErMin=12 ErrMin= 6.75D-07
 ErrMax= 6.75D-07  0.00D+00 EMaxC= 1.00D-01 BMatC= 4.67D-11 BMatP= 3.11D-10
 IDIUse=1 WtCom= 1.00D+00 WtEn= 0.00D+00
 Coeff-Com: -0.355D-05 0.194D-04 0.138D-03 0.127D-03-0.813D-03-0.258D-02
 Coeff-Com:  0.146D-02 0.338D-01-0.165D-01-0.248D+00-0.317D-01 0.126D+01
 Coeff:     -0.355D-05 0.194D-04 0.138D-03 0.127D-03-0.813D-03-0.258D-02
 Coeff:      0.146D-02 0.338D-01-0.165D-01-0.248D+00-0.317D-01 0.126D+01
 Gap=     0.294 Goal=   None    Shift=    0.000
 RMSDP=3.50D-07 MaxDP=9.57D-06 DE=-1.29D-09 OVMax= 1.44D-05

 Cycle  13  Pass 1  IDiag  1:
 RMSU=  1.28D-07    CP:  5.17D-01  8.75D-01  8.99D-01  1.06D+00  1.04D+00
                    CP:  1.18D+00  1.17D+00  1.38D+00  1.47D+00  1.71D+00
                    CP:  2.00D+00  1.58D+00
 E= -492.673472040241     Delta-E=       -0.000000000308 Rises=F Damp=F
 DIIS: error= 1.86D-07 at cycle  13 NSaved=  13.
 NSaved=13 IEnMin=13 EnMin= -492.673472040241     IErMin=13 ErrMin= 1.86D-07
 ErrMax= 1.86D-07  0.00D+00 EMaxC= 1.00D-01 BMatC= 6.13D-12 BMatP= 4.67D-11
 IDIUse=1 WtCom= 1.00D+00 WtEn= 0.00D+00
 Coeff-Com: -0.223D-05 0.747D-05 0.552D-04 0.102D-03-0.612D-04-0.182D-02
 Coeff-Com: -0.252D-02 0.143D-01 0.242D-01-0.581D-01-0.149D+00 0.117D+00
 Coeff-Com:  0.106D+01
 Coeff:     -0.223D-05 0.747D-05 0.552D-04 0.102D-03-0.612D-04-0.182D-02
 Coeff:     -0.252D-02 0.143D-01 0.242D-01-0.581D-01-0.149D+00 0.117D+00
 Coeff:      0.106D+01
 Gap=     0.294 Goal=   None    Shift=    0.000
 RMSDP=1.17D-07 MaxDP=3.83D-06 DE=-3.08D-10 OVMax= 4.67D-06

 Cycle  14  Pass 1  IDiag  1:
 RMSU=  3.64D-08    CP:  5.17D-01  8.75D-01  8.99D-01  1.06D+00  1.04D+00
                    CP:  1.18D+00  1.17D+00  1.38D+00  1.48D+00  1.72D+00
                    CP:  2.10D+00  1.78D+00  1.39D+00
 E= -492.673472040279     Delta-E=       -0.000000000038 Rises=F Damp=F
 DIIS: error= 5.80D-08 at cycle  14 NSaved=  14.
 NSaved=14 IEnMin=14 EnMin= -492.673472040279     IErMin=14 ErrMin= 5.80D-08
 ErrMax= 5.80D-08  0.00D+00 EMaxC= 1.00D-01 BMatC= 9.32D-13 BMatP= 6.13D-12
 IDIUse=1 WtCom= 1.00D+00 WtEn= 0.00D+00
 Coeff-Com:  0.117D-06-0.124D-05-0.101D-04-0.401D-06 0.107D-03 0.599D-04
 Coeff-Com: -0.736D-03-0.243D-02 0.720D-02 0.254D-01-0.195D-01-0.167D+00
 Coeff-Com:  0.207D+00 0.950D+00
 Coeff:      0.117D-06-0.124D-05-0.101D-04-0.401D-06 0.107D-03 0.599D-04
 Coeff:     -0.736D-03-0.243D-02 0.720D-02 0.254D-01-0.195D-01-0.167D+00
 Coeff:      0.207D+00 0.950D+00
 Gap=     0.294 Goal=   None    Shift=    0.000
 RMSDP=3.17D-08 MaxDP=1.16D-06 DE=-3.80D-11 OVMax= 1.32D-06

 Cycle  15  Pass 1  IDiag  1:
 RMSU=  1.56D-08    CP:  5.17D-01  8.75D-01  8.99D-01  1.06D+00  1.04D+00
                    CP:  1.18D+00  1.17D+00  1.38D+00  1.47D+00  1.72D+00
                    CP:  2.12D+00  1.82D+00  1.53D+00  1.09D+00
 E= -492.673472040277     Delta-E=        0.000000000002 Rises=F Damp=F
 DIIS: error= 1.83D-08 at cycle  15 NSaved=  15.
 NSaved=15 IEnMin=14 EnMin= -492.673472040279     IErMin=15 ErrMin= 1.83D-08
 ErrMax= 1.83D-08  0.00D+00 EMaxC= 1.00D-01 BMatC= 1.08D-13 BMatP= 9.32D-13
 IDIUse=1 WtCom= 1.00D+00 WtEn= 0.00D+00
 Coeff-Com:  0.288D-06-0.916D-06-0.730D-05-0.141D-04-0.660D-06 0.271D-03
 Coeff-Com:  0.393D-03-0.181D-02-0.375D-02 0.524D-02 0.285D-01-0.132D-01
 Coeff-Com: -0.168D+00-0.496D-01 0.120D+01
 Coeff:      0.288D-06-0.916D-06-0.730D-05-0.141D-04-0.660D-06 0.271D-03
 Coeff:      0.393D-03-0.181D-02-0.375D-02 0.524D-02 0.285D-01-0.132D-01
 Coeff:     -0.168D+00-0.496D-01 0.120D+01
 Gap=     0.294 Goal=   None    Shift=    0.000
 RMSDP=1.59D-08 MaxDP=8.33D-07 DE= 2.27D-12 OVMax= 4.29D-07

 Cycle  16  Pass 1  IDiag  1:
 RMSU=  6.68D-09    CP:  5.17D-01  8.75D-01  8.99D-01  1.06D+00  1.04D+00
                    CP:  1.18D+00  1.17D+00  1.38D+00  1.48D+00  1.72D+00
                    CP:  2.12D+00  1.81D+00  1.57D+00  1.19D+00  1.38D+00
 E= -492.673472040276     Delta-E=        0.000000000000 Rises=F Damp=F
 DIIS: error= 7.38D-09 at cycle  16 NSaved=  16.
 NSaved=16 IEnMin=14 EnMin= -492.673472040279     IErMin=16 ErrMin= 7.38D-09
 ErrMax= 7.38D-09  0.00D+00 EMaxC= 1.00D-01 BMatC= 1.51D-14 BMatP= 1.08D-13
 IDIUse=1 WtCom= 1.00D+00 WtEn= 0.00D+00
 Coeff-Com: -0.197D-07 0.164D-06 0.121D-05 0.189D-06-0.117D-04-0.115D-04
 Coeff-Com:  0.618D-04 0.252D-03-0.534D-03-0.371D-02 0.314D-02 0.149D-01
 Coeff-Com: -0.132D-01-0.101D+00-0.298D-01 0.113D+01
 Coeff:     -0.197D-07 0.164D-06 0.121D-05 0.189D-06-0.117D-04-0.115D-04
 Coeff:      0.618D-04 0.252D-03-0.534D-03-0.371D-02 0.314D-02 0.149D-01
 Coeff:     -0.132D-01-0.101D+00-0.298D-01 0.113D+01
 Gap=     0.294 Goal=   None    Shift=    0.000
 RMSDP=4.80D-09 MaxDP=1.36D-07 DE= 2.27D-13 OVMax= 1.55D-07

 SCF Done:  E(RHF) =  -492.673472040     A.U. after   16 cycles
            NFock= 16  Conv=0.48D-08     -V/T= 2.0013
 KE= 4.920420345515D+02 PE=-2.138110668542D+03 EE= 6.693179780180D+02
 Leave Link  502 at Sun Jul 11 16:22:45 2021, MaxMem=   262144000 cpu:             289.5 elap:              72.5
 (Enter /prod/apps/gaussian/g16b1/l801.exe)
 ExpMin= 2.97D-02 ExpMax= 1.17D+04 ExpMxC= 4.01D+02 IAcc=3 IRadAn=         5 AccDes= 0.00D+00
 HarFok:  IExCor=  205 AccDes= 0.00D+00 IRadAn=         5 IDoV=-2 UseB2=F ITyADJ=14
 ICtDFT= 12500011 ScaDFX=  1.000000  1.000000  1.000000  1.000000
 Largest valence mixing into a core orbital is  1.19D-04
 Largest core mixing into a valence orbital is  4.23D-05
 Range of M.O.s used for correlation:    11   275
 NBasis=   275 NAE=    36 NBE=    36 NFC=    10 NFV=     0
 NROrb=    265 NOA=    26 NOB=    26 NVA=   239 NVB=   239

 **** Warning!!: The largest alpha MO coefficient is  0.11508565D+03

 Leave Link  801 at Sun Jul 11 16:22:45 2021, MaxMem=   262144000 cpu:               0.6 elap:               0.2
 (Enter /prod/apps/gaussian/g16b1/l906.exe)
 FulOut=F Deriv=F AODrv=F NAtomX=    15
   MMem=          33  MDisk=          26 MDiskD=          26
  W3Min=     1833130 MinDsk=     2275006 NBas6D=         295
 NBas2D=       44080    NTT=       43660    LW2=     2000000
    MDV=   261550043 MDiskM=       12219 NBas2p=       43191
 Fully direct method using O(OVN) memory.
 IMap=   1   2   3   4   5   6   7   8   9  10  11  12  13  14  15  16  17  18  19  20
 IMap=  21  22  23  24  25  26
 JobTyp=1 Pass  1:  I=   1 to  26 NPSUse=  4 ParTrn=T ParDer=T DoDerP=F.
 Spin components of T(2) and E(2):
     alpha-alpha T2 =       0.7617551153D-01 E2=     -0.2131527602D+00
     alpha-beta  T2 =       0.3763411646D+00 E2=     -0.1115403303D+01
     beta-beta   T2 =       0.7617551153D-01 E2=     -0.2131527602D+00
 The integrals were generated   1 times.
 ANorm=    0.1236402923D+01
 E2 =    -0.1541708824D+01 EUMP2 =    -0.49421518086386D+03
 Leave Link  906 at Sun Jul 11 16:23:29 2021, MaxMem=   262144000 cpu:             174.8 elap:              43.7
 (Enter /prod/apps/gaussian/g16b1/l601.exe)
 Copying SCF densities to generalized density rwf, IOpCl= 0 IROHF=0.

 **********************************************************************

            Population analysis using the SCF Density.

 **********************************************************************

 Orbital symmetries:
       Occupied  (A) (A) (A) (A) (A) (A) (A) (A) (A) (A) (A) (A)
                 (A) (A) (A) (A) (A) (A) (A) (A) (A) (A) (A) (A)
                 (A) (A) (A) (A) (A) (A) (A) (A) (A) (A) (A) (A)
       Virtual   (A) (A) (A) (A) (A) (A) (A) (A) (A) (A) (A) (A)
                 (A) (A) (A) (A) (A) (A) (A) (A) (A) (A) (A) (A)
                 (A) (A) (A) (A) (A) (A) (A) (A) (A) (A) (A) (A)
                 (A) (A) (A) (A) (A) (A) (A) (A) (A) (A) (A) (A)
                 (A) (A) (A) (A) (A) (A) (A) (A) (A) (A) (A) (A)
                 (A) (A) (A) (A) (A) (A) (A) (A) (A) (A) (A) (A)
                 (A) (A) (A) (A) (A) (A) (A) (A) (A) (A) (A) (A)
                 (A) (A) (A) (A) (A) (A) (A) (A) (A) (A) (A) (A)
                 (A) (A) (A) (A) (A) (A) (A) (A) (A) (A) (A) (A)
                 (A) (A) (A) (A) (A) (A) (A) (A) (A) (A) (A) (A)
                 (A) (A) (A) (A) (A) (A) (A) (A) (A) (A) (A) (A)
                 (A) (A) (A) (A) (A) (A) (A) (A) (A) (A) (A) (A)
                 (A) (A) (A) (A) (A) (A) (A) (A) (A) (A) (A) (A)
                 (A) (A) (A) (A) (A) (A) (A) (A) (A) (A) (A) (A)
                 (A) (A) (A) (A) (A) (A) (A) (A) (A) (A) (A) (A)
                 (A) (A) (A) (A) (A) (A) (A) (A) (A) (A) (A) (A)
                 (A) (A) (A) (A) (A) (A) (A) (A) (A) (A) (A) (A)
                 (A) (A) (A) (A) (A) (A) (A) (A) (A) (A) (A) (A)
                 (A) (A) (A) (A) (A) (A) (A) (A) (A) (A) (A) (A)
                 (A) (A) (A) (A) (A) (A) (A) (A) (A) (A) (A)
 The electronic state is 1-A.
 Alpha  occ. eigenvalues --  -20.47036 -20.30710 -20.30547 -11.18684 -11.15942
 Alpha  occ. eigenvalues --  -11.13329 -11.12023 -11.11205 -11.10941 -11.09876
 Alpha  occ. eigenvalues --   -1.27843  -1.17636  -1.07057  -1.02127  -0.89496
 Alpha  occ. eigenvalues --   -0.87967  -0.71978  -0.70670  -0.60534  -0.59156
 Alpha  occ. eigenvalues --   -0.53358  -0.51370  -0.47052  -0.46306  -0.45981
 Alpha  occ. eigenvalues --   -0.43118  -0.40289  -0.38860  -0.37303  -0.36784
 Alpha  occ. eigenvalues --   -0.34581  -0.22070  -0.20981  -0.20896  -0.19305
 Alpha  occ. eigenvalues --   -0.18622
 Alpha virt. eigenvalues --    0.10751   0.11517   0.12621   0.14807   0.15999
 Alpha virt. eigenvalues --    0.20797   0.21134   0.21400   0.21771   0.22433
 Alpha virt. eigenvalues --    0.22555   0.22796   0.23292   0.24138   0.24652
 Alpha virt. eigenvalues --    0.25087   0.25497   0.26137   0.27110   0.28256
 Alpha virt. eigenvalues --    0.28347   0.29102   0.29839   0.30011   0.31395
 Alpha virt. eigenvalues --    0.32058   0.33618   0.33774   0.34885   0.36221
 Alpha virt. eigenvalues --    0.38610   0.40237   0.40660   0.41076   0.41747
 Alpha virt. eigenvalues --    0.43283   0.43413   0.44120   0.44262   0.44879
 Alpha virt. eigenvalues --    0.46181   0.46583   0.48201   0.48800   0.48882
 Alpha virt. eigenvalues --    0.49538   0.49673   0.50349   0.51221   0.52683
 Alpha virt. eigenvalues --    0.53058   0.54288   0.55294   0.55344   0.56884
 Alpha virt. eigenvalues --    0.58112   0.58593   0.60033   0.60301   0.60937
 Alpha virt. eigenvalues --    0.61182   0.64811   0.66063   0.66576   0.67830
 Alpha virt. eigenvalues --    0.69177   0.70997   0.71193   0.71542   0.72432
 Alpha virt. eigenvalues --    0.73034   0.74087   0.75871   0.77415   0.78568
 Alpha virt. eigenvalues --    0.78601   0.78958   0.80384   0.80825   0.81812
 Alpha virt. eigenvalues --    0.82315   0.83129   0.83140   0.85451   0.86703
 Alpha virt. eigenvalues --    0.86821   0.87361   0.88871   0.91570   0.92356
 Alpha virt. eigenvalues --    0.94225   0.96565   0.96938   0.97473   0.98562
 Alpha virt. eigenvalues --    0.99813   1.01398   1.02938   1.03849   1.04834
 Alpha virt. eigenvalues --    1.05014   1.06117   1.06880   1.07989   1.09200
 Alpha virt. eigenvalues --    1.10304   1.10996   1.11769   1.12174   1.13140
 Alpha virt. eigenvalues --    1.14766   1.17203   1.18525   1.19211   1.20303
 Alpha virt. eigenvalues --    1.21378   1.22156   1.25227   1.27694   1.29780
 Alpha virt. eigenvalues --    1.30324   1.34144   1.36765   1.37470   1.38469
 Alpha virt. eigenvalues --    1.41222   1.43568   1.45052   1.45832   1.50901
 Alpha virt. eigenvalues --    1.52931   1.55476   1.56725   1.58532   1.58720
 Alpha virt. eigenvalues --    1.61775   1.63166   1.63503   1.64474   1.64828
 Alpha virt. eigenvalues --    1.66287   1.67371   1.69602   1.70729   1.71398
 Alpha virt. eigenvalues --    1.73395   1.75133   1.77320   1.80092   1.80718
 Alpha virt. eigenvalues --    1.82557   1.83439   1.83995   1.86540   1.87229
 Alpha virt. eigenvalues --    1.88051   1.89208   1.90871   1.94553   1.94984
 Alpha virt. eigenvalues --    1.96819   1.98938   2.00397   2.03604   2.05490
 Alpha virt. eigenvalues --    2.06159   2.06729   2.06898   2.08518   2.09316
 Alpha virt. eigenvalues --    2.10527   2.12560   2.13222   2.17140   2.17380
 Alpha virt. eigenvalues --    2.21672   2.21845   2.24076   2.25814   2.25957
 Alpha virt. eigenvalues --    2.29405   2.30653   2.34573   2.35358   2.36071
 Alpha virt. eigenvalues --    2.37325   2.39539   2.42883   2.44540   2.45710
 Alpha virt. eigenvalues --    2.46471   2.48346   2.48537   2.48936   2.51074
 Alpha virt. eigenvalues --    2.54539   2.58094   2.59839   2.64099   2.71354
 Alpha virt. eigenvalues --    2.74156   2.74622   2.77200   2.84938   2.90870
 Alpha virt. eigenvalues --    2.92945   2.93398   2.98666   3.07492   3.09977
 Alpha virt. eigenvalues --    3.12220   3.14822   3.21931   3.28597   3.33388
 Alpha virt. eigenvalues --    3.39556   3.41258   3.45667   3.47998   3.52043
 Alpha virt. eigenvalues --    3.73837   3.77716   3.87987   3.89964   3.91760
 Alpha virt. eigenvalues --    3.96035   3.99735   4.01370   4.03440   4.05557
 Alpha virt. eigenvalues --    4.08547   4.12897   4.16394   4.17177   4.23500
 Alpha virt. eigenvalues --    4.37392   4.42828   4.55606   4.84662
          Condensed to atoms (all electrons):
               1          2          3          4          5          6
     1  O    9.011306   0.139103  -0.117599   0.083431  -0.029485  -0.009166
     2  C    0.139103   7.169043   0.237524  -0.885166  -0.504854  -0.015590
     3  O   -0.117599   0.237524   8.922499   0.064107   0.120041  -0.074655
     4  C    0.083431  -0.885166   0.064107  11.254947  -2.961472   0.221723
     5  C   -0.029485  -0.504854   0.120041  -2.961472  13.699357  -0.863558
     6  O   -0.009166  -0.015590  -0.074655   0.221723  -0.863558   9.153090
     7  H    0.002059   0.007044   0.012482   0.067194  -0.015000   0.289965
     8  C   -0.024607  -0.228374  -0.084965   1.457381  -5.052378   0.479213
     9  H   -0.000195   0.012572  -0.000404  -0.214352   0.942963  -0.143210
    10  C   -0.003980   0.240844  -0.015254  -2.354819   1.962556  -0.154715
    11  H    0.000223  -0.008591  -0.000070   0.056950  -0.123553  -0.001517
    12  C   -0.132591  -0.396956  -0.012099   1.324586  -3.070324   0.138485
    13  H    0.000742   0.010028   0.000550  -0.059990   0.078795   0.001978
    14  C    0.108010  -0.748309  -0.112965  -3.156850   0.976123  -0.088440
    15  H   -0.040248   0.108808   0.002621   0.512335  -0.128438  -0.000210
               7          8          9         10         11         12
     1  O    0.002059  -0.024607  -0.000195  -0.003980   0.000223  -0.132591
     2  C    0.007044  -0.228374   0.012572   0.240844  -0.008591  -0.396956
     3  O    0.012482  -0.084965  -0.000404  -0.015254  -0.000070  -0.012099
     4  C    0.067194   1.457381  -0.214352  -2.354819   0.056950   1.324586
     5  C   -0.015000  -5.052378   0.942963   1.962556  -0.123553  -3.070324
     6  O    0.289965   0.479213  -0.143210  -0.154715  -0.001517   0.138485
     7  H    0.612622  -0.174873   0.002507   0.011321  -0.002021  -0.012290
     8  C   -0.174873  12.983655  -1.163432  -2.633181   0.427845   3.201240
     9  H    0.002507  -1.163432   2.003309   0.410977  -0.063186  -0.290048
    10  C    0.011321  -2.633181   0.410977   9.082031  -0.650821  -2.632643
    11  H   -0.002021   0.427845  -0.063186  -0.650821   1.648759   0.386553
    12  C   -0.012290   3.201240  -0.290048  -2.632643   0.386553  11.459208
    13  H    0.000429  -0.198193  -0.019618   0.266069  -0.052304  -0.802700
    14  C    0.024905  -3.822149   0.184475   2.364220  -0.149214  -3.717863
    15  H   -0.002540   0.127544   0.012799  -0.143112  -0.012534   0.311054
              13         14         15
     1  O    0.000742   0.108010  -0.040248
     2  C    0.010028  -0.748309   0.108808
     3  O    0.000550  -0.112965   0.002621
     4  C   -0.059990  -3.156850   0.512335
     5  C    0.078795   0.976123  -0.128438
     6  O    0.001978  -0.088440  -0.000210
     7  H    0.000429   0.024905  -0.002540
     8  C   -0.198193  -3.822149   0.127544
     9  H   -0.019618   0.184475   0.012799
    10  C    0.266069   2.364220  -0.143112
    11  H   -0.052304  -0.149214  -0.012534
    12  C   -0.802700  -3.717863   0.311054
    13  H    1.672917   0.643155  -0.082482
    14  C    0.643155  14.122185  -0.916355
    15  H   -0.082482  -0.916355   1.887036
 Mulliken charges:
               1
     1  O   -0.987003
     2  C    0.862873
     3  O   -0.941813
     4  C    0.589996
     5  C    0.969228
     6  O   -0.933392
     7  H    0.176195
     8  C    0.705276
     9  H   -0.675156
    10  C    0.250507
    11  H   -0.456518
    12  C    0.246389
    13  H   -0.459376
    14  C    0.289073
    15  H   -0.636278
 Sum of Mulliken charges =  -1.00000
 Mulliken charges with hydrogens summed into heavy atoms:
               1
     1  O   -0.987003
     2  C    0.862873
     3  O   -0.941813
     4  C    0.589996
     5  C    0.969228
     6  O   -0.757197
     8  C    0.030120
    10  C   -0.206011
    12  C   -0.212987
    14  C   -0.347206
 Electronic spatial extent (au):  <R**2>=           1380.6962
 Charge=             -1.0000 electrons
 Dipole moment (field-independent basis, Debye):
    X=            -11.3260    Y=              1.9277    Z=              0.0002  Tot=             11.4889
 Quadrupole moment (field-independent basis, Debye-Ang):
   XX=            -92.0019   YY=            -64.0172   ZZ=            -63.4455
   XY=             -0.8421   XZ=              0.0003   YZ=              0.0106
 Traceless Quadrupole moment (field-independent basis, Debye-Ang):
   XX=            -18.8470   YY=              9.1377   ZZ=              9.7094
   XY=             -0.8421   XZ=              0.0003   YZ=              0.0106
 Octapole moment (field-independent basis, Debye-Ang**2):
  XXX=            -73.4442  YYY=             31.1643  ZZZ=              0.0035  XYY=            -30.5048
  XXY=             14.5011  XXZ=              0.0062  XZZ=             11.2275  YZZ=              4.9860
  YYZ=             -0.0045  XYZ=              0.0193
 Hexadecapole moment (field-independent basis, Debye-Ang**3):
 XXXX=          -1369.2043 YYYY=           -560.0956 ZZZZ=            -73.8535 XXXY=             16.2835
 XXXZ=              0.0142 YYYX=            -12.9361 YYYZ=              0.0314 ZZZX=             -0.0034
 ZZZY=              0.0018 XXYY=           -346.7999 XXZZ=           -223.7085 YYZZ=           -126.1700
 XXYZ=              0.0584 YYXZ=             -0.0178 ZZXY=             -3.8677
 N-N= 4.840771839326D+02 E-N=-2.138110668610D+03  KE= 4.920420345515D+02
 Leave Link  601 at Sun Jul 11 16:23:29 2021, MaxMem=   262144000 cpu:               0.3 elap:               0.1
 (Enter /prod/apps/gaussian/g16b1/l9999.exe)
 1\1\GINC-PIRINEUS38\SP\RMP2-FC\Aug-CC-pVDZ\C7H5O3(1-)\UBATOR02\11-Jul-
 2021\0\\#p mp2/aug-cc-pVDZ scf=tight maxdisk=180GB geom=allcheck\\SET_
 328_BBB299_conf1.geo_165_180 geometry\\-1,1\O,0,1.8688223746,-1.597656
 7667,-1.692466972\C,0,1.2221923606,-1.6966435883,-0.6090386893\O,0,1.2
 110608427,-2.706496296,0.1454146356\C,0,0.3935933207,-0.4679274577,-0.
 2102750848\C,0,-0.4033505977,-0.3577451046,0.9529541846\O,0,-0.4897945
 892,-1.391189585,1.8393387277\H,0,-1.0797823722,-1.1199255009,2.562570
 0547\C,0,-1.1177366888,0.824722231,1.207235196\H,0,-1.7231987298,0.885
 9775163,2.1071837834\C,0,-1.0590510381,1.9033616234,0.3311892448\H,0,-
 1.6217482759,2.804850472,0.553233033\C,0,-0.2781627839,1.8158211681,-0
 .8233867284\H,0,-0.2212476605,2.648014497,-1.5174467665\C,0,0.42717408
 08,0.6414842046,-1.069692741\H,0,1.0422297565,0.5403525866,-1.95581187
 76\\Version=ES64L-G16RevB.01\State=1-A\HF=-492.673472\MP2=-494.2151809
 \RMSD=4.800e-09\PG=C01 [X(C7H5O3)]\\@


 KINETICS       FACT
 ---------  =  -------
 MECHANISM     FICTION
 Job cpu time:       0 days  0 hours  7 minutes 51.5 seconds.
 Elapsed time:       0 days  0 hours  1 minutes 58.2 seconds.
 File lengths (MBytes):  RWF=     44 Int=      0 D2E=      0 Chk=      8 Scr=      1
 Normal termination of Gaussian 16 at Sun Jul 11 16:23:29 2021.
