 Entering Gaussian System, Link 0=g16
 Initial command:
 /prod/apps/gaussian/g16b1/l1.exe "/tmp/ubator02/1834583/Gau-184238.inp" -scrdir="/tmp/ubator02/1834583/"
 Entering Link 1 = /prod/apps/gaussian/g16b1/l1.exe PID=    184239.
  
 Copyright (c) 1988-2017, Gaussian, Inc.  All Rights Reserved.
  
 This is part of the Gaussian(R) 16 program.  It is based on
 the Gaussian(R) 09 system (copyright 2009, Gaussian, Inc.),
 the Gaussian(R) 03 system (copyright 2003, Gaussian, Inc.),
 the Gaussian(R) 98 system (copyright 1998, Gaussian, Inc.),
 the Gaussian(R) 94 system (copyright 1995, Gaussian, Inc.),
 the Gaussian 92(TM) system (copyright 1992, Gaussian, Inc.),
 the Gaussian 90(TM) system (copyright 1990, Gaussian, Inc.),
 the Gaussian 88(TM) system (copyright 1988, Gaussian, Inc.),
 the Gaussian 86(TM) system (copyright 1986, Carnegie Mellon
 University), and the Gaussian 82(TM) system (copyright 1983,
 Carnegie Mellon University). Gaussian is a federally registered
 trademark of Gaussian, Inc.
  
 This software contains proprietary and confidential information,
 including trade secrets, belonging to Gaussian, Inc.
  
 This software is provided under written license and may be
 used, copied, transmitted, or stored only in accord with that
 written license.
  
 The following legend is applicable only to US Government
 contracts under FAR:
  
                    RESTRICTED RIGHTS LEGEND
  
 Use, reproduction and disclosure by the US Government is
 subject to restrictions as set forth in subparagraphs (a)
 and (c) of the Commercial Computer Software - Restricted
 Rights clause in FAR 52.227-19.
  
 Gaussian, Inc.
 340 Quinnipiac St., Bldg. 40, Wallingford CT 06492
  
  
 ---------------------------------------------------------------
 Warning -- This program may not be used in any manner that
 competes with the business of Gaussian, Inc. or will provide
 assistance to any competitor of Gaussian, Inc.  The licensee
 of this program is prohibited from giving any competitor of
 Gaussian, Inc. access to this program.  By using this program,
 the user acknowledges that Gaussian, Inc. is engaged in the
 business of creating and licensing software in the field of
 computational chemistry and represents and warrants to the
 licensee that it is not a competitor of Gaussian, Inc. and that
 it will not use this program in any manner prohibited above.
 ---------------------------------------------------------------
  

 Cite this work as:
 Gaussian 16, Revision B.01,
 M. J. Frisch, G. W. Trucks, H. B. Schlegel, G. E. Scuseria, 
 M. A. Robb, J. R. Cheeseman, G. Scalmani, V. Barone, 
 G. A. Petersson, H. Nakatsuji, X. Li, M. Caricato, A. V. Marenich, 
 J. Bloino, B. G. Janesko, R. Gomperts, B. Mennucci, H. P. Hratchian, 
 J. V. Ortiz, A. F. Izmaylov, J. L. Sonnenberg, D. Williams-Young, 
 F. Ding, F. Lipparini, F. Egidi, J. Goings, B. Peng, A. Petrone, 
 T. Henderson, D. Ranasinghe, V. G. Zakrzewski, J. Gao, N. Rega, 
 G. Zheng, W. Liang, M. Hada, M. Ehara, K. Toyota, R. Fukuda, 
 J. Hasegawa, M. Ishida, T. Nakajima, Y. Honda, O. Kitao, H. Nakai, 
 T. Vreven, K. Throssell, J. A. Montgomery, Jr., J. E. Peralta, 
 F. Ogliaro, M. J. Bearpark, J. J. Heyd, E. N. Brothers, K. N. Kudin, 
 V. N. Staroverov, T. A. Keith, R. Kobayashi, J. Normand, 
 K. Raghavachari, A. P. Rendell, J. C. Burant, S. S. Iyengar, 
 J. Tomasi, M. Cossi, J. M. Millam, M. Klene, C. Adamo, R. Cammi, 
 J. W. Ochterski, R. L. Martin, K. Morokuma, O. Farkas, 
 J. B. Foresman, and D. J. Fox, Gaussian, Inc., Wallingford CT, 2016.
 
 ******************************************
 Gaussian 16:  ES64L-G16RevB.01 20-Dec-2017
                11-Jul-2021 
 ******************************************
 %mem=800MB
 %nproc=4
 Will use up to    4 processors via shared memory.
 %chk=SET_328_BBB304_conf1.geo_210_285.chk
 -----------------------------------------------------------
 #p b3lyp/6-31G(d) opt freq scrf=(iefpcm,read,solvent=water)
 -----------------------------------------------------------
 1/18=20,19=15,26=3,38=1,40=2/1,3;
 2/9=110,12=2,17=6,18=5,40=1/2;
 3/5=1,6=6,7=1,11=2,25=1,30=1,70=2203,71=1,72=1,74=-5/1,2,3;
 4//1;
 5/5=2,38=5,53=1/2;
 6/7=2,8=2,9=2,10=2,28=1/1;
 7//1,2,3,16;
 1/18=20,19=15,26=3/3(2);
 2/9=110/2;
 99//99;
 2/9=110/2;
 3/5=1,6=6,7=1,11=2,25=1,30=1,70=2205,71=1,72=1,74=-5/1,2,3;
 4/5=5,16=3,69=1/1;
 5/5=2,38=5,53=1/2;
 7//1,2,3,16;
 1/18=20,19=15,26=3/3(-5);
 2/9=110/2;
 6/7=2,8=2,9=2,10=2,19=2,28=1/1;
 99/9=1/99;
 Leave Link    1 at Sun Jul 11 16:13:10 2021, MaxMem=   104857600 cpu:               0.1 elap:               0.0
 (Enter /prod/apps/gaussian/g16b1/l101.exe)
 -----------------------------------------
 SET_328_BBB304_conf1.geo_210_285 geometry
 -----------------------------------------
 Symbolic Z-matrix:
 Charge =  1 Multiplicity = 1
 N                    -0.254    -0.565     4.945 
 H                    -0.364    -1.448     5.431 
 H                    -0.341     0.38      5.302 
 C                    -0.278    -0.56      3.624 
 C                    -0.343     0.579     2.822 
 C                    -0.245     0.459     1.473 
 H                    -0.31      1.342     0.849 
 H                    -0.398     1.586     3.222 
 N                    -0.192    -1.725     3.087 
 C                    -0.138    -1.819     1.712 
 O                    -0.12     -2.93      1.209 
 N                    -0.072    -0.755     0.94 
 C                     0.166    -0.842    -0.511 
 O                     0.849     0.295    -1.002 
 H                     0.896    -1.649    -0.669 
 C                    -1.117    -0.965    -1.396 
 H                    -1.959    -0.472    -0.905 
 H                    -1.387    -1.969    -1.729 
 C                    -0.649    -0.251    -2.652 
 H                    -1.445     0.155    -3.28 
 H                     0.018    -0.91     -3.212 
 C                     0.087     0.946    -2.073 
 H                    -0.57      1.749    -1.728 
 C                     1.126     1.566    -3.11 
 H                     0.644     1.674    -4.085 
 H                     1.864     0.766    -3.201 
 O                     1.812     2.812    -2.649 
 H                     2.721     2.551    -2.413 
 H                    -0.165    -2.547     3.655 
 
 ITRead=  0  0  0  0  0  0  0  0  0  0  0  0  0  0  0  0  0  0  0  0
 ITRead=  0  0  0  0  0  0  0  0  0
 MicOpt= -1 -1 -1 -1 -1 -1 -1 -1 -1 -1 -1 -1 -1 -1 -1 -1 -1 -1 -1 -1
 MicOpt= -1 -1 -1 -1 -1 -1 -1 -1 -1
 NAtoms=     29 NQM=       29 NQMF=       0 NMMI=      0 NMMIF=      0
                NMic=       0 NMicF=      0.
                    Isotopes and Nuclear Properties:
 (Nuclear quadrupole moments (NQMom) in fm**2, nuclear magnetic moments (NMagM)
  in nuclear magnetons)

  Atom         1           2           3           4           5           6           7           8           9          10
 IAtWgt=          14           1           1          12          12          12           1           1          14          12
 AtmWgt=  14.0030740   1.0078250   1.0078250  12.0000000  12.0000000  12.0000000   1.0078250   1.0078250  14.0030740  12.0000000
 NucSpn=           2           1           1           0           0           0           1           1           2           0
 AtZEff=  -0.0000000  -0.0000000  -0.0000000  -0.0000000  -0.0000000  -0.0000000  -0.0000000  -0.0000000  -0.0000000  -0.0000000
 NQMom=    2.0440000   0.0000000   0.0000000   0.0000000   0.0000000   0.0000000   0.0000000   0.0000000   2.0440000   0.0000000
 NMagM=    0.4037610   2.7928460   2.7928460   0.0000000   0.0000000   0.0000000   2.7928460   2.7928460   0.4037610   0.0000000
 AtZNuc=   7.0000000   1.0000000   1.0000000   6.0000000   6.0000000   6.0000000   1.0000000   1.0000000   7.0000000   6.0000000

  Atom        11          12          13          14          15          16          17          18          19          20
 IAtWgt=          16          14          12          16           1          12           1           1          12           1
 AtmWgt=  15.9949146  14.0030740  12.0000000  15.9949146   1.0078250  12.0000000   1.0078250   1.0078250  12.0000000   1.0078250
 NucSpn=           0           2           0           0           1           0           1           1           0           1
 AtZEff=  -0.0000000  -0.0000000  -0.0000000  -0.0000000  -0.0000000  -0.0000000  -0.0000000  -0.0000000  -0.0000000  -0.0000000
 NQMom=    0.0000000   2.0440000   0.0000000   0.0000000   0.0000000   0.0000000   0.0000000   0.0000000   0.0000000   0.0000000
 NMagM=    0.0000000   0.4037610   0.0000000   0.0000000   2.7928460   0.0000000   2.7928460   2.7928460   0.0000000   2.7928460
 AtZNuc=   8.0000000   7.0000000   6.0000000   8.0000000   1.0000000   6.0000000   1.0000000   1.0000000   6.0000000   1.0000000

  Atom        21          22          23          24          25          26          27          28          29
 IAtWgt=           1          12           1          12           1           1          16           1           1
 AtmWgt=   1.0078250  12.0000000   1.0078250  12.0000000   1.0078250   1.0078250  15.9949146   1.0078250   1.0078250
 NucSpn=           1           0           1           0           1           1           0           1           1
 AtZEff=  -0.0000000  -0.0000000  -0.0000000  -0.0000000  -0.0000000  -0.0000000  -0.0000000  -0.0000000  -0.0000000
 NQMom=    0.0000000   0.0000000   0.0000000   0.0000000   0.0000000   0.0000000   0.0000000   0.0000000   0.0000000
 NMagM=    2.7928460   0.0000000   2.7928460   0.0000000   2.7928460   2.7928460   0.0000000   2.7928460   2.7928460
 AtZNuc=   1.0000000   6.0000000   1.0000000   6.0000000   1.0000000   1.0000000   8.0000000   1.0000000   1.0000000
 Leave Link  101 at Sun Jul 11 16:13:10 2021, MaxMem=   104857600 cpu:               0.6 elap:               0.2
 (Enter /prod/apps/gaussian/g16b1/l103.exe)

 GradGradGradGradGradGradGradGradGradGradGradGradGradGradGradGradGradGrad
 Berny optimization.
 Initialization pass.
                           ----------------------------
                           !    Initial Parameters    !
                           ! (Angstroms and Degrees)  !
 --------------------------                            --------------------------
 ! Name  Definition              Value          Derivative Info.                !
 --------------------------------------------------------------------------------
 ! R1    R(1,2)                  1.0139         estimate D2E/DX2                !
 ! R2    R(1,3)                  1.0139         estimate D2E/DX2                !
 ! R3    R(1,4)                  1.3212         estimate D2E/DX2                !
 ! R4    R(4,5)                  1.3945         estimate D2E/DX2                !
 ! R5    R(4,9)                  1.2857         estimate D2E/DX2                !
 ! R6    R(5,6)                  1.3579         estimate D2E/DX2                !
 ! R7    R(5,8)                  1.0849         estimate D2E/DX2                !
 ! R8    R(6,7)                  1.0832         estimate D2E/DX2                !
 ! R9    R(6,12)                 1.3371         estimate D2E/DX2                !
 ! R10   R(9,10)                 1.3793         estimate D2E/DX2                !
 ! R11   R(9,29)                 0.9995         estimate D2E/DX2                !
 ! R12   R(10,11)                1.2197         estimate D2E/DX2                !
 ! R13   R(10,12)                1.3162         estimate D2E/DX2                !
 ! R14   R(12,13)                1.473          estimate D2E/DX2                !
 ! R15   R(13,14)                1.4143         estimate D2E/DX2                !
 ! R16   R(13,15)                1.0996         estimate D2E/DX2                !
 ! R17   R(13,16)                1.5635         estimate D2E/DX2                !
 ! R18   R(14,22)                1.4668         estimate D2E/DX2                !
 ! R19   R(16,17)                1.0923         estimate D2E/DX2                !
 ! R20   R(16,18)                1.0917         estimate D2E/DX2                !
 ! R21   R(16,19)                1.5187         estimate D2E/DX2                !
 ! R22   R(19,20)                1.0922         estimate D2E/DX2                !
 ! R23   R(19,21)                1.0921         estimate D2E/DX2                !
 ! R24   R(19,22)                1.5198         estimate D2E/DX2                !
 ! R25   R(22,23)                1.0934         estimate D2E/DX2                !
 ! R26   R(22,24)                1.5935         estimate D2E/DX2                !
 ! R27   R(24,25)                1.093          estimate D2E/DX2                !
 ! R28   R(24,26)                1.0922         estimate D2E/DX2                !
 ! R29   R(24,27)                1.4952         estimate D2E/DX2                !
 ! R30   R(27,28)                0.9747         estimate D2E/DX2                !
 ! A1    A(2,1,3)              129.3172         estimate D2E/DX2                !
 ! A2    A(2,1,4)              118.7234         estimate D2E/DX2                !
 ! A3    A(3,1,4)              110.3009         estimate D2E/DX2                !
 ! A4    A(1,4,5)              125.3758         estimate D2E/DX2                !
 ! A5    A(1,4,9)              114.3909         estimate D2E/DX2                !
 ! A6    A(5,4,9)              120.1987         estimate D2E/DX2                !
 ! A7    A(4,5,6)              119.7225         estimate D2E/DX2                !
 ! A8    A(4,5,8)              123.2586         estimate D2E/DX2                !
 ! A9    A(6,5,8)              116.8698         estimate D2E/DX2                !
 ! A10   A(5,6,7)              119.732          estimate D2E/DX2                !
 ! A11   A(5,6,12)             119.0517         estimate D2E/DX2                !
 ! A12   A(7,6,12)             121.2161         estimate D2E/DX2                !
 ! A13   A(4,9,10)             118.7349         estimate D2E/DX2                !
 ! A14   A(4,9,29)             120.6406         estimate D2E/DX2                !
 ! A15   A(10,9,29)            120.6245         estimate D2E/DX2                !
 ! A16   A(9,10,11)            118.2799         estimate D2E/DX2                !
 ! A17   A(9,10,12)            122.1126         estimate D2E/DX2                !
 ! A18   A(11,10,12)           119.5849         estimate D2E/DX2                !
 ! A19   A(6,12,10)            119.5817         estimate D2E/DX2                !
 ! A20   A(6,12,13)            117.8538         estimate D2E/DX2                !
 ! A21   A(10,12,13)           122.557          estimate D2E/DX2                !
 ! A22   A(12,13,14)           111.8717         estimate D2E/DX2                !
 ! A23   A(12,13,15)           106.9875         estimate D2E/DX2                !
 ! A24   A(12,13,16)           115.4461         estimate D2E/DX2                !
 ! A25   A(14,13,15)           102.6806         estimate D2E/DX2                !
 ! A26   A(14,13,16)           105.2492         estimate D2E/DX2                !
 ! A27   A(15,13,16)           113.9359         estimate D2E/DX2                !
 ! A28   A(13,14,22)           111.0638         estimate D2E/DX2                !
 ! A29   A(13,16,17)           110.0365         estimate D2E/DX2                !
 ! A30   A(13,16,18)           116.6133         estimate D2E/DX2                !
 ! A31   A(13,16,19)           100.2693         estimate D2E/DX2                !
 ! A32   A(17,16,18)           111.1957         estimate D2E/DX2                !
 ! A33   A(17,16,19)           113.3982         estimate D2E/DX2                !
 ! A34   A(18,16,19)           104.8521         estimate D2E/DX2                !
 ! A35   A(16,19,20)           115.1965         estimate D2E/DX2                !
 ! A36   A(16,19,21)           109.1829         estimate D2E/DX2                !
 ! A37   A(16,19,22)           101.7973         estimate D2E/DX2                !
 ! A38   A(20,19,21)           111.9987         estimate D2E/DX2                !
 ! A39   A(20,19,22)           106.2143         estimate D2E/DX2                !
 ! A40   A(21,19,22)           112.0139         estimate D2E/DX2                !
 ! A41   A(14,22,19)           100.3811         estimate D2E/DX2                !
 ! A42   A(14,22,23)           114.0619         estimate D2E/DX2                !
 ! A43   A(14,22,24)           108.0063         estimate D2E/DX2                !
 ! A44   A(19,22,23)           114.0573         estimate D2E/DX2                !
 ! A45   A(19,22,24)           111.9796         estimate D2E/DX2                !
 ! A46   A(23,22,24)           108.1426         estimate D2E/DX2                !
 ! A47   A(22,24,25)           109.3552         estimate D2E/DX2                !
 ! A48   A(22,24,26)           102.1107         estimate D2E/DX2                !
 ! A49   A(22,24,27)           115.0073         estimate D2E/DX2                !
 ! A50   A(25,24,26)           107.2193         estimate D2E/DX2                !
 ! A51   A(25,24,27)           113.2674         estimate D2E/DX2                !
 ! A52   A(26,24,27)           109.0299         estimate D2E/DX2                !
 ! A53   A(24,27,28)           106.2228         estimate D2E/DX2                !
 ! D1    D(2,1,4,5)            169.7794         estimate D2E/DX2                !
 ! D2    D(2,1,4,9)            -12.369          estimate D2E/DX2                !
 ! D3    D(3,1,4,5)              3.0994         estimate D2E/DX2                !
 ! D4    D(3,1,4,9)           -179.0491         estimate D2E/DX2                !
 ! D5    D(1,4,5,6)            174.3146         estimate D2E/DX2                !
 ! D6    D(1,4,5,8)             -1.1038         estimate D2E/DX2                !
 ! D7    D(9,4,5,6)             -3.4214         estimate D2E/DX2                !
 ! D8    D(9,4,5,8)           -178.8397         estimate D2E/DX2                !
 ! D9    D(1,4,9,10)          -176.6538         estimate D2E/DX2                !
 ! D10   D(1,4,9,29)             3.3606         estimate D2E/DX2                !
 ! D11   D(5,4,9,10)             1.3194         estimate D2E/DX2                !
 ! D12   D(5,4,9,29)          -178.6662         estimate D2E/DX2                !
 ! D13   D(4,5,6,7)            179.1077         estimate D2E/DX2                !
 ! D14   D(4,5,6,12)            -0.7531         estimate D2E/DX2                !
 ! D15   D(8,5,6,7)             -5.1866         estimate D2E/DX2                !
 ! D16   D(8,5,6,12)           174.9526         estimate D2E/DX2                !
 ! D17   D(5,6,12,10)            6.9802         estimate D2E/DX2                !
 ! D18   D(5,6,12,13)         -173.9937         estimate D2E/DX2                !
 ! D19   D(7,6,12,10)         -172.8785         estimate D2E/DX2                !
 ! D20   D(7,6,12,13)            6.1476         estimate D2E/DX2                !
 ! D21   D(4,9,10,11)         -176.6083         estimate D2E/DX2                !
 ! D22   D(4,9,10,12)            5.1309         estimate D2E/DX2                !
 ! D23   D(29,9,10,11)           3.3773         estimate D2E/DX2                !
 ! D24   D(29,9,10,12)        -174.8835         estimate D2E/DX2                !
 ! D25   D(9,10,12,6)           -9.3758         estimate D2E/DX2                !
 ! D26   D(9,10,12,13)         171.6458         estimate D2E/DX2                !
 ! D27   D(11,10,12,6)         172.3854         estimate D2E/DX2                !
 ! D28   D(11,10,12,13)         -6.5929         estimate D2E/DX2                !
 ! D29   D(6,12,13,14)          31.0298         estimate D2E/DX2                !
 ! D30   D(6,12,13,15)         142.7434         estimate D2E/DX2                !
 ! D31   D(6,12,13,16)         -89.2931         estimate D2E/DX2                !
 ! D32   D(10,12,13,14)       -149.9751         estimate D2E/DX2                !
 ! D33   D(10,12,13,15)        -38.2615         estimate D2E/DX2                !
 ! D34   D(10,12,13,16)         89.702          estimate D2E/DX2                !
 ! D35   D(12,13,14,22)       -123.282          estimate D2E/DX2                !
 ! D36   D(15,13,14,22)        122.3234         estimate D2E/DX2                !
 ! D37   D(16,13,14,22)          2.8267         estimate D2E/DX2                !
 ! D38   D(12,13,16,17)         29.1022         estimate D2E/DX2                !
 ! D39   D(12,13,16,18)        -98.7179         estimate D2E/DX2                !
 ! D40   D(12,13,16,19)        148.8153         estimate D2E/DX2                !
 ! D41   D(14,13,16,17)        -94.7688         estimate D2E/DX2                !
 ! D42   D(14,13,16,18)        137.4111         estimate D2E/DX2                !
 ! D43   D(14,13,16,19)         24.9444         estimate D2E/DX2                !
 ! D44   D(15,13,16,17)        153.5188         estimate D2E/DX2                !
 ! D45   D(15,13,16,18)         25.6987         estimate D2E/DX2                !
 ! D46   D(15,13,16,19)        -86.768          estimate D2E/DX2                !
 ! D47   D(13,14,22,19)        -29.4194         estimate D2E/DX2                !
 ! D48   D(13,14,22,23)         92.9702         estimate D2E/DX2                !
 ! D49   D(13,14,22,24)       -146.7837         estimate D2E/DX2                !
 ! D50   D(13,16,19,20)       -156.8096         estimate D2E/DX2                !
 ! D51   D(13,16,19,21)         76.1776         estimate D2E/DX2                !
 ! D52   D(13,16,19,22)        -42.3835         estimate D2E/DX2                !
 ! D53   D(17,16,19,20)        -39.5649         estimate D2E/DX2                !
 ! D54   D(17,16,19,21)       -166.5778         estimate D2E/DX2                !
 ! D55   D(17,16,19,22)         74.8612         estimate D2E/DX2                !
 ! D56   D(18,16,19,20)         81.9225         estimate D2E/DX2                !
 ! D57   D(18,16,19,21)        -45.0903         estimate D2E/DX2                !
 ! D58   D(18,16,19,22)       -163.6514         estimate D2E/DX2                !
 ! D59   D(16,19,22,14)         44.2846         estimate D2E/DX2                !
 ! D60   D(16,19,22,23)        -78.1082         estimate D2E/DX2                !
 ! D61   D(16,19,22,24)        158.6678         estimate D2E/DX2                !
 ! D62   D(20,19,22,14)        165.1927         estimate D2E/DX2                !
 ! D63   D(20,19,22,23)         42.7999         estimate D2E/DX2                !
 ! D64   D(20,19,22,24)        -80.4241         estimate D2E/DX2                !
 ! D65   D(21,19,22,14)        -72.2358         estimate D2E/DX2                !
 ! D66   D(21,19,22,23)        165.3714         estimate D2E/DX2                !
 ! D67   D(21,19,22,24)         42.1474         estimate D2E/DX2                !
 ! D68   D(14,22,24,25)        156.3394         estimate D2E/DX2                !
 ! D69   D(14,22,24,26)         42.9935         estimate D2E/DX2                !
 ! D70   D(14,22,24,27)        -74.9156         estimate D2E/DX2                !
 ! D71   D(19,22,24,25)         46.7355         estimate D2E/DX2                !
 ! D72   D(19,22,24,26)        -66.6104         estimate D2E/DX2                !
 ! D73   D(19,22,24,27)        175.4804         estimate D2E/DX2                !
 ! D74   D(23,22,24,25)        -79.7666         estimate D2E/DX2                !
 ! D75   D(23,22,24,26)        166.8875         estimate D2E/DX2                !
 ! D76   D(23,22,24,27)         48.9783         estimate D2E/DX2                !
 ! D77   D(22,24,27,28)        105.2039         estimate D2E/DX2                !
 ! D78   D(25,24,27,28)       -128.0222         estimate D2E/DX2                !
 ! D79   D(26,24,27,28)         -8.7358         estimate D2E/DX2                !
 --------------------------------------------------------------------------------
 Trust Radius=3.00D-01 FncErr=1.00D-07 GrdErr=1.00D-06 EigMax=2.50D+02 EigMin=1.00D-04
 Number of steps in this run=    172 maximum allowed number of steps=    174.
 GradGradGradGradGradGradGradGradGradGradGradGradGradGradGradGradGradGrad

 Leave Link  103 at Sun Jul 11 16:13:10 2021, MaxMem=   104857600 cpu:               0.1 elap:               0.0
 (Enter /prod/apps/gaussian/g16b1/l202.exe)
                          Input orientation:                          
 ---------------------------------------------------------------------
 Center     Atomic      Atomic             Coordinates (Angstroms)
 Number     Number       Type             X           Y           Z
 ---------------------------------------------------------------------
      1          7           0       -0.254000   -0.565000    4.945000
      2          1           0       -0.364000   -1.448000    5.431000
      3          1           0       -0.341000    0.380000    5.302000
      4          6           0       -0.278000   -0.560000    3.624000
      5          6           0       -0.343000    0.579000    2.822000
      6          6           0       -0.245000    0.459000    1.473000
      7          1           0       -0.310000    1.342000    0.849000
      8          1           0       -0.398000    1.586000    3.222000
      9          7           0       -0.192000   -1.725000    3.087000
     10          6           0       -0.138000   -1.819000    1.712000
     11          8           0       -0.120000   -2.930000    1.209000
     12          7           0       -0.072000   -0.755000    0.940000
     13          6           0        0.166000   -0.842000   -0.511000
     14          8           0        0.849000    0.295000   -1.002000
     15          1           0        0.896000   -1.649000   -0.669000
     16          6           0       -1.117000   -0.965000   -1.396000
     17          1           0       -1.959000   -0.472000   -0.905000
     18          1           0       -1.387000   -1.969000   -1.729000
     19          6           0       -0.649000   -0.251000   -2.652000
     20          1           0       -1.445000    0.155000   -3.280000
     21          1           0        0.018000   -0.910000   -3.212000
     22          6           0        0.087000    0.946000   -2.073000
     23          1           0       -0.570000    1.749000   -1.728000
     24          6           0        1.126000    1.566000   -3.110000
     25          1           0        0.644000    1.674000   -4.085000
     26          1           0        1.864000    0.766000   -3.201000
     27          8           0        1.812000    2.812000   -2.649000
     28          1           0        2.721000    2.551000   -2.413000
     29          1           0       -0.165000   -2.547000    3.655000
 ---------------------------------------------------------------------
                    Distance matrix (angstroms):
                    1          2          3          4          5
     1  N    0.000000
     2  H    1.013896   0.000000
     3  H    1.013925   1.832690   0.000000
     4  C    1.321227   2.015239   1.924384   0.000000
     5  C    2.413252   3.303945   2.487972   1.394543   0.000000
     6  C    3.619868   4.395062   3.831018   2.380389   1.357868
     7  H    4.518518   5.364862   4.555833   3.364410   2.115653
     8  H    2.759758   3.753131   2.405012   2.186623   1.084930
     9  N    2.191257   2.366569   3.059322   1.285687   2.324100
    10  C    3.469620   3.744286   4.214844   2.293562   2.650383
    11  O    4.423672   4.481199   5.268547   3.387342   3.868408
    12  N    4.013633   4.553525   4.515266   2.698947   2.322697
    13  C    5.479148   5.996291   5.961653   4.168319   3.658854
    14  O    6.109257   6.774430   6.415898   4.837461   4.015532
    15  H    5.832200   6.232014   6.426496   4.581926   4.322752
    16  C    6.411946   6.885363   6.875639   5.105717   4.557909
    17  H    6.094110   6.606171   6.470756   4.831702   4.196020
    18  H    6.913551   7.251453   7.486446   5.645332   5.319196
    19  C    7.613740   8.176119   7.984932   6.294545   5.545017
    20  H    8.341913   8.922987   8.655644   7.038347   6.215190
    21  H    8.168822   8.668150   8.618653   6.851351   6.225480
    22  C    7.186914   7.889528   7.409060   5.903988   4.927536
    23  H    7.069893   7.843120   7.165717   5.836150   4.703502
    24  C    8.445625   9.178942   8.620930   7.199851   6.190376
    25  H    9.346680  10.065645   9.526827   8.078955   7.062566
    26  H    8.521432   9.185707   8.792726   7.275099   6.417347
    27  O    8.563955   9.389834   8.588855   7.422197   6.289845
    28  H    8.526444   9.329392   8.579645   7.424129   6.378253
    29  H    2.366505   2.097994   3.363170   1.990452   3.239977
                    6          7          8          9         10
     6  C    0.000000
     7  H    1.083185   0.000000
     8  H    2.086274   2.387134   0.000000
     9  N    2.716185   3.798560   3.320148   0.000000
    10  C    2.293001   3.281200   3.733862   1.379267   0.000000
    11  O    3.401565   4.291350   4.952142   2.232508   1.219694
    12  N    1.337092   2.112424   3.285435   2.359006   1.316220
    13  C    2.407858   2.616492   4.488716   3.722023   2.447177
    14  O    2.710970   2.421919   4.589539   4.678034   3.578961
    15  H    3.214609   3.564385   5.222982   3.911145   2.601388
    16  C    3.319536   3.318663   5.324517   4.640098   3.368593
    17  H    3.075620   3.014351   4.868697   4.541846   3.461089
    18  H    4.177577   4.332290   6.174832   4.968040   3.663739
    19  C    4.205109   3.861291   6.159663   5.942865   4.665216
    20  H    4.911560   4.443629   6.739434   6.755968   5.524942
    21  H    4.888001   4.655192   6.913713   6.354976   5.009630
    22  C    3.594650   2.975317   5.355544   5.817017   4.692768
    23  H    3.466428   2.621865   4.955669   5.949436   4.975022
    24  C    4.910090   4.217340   6.512849   7.139371   6.025579
    25  H    5.758291   5.036338   7.381447   7.980581   6.813060
    26  H    5.136965   4.632554   6.858861   7.069028   5.901508
    27  O    5.172885   4.347389   6.391856   7.583013   6.653344
    28  H    5.317388   4.614031   6.512497   7.551142   6.654803
    29  H    3.715314   4.797810   4.162147   0.999518   2.075081
                   11         12         13         14         15
    11  O    0.000000
    12  N    2.192097   0.000000
    13  C    2.720283   1.472961   0.000000
    14  O    4.028412   2.392092   1.414333   0.000000
    15  H    2.490000   2.079697   1.099597   1.972875   0.000000
    16  C    3.411929   2.567688   1.563471   2.368120   2.246899
    17  H    3.727289   2.654220   2.192661   2.912484   3.097103
    18  H    3.340757   3.213500   2.272765   3.264034   2.537339
    19  C    4.729081   3.672793   2.365880   2.294476   2.876407
    20  H    5.605709   4.530080   3.355099   3.235942   3.943605
    21  H    4.862580   4.155867   2.705906   2.650790   2.789956
    22  C    5.083085   3.463647   2.375506   1.466794   3.059366
    23  H    5.542699   3.692729   2.955684   2.157488   3.849291
    24  C    6.357696   4.819206   3.670813   2.477062   4.043217
    25  H    7.057404   5.627017   4.396842   3.383571   4.772304
    26  H    6.086442   4.817615   3.564403   2.467320   3.630465
    27  O    7.182434   5.399432   4.542255   3.158365   4.965881
    28  H    7.157620   5.474769   4.653824   3.253435   4.900221
    29  H    2.476213   3.254403   4.513551   5.549127   4.541927
                   16         17         18         19         20
    16  C    0.000000
    17  H    1.092288   0.000000
    18  H    1.091698   1.801990   0.000000
    19  C    1.518669   2.194755   2.085209   0.000000
    20  H    2.216177   2.509572   2.630654   1.092170   0.000000
    21  H    2.142220   3.069629   2.301042   1.092140   1.810861
    22  C    2.357937   2.749739   3.284545   1.519785   2.104651
    23  H    2.788410   2.745813   3.806706   2.204545   2.390641
    24  C    3.791412   4.304962   4.551764   2.581061   2.937663
    25  H    4.158866   4.636089   4.790318   2.725979   2.705422
    26  H    3.891111   4.628130   4.496222   2.766019   3.365864
    27  O    4.941131   5.295907   5.825630   3.929186   4.250395
    28  H    5.303470   5.771914   6.146049   4.389217   4.883448
    29  H    5.377883   5.321434   5.551110   6.729348   7.552048
                   21         22         23         24         25
    21  H    0.000000
    22  C    2.178719   0.000000
    23  H    3.101335   1.093381   0.000000
    24  C    2.714525   1.593515   2.195411   0.000000
    25  H    2.798403   2.210967   2.652333   1.092984   0.000000
    26  H    2.493354   2.112466   3.010046   1.092211   1.759068
    27  O    4.169975   2.605639   2.766249   1.495203   2.172870
    28  H    4.463533   3.103157   3.455880   2.000015   2.806892
    29  H    7.061795   6.713757   6.899009   8.021763   8.853187
                   26         27         28         29
    26  H    0.000000
    27  O    2.119793   0.000000
    28  H    2.131107   0.974730   0.000000
    29  H    7.880200   8.506928   8.434407   0.000000
 Stoichiometry    C9H14N3O3(1+)
 Framework group  C1[X(C9H14N3O3)]
 Deg. of freedom    81
 Full point group                 C1      NOp   1
 Largest Abelian subgroup         C1      NOp   1
 Largest concise Abelian subgroup C1      NOp   1
                         Standard orientation:                         
 ---------------------------------------------------------------------
 Center     Atomic      Atomic             Coordinates (Angstroms)
 Number     Number       Type             X           Y           Z
 ---------------------------------------------------------------------
      1          7           0       -4.427868   -1.305971    0.078633
      2          1           0       -5.198076   -0.681765   -0.133810
      3          1           0       -4.447396   -2.237368    0.478833
      4          6           0       -3.204526   -0.809740    0.131838
      5          6           0       -2.079257   -1.484837    0.603817
      6          6           0       -0.854798   -0.907145    0.500001
      7          1           0        0.017486   -1.425096    0.879654
      8          1           0       -2.112640   -2.496446    0.994467
      9          7           0       -3.093739    0.381305   -0.339466
     10          6           0       -1.842754    0.959758   -0.392451
     11          8           0       -1.755029    2.112220   -0.782052
     12          7           0       -0.751662    0.297988   -0.069940
     13          6           0        0.599459    0.841137   -0.291469
     14          8           0        1.546361   -0.182290   -0.528773
     15          1           0        0.577016    1.376582   -1.251629
     16          6           0        1.188051    1.680256    0.889159
     17          1           0        0.777254    1.329793    1.838640
     18          1           0        1.112199    2.765902    0.802990
     19          6           0        2.667392    1.379082    0.724235
     20          1           0        3.271368    1.507904    1.625043
     21          1           0        3.059275    1.955028   -0.116886
     22          6           0        2.650357   -0.112726    0.434472
     23          1           0        2.508801   -0.737316    1.320662
     24          6           0        3.978861   -0.592168   -0.303432
     25          1           0        4.848846   -0.171776    0.207459
     26          1           0        3.897866   -0.090348   -1.270149
     27          8           0        4.080687   -2.067086   -0.526773
     28          1           0        3.906794   -2.211575   -1.474920
     29          1           0       -3.898768    0.878769   -0.661171
 ---------------------------------------------------------------------
 Rotational constants (GHZ):           1.2762474           0.3173751           0.2723577
 Leave Link  202 at Sun Jul 11 16:13:10 2021, MaxMem=   104857600 cpu:               0.1 elap:               0.0
 (Enter /prod/apps/gaussian/g16b1/l301.exe)
 Standard basis: 6-31G(d) (6D, 7F)
 Ernie: Thresh=  0.10000D-02 Tol=  0.10000D-05 Strict=F.
 There are   253 symmetry adapted cartesian basis functions of A   symmetry.
 There are   253 symmetry adapted basis functions of A   symmetry.
   253 basis functions,   476 primitive gaussians,   253 cartesian basis functions
    56 alpha electrons       56 beta electrons
       nuclear repulsion energy      1046.8663611412 Hartrees.
 IExCor=  402 DFT=T Ex+Corr=B3LYP ExCW=0 ScaHFX=  0.200000
 ScaDFX=  0.800000  0.720000  1.000000  0.810000 ScalE2=  1.000000  1.000000
 IRadAn=      5 IRanWt=     -1 IRanGd=            0 ICorTp=0 IEmpDi=  4
 NAtoms=   29 NActive=   29 NUniq=   29 SFac= 1.00D+00 NAtFMM=   60 NAOKFM=F Big=F
 Integral buffers will be    131072 words long.
 Raffenetti 2 integral format.
 Two-electron integral symmetry is turned on.
 Using the following non-standard input for PCM:
 MSTModel=DFT cav MSTCharged
 --- end of non-standard input.
 MST model for solvation energy: B3LYP parametrization.
 MST cavity parameters:
 ISph   IAn     Re0     Alpha   Atom Type   QCorr
 ------------------------------------------------
   1      7     1.55     1.25      NH         F
   2      1     0.90     1.25      NH         F
   3      1     0.90     1.25      NH         F
   4      6     1.50     1.25      C          F
   5      6     1.50     1.25      CH         F
   6      6     1.50     1.25      CH         F
   7      1     1.20     1.25      CH         F
   8      1     1.20     1.25      CH         F
   9      7     1.50     1.15      NH         T
  10      6     1.50     1.25      C          F
  11      8     1.40     1.25      O          F
  12      7     1.40     1.25      N          F
  13      6     1.50     1.25      CH         F
  14      8     1.40     1.25      O          F
  15      1     1.20     1.25      CH         F
  16      6     1.50     1.25      CH2        F
  17      1     1.20     1.25      CH2        F
  18      1     1.20     1.25      CH2        F
  19      6     1.50     1.25      CH2        F
  20      1     1.20     1.25      CH2        F
  21      1     1.20     1.25      CH2        F
  22      6     1.50     1.25      CH         F
  23      1     1.20     1.25      CH         F
  24      6     1.50     1.25      CH2        F
  25      1     1.20     1.25      CH2        F
  26      1     1.20     1.25      CH2        F
  27      8     1.45     1.25      OH         F
  28      1     0.90     1.25      OH         F
  29      1     0.90     1.15      NH         T
 ------------------------------------------------------------------------------
 Polarizable Continuum Model (PCM)
 =================================
 Model                : PCM.
 Atomic radii         : MST.
 Polarization charges : Total charges.
 Charge compensation  : None.
 Solution method      : On-the-fly selection.
 Cavity type          : Scaled VdW (van der Waals Surface) (Alpha=1.250).
 Cavity algorithm     : GePol (No added spheres)
                        Default sphere list used, NSphG=   29.
                        Lebedev-Laikov grids with approx.  5.0 points / Ang**2.
                        Smoothing algorithm: York/Karplus (Gamma=1.0000).
                        Polarization charges: spherical gaussians, with
                                              point-specific exponents (IZeta= 3).
                        Self-potential: point-specific (ISelfS= 7).
                        Self-field    : sphere-specific E.n sum rule (ISelfD= 2).
 1st derivatives      : Analytical E(r).r(x)/FMM algorithm (CHGder, D1EAlg=3).
                        Cavity 1st derivative terms included.
 Solvent              : Water, Eps=  78.355300 Eps(inf)=   1.777849
 ------------------------------------------------------------------------------
 GePol: Number of generator spheres                  =      29
 GePol: Total number of spheres                      =      29
 GePol: Number of exposed spheres                    =      29 (100.00%)
 GePol: Number of points                             =    2036
 GePol: Average weight of points                     =       0.13
 GePol: Minimum weight of points                     =   0.61D-10
 GePol: Maximum weight of points                     =    0.22001
 GePol: Number of points with low weight             =     139
 GePol: Fraction of low-weight points (<1% of avg)   =       6.83%
 GePol: Cavity surface area                          =    262.146 Ang**2
 GePol: Cavity volume                                =    242.781 Ang**3
 PCM non-electrostatic energy =         0.0010210996 Hartrees.
 Nuclear repulsion after PCM non-electrostatic terms =     1046.8673822408 Hartrees.
 Leave Link  301 at Sun Jul 11 16:13:10 2021, MaxMem=   104857600 cpu:               0.3 elap:               0.1
 (Enter /prod/apps/gaussian/g16b1/l302.exe)
 NPDir=0 NMtPBC=     1 NCelOv=     1 NCel=       1 NClECP=     1 NCelD=      1
         NCelK=      1 NCelE2=     1 NClLst=     1 CellRange=     0.0.
 One-electron integrals computed using PRISM.
 One-electron integral symmetry used in STVInt
 NBasis=   253 RedAO= T EigKep=  9.06D-04  NBF=   253
 NBsUse=   253 1.00D-06 EigRej= -1.00D+00 NBFU=   253
 Precomputing XC quadrature grid using
 IXCGrd= 4 IRadAn=           5 IRanWt=          -1 IRanGd=           0 AccXCQ= 0.00D+00.
 Generated NRdTot=       0 NPtTot=           0 NUsed=           0 NTot=          32
 NSgBfM=   253   252   252   252   253 MxSgAt=    29 MxSgA2=    29.
 Leave Link  302 at Sun Jul 11 16:13:11 2021, MaxMem=   104857600 cpu:               1.6 elap:               0.4
 (Enter /prod/apps/gaussian/g16b1/l303.exe)
 DipDrv:  MaxL=1.
 Leave Link  303 at Sun Jul 11 16:13:11 2021, MaxMem=   104857600 cpu:               0.1 elap:               0.1
 (Enter /prod/apps/gaussian/g16b1/l401.exe)
 ExpMin= 1.61D-01 ExpMax= 5.48D+03 ExpMxC= 8.25D+02 IAcc=3 IRadAn=         5 AccDes= 0.00D+00
 Harris functional with IExCor=  402 and IRadAn=       5 diagonalized for initial guess.
 HarFok:  IExCor=  402 AccDes= 0.00D+00 IRadAn=         5 IDoV= 1 UseB2=F ITyADJ=14
 ICtDFT=  3500011 ScaDFX=  1.000000  1.000000  1.000000  1.000000
 FoFCou: FMM=F IPFlag=           0 FMFlag=      100000 FMFlg1=           0
         NFxFlg=           0 DoJE=T BraDBF=F KetDBF=T FulRan=T
         wScrn=  0.000000 ICntrl=       500 IOpCl=  0 I1Cent=   200000004 NGrid=           0
         NMat0=    1 NMatS0=      1 NMatT0=    0 NMatD0=    1 NMtDS0=    0 NMtDT0=    0
 Petite list used in FoFCou.
 Harris En= -741.059361847635    
 JPrj=0 DoOrth=F DoCkMO=F.
 Leave Link  401 at Sun Jul 11 16:13:12 2021, MaxMem=   104857600 cpu:               7.1 elap:               1.8
 (Enter /prod/apps/gaussian/g16b1/l502.exe)
 Integral symmetry usage will be decided dynamically.
 Closed shell SCF:
 Using DIIS extrapolation, IDIIS=  1040.
 NGot=   104857600 LenX=   104725140 LenY=   104660690
 Requested convergence on RMS density matrix=1.00D-08 within 128 cycles.
 Requested convergence on MAX density matrix=1.00D-06.
 Requested convergence on             energy=1.00D-06.
 No special actions if energy rises.
 Fock matrices will be formed incrementally for  20 cycles.

 Cycle   1  Pass 1  IDiag  1:
 FoFJK:  IHMeth= 1 ICntrl=       0 DoSepK=F KAlg= 0 I1Cent=           0 FoldK=F
 IRaf= 840000000 NMat=       1 IRICut=       1 DoRegI=T DoRafI=F ISym2E= 0 IDoP0=0 IntGTp=1.
 FoFCou: FMM=F IPFlag=           0 FMFlag=      100000 FMFlg1=           0
         NFxFlg=           0 DoJE=F BraDBF=F KetDBF=F FulRan=T
         wScrn=  0.000000 ICntrl=         0 IOpCl=  0 I1Cent=           0 NGrid=           0
         NMat0=    1 NMatS0=      1 NMatT0=    0 NMatD0=    1 NMtDS0=    0 NMtDT0=    0
 Symmetry not used in FoFCou.
 Inv3:  Mode=1 IEnd=    12435888.
 Iteration    1 A*A^-1 deviation from unit magnitude is 3.11D-15 for    377.
 Iteration    1 A*A^-1 deviation from orthogonality  is 3.09D-15 for   1655    762.
 Iteration    1 A^-1*A deviation from unit magnitude is 3.00D-15 for   1264.
 Iteration    1 A^-1*A deviation from orthogonality  is 2.53D-15 for   1757   1743.
 E= -740.839218072975    
 DIIS: error= 2.39D-02 at cycle   1 NSaved=   1.
 NSaved= 1 IEnMin= 1 EnMin= -740.839218072975     IErMin= 1 ErrMin= 2.39D-02
 ErrMax= 2.39D-02  0.00D+00 EMaxC= 1.00D-01 BMatC= 3.85D-01 BMatP= 3.85D-01
 IDIUse=3 WtCom= 7.61D-01 WtEn= 2.39D-01
 Coeff-Com:  0.100D+01
 Coeff-En:   0.100D+01
 Coeff:      0.100D+01
 Gap=     0.166 Goal=   None    Shift=    0.000
 GapD=    0.166 DampG=1.000 DampE=0.500 DampFc=0.5000 IDamp=-1.
 Damping current iteration by 5.00D-01
 RMSDP=5.62D-03 MaxDP=2.26D-01              OVMax= 2.58D-01

 Cycle   2  Pass 1  IDiag  1:
 RMSU=  2.79D-03    CP:  9.87D-01
 E= -740.935312223511     Delta-E=       -0.096094150536 Rises=F Damp=T
 DIIS: error= 1.36D-02 at cycle   2 NSaved=   2.
 NSaved= 2 IEnMin= 2 EnMin= -740.935312223511     IErMin= 2 ErrMin= 1.36D-02
 ErrMax= 1.36D-02  0.00D+00 EMaxC= 1.00D-01 BMatC= 5.48D-02 BMatP= 3.85D-01
 IDIUse=3 WtCom= 8.64D-01 WtEn= 1.36D-01
 Coeff-Com:  0.195D+00 0.805D+00
 Coeff-En:   0.316D+00 0.684D+00
 Coeff:      0.211D+00 0.789D+00
 Gap=     0.244 Goal=   None    Shift=    0.000
 RMSDP=1.69D-03 MaxDP=9.44D-02 DE=-9.61D-02 OVMax= 1.79D-01

 Cycle   3  Pass 1  IDiag  1:
 RMSU=  1.49D-03    CP:  9.77D-01  7.25D-01
 E= -741.124239320531     Delta-E=       -0.188927097020 Rises=F Damp=F
 DIIS: error= 1.36D-02 at cycle   3 NSaved=   3.
 NSaved= 3 IEnMin= 3 EnMin= -741.124239320531     IErMin= 3 ErrMin= 1.36D-02
 ErrMax= 1.36D-02  0.00D+00 EMaxC= 1.00D-01 BMatC= 4.07D-02 BMatP= 5.48D-02
 IDIUse=3 WtCom= 8.64D-01 WtEn= 1.36D-01
 Coeff-Com:  0.457D-01 0.456D+00 0.498D+00
 Coeff-En:   0.000D+00 0.000D+00 0.100D+01
 Coeff:      0.395D-01 0.395D+00 0.566D+00
 Gap=     0.192 Goal=   None    Shift=    0.000
 RMSDP=1.05D-03 MaxDP=5.07D-02 DE=-1.89D-01 OVMax= 7.61D-02

 Cycle   4  Pass 1  IDiag  1:
 RMSU=  5.92D-04    CP:  9.83D-01  8.65D-01  4.84D-01
 E= -741.152269263666     Delta-E=       -0.028029943135 Rises=F Damp=F
 DIIS: error= 5.56D-03 at cycle   4 NSaved=   4.
 NSaved= 4 IEnMin= 4 EnMin= -741.152269263666     IErMin= 4 ErrMin= 5.56D-03
 ErrMax= 5.56D-03  0.00D+00 EMaxC= 1.00D-01 BMatC= 8.28D-03 BMatP= 4.07D-02
 IDIUse=3 WtCom= 9.44D-01 WtEn= 5.56D-02
 Coeff-Com:  0.284D-02 0.742D-01 0.324D+00 0.599D+00
 Coeff-En:   0.000D+00 0.000D+00 0.183D+00 0.817D+00
 Coeff:      0.268D-02 0.701D-01 0.316D+00 0.611D+00
 Gap=     0.193 Goal=   None    Shift=    0.000
 RMSDP=3.58D-04 MaxDP=1.76D-02 DE=-2.80D-02 OVMax= 2.36D-02

 Cycle   5  Pass 1  IDiag  1:
 RMSU=  1.36D-04    CP:  9.81D-01  8.16D-01  6.33D-01  6.61D-01
 E= -741.158660011501     Delta-E=       -0.006390747835 Rises=F Damp=F
 DIIS: error= 7.76D-04 at cycle   5 NSaved=   5.
 NSaved= 5 IEnMin= 5 EnMin= -741.158660011501     IErMin= 5 ErrMin= 7.76D-04
 ErrMax= 7.76D-04  0.00D+00 EMaxC= 1.00D-01 BMatC= 2.99D-04 BMatP= 8.28D-03
 IDIUse=3 WtCom= 9.92D-01 WtEn= 7.76D-03
 Coeff-Com: -0.891D-03 0.957D-02 0.121D+00 0.300D+00 0.570D+00
 Coeff-En:   0.000D+00 0.000D+00 0.000D+00 0.000D+00 0.100D+01
 Coeff:     -0.884D-03 0.950D-02 0.120D+00 0.298D+00 0.574D+00
 Gap=     0.192 Goal=   None    Shift=    0.000
 RMSDP=7.15D-05 MaxDP=3.22D-03 DE=-6.39D-03 OVMax= 2.82D-03

 Cycle   6  Pass 1  IDiag  1:
 RMSU=  3.67D-05    CP:  9.81D-01  8.22D-01  6.30D-01  6.89D-01  5.87D-01
 E= -741.158878652909     Delta-E=       -0.000218641407 Rises=F Damp=F
 DIIS: error= 3.10D-04 at cycle   6 NSaved=   6.
 NSaved= 6 IEnMin= 6 EnMin= -741.158878652909     IErMin= 6 ErrMin= 3.10D-04
 ErrMax= 3.10D-04  0.00D+00 EMaxC= 1.00D-01 BMatC= 2.85D-05 BMatP= 2.99D-04
 IDIUse=3 WtCom= 9.97D-01 WtEn= 3.10D-03
 Coeff-Com: -0.880D-03-0.304D-03 0.387D-01 0.109D+00 0.307D+00 0.546D+00
 Coeff-En:   0.000D+00 0.000D+00 0.000D+00 0.000D+00 0.000D+00 0.100D+01
 Coeff:     -0.877D-03-0.303D-03 0.386D-01 0.109D+00 0.306D+00 0.548D+00
 Gap=     0.192 Goal=   None    Shift=    0.000
 RMSDP=1.89D-05 MaxDP=1.01D-03 DE=-2.19D-04 OVMax= 8.83D-04

 Cycle   7  Pass 1  IDiag  1:
 RMSU=  1.11D-05    CP:  9.81D-01  8.22D-01  6.30D-01  6.92D-01  6.34D-01
                    CP:  6.23D-01
 E= -741.158899676466     Delta-E=       -0.000021023557 Rises=F Damp=F
 DIIS: error= 3.84D-05 at cycle   7 NSaved=   7.
 NSaved= 7 IEnMin= 7 EnMin= -741.158899676466     IErMin= 7 ErrMin= 3.84D-05
 ErrMax= 3.84D-05  0.00D+00 EMaxC= 1.00D-01 BMatC= 1.42D-06 BMatP= 2.85D-05
 IDIUse=1 WtCom= 1.00D+00 WtEn= 0.00D+00
 Coeff-Com: -0.343D-03-0.779D-03 0.898D-02 0.282D-01 0.105D+00 0.263D+00
 Coeff-Com:  0.595D+00
 Coeff:     -0.343D-03-0.779D-03 0.898D-02 0.282D-01 0.105D+00 0.263D+00
 Coeff:      0.595D+00
 Gap=     0.192 Goal=   None    Shift=    0.000
 RMSDP=4.70D-06 MaxDP=1.44D-04 DE=-2.10D-05 OVMax= 1.60D-04

 Cycle   8  Pass 1  IDiag  1:
 RMSU=  2.58D-06    CP:  9.81D-01  8.22D-01  6.30D-01  6.93D-01  6.37D-01
                    CP:  6.56D-01  6.69D-01
 E= -741.158900825179     Delta-E=       -0.000001148713 Rises=F Damp=F
 DIIS: error= 8.53D-06 at cycle   8 NSaved=   8.
 NSaved= 8 IEnMin= 8 EnMin= -741.158900825179     IErMin= 8 ErrMin= 8.53D-06
 ErrMax= 8.53D-06  0.00D+00 EMaxC= 1.00D-01 BMatC= 6.02D-08 BMatP= 1.42D-06
 IDIUse=1 WtCom= 1.00D+00 WtEn= 0.00D+00
 Coeff-Com: -0.679D-04-0.187D-03 0.848D-03 0.288D-02 0.197D-01 0.617D-01
 Coeff-Com:  0.218D+00 0.697D+00
 Coeff:     -0.679D-04-0.187D-03 0.848D-03 0.288D-02 0.197D-01 0.617D-01
 Coeff:      0.218D+00 0.697D+00
 Gap=     0.192 Goal=   None    Shift=    0.000
 RMSDP=1.28D-06 MaxDP=4.17D-05 DE=-1.15D-06 OVMax= 7.99D-05

 Cycle   9  Pass 1  IDiag  1:
 RMSU=  9.72D-07    CP:  9.81D-01  8.22D-01  6.30D-01  6.93D-01  6.39D-01
                    CP:  6.58D-01  6.94D-01  7.28D-01
 E= -741.158900861777     Delta-E=       -0.000000036598 Rises=F Damp=F
 DIIS: error= 4.52D-06 at cycle   9 NSaved=   9.
 NSaved= 9 IEnMin= 9 EnMin= -741.158900861777     IErMin= 9 ErrMin= 4.52D-06
 ErrMax= 4.52D-06  0.00D+00 EMaxC= 1.00D-01 BMatC= 1.87D-08 BMatP= 6.02D-08
 IDIUse=1 WtCom= 1.00D+00 WtEn= 0.00D+00
 Coeff-Com: -0.164D-04-0.518D-04-0.247D-03-0.696D-03 0.318D-02 0.141D-01
 Coeff-Com:  0.736D-01 0.409D+00 0.501D+00
 Coeff:     -0.164D-04-0.518D-04-0.247D-03-0.696D-03 0.318D-02 0.141D-01
 Coeff:      0.736D-01 0.409D+00 0.501D+00
 Gap=     0.192 Goal=   None    Shift=    0.000
 RMSDP=5.38D-07 MaxDP=1.91D-05 DE=-3.66D-08 OVMax= 4.25D-05

 Cycle  10  Pass 1  IDiag  1:
 RMSU=  2.71D-07    CP:  9.81D-01  8.22D-01  6.30D-01  6.93D-01  6.38D-01
                    CP:  6.60D-01  7.01D-01  8.02D-01  5.82D-01
 E= -741.158900876827     Delta-E=       -0.000000015050 Rises=F Damp=F
 DIIS: error= 8.16D-07 at cycle  10 NSaved=  10.
 NSaved=10 IEnMin=10 EnMin= -741.158900876827     IErMin=10 ErrMin= 8.16D-07
 ErrMax= 8.16D-07  0.00D+00 EMaxC= 1.00D-01 BMatC= 7.01D-10 BMatP= 1.87D-08
 IDIUse=1 WtCom= 1.00D+00 WtEn= 0.00D+00
 Coeff-Com: -0.308D-05-0.879D-06-0.211D-03-0.663D-03-0.510D-03 0.775D-04
 Coeff-Com:  0.994D-02 0.118D+00 0.216D+00 0.657D+00
 Coeff:     -0.308D-05-0.879D-06-0.211D-03-0.663D-03-0.510D-03 0.775D-04
 Coeff:      0.994D-02 0.118D+00 0.216D+00 0.657D+00
 Gap=     0.192 Goal=   None    Shift=    0.000
 RMSDP=1.23D-07 MaxDP=3.93D-06 DE=-1.51D-08 OVMax= 9.33D-06

 Cycle  11  Pass 1  IDiag  1:
 RMSU=  8.17D-08    CP:  9.81D-01  8.22D-01  6.30D-01  6.93D-01  6.39D-01
                    CP:  6.60D-01  7.01D-01  8.09D-01  6.38D-01  7.45D-01
 E= -741.158900877360     Delta-E=       -0.000000000533 Rises=F Damp=F
 DIIS: error= 3.45D-07 at cycle  11 NSaved=  11.
 NSaved=11 IEnMin=11 EnMin= -741.158900877360     IErMin=11 ErrMin= 3.45D-07
 ErrMax= 3.45D-07  0.00D+00 EMaxC= 1.00D-01 BMatC= 1.05D-10 BMatP= 7.01D-10
 IDIUse=1 WtCom= 1.00D+00 WtEn= 0.00D+00
 Coeff-Com: -0.844D-06 0.600D-05-0.881D-04-0.287D-03-0.496D-03-0.109D-02
 Coeff-Com: -0.133D-02 0.281D-01 0.700D-01 0.345D+00 0.560D+00
 Coeff:     -0.844D-06 0.600D-05-0.881D-04-0.287D-03-0.496D-03-0.109D-02
 Coeff:     -0.133D-02 0.281D-01 0.700D-01 0.345D+00 0.560D+00
 Gap=     0.192 Goal=   None    Shift=    0.000
 RMSDP=4.23D-08 MaxDP=2.15D-06 DE=-5.33D-10 OVMax= 2.80D-06

 Cycle  12  Pass 1  IDiag  1:
 RMSU=  2.36D-08    CP:  9.81D-01  8.22D-01  6.30D-01  6.93D-01  6.39D-01
                    CP:  6.60D-01  7.01D-01  8.12D-01  6.41D-01  8.05D-01
                    CP:  6.41D-01
 E= -741.158900877452     Delta-E=       -0.000000000092 Rises=F Damp=F
 DIIS: error= 7.33D-08 at cycle  12 NSaved=  12.
 NSaved=12 IEnMin=12 EnMin= -741.158900877452     IErMin=12 ErrMin= 7.33D-08
 ErrMax= 7.33D-08  0.00D+00 EMaxC= 1.00D-01 BMatC= 5.18D-12 BMatP= 1.05D-10
 IDIUse=1 WtCom= 1.00D+00 WtEn= 0.00D+00
 Coeff-Com: -0.409D-06 0.291D-05-0.169D-04-0.572D-04-0.143D-03-0.413D-03
 Coeff-Com: -0.150D-02 0.944D-03 0.784D-02 0.741D-01 0.223D+00 0.696D+00
 Coeff:     -0.409D-06 0.291D-05-0.169D-04-0.572D-04-0.143D-03-0.413D-03
 Coeff:     -0.150D-02 0.944D-03 0.784D-02 0.741D-01 0.223D+00 0.696D+00
 Gap=     0.192 Goal=   None    Shift=    0.000
 RMSDP=1.12D-08 MaxDP=3.97D-07 DE=-9.16D-11 OVMax= 1.10D-06

 Cycle  13  Pass 1  IDiag  1:
 RMSU=  8.40D-09    CP:  9.81D-01  8.22D-01  6.30D-01  6.93D-01  6.39D-01
                    CP:  6.60D-01  7.01D-01  8.13D-01  6.43D-01  8.07D-01
                    CP:  7.07D-01  8.29D-01
 E= -741.158900877458     Delta-E=       -0.000000000007 Rises=F Damp=F
 DIIS: error= 3.73D-08 at cycle  13 NSaved=  13.
 NSaved=13 IEnMin=13 EnMin= -741.158900877458     IErMin=13 ErrMin= 3.73D-08
 ErrMax= 3.73D-08  0.00D+00 EMaxC= 1.00D-01 BMatC= 1.35D-12 BMatP= 5.18D-12
 IDIUse=1 WtCom= 1.00D+00 WtEn= 0.00D+00
 Coeff-Com: -0.196D-06 0.925D-06 0.882D-06 0.165D-05-0.228D-04-0.111D-03
 Coeff-Com: -0.776D-03-0.303D-02-0.442D-02-0.565D-03 0.617D-01 0.405D+00
 Coeff-Com:  0.543D+00
 Coeff:     -0.196D-06 0.925D-06 0.882D-06 0.165D-05-0.228D-04-0.111D-03
 Coeff:     -0.776D-03-0.303D-02-0.442D-02-0.565D-03 0.617D-01 0.405D+00
 Coeff:      0.543D+00
 Gap=     0.192 Goal=   None    Shift=    0.000
 RMSDP=4.28D-09 MaxDP=1.42D-07 DE=-6.59D-12 OVMax= 2.33D-07

 Error on total polarization charges =  0.01483
 SCF Done:  E(RB3LYP) =  -741.158900877     A.U. after   13 cycles
            NFock= 13  Conv=0.43D-08     -V/T= 2.0086
 KE= 7.348058861531D+02 PE=-3.804703954868D+03 EE= 1.281871785597D+03
 Leave Link  502 at Sun Jul 11 16:13:58 2021, MaxMem=   104857600 cpu:             183.3 elap:              45.9
 (Enter /prod/apps/gaussian/g16b1/l601.exe)
 Copying SCF densities to generalized density rwf, IOpCl= 0 IROHF=0.

 **********************************************************************

            Population analysis using the SCF Density.

 **********************************************************************

 Orbital symmetries:
       Occupied  (A) (A) (A) (A) (A) (A) (A) (A) (A) (A) (A) (A)
                 (A) (A) (A) (A) (A) (A) (A) (A) (A) (A) (A) (A)
                 (A) (A) (A) (A) (A) (A) (A) (A) (A) (A) (A) (A)
                 (A) (A) (A) (A) (A) (A) (A) (A) (A) (A) (A) (A)
                 (A) (A) (A) (A) (A) (A) (A) (A)
       Virtual   (A) (A) (A) (A) (A) (A) (A) (A) (A) (A) (A) (A)
                 (A) (A) (A) (A) (A) (A) (A) (A) (A) (A) (A) (A)
                 (A) (A) (A) (A) (A) (A) (A) (A) (A) (A) (A) (A)
                 (A) (A) (A) (A) (A) (A) (A) (A) (A) (A) (A) (A)
                 (A) (A) (A) (A) (A) (A) (A) (A) (A) (A) (A) (A)
                 (A) (A) (A) (A) (A) (A) (A) (A) (A) (A) (A) (A)
                 (A) (A) (A) (A) (A) (A) (A) (A) (A) (A) (A) (A)
                 (A) (A) (A) (A) (A) (A) (A) (A) (A) (A) (A) (A)
                 (A) (A) (A) (A) (A) (A) (A) (A) (A) (A) (A) (A)
                 (A) (A) (A) (A) (A) (A) (A) (A) (A) (A) (A) (A)
                 (A) (A) (A) (A) (A) (A) (A) (A) (A) (A) (A) (A)
                 (A) (A) (A) (A) (A) (A) (A) (A) (A) (A) (A) (A)
                 (A) (A) (A) (A) (A) (A) (A) (A) (A) (A) (A) (A)
                 (A) (A) (A) (A) (A) (A) (A) (A) (A) (A) (A) (A)
                 (A) (A) (A) (A) (A) (A) (A) (A) (A) (A) (A) (A)
                 (A) (A) (A) (A) (A) (A) (A) (A) (A) (A) (A) (A)
                 (A) (A) (A) (A) (A)
 The electronic state is 1-A.
 Alpha  occ. eigenvalues --  -19.17244 -19.14559 -19.13549 -14.42734 -14.41716
 Alpha  occ. eigenvalues --  -14.38682 -10.35023 -10.32025 -10.29917 -10.27835
 Alpha  occ. eigenvalues --  -10.24746 -10.23901 -10.21752 -10.20074 -10.19130
 Alpha  occ. eigenvalues --   -1.11613  -1.06504  -1.03882  -1.00351  -0.99246
 Alpha  occ. eigenvalues --   -0.93709  -0.82559  -0.80183  -0.77304  -0.73082
 Alpha  occ. eigenvalues --   -0.70872  -0.66960  -0.62390  -0.62068  -0.60827
 Alpha  occ. eigenvalues --   -0.58695  -0.54696  -0.53435  -0.52767  -0.52338
 Alpha  occ. eigenvalues --   -0.51605  -0.49473  -0.48310  -0.46034  -0.45015
 Alpha  occ. eigenvalues --   -0.43765  -0.43638  -0.42638  -0.42073  -0.40799
 Alpha  occ. eigenvalues --   -0.39053  -0.36661  -0.35986  -0.35614  -0.33491
 Alpha  occ. eigenvalues --   -0.33073  -0.30314  -0.29926  -0.28677  -0.26845
 Alpha  occ. eigenvalues --   -0.25717
 Alpha virt. eigenvalues --   -0.06501  -0.00695   0.06759   0.07962   0.08411
 Alpha virt. eigenvalues --    0.08853   0.09579   0.10405   0.11564   0.11782
 Alpha virt. eigenvalues --    0.12484   0.13984   0.14985   0.15995   0.16396
 Alpha virt. eigenvalues --    0.18259   0.18659   0.19065   0.19378   0.20890
 Alpha virt. eigenvalues --    0.21647   0.22709   0.23505   0.24109   0.24803
 Alpha virt. eigenvalues --    0.26838   0.27640   0.30909   0.31010   0.33879
 Alpha virt. eigenvalues --    0.36731   0.38970   0.46013   0.47036   0.49184
 Alpha virt. eigenvalues --    0.50790   0.51331   0.53160   0.53907   0.55570
 Alpha virt. eigenvalues --    0.55949   0.56353   0.56874   0.57226   0.58288
 Alpha virt. eigenvalues --    0.58651   0.59908   0.60864   0.63230   0.63679
 Alpha virt. eigenvalues --    0.64447   0.65179   0.66693   0.67481   0.69730
 Alpha virt. eigenvalues --    0.73093   0.73438   0.74663   0.76378   0.78182
 Alpha virt. eigenvalues --    0.79839   0.81221   0.81531   0.82627   0.83781
 Alpha virt. eigenvalues --    0.83835   0.85261   0.85645   0.86710   0.86969
 Alpha virt. eigenvalues --    0.88378   0.88787   0.90568   0.91602   0.92081
 Alpha virt. eigenvalues --    0.93596   0.94581   0.94846   0.95796   0.97509
 Alpha virt. eigenvalues --    0.98067   0.98501   1.03456   1.05152   1.05546
 Alpha virt. eigenvalues --    1.06671   1.08871   1.10672   1.11014   1.13440
 Alpha virt. eigenvalues --    1.15744   1.20556   1.24227   1.25243   1.27012
 Alpha virt. eigenvalues --    1.28816   1.31700   1.34381   1.35925   1.37782
 Alpha virt. eigenvalues --    1.38070   1.39483   1.42368   1.43754   1.45406
 Alpha virt. eigenvalues --    1.46855   1.48025   1.52932   1.53787   1.57600
 Alpha virt. eigenvalues --    1.58519   1.60029   1.64119   1.66697   1.68888
 Alpha virt. eigenvalues --    1.70816   1.72115   1.75188   1.75687   1.78263
 Alpha virt. eigenvalues --    1.79507   1.81027   1.83399   1.85779   1.86229
 Alpha virt. eigenvalues --    1.87839   1.89172   1.90639   1.91212   1.93098
 Alpha virt. eigenvalues --    1.94136   1.95593   1.96492   1.98009   2.00883
 Alpha virt. eigenvalues --    2.02124   2.02877   2.05523   2.06557   2.09514
 Alpha virt. eigenvalues --    2.11588   2.13217   2.14157   2.17430   2.19890
 Alpha virt. eigenvalues --    2.20880   2.24418   2.26550   2.28565   2.29418
 Alpha virt. eigenvalues --    2.32045   2.33420   2.34197   2.38072   2.38924
 Alpha virt. eigenvalues --    2.41813   2.43305   2.44184   2.46172   2.48613
 Alpha virt. eigenvalues --    2.50232   2.52321   2.54564   2.56262   2.59240
 Alpha virt. eigenvalues --    2.62384   2.65489   2.67794   2.68971   2.72879
 Alpha virt. eigenvalues --    2.74526   2.77678   2.79760   2.81477   2.86514
 Alpha virt. eigenvalues --    2.89252   2.91013   2.96127   3.02232   3.06652
 Alpha virt. eigenvalues --    3.28005   3.52274   3.71429   3.85021   4.00190
 Alpha virt. eigenvalues --    4.05019   4.09185   4.11372   4.20548   4.25414
 Alpha virt. eigenvalues --    4.29425   4.35521   4.39189   4.51498   4.56202
 Alpha virt. eigenvalues --    4.62385   4.66405
          Condensed to atoms (all electrons):
               1          2          3          4          5          6
     1  N    6.942003   0.307341   0.311417   0.382463  -0.070442   0.004852
     2  H    0.307341   0.286923  -0.010549  -0.015948   0.003972  -0.000140
     3  H    0.311417  -0.010549   0.295500  -0.023302  -0.003163   0.000123
     4  C    0.382463  -0.015948  -0.023302   4.261668   0.464225  -0.006819
     5  C   -0.070442   0.003972  -0.003163   0.464225   5.041260   0.547506
     6  C    0.004852  -0.000140   0.000123  -0.006819   0.547506   4.707844
     7  H   -0.000101   0.000002   0.000001   0.003620  -0.029948   0.361950
     8  H   -0.006065  -0.000002   0.003318  -0.028032   0.370166  -0.031310
     9  N   -0.088158  -0.004820   0.004186   0.351437  -0.037942  -0.026541
    10  C    0.001815  -0.000064  -0.000068  -0.028337  -0.020119  -0.031205
    11  O   -0.000132  -0.000018   0.000002   0.000676   0.001426   0.001224
    12  N    0.000306  -0.000009   0.000019  -0.019132  -0.028772   0.321932
    13  C    0.000008  -0.000000  -0.000000   0.000483   0.004874  -0.028054
    14  O   -0.000000  -0.000000   0.000000  -0.000034   0.001223   0.008742
    15  H   -0.000000   0.000000   0.000000  -0.000034  -0.000098   0.005739
    16  C    0.000000  -0.000000   0.000000   0.000025  -0.000140  -0.001048
    17  H   -0.000000   0.000000   0.000000   0.000014  -0.000194   0.003002
    18  H    0.000000   0.000000  -0.000000  -0.000001   0.000007  -0.000102
    19  C    0.000000   0.000000  -0.000000   0.000000  -0.000006   0.000147
    20  H   -0.000000   0.000000  -0.000000   0.000000  -0.000000  -0.000023
    21  H   -0.000000  -0.000000   0.000000   0.000000  -0.000000   0.000002
    22  C    0.000000  -0.000000   0.000000  -0.000001   0.000060  -0.000403
    23  H   -0.000000   0.000000  -0.000000   0.000001  -0.000065  -0.000739
    24  C    0.000000   0.000000  -0.000000  -0.000000   0.000000   0.000038
    25  H    0.000000  -0.000000  -0.000000   0.000000  -0.000000  -0.000002
    26  H    0.000000  -0.000000  -0.000000   0.000000  -0.000000  -0.000007
    27  O    0.000000  -0.000000  -0.000000   0.000000  -0.000000  -0.000007
    28  H   -0.000000  -0.000000  -0.000000   0.000000   0.000000  -0.000000
    29  H   -0.005127   0.004142   0.000013  -0.017255   0.004095  -0.000124
               7          8          9         10         11         12
     1  N   -0.000101  -0.006065  -0.088158   0.001815  -0.000132   0.000306
     2  H    0.000002  -0.000002  -0.004820  -0.000064  -0.000018  -0.000009
     3  H    0.000001   0.003318   0.004186  -0.000068   0.000002   0.000019
     4  C    0.003620  -0.028032   0.351437  -0.028337   0.000676  -0.019132
     5  C   -0.029948   0.370166  -0.037942  -0.020119   0.001426  -0.028772
     6  C    0.361950  -0.031310  -0.026541  -0.031205   0.001224   0.321932
     7  H    0.458638  -0.003852  -0.000166   0.001511  -0.000135  -0.042863
     8  H   -0.003852   0.478198   0.003731   0.000749   0.000005   0.003294
     9  N   -0.000166   0.003731   7.057197   0.300511  -0.094453  -0.089994
    10  C    0.001511   0.000749   0.300511   4.084302   0.622549   0.269231
    11  O   -0.000135   0.000005  -0.094453   0.622549   8.136465  -0.115590
    12  N   -0.042863   0.003294  -0.089994   0.269231  -0.115590   7.119946
    13  C   -0.003886  -0.000131   0.002280  -0.024349   0.006527   0.210283
    14  O    0.007335   0.000013  -0.000020   0.002139   0.000227  -0.050804
    15  H    0.000420   0.000004   0.000132  -0.001597   0.009312  -0.062653
    16  C    0.000607  -0.000000  -0.000156  -0.001781   0.000771  -0.045902
    17  H    0.000710   0.000001  -0.000031   0.000042  -0.000156  -0.004314
    18  H   -0.000029  -0.000000   0.000011   0.000716   0.000792   0.000866
    19  C   -0.000151  -0.000000   0.000002   0.000169   0.000087   0.002892
    20  H   -0.000009   0.000000  -0.000000  -0.000000   0.000000  -0.000025
    21  H    0.000015  -0.000000  -0.000000  -0.000007  -0.000001   0.000106
    22  C    0.001458   0.000001   0.000001  -0.000046  -0.000004   0.000121
    23  H    0.000894  -0.000003   0.000000  -0.000005   0.000000   0.001172
    24  C   -0.000036   0.000000  -0.000000   0.000002   0.000000  -0.000114
    25  H    0.000001  -0.000000   0.000000  -0.000000  -0.000000   0.000002
    26  H    0.000002  -0.000000   0.000000  -0.000000   0.000000   0.000024
    27  O    0.000014  -0.000000   0.000000  -0.000000  -0.000000  -0.000000
    28  H    0.000004  -0.000000   0.000000   0.000000   0.000000   0.000000
    29  H    0.000018  -0.000096   0.293822  -0.005542   0.004424   0.003680
              13         14         15         16         17         18
     1  N    0.000008  -0.000000  -0.000000   0.000000  -0.000000   0.000000
     2  H   -0.000000  -0.000000   0.000000  -0.000000   0.000000   0.000000
     3  H   -0.000000   0.000000   0.000000   0.000000   0.000000  -0.000000
     4  C    0.000483  -0.000034  -0.000034   0.000025   0.000014  -0.000001
     5  C    0.004874   0.001223  -0.000098  -0.000140  -0.000194   0.000007
     6  C   -0.028054   0.008742   0.005739  -0.001048   0.003002  -0.000102
     7  H   -0.003886   0.007335   0.000420   0.000607   0.000710  -0.000029
     8  H   -0.000131   0.000013   0.000004  -0.000000   0.000001  -0.000000
     9  N    0.002280  -0.000020   0.000132  -0.000156  -0.000031   0.000011
    10  C   -0.024349   0.002139  -0.001597  -0.001781   0.000042   0.000716
    11  O    0.006527   0.000227   0.009312   0.000771  -0.000156   0.000792
    12  N    0.210283  -0.050804  -0.062653  -0.045902  -0.004314   0.000866
    13  C    4.712085   0.248746   0.393629   0.349065  -0.031832  -0.018740
    14  O    0.248746   8.336697  -0.046770  -0.056275  -0.000782   0.002955
    15  H    0.393629  -0.046770   0.542834  -0.035012   0.003705  -0.003249
    16  C    0.349065  -0.056275  -0.035012   5.142749   0.370741   0.365439
    17  H   -0.031832  -0.000782   0.003705   0.370741   0.533720  -0.025511
    18  H   -0.018740   0.002955  -0.003249   0.365439  -0.025511   0.529246
    19  C   -0.071770  -0.053653   0.000081   0.356035  -0.029960  -0.034903
    20  H    0.005964   0.004144  -0.000214  -0.025394  -0.004837   0.000587
    21  H   -0.000948  -0.001313   0.001431  -0.042020   0.004457  -0.006232
    22  C   -0.052875   0.207093   0.004985  -0.057749   0.000596   0.005242
    23  H    0.002095  -0.037218  -0.000358  -0.004404   0.001585  -0.000075
    24  C    0.002743  -0.039250   0.000116   0.004003  -0.000008  -0.000078
    25  H   -0.000071   0.002990  -0.000005  -0.000101  -0.000004   0.000000
    26  H    0.000224   0.002860  -0.000205  -0.000432   0.000001   0.000007
    27  O    0.000005   0.001350   0.000002  -0.000060   0.000001   0.000000
    28  H    0.000002   0.000740  -0.000001   0.000007  -0.000000  -0.000000
    29  H   -0.000022   0.000000  -0.000000   0.000000   0.000000  -0.000000
              19         20         21         22         23         24
     1  N    0.000000  -0.000000  -0.000000   0.000000  -0.000000   0.000000
     2  H    0.000000   0.000000  -0.000000  -0.000000   0.000000   0.000000
     3  H   -0.000000  -0.000000   0.000000   0.000000  -0.000000  -0.000000
     4  C    0.000000   0.000000   0.000000  -0.000001   0.000001  -0.000000
     5  C   -0.000006  -0.000000  -0.000000   0.000060  -0.000065   0.000000
     6  C    0.000147  -0.000023   0.000002  -0.000403  -0.000739   0.000038
     7  H   -0.000151  -0.000009   0.000015   0.001458   0.000894  -0.000036
     8  H   -0.000000   0.000000  -0.000000   0.000001  -0.000003   0.000000
     9  N    0.000002  -0.000000  -0.000000   0.000001   0.000000  -0.000000
    10  C    0.000169  -0.000000  -0.000007  -0.000046  -0.000005   0.000002
    11  O    0.000087   0.000000  -0.000001  -0.000004   0.000000   0.000000
    12  N    0.002892  -0.000025   0.000106   0.000121   0.001172  -0.000114
    13  C   -0.071770   0.005964  -0.000948  -0.052875   0.002095   0.002743
    14  O   -0.053653   0.004144  -0.001313   0.207093  -0.037218  -0.039250
    15  H    0.000081  -0.000214   0.001431   0.004985  -0.000358   0.000116
    16  C    0.356035  -0.025394  -0.042020  -0.057749  -0.004404   0.004003
    17  H   -0.029960  -0.004837   0.004457   0.000596   0.001585  -0.000008
    18  H   -0.034903   0.000587  -0.006232   0.005242  -0.000075  -0.000078
    19  C    5.129789   0.357868   0.379964   0.327335  -0.043436  -0.024550
    20  H    0.357868   0.549231  -0.025565  -0.029776  -0.000690  -0.001441
    21  H    0.379964  -0.025565   0.547407  -0.034585   0.004803  -0.006456
    22  C    0.327335  -0.029776  -0.034585   4.933897   0.358950   0.343823
    23  H   -0.043436  -0.000690   0.004803   0.358950   0.599736  -0.051645
    24  C   -0.024550  -0.001441  -0.006456   0.343823  -0.051645   4.898193
    25  H    0.002474   0.001797   0.000440  -0.050798   0.001266   0.364894
    26  H   -0.004473   0.000062   0.006036  -0.039652   0.006762   0.349902
    27  O    0.002281  -0.000042   0.000022  -0.035300   0.001891   0.239699
    28  H   -0.000067   0.000001  -0.000011   0.000207  -0.000285  -0.017300
    29  H   -0.000000   0.000000  -0.000000  -0.000000  -0.000000   0.000000
              25         26         27         28         29
     1  N    0.000000   0.000000   0.000000  -0.000000  -0.005127
     2  H   -0.000000  -0.000000  -0.000000  -0.000000   0.004142
     3  H   -0.000000  -0.000000  -0.000000  -0.000000   0.000013
     4  C    0.000000   0.000000   0.000000   0.000000  -0.017255
     5  C   -0.000000  -0.000000  -0.000000   0.000000   0.004095
     6  C   -0.000002  -0.000007  -0.000007  -0.000000  -0.000124
     7  H    0.000001   0.000002   0.000014   0.000004   0.000018
     8  H   -0.000000  -0.000000  -0.000000  -0.000000  -0.000096
     9  N    0.000000   0.000000   0.000000   0.000000   0.293822
    10  C   -0.000000  -0.000000  -0.000000   0.000000  -0.005542
    11  O   -0.000000   0.000000  -0.000000   0.000000   0.004424
    12  N    0.000002   0.000024  -0.000000   0.000000   0.003680
    13  C   -0.000071   0.000224   0.000005   0.000002  -0.000022
    14  O    0.002990   0.002860   0.001350   0.000740   0.000000
    15  H   -0.000005  -0.000205   0.000002  -0.000001  -0.000000
    16  C   -0.000101  -0.000432  -0.000060   0.000007   0.000000
    17  H   -0.000004   0.000001   0.000001  -0.000000   0.000000
    18  H    0.000000   0.000007   0.000000  -0.000000  -0.000000
    19  C    0.002474  -0.004473   0.002281  -0.000067  -0.000000
    20  H    0.001797   0.000062  -0.000042   0.000001   0.000000
    21  H    0.000440   0.006036   0.000022  -0.000011  -0.000000
    22  C   -0.050798  -0.039652  -0.035300   0.000207  -0.000000
    23  H    0.001266   0.006762   0.001891  -0.000285  -0.000000
    24  C    0.364894   0.349902   0.239699  -0.017300   0.000000
    25  H    0.572985  -0.034503  -0.030349   0.003919  -0.000000
    26  H   -0.034503   0.590644  -0.023643  -0.009976  -0.000000
    27  O   -0.030349  -0.023643   8.285118   0.240360  -0.000000
    28  H    0.003919  -0.009976   0.240360   0.338864  -0.000000
    29  H   -0.000000  -0.000000  -0.000000  -0.000000   0.270306
 Mulliken charges:
               1
     1  N   -0.780180
     2  H    0.429171
     3  H    0.422502
     4  C    0.674281
     5  C   -0.247924
     6  C    0.163421
     7  H    0.243978
     8  H    0.210012
     9  N   -0.671030
    10  C    0.829383
    11  O   -0.574000
    12  N   -0.473702
    13  C    0.293666
    14  O   -0.541136
    15  H    0.187805
    16  C   -0.318968
    17  H    0.179054
    18  H    0.183053
    19  C   -0.296154
    20  H    0.168364
    21  H    0.172456
    22  C    0.117420
    23  H    0.159769
    24  C   -0.062535
    25  H    0.165064
    26  H    0.156367
    27  O   -0.681341
    28  H    0.443537
    29  H    0.447666
 Sum of Mulliken charges =   1.00000
 Mulliken charges with hydrogens summed into heavy atoms:
               1
     1  N    0.071493
     4  C    0.674281
     5  C   -0.037912
     6  C    0.407399
     9  N   -0.223365
    10  C    0.829383
    11  O   -0.574000
    12  N   -0.473702
    13  C    0.481471
    14  O   -0.541136
    16  C    0.043139
    19  C    0.044666
    22  C    0.277189
    24  C    0.258897
    27  O   -0.237804
 Electronic spatial extent (au):  <R**2>=           3923.6798
 Charge=              1.0000 electrons
 Dipole moment (field-independent basis, Debye):
    X=            -12.6029    Y=             -3.2265    Z=              1.7153  Tot=             13.1220
 Quadrupole moment (field-independent basis, Debye-Ang):
   XX=            -14.4669   YY=            -83.5793   ZZ=            -79.7890
   XY=             24.3790   XZ=             -3.8160   YZ=              1.2550
 Traceless Quadrupole moment (field-independent basis, Debye-Ang):
   XX=             44.8115   YY=            -24.3009   ZZ=            -20.5106
   XY=             24.3790   XZ=             -3.8160   YZ=              1.2550
 Octapole moment (field-independent basis, Debye-Ang**2):
  XXX=           -321.0552  YYY=            -36.7884  ZZZ=            -11.9141  XYY=            -32.3469
  XXY=            -14.5792  XXZ=            -19.8762  XZZ=             16.5984  YZZ=            -11.1378
  YYZ=              7.5650  XYZ=             20.6220
 Hexadecapole moment (field-independent basis, Debye-Ang**3):
 XXXX=          -2264.6754 YYYY=           -863.2737 ZZZZ=           -241.7235 XXXY=            316.9010
 XXXZ=            -32.4641 YYYX=            134.4861 YYYZ=             12.5533 ZZZX=            -25.8115
 ZZZY=             14.3974 XXYY=           -720.0712 XXZZ=           -601.4670 YYZZ=           -168.8472
 XXYZ=              2.7935 YYXZ=            -72.1833 ZZXY=            -35.0769
 N-N= 1.046867382241D+03 E-N=-3.804703950679D+03  KE= 7.348058861531D+02
 No NMR shielding tensors so no spin-rotation constants.
 Leave Link  601 at Sun Jul 11 16:13:58 2021, MaxMem=   104857600 cpu:               0.4 elap:               0.1
 (Enter /prod/apps/gaussian/g16b1/l701.exe)
 ... and contract with generalized density number  0.
 Compute integral first derivatives.
 D1PCM: PCM CHGder 1st derivatives, ID1Alg=3 FixD1E=F DoIter=F DoCFld=F I1PDM=0.
 GePol: Maximum number of non-zero 1st derivatives   =     278
 Leave Link  701 at Sun Jul 11 16:14:00 2021, MaxMem=   104857600 cpu:               6.6 elap:               1.7
 (Enter /prod/apps/gaussian/g16b1/l702.exe)
 L702 exits ... SP integral derivatives will be done elsewhere.
 Leave Link  702 at Sun Jul 11 16:14:00 2021, MaxMem=   104857600 cpu:               0.1 elap:               0.0
 (Enter /prod/apps/gaussian/g16b1/l703.exe)
 Integral derivatives from FoFJK, PRISM(SPDF).
 Compute integral first derivatives, UseDBF=F ICtDFT=           0.
 Calling FoFJK, ICntrl=      2127 FMM=F ISym2X=0 I1Cent= 0 IOpClX= 0 NMat=1 NMatS=1 NMatT=0.
 FoFJK:  IHMeth= 1 ICntrl=    2127 DoSepK=F KAlg= 0 I1Cent=           0 FoldK=F
 IRaf=         0 NMat=       1 IRICut=       1 DoRegI=T DoRafI=F ISym2E= 0 IDoP0=0 IntGTp=1.
 FoFCou: FMM=F IPFlag=           0 FMFlag=      100000 FMFlg1=         800
         NFxFlg=           0 DoJE=F BraDBF=F KetDBF=F FulRan=T
         wScrn=  0.000000 ICntrl=      2127 IOpCl=  0 I1Cent=           0 NGrid=           0
         NMat0=    1 NMatS0=      1 NMatT0=    0 NMatD0=    1 NMtDS0=    0 NMtDT0=    0
 Symmetry not used in FoFCou.
 Leave Link  703 at Sun Jul 11 16:14:10 2021, MaxMem=   104857600 cpu:              39.5 elap:               9.9
 (Enter /prod/apps/gaussian/g16b1/l716.exe)
 Dipole        =-4.95837751D+00-1.26938432D+00 6.74870642D-01
 ***** Axes restored to original set *****
 -------------------------------------------------------------------
 Center     Atomic                   Forces (Hartrees/Bohr)
 Number     Number              X              Y              Z
 -------------------------------------------------------------------
      1        7          -0.003255929    0.033372781   -0.007772451
      2        1           0.000023871    0.005953569    0.011983377
      3        1          -0.002314034   -0.007950803    0.023958337
      4        6           0.002946569    0.026288340    0.054105692
      5        6          -0.000322087    0.036062534   -0.009669712
      6        6          -0.003251982    0.022622155    0.024917483
      7        1           0.004641108   -0.006553855   -0.004286268
      8        1          -0.002978925   -0.005813903    0.005920984
      9        7           0.000680373   -0.010439540   -0.060450261
     10        6           0.004029220   -0.090773458    0.005136110
     11        8           0.000964104   -0.023713611   -0.010149919
     12        7          -0.001705332    0.060699216   -0.031294530
     13        6           0.008191698   -0.021999204   -0.031503379
     14        8          -0.005259785    0.024046816    0.013126569
     15        1          -0.013181850   -0.004988586    0.007307754
     16        6           0.008101741   -0.008253879   -0.004015182
     17        1          -0.000828948   -0.000907058   -0.001440161
     18        1          -0.000602251   -0.004679848    0.016359312
     19        6          -0.012050127    0.028551158    0.000179997
     20        1          -0.004544201   -0.010984715   -0.003859786
     21        1           0.000357492    0.004173904   -0.003567920
     22        6           0.036970338    0.002691069   -0.025177650
     23        1          -0.002571603   -0.003180282    0.007633919
     24        6           0.010136276   -0.004779398    0.037118635
     25        1          -0.000942099    0.010979714    0.002850155
     26        1           0.004015433    0.002056752   -0.004644894
     27        8          -0.023564877   -0.029005812   -0.013760020
     28        1          -0.004485168   -0.001360581   -0.000465520
     29        1           0.000800974   -0.022113475    0.001459330
 -------------------------------------------------------------------
 Cartesian Forces:  Max     0.090773458 RMS     0.020266155
 Leave Link  716 at Sun Jul 11 16:14:10 2021, MaxMem=   104857600 cpu:               0.1 elap:               0.0
 (Enter /prod/apps/gaussian/g16b1/l103.exe)

 GradGradGradGradGradGradGradGradGradGradGradGradGradGradGradGradGradGrad
 Berny optimization.
 FormGI is forming the generalized inverse of G from B-inverse, IUseBI=4.
 Internal  Forces:  Max     0.097470157 RMS     0.013831863
 Search for a local minimum.
 Step number   1 out of a maximum of  172
 All quantities printed in internal units (Hartrees-Bohrs-Radians)
 RMS Force = .13832D-01 SwitMx=.10000D-02 MixMth= 1
 Mixed Optimization -- RFO/linear search
 Second derivative matrix not updated -- first step.
 ITU=  0
     Eigenvalues ---    0.00230   0.00432   0.00601   0.00727   0.00893
     Eigenvalues ---    0.01863   0.02293   0.02350   0.02400   0.02579
     Eigenvalues ---    0.02587   0.02590   0.02690   0.02734   0.02851
     Eigenvalues ---    0.02967   0.03007   0.03476   0.04239   0.04295
     Eigenvalues ---    0.04537   0.05027   0.05220   0.05787   0.05954
     Eigenvalues ---    0.06177   0.06548   0.06649   0.07356   0.07833
     Eigenvalues ---    0.08779   0.09568   0.11325   0.14043   0.14053
     Eigenvalues ---    0.15954   0.16000   0.16000   0.16000   0.16000
     Eigenvalues ---    0.16000   0.16020   0.19150   0.20301   0.22113
     Eigenvalues ---    0.22331   0.23461   0.24259   0.24560   0.24982
     Eigenvalues ---    0.24989   0.24997   0.25243   0.28643   0.29302
     Eigenvalues ---    0.32886   0.33727   0.34425   0.34470   0.34550
     Eigenvalues ---    0.34558   0.34563   0.34566   0.34582   0.34617
     Eigenvalues ---    0.35388   0.35405   0.35612   0.41302   0.44168
     Eigenvalues ---    0.45322   0.45326   0.46882   0.47773   0.51976
     Eigenvalues ---    0.52422   0.55450   0.60942   0.61627   0.69115
     Eigenvalues ---    0.95519
[...]
 Alpha virt. eigenvalues --    0.74471   0.74582   0.75875   0.76002   0.76790
 Alpha virt. eigenvalues --    0.77318   0.77789   0.78253   0.78830   0.79745
 Alpha virt. eigenvalues --    0.80192   0.80844   0.80951   0.82057   0.82740
 Alpha virt. eigenvalues --    0.83193   0.83895   0.84323   0.85065   0.85728
 Alpha virt. eigenvalues --    0.86208   0.87349   0.88027   0.88266   0.88740
 Alpha virt. eigenvalues --    0.89984   0.90521   0.90921   0.91604   0.92646
 Alpha virt. eigenvalues --    0.94502   0.94996   0.95745   0.96340   0.97288
 Alpha virt. eigenvalues --    0.98287   0.98998   1.01838   1.02317   1.03187
 Alpha virt. eigenvalues --    1.04556   1.04798   1.06329   1.07193   1.08591
 Alpha virt. eigenvalues --    1.08748   1.11146   1.11348   1.12842   1.13376
 Alpha virt. eigenvalues --    1.14714   1.15333   1.16654   1.17549   1.19952
 Alpha virt. eigenvalues --    1.20815   1.21527   1.22444   1.23074   1.25050
 Alpha virt. eigenvalues --    1.25637   1.27071   1.28748   1.29523   1.29880
 Alpha virt. eigenvalues --    1.31468   1.32442   1.34476   1.35756   1.36888
 Alpha virt. eigenvalues --    1.38282   1.38422   1.40796   1.41108   1.42945
 Alpha virt. eigenvalues --    1.43790   1.44314   1.46018   1.46338   1.49125
 Alpha virt. eigenvalues --    1.49748   1.51559   1.53218   1.53871   1.55042
 Alpha virt. eigenvalues --    1.55704   1.56558   1.58814   1.59453   1.59611
 Alpha virt. eigenvalues --    1.60513   1.61818   1.62870   1.64421   1.65125
 Alpha virt. eigenvalues --    1.65898   1.67024   1.68019   1.69182   1.70239
 Alpha virt. eigenvalues --    1.71736   1.72720   1.72958   1.74479   1.75590
 Alpha virt. eigenvalues --    1.77057   1.78559   1.79455   1.79955   1.80882
 Alpha virt. eigenvalues --    1.82254   1.82666   1.82762   1.84145   1.84604
 Alpha virt. eigenvalues --    1.86320   1.87677   1.88065   1.89480   1.90362
 Alpha virt. eigenvalues --    1.91535   1.92430   1.95458   1.96490   1.97010
 Alpha virt. eigenvalues --    1.99040   1.99241   2.00541   2.01506   2.02305
 Alpha virt. eigenvalues --    2.04158   2.04291   2.05405   2.06587   2.06911
 Alpha virt. eigenvalues --    2.07286   2.08655   2.10059   2.10889   2.11413
 Alpha virt. eigenvalues --    2.12883   2.13068   2.13510   2.14659   2.16215
 Alpha virt. eigenvalues --    2.16665   2.18265   2.19000   2.19245   2.21500
 Alpha virt. eigenvalues --    2.23664   2.23980   2.24343   2.26471   2.27149
 Alpha virt. eigenvalues --    2.28998   2.29414   2.30768   2.32616   2.33582
 Alpha virt. eigenvalues --    2.34506   2.36875   2.37464   2.37696   2.39443
 Alpha virt. eigenvalues --    2.40971   2.42081   2.42944   2.45181   2.45745
 Alpha virt. eigenvalues --    2.47321   2.47590   2.49402   2.51320   2.51717
 Alpha virt. eigenvalues --    2.53265   2.54909   2.55614   2.56538   2.58632
 Alpha virt. eigenvalues --    2.59570   2.60556   2.63735   2.64805   2.65688
 Alpha virt. eigenvalues --    2.66681   2.69685   2.70261   2.71230   2.72488
 Alpha virt. eigenvalues --    2.73545   2.74602   2.76143   2.76974   2.79071
 Alpha virt. eigenvalues --    2.79302   2.80479   2.82116   2.84021   2.85171
 Alpha virt. eigenvalues --    2.86853   2.87637   2.90962   2.93525   2.94816
 Alpha virt. eigenvalues --    2.97436   2.98559   3.01087   3.03281   3.06748
 Alpha virt. eigenvalues --    3.07030   3.10084   3.11872   3.14167   3.15049
 Alpha virt. eigenvalues --    3.21245   3.23363   3.26706   3.30554   3.35470
 Alpha virt. eigenvalues --    3.40011   3.46760   3.54383   3.61202   3.65083
 Alpha virt. eigenvalues --    3.68000   3.69437   3.70221   3.72347   3.74989
 Alpha virt. eigenvalues --    3.76619   3.80019   3.81617   3.83782   3.84373
 Alpha virt. eigenvalues --    3.88606   3.90911   3.95906   3.99227   4.06105
 Alpha virt. eigenvalues --    4.07630   4.20680   4.25634   4.29532   4.37412
          Condensed to atoms (all electrons):
               1          2          3          4          5          6
     1  N    6.450747   0.483654   0.421543   0.232123  -0.195643   0.107686
     2  H    0.483654   0.815779  -0.157720  -0.155189   0.014223  -0.020116
     3  H    0.421543  -0.157720   0.758760  -0.052295   0.021974   0.000820
     4  C    0.232123  -0.155189  -0.052295   6.300380  -1.277556   0.276325
     5  C   -0.195643   0.014223   0.021974  -1.277556   8.987388  -1.879673
     6  C    0.107686  -0.020116   0.000820   0.276325  -1.879673   7.702747
     7  H    0.003759  -0.003283   0.002175  -0.094409   0.171066  -0.162267
     8  H   -0.035853   0.008596  -0.001916   0.248645  -0.895055   0.348532
     9  N   -0.132974   0.018472  -0.028607   0.125338   0.057600   0.005670
    10  C   -0.019195   0.006436  -0.014794  -0.227469   0.255399  -0.886253
    11  O   -0.005115   0.000899   0.000362   0.053727  -0.019067  -0.031267
    12  N    0.008158   0.004116  -0.003771   0.017494  -0.515959   0.471971
    13  C   -0.000212   0.000793  -0.000760   0.002559  -0.126158  -0.747682
    14  O    0.001790   0.000055  -0.000008  -0.024914   0.007719   0.153382
    15  H   -0.000437  -0.000149   0.000057   0.007323  -0.032195  -0.014401
    16  C    0.000984   0.000333   0.000063   0.013170  -0.049856   0.099289
    17  H   -0.000026   0.000092   0.000014   0.015230  -0.041749   0.073046
    18  H    0.000121  -0.000081   0.000046  -0.008377   0.020800  -0.023882
    19  C    0.000033   0.000133  -0.000177  -0.002255   0.009976   0.063176
    20  H    0.000056   0.000001   0.000008  -0.001063  -0.000540  -0.029233
    21  H   -0.000042   0.000009  -0.000014   0.001245   0.000500   0.038812
    22  C    0.001168   0.000173  -0.000053   0.003316  -0.101425  -0.011959
    23  H   -0.000119   0.000034  -0.000057   0.003250   0.014794   0.079608
    24  C    0.000130  -0.000018   0.000053   0.000016  -0.016920  -0.027013
    25  H    0.000001  -0.000003  -0.000001  -0.000273   0.003594   0.007971
    26  H    0.000023   0.000001   0.000004   0.000044  -0.002874  -0.002146
    27  O   -0.000004   0.000001  -0.000003   0.000244  -0.002437  -0.002484
    28  H   -0.000003   0.000008  -0.000007   0.000374  -0.001576   0.002668
    29  H   -0.033372  -0.007769  -0.001226  -0.152916   0.048523  -0.040639
               7          8          9         10         11         12
     1  N    0.003759  -0.035853  -0.132974  -0.019195  -0.005115   0.008158
     2  H   -0.003283   0.008596   0.018472   0.006436   0.000899   0.004116
     3  H    0.002175  -0.001916  -0.028607  -0.014794   0.000362  -0.003771
     4  C   -0.094409   0.248645   0.125338  -0.227469   0.053727   0.017494
     5  C    0.171066  -0.895055   0.057600   0.255399  -0.019067  -0.515959
     6  C   -0.162267   0.348532   0.005670  -0.886253  -0.031267   0.471971
     7  H    2.033767  -0.136589   0.008235  -0.003036  -0.009672  -0.200614
     8  H   -0.136589   1.795308  -0.036206   0.014652   0.002713   0.133816
     9  N    0.008235  -0.036206   7.340670   0.011501  -0.232216  -0.010448
    10  C   -0.003036   0.014652   0.011501   5.954246   0.431465  -0.180872
    11  O   -0.009672   0.002713  -0.232216   0.431465   8.563684  -0.160127
    12  N   -0.200614   0.133816  -0.010448  -0.180872  -0.160127   8.273633
    13  C   -0.079572   0.047295  -0.042188  -0.069990   0.082858  -0.451783
    14  O   -0.048261  -0.002045   0.002630  -0.072050   0.009391  -0.088236
    15  H    0.027547  -0.002145  -0.009903   0.174824   0.021452  -0.219765
    16  C   -0.019265  -0.001994   0.007702   0.012816  -0.019673   0.303294
    17  H   -0.007774  -0.000424  -0.008344   0.028744   0.008442  -0.123063
    18  H    0.001326  -0.000036   0.002626  -0.013132   0.004287  -0.039849
    19  C   -0.033472   0.002264   0.009190  -0.084820   0.011239   0.121754
    20  H    0.001634  -0.000052   0.000855   0.002254   0.000891  -0.015982
    21  H   -0.005431   0.000208  -0.000637   0.000358  -0.000458   0.015879
    22  C    0.050901   0.000882  -0.003430  -0.024973   0.001488   0.003704
    23  H   -0.020504   0.001270  -0.001549   0.010558   0.000167   0.025175
    24  C    0.026113  -0.001442   0.000275   0.012854   0.000392  -0.029590
    25  H   -0.003297   0.000228   0.000043  -0.000839  -0.000013  -0.003096
    26  H    0.003523  -0.000217   0.000077   0.002326   0.000230   0.004531
    27  O   -0.005854   0.000357  -0.000040   0.000708   0.000012   0.001379
    28  H   -0.003918   0.000408  -0.000266   0.000172   0.000058   0.003125
    29  H    0.002578   0.002995   0.503538  -0.157941   0.002128   0.031312
              13         14         15         16         17         18
     1  N   -0.000212   0.001790  -0.000437   0.000984  -0.000026   0.000121
     2  H    0.000793   0.000055  -0.000149   0.000333   0.000092  -0.000081
     3  H   -0.000760  -0.000008   0.000057   0.000063   0.000014   0.000046
     4  C    0.002559  -0.024914   0.007323   0.013170   0.015230  -0.008377
     5  C   -0.126158   0.007719  -0.032195  -0.049856  -0.041749   0.020800
     6  C   -0.747682   0.153382  -0.014401   0.099289   0.073046  -0.023882
     7  H   -0.079572  -0.048261   0.027547  -0.019265  -0.007774   0.001326
     8  H    0.047295  -0.002045  -0.002145  -0.001994  -0.000424  -0.000036
     9  N   -0.042188   0.002630  -0.009903   0.007702  -0.008344   0.002626
    10  C   -0.069990  -0.072050   0.174824   0.012816   0.028744  -0.013132
    11  O    0.082858   0.009391   0.021452  -0.019673   0.008442   0.004287
    12  N   -0.451783  -0.088236  -0.219765   0.303294  -0.123063  -0.039849
    13  C    8.202190  -0.026546  -0.291415  -0.821188  -0.248951   0.255376
    14  O   -0.026546   9.915121  -0.297654  -0.173879   0.009812   0.029919
    15  H   -0.291415  -0.297654   1.867811   0.167312   0.084015  -0.092429
    16  C   -0.821188  -0.173879   0.167312   5.565126   0.095096  -0.046740
    17  H   -0.248951   0.009812   0.084015   0.095096   1.538408  -0.217189
    18  H    0.255376   0.029919  -0.092429  -0.046740  -0.217189   1.311668
    19  C   -0.118081   0.082873  -0.095284   0.165036  -0.047754  -0.010902
    20  H    0.113714   0.008721   0.005349   0.046912  -0.097994   0.007475
    21  H   -0.071311   0.010837   0.011514  -0.091521   0.092910  -0.087504
    22  C   -0.579146  -0.271911   0.060908   0.210177   0.023105   0.020272
    23  H   -0.109359  -0.060372  -0.003543  -0.042335   0.029602  -0.002524
    24  C    0.007736  -0.024232   0.014984  -0.004123   0.022935  -0.000775
    25  H    0.004940   0.084190   0.000435   0.009109   0.002164   0.000482
    26  H   -0.023822  -0.015837   0.003072   0.037166   0.000220  -0.002524
    27  O    0.015474  -0.049826  -0.000901  -0.009835  -0.000519  -0.000024
    28  H   -0.007697   0.030544  -0.000546  -0.003206  -0.000264   0.000018
    29  H   -0.001404   0.000077   0.003452  -0.003433   0.000530  -0.000155
              19         20         21         22         23         24
     1  N    0.000033   0.000056  -0.000042   0.001168  -0.000119   0.000130
     2  H    0.000133   0.000001   0.000009   0.000173   0.000034  -0.000018
     3  H   -0.000177   0.000008  -0.000014  -0.000053  -0.000057   0.000053
     4  C   -0.002255  -0.001063   0.001245   0.003316   0.003250   0.000016
     5  C    0.009976  -0.000540   0.000500  -0.101425   0.014794  -0.016920
     6  C    0.063176  -0.029233   0.038812  -0.011959   0.079608  -0.027013
     7  H   -0.033472   0.001634  -0.005431   0.050901  -0.020504   0.026113
     8  H    0.002264  -0.000052   0.000208   0.000882   0.001270  -0.001442
     9  N    0.009190   0.000855  -0.000637  -0.003430  -0.001549   0.000275
    10  C   -0.084820   0.002254   0.000358  -0.024973   0.010558   0.012854
    11  O    0.011239   0.000891  -0.000458   0.001488   0.000167   0.000392
    12  N    0.121754  -0.015982   0.015879   0.003704   0.025175  -0.029590
    13  C   -0.118081   0.113714  -0.071311  -0.579146  -0.109359   0.007736
    14  O    0.082873   0.008721   0.010837  -0.271911  -0.060372  -0.024232
    15  H   -0.095284   0.005349   0.011514   0.060908  -0.003543   0.014984
    16  C    0.165036   0.046912  -0.091521   0.210177  -0.042335  -0.004123
    17  H   -0.047754  -0.097994   0.092910   0.023105   0.029602   0.022935
    18  H   -0.010902   0.007475  -0.087504   0.020272  -0.002524  -0.000775
    19  C    5.383093  -0.054972   0.259389  -0.019855   0.079654  -0.181084
    20  H   -0.054972   1.300149  -0.225980   0.122432  -0.127307   0.030782
    21  H    0.259389  -0.225980   1.340596  -0.187720   0.084064  -0.045164
    22  C   -0.019855   0.122432  -0.187720   6.356761  -0.225553   0.310657
    23  H    0.079654  -0.127307   0.084064  -0.225553   1.679262  -0.139122
    24  C   -0.181084   0.030782  -0.045164   0.310657  -0.139122   4.498565
    25  H    0.034377   0.007906  -0.018223  -0.057879  -0.077187   0.134530
    26  H   -0.085615  -0.003039   0.020049  -0.055933   0.074832   0.323610
    27  O   -0.038455  -0.000706   0.000696   0.216176   0.012191  -0.101696
    28  H    0.009050   0.001081   0.001641   0.004369  -0.003113  -0.039743
    29  H   -0.001401  -0.000071   0.000032  -0.000140   0.000091   0.000224
              25         26         27         28         29
     1  N    0.000001   0.000023  -0.000004  -0.000003  -0.033372
     2  H   -0.000003   0.000001   0.000001   0.000008  -0.007769
     3  H   -0.000001   0.000004  -0.000003  -0.000007  -0.001226
     4  C   -0.000273   0.000044   0.000244   0.000374  -0.152916
     5  C    0.003594  -0.002874  -0.002437  -0.001576   0.048523
     6  C    0.007971  -0.002146  -0.002484   0.002668  -0.040639
     7  H   -0.003297   0.003523  -0.005854  -0.003918   0.002578
     8  H    0.000228  -0.000217   0.000357   0.000408   0.002995
     9  N    0.000043   0.000077  -0.000040  -0.000266   0.503538
    10  C   -0.000839   0.002326   0.000708   0.000172  -0.157941
    11  O   -0.000013   0.000230   0.000012   0.000058   0.002128
    12  N   -0.003096   0.004531   0.001379   0.003125   0.031312
    13  C    0.004940  -0.023822   0.015474  -0.007697  -0.001404
    14  O    0.084190  -0.015837  -0.049826   0.030544   0.000077
    15  H    0.000435   0.003072  -0.000901  -0.000546   0.003452
    16  C    0.009109   0.037166  -0.009835  -0.003206  -0.003433
    17  H    0.002164   0.000220  -0.000519  -0.000264   0.000530
    18  H    0.000482  -0.002524  -0.000024   0.000018  -0.000155
    19  C    0.034377  -0.085615  -0.038455   0.009050  -0.001401
    20  H    0.007906  -0.003039  -0.000706   0.001081  -0.000071
    21  H   -0.018223   0.020049   0.000696   0.001641   0.000032
    22  C   -0.057879  -0.055933   0.216176   0.004369  -0.000140
    23  H   -0.077187   0.074832   0.012191  -0.003113   0.000091
    24  C    0.134530   0.323610  -0.101696  -0.039743   0.000224
    25  H    1.296896  -0.208343  -0.151597   0.015350  -0.000001
    26  H   -0.208343   1.089396  -0.064181  -0.040694   0.000020
    27  O   -0.151597  -0.064181   8.587694   0.306821   0.000004
    28  H    0.015350  -0.040694   0.306821   0.547211  -0.000002
    29  H   -0.000001   0.000020   0.000004  -0.000002   0.866457
 Mulliken charges:
               1
     1  N   -0.288981
     2  H   -0.009480
     3  H    0.055530
     4  C    0.695914
     5  C    1.545127
     6  C    0.447312
     7  H   -0.495406
     8  H   -0.494195
     9  N   -0.587614
    10  C    0.836050
    11  O   -0.718277
    12  N   -0.376185
    13  C    1.084329
    14  O   -1.191292
    15  H   -0.389288
    16  C    0.553463
    17  H   -0.230314
    18  H   -0.108294
    19  C    0.542887
    20  H   -0.093281
    21  H   -0.144733
    22  C    0.153489
    23  H   -0.281908
    24  C    1.227064
    25  H   -0.081463
    26  H   -0.053900
    27  O   -0.713196
    28  H    0.178137
    29  H   -0.061494
 Sum of Mulliken charges =   1.00000
 Mulliken charges with hydrogens summed into heavy atoms:
               1
     1  N   -0.242931
     4  C    0.695914
     5  C    1.050932
     6  C   -0.048094
     9  N   -0.649108
    10  C    0.836050
    11  O   -0.718277
    12  N   -0.376185
    13  C    0.695041
    14  O   -1.191292
    16  C    0.214855
    19  C    0.304872
    22  C   -0.128419
    24  C    1.091701
    27  O   -0.535060
 Electronic spatial extent (au):  <R**2>=           3859.9769
 Charge=              1.0000 electrons
 Dipole moment (field-independent basis, Debye):
    X=            -11.0387    Y=             -2.5237    Z=              2.0161  Tot=             11.5016
 Quadrupole moment (field-independent basis, Debye-Ang):
   XX=            -21.4414   YY=            -82.3942   ZZ=            -84.6788
   XY=             23.9294   XZ=             -1.4212   YZ=              0.1960
 Traceless Quadrupole moment (field-independent basis, Debye-Ang):
   XX=             41.3968   YY=            -19.5561   ZZ=            -21.8407
   XY=             23.9294   XZ=             -1.4212   YZ=              0.1960
 Octapole moment (field-independent basis, Debye-Ang**2):
  XXX=           -295.5890  YYY=            -32.2459  ZZZ=             -7.8669  XYY=            -38.5622
  XXY=            -10.0009  XXZ=             20.1456  XZZ=             14.1010  YZZ=             -2.5890
  YYZ=              9.0830  XYZ=             10.6800
 Hexadecapole moment (field-independent basis, Debye-Ang**3):
 XXXX=          -2250.2637 YYYY=           -913.7437 ZZZZ=           -236.1504 XXXY=            358.2770
 XXXZ=            -26.4774 YYYX=            148.9408 YYYZ=              2.8205 ZZZX=             -7.1173
 ZZZY=              8.5400 XXYY=           -715.0889 XXZZ=           -644.5881 YYZZ=           -189.2152
 XXYZ=            -45.5257 YYXZ=            -46.6259 ZZXY=            -13.6635
 N-N= 1.046715000982D+03 E-N=-3.803261476089D+03  KE= 7.357279797262D+02
 Leave Link  601 at Sun Jul 11 16:54:21 2021, MaxMem=   262144000 cpu:               0.7 elap:               0.3
 (Enter /prod/apps/gaussian/g16b1/l9999.exe)
 1\1\GINC-PIRINEUS49\SP\RMP2-FC\Aug-CC-pVDZ\C9H14N3O3(1+)\UBATOR02\11-J
 ul-2021\0\\#p mp2/aug-cc-pVDZ scf=tight maxdisk=180GB geom=allcheck\\S
 ET_328_BBB304_conf1.geo_210_285 geometry\\1,1\N,0,-0.5626770609,-0.457
 7878818,4.9067916384\H,0,-0.7250395181,-1.3088251783,5.4375180662\H,0,
 -0.5580008971,0.4252589831,5.4061585608\C,0,-0.335970661,-0.4829252203
 ,3.6035677665\C,0,-0.0883053668,0.6794672801,2.827151662\C,0,0.1287798
 042,0.5241456232,1.4917321444\H,0,0.3482099573,1.3548980409,0.83638800
 51\H,0,-0.0625310799,1.6560592625,3.2879825272\N,0,-0.3341389946,-1.67
 83546967,2.9548964775\C,0,-0.1186493166,-1.8615051752,1.5944887438\O,0
 ,-0.1308064553,-2.965083825,1.0724968101\N,0,0.108146524,-0.6903007968
 ,0.8840098747\C,0,0.3590356291,-0.8471660162,-0.5869197101\O,0,0.93367
 52954,0.3332859267,-1.0807136236\H,0,1.0719399901,-1.6687106327,-0.665
 2265504\C,0,-0.9353957757,-1.1033533796,-1.3815075994\H,0,-1.793649025
 6,-0.7452309487,-0.8072037303\H,0,-1.078309702,-2.1638759852,-1.586571
 5091\C,0,-0.7323824463,-0.2520307817,-2.640226621\H,0,-1.67426048,0.06
 77356772,-3.0910126619\H,0,-0.1573325629,-0.8002253097,-3.3931677106\C
 ,0,0.0894649491,0.9210850213,-2.1149177543\H,0,-0.5495154647,1.6814773
 823,-1.6477316633\C,0,1.0029533733,1.5828633263,-3.1297721191\H,0,0.39
 14647331,1.9884653093,-3.9404663069\H,0,1.6719522071,0.8223193382,-3.5
 55651038\O,0,1.7324761095,2.6730336663,-2.5861180288\H,0,2.3392873749,
 2.3057178972,-1.9210230015\H,0,-0.5044211395,-2.5374369067,3.481047351
 3\\Version=ES64L-G16RevB.01\State=1-A\HF=-736.8273743\MP2=-739.1638777
 \RMSD=7.034e-09\PG=C01 [X(C9H14N3O3)]\\@


 IN NATURE THERE ARE NEITHER REWARDS OR
 PUNISHMENTS -- THERE ARE CONSEQUENCES.

                            -- ROBERT GREEN INGERSOLL
 Job cpu time:       0 days  0 hours 59 minutes 41.4 seconds.
 Elapsed time:       0 days  0 hours 16 minutes 22.3 seconds.
 File lengths (MBytes):  RWF=  38160 Int=      0 D2E=      0 Chk=     19 Scr=      1
 Normal termination of Gaussian 16 at Sun Jul 11 16:54:24 2021.
