 Entering Gaussian System, Link 0=g16
 Initial command:
 /prod/apps/gaussian/g16b1/l1.exe "/tmp/ubator02/1834529/Gau-210745.inp" -scrdir="/tmp/ubator02/1834529/"
 Entering Link 1 = /prod/apps/gaussian/g16b1/l1.exe PID=    210753.
  
 Copyright (c) 1988-2017, Gaussian, Inc.  All Rights Reserved.
  
 This is part of the Gaussian(R) 16 program.  It is based on
 the Gaussian(R) 09 system (copyright 2009, Gaussian, Inc.),
 the Gaussian(R) 03 system (copyright 2003, Gaussian, Inc.),
 the Gaussian(R) 98 system (copyright 1998, Gaussian, Inc.),
 the Gaussian(R) 94 system (copyright 1995, Gaussian, Inc.),
 the Gaussian 92(TM) system (copyright 1992, Gaussian, Inc.),
 the Gaussian 90(TM) system (copyright 1990, Gaussian, Inc.),
 the Gaussian 88(TM) system (copyright 1988, Gaussian, Inc.),
 the Gaussian 86(TM) system (copyright 1986, Carnegie Mellon
 University), and the Gaussian 82(TM) system (copyright 1983,
 Carnegie Mellon University). Gaussian is a federally registered
 trademark of Gaussian, Inc.
  
 This software contains proprietary and confidential information,
 including trade secrets, belonging to Gaussian, Inc.
  
 This software is provided under written license and may be
 used, copied, transmitted, or stored only in accord with that
 written license.
  
 The following legend is applicable only to US Government
 contracts under FAR:
  
                    RESTRICTED RIGHTS LEGEND
  
 Use, reproduction and disclosure by the US Government is
 subject to restrictions as set forth in subparagraphs (a)
 and (c) of the Commercial Computer Software - Restricted
 Rights clause in FAR 52.227-19.
  
 Gaussian, Inc.
 340 Quinnipiac St., Bldg. 40, Wallingford CT 06492
  
  
 ---------------------------------------------------------------
 Warning -- This program may not be used in any manner that
 competes with the business of Gaussian, Inc. or will provide
 assistance to any competitor of Gaussian, Inc.  The licensee
 of this program is prohibited from giving any competitor of
 Gaussian, Inc. access to this program.  By using this program,
 the user acknowledges that Gaussian, Inc. is engaged in the
 business of creating and licensing software in the field of
 computational chemistry and represents and warrants to the
 licensee that it is not a competitor of Gaussian, Inc. and that
 it will not use this program in any manner prohibited above.
 ---------------------------------------------------------------
  

 Cite this work as:
 Gaussian 16, Revision B.01,
 M. J. Frisch, G. W. Trucks, H. B. Schlegel, G. E. Scuseria, 
 M. A. Robb, J. R. Cheeseman, G. Scalmani, V. Barone, 
 G. A. Petersson, H. Nakatsuji, X. Li, M. Caricato, A. V. Marenich, 
 J. Bloino, B. G. Janesko, R. Gomperts, B. Mennucci, H. P. Hratchian, 
 J. V. Ortiz, A. F. Izmaylov, J. L. Sonnenberg, D. Williams-Young, 
 F. Ding, F. Lipparini, F. Egidi, J. Goings, B. Peng, A. Petrone, 
 T. Henderson, D. Ranasinghe, V. G. Zakrzewski, J. Gao, N. Rega, 
 G. Zheng, W. Liang, M. Hada, M. Ehara, K. Toyota, R. Fukuda, 
 J. Hasegawa, M. Ishida, T. Nakajima, Y. Honda, O. Kitao, H. Nakai, 
 T. Vreven, K. Throssell, J. A. Montgomery, Jr., J. E. Peralta, 
 F. Ogliaro, M. J. Bearpark, J. J. Heyd, E. N. Brothers, K. N. Kudin, 
 V. N. Staroverov, T. A. Keith, R. Kobayashi, J. Normand, 
 K. Raghavachari, A. P. Rendell, J. C. Burant, S. S. Iyengar, 
 J. Tomasi, M. Cossi, J. M. Millam, M. Klene, C. Adamo, R. Cammi, 
 J. W. Ochterski, R. L. Martin, K. Morokuma, O. Farkas, 
 J. B. Foresman, and D. J. Fox, Gaussian, Inc., Wallingford CT, 2016.
 
 ******************************************
 Gaussian 16:  ES64L-G16RevB.01 20-Dec-2017
                11-Jul-2021 
 ******************************************
 %mem=800MB
 %nproc=4
 Will use up to    4 processors via shared memory.
 %chk=SET_328_BBB212_conf1.geo_225_225.chk
 -----------------------------------------------------------
 #p b3lyp/6-31G(d) opt freq scrf=(iefpcm,read,solvent=water)
 -----------------------------------------------------------
 1/18=20,19=15,26=3,38=1,40=2/1,3;
 2/9=110,12=2,17=6,18=5,40=1/2;
 3/5=1,6=6,7=1,11=2,25=1,30=1,70=2203,71=1,72=1,74=-5/1,2,3;
 4//1;
 5/5=2,38=5,53=1/2;
 6/7=2,8=2,9=2,10=2,28=1/1;
 7//1,2,3,16;
 1/18=20,19=15,26=3/3(2);
 2/9=110/2;
 99//99;
 2/9=110/2;
 3/5=1,6=6,7=1,11=2,25=1,30=1,70=2205,71=1,72=1,74=-5/1,2,3;
 4/5=5,16=3,69=1/1;
 5/5=2,38=5,53=1/2;
 7//1,2,3,16;
 1/18=20,19=15,26=3/3(-5);
 2/9=110/2;
 6/7=2,8=2,9=2,10=2,19=2,28=1/1;
 99/9=1/99;
 Leave Link    1 at Sun Jul 11 15:57:28 2021, MaxMem=   104857600 cpu:               0.1 elap:               0.0
 (Enter /prod/apps/gaussian/g16b1/l101.exe)
 -----------------------------------------
 SET_328_BBB212_conf1.geo_225_225 geometry
 -----------------------------------------
 Symbolic Z-matrix:
 Charge = -1 Multiplicity = 1
 C                     1.578     1.584    -0.843 
 H                     1.834     2.435    -0.208 
 H                     1.593     2.03     -1.84 
 H                     2.36      0.835    -0.706 
 C                     0.247     1.004    -0.456 
 C                    -0.827     2.075    -0.727 
 H                    -1.136     2.071    -1.774 
 H                    -0.481     3.04     -0.349 
 H                    -1.748     1.743    -0.244 
 C                     0.359     0.602     1.005 
 C                    -0.198     1.436     1.966 
 C                    -0.004     1.184     3.306 
 C                     0.739     0.063     3.713 
 O                     0.84     -0.15      5.078 
 H                     0.788     0.738     5.476 
 C                     1.273    -0.853     2.767 
 C                     1.124    -0.475     1.4 
 H                     1.671    -1.13      0.727 
 H                     1.87     -1.672     3.16 
 H                    -0.494     1.835     4.026 
 H                    -0.774     2.347     1.823 
 C                    -0.176    -0.29     -1.228 
 C                     0.415    -0.65     -2.389 
 H                     1.162     0.029    -2.793 
 C                     0.093    -1.806    -3.161 
 H                     0.601    -2.11     -4.073 
 C                    -1.059    -2.491    -2.761 
 O                    -1.512    -3.463    -3.593 
 C                    -1.778    -2.048    -1.631 
 H                    -2.704    -2.596    -1.475 
 C                    -1.375    -0.954    -0.928 
 H                    -1.952    -0.578    -0.087 
 
 ITRead=  0  0  0  0  0  0  0  0  0  0  0  0  0  0  0  0  0  0  0  0
 ITRead=  0  0  0  0  0  0  0  0  0  0  0  0
 MicOpt= -1 -1 -1 -1 -1 -1 -1 -1 -1 -1 -1 -1 -1 -1 -1 -1 -1 -1 -1 -1
 MicOpt= -1 -1 -1 -1 -1 -1 -1 -1 -1 -1 -1 -1
 NAtoms=     32 NQM=       32 NQMF=       0 NMMI=      0 NMMIF=      0
                NMic=       0 NMicF=      0.
                    Isotopes and Nuclear Properties:
 (Nuclear quadrupole moments (NQMom) in fm**2, nuclear magnetic moments (NMagM)
  in nuclear magnetons)

  Atom         1           2           3           4           5           6           7           8           9          10
 IAtWgt=          12           1           1           1          12          12           1           1           1          12
 AtmWgt=  12.0000000   1.0078250   1.0078250   1.0078250  12.0000000  12.0000000   1.0078250   1.0078250   1.0078250  12.0000000
 NucSpn=           0           1           1           1           0           0           1           1           1           0
 AtZEff=  -0.0000000  -0.0000000  -0.0000000  -0.0000000  -0.0000000  -0.0000000  -0.0000000  -0.0000000  -0.0000000  -0.0000000
 NQMom=    0.0000000   0.0000000   0.0000000   0.0000000   0.0000000   0.0000000   0.0000000   0.0000000   0.0000000   0.0000000
 NMagM=    0.0000000   2.7928460   2.7928460   2.7928460   0.0000000   0.0000000   2.7928460   2.7928460   2.7928460   0.0000000
 AtZNuc=   6.0000000   1.0000000   1.0000000   1.0000000   6.0000000   6.0000000   1.0000000   1.0000000   1.0000000   6.0000000

  Atom        11          12          13          14          15          16          17          18          19          20
 IAtWgt=          12          12          12          16           1          12          12           1           1           1
 AtmWgt=  12.0000000  12.0000000  12.0000000  15.9949146   1.0078250  12.0000000  12.0000000   1.0078250   1.0078250   1.0078250
 NucSpn=           0           0           0           0           1           0           0           1           1           1
 AtZEff=  -0.0000000  -0.0000000  -0.0000000  -0.0000000  -0.0000000  -0.0000000  -0.0000000  -0.0000000  -0.0000000  -0.0000000
 NQMom=    0.0000000   0.0000000   0.0000000   0.0000000   0.0000000   0.0000000   0.0000000   0.0000000   0.0000000   0.0000000
 NMagM=    0.0000000   0.0000000   0.0000000   0.0000000   2.7928460   0.0000000   0.0000000   2.7928460   2.7928460   2.7928460
 AtZNuc=   6.0000000   6.0000000   6.0000000   8.0000000   1.0000000   6.0000000   6.0000000   1.0000000   1.0000000   1.0000000

  Atom        21          22          23          24          25          26          27          28          29          30
 IAtWgt=           1          12          12           1          12           1          12          16          12           1
 AtmWgt=   1.0078250  12.0000000  12.0000000   1.0078250  12.0000000   1.0078250  12.0000000  15.9949146  12.0000000   1.0078250
 NucSpn=           1           0           0           1           0           1           0           0           0           1
 AtZEff=  -0.0000000  -0.0000000  -0.0000000  -0.0000000  -0.0000000  -0.0000000  -0.0000000  -0.0000000  -0.0000000  -0.0000000
 NQMom=    0.0000000   0.0000000   0.0000000   0.0000000   0.0000000   0.0000000   0.0000000   0.0000000   0.0000000   0.0000000
 NMagM=    2.7928460   0.0000000   0.0000000   2.7928460   0.0000000   2.7928460   0.0000000   0.0000000   0.0000000   2.7928460
 AtZNuc=   1.0000000   6.0000000   6.0000000   1.0000000   6.0000000   1.0000000   6.0000000   8.0000000   6.0000000   1.0000000

  Atom        31          32
 IAtWgt=          12           1
 AtmWgt=  12.0000000   1.0078250
 NucSpn=           0           1
 AtZEff=  -0.0000000  -0.0000000
 NQMom=    0.0000000   0.0000000
 NMagM=    0.0000000   2.7928460
 AtZNuc=   6.0000000   1.0000000
 Leave Link  101 at Sun Jul 11 15:57:28 2021, MaxMem=   104857600 cpu:               0.5 elap:               0.1
 (Enter /prod/apps/gaussian/g16b1/l103.exe)

 GradGradGradGradGradGradGradGradGradGradGradGradGradGradGradGradGradGrad
 Berny optimization.
 Initialization pass.
                           ----------------------------
                           !    Initial Parameters    !
                           ! (Angstroms and Degrees)  !
 --------------------------                            --------------------------
 ! Name  Definition              Value          Derivative Info.                !
 --------------------------------------------------------------------------------
 ! R1    R(1,2)                  1.0922         estimate D2E/DX2                !
 ! R2    R(1,3)                  1.0923         estimate D2E/DX2                !
 ! R3    R(1,4)                  1.0915         estimate D2E/DX2                !
 ! R4    R(1,5)                  1.5026         estimate D2E/DX2                !
 ! R5    R(5,6)                  1.5408         estimate D2E/DX2                !
 ! R6    R(5,10)                 1.5194         estimate D2E/DX2                !
 ! R7    R(5,22)                 1.565          estimate D2E/DX2                !
 ! R8    R(6,7)                  1.0917         estimate D2E/DX2                !
 ! R9    R(6,8)                  1.0926         estimate D2E/DX2                !
 ! R10   R(6,9)                  1.0917         estimate D2E/DX2                !
 ! R11   R(10,11)                1.389          estimate D2E/DX2                !
 ! R12   R(10,17)                1.3788         estimate D2E/DX2                !
 ! R13   R(11,12)                1.3772         estimate D2E/DX2                !
 ! R14   R(11,21)                1.0873         estimate D2E/DX2                !
 ! R15   R(12,13)                1.4051         estimate D2E/DX2                !
 ! R16   R(12,20)                1.0873         estimate D2E/DX2                !
 ! R17   R(13,14)                1.3852         estimate D2E/DX2                !
 ! R18   R(13,16)                1.421          estimate D2E/DX2                !
 ! R19   R(14,15)                0.9745         estimate D2E/DX2                !
 ! R20   R(16,17)                1.4261         estimate D2E/DX2                !
 ! R21   R(16,19)                1.087          estimate D2E/DX2                !
 ! R22   R(17,18)                1.0868         estimate D2E/DX2                !
 ! R23   R(22,23)                1.3516         estimate D2E/DX2                !
 ! R24   R(22,31)                1.403          estimate D2E/DX2                !
 ! R25   R(23,24)                1.0873         estimate D2E/DX2                !
 ! R26   R(23,25)                1.4269         estimate D2E/DX2                !
 ! R27   R(25,26)                1.0873         estimate D2E/DX2                !
 ! R28   R(25,27)                1.3987         estimate D2E/DX2                !
 ! R29   R(27,28)                1.3573         estimate D2E/DX2                !
 ! R30   R(27,29)                1.4107         estimate D2E/DX2                !
 ! R31   R(29,30)                1.0873         estimate D2E/DX2                !
 ! R32   R(29,31)                1.3614         estimate D2E/DX2                !
 ! R33   R(31,32)                1.087          estimate D2E/DX2                !
 ! A1    A(2,1,3)              102.0815         estimate D2E/DX2                !
 ! A2    A(2,1,4)              107.0838         estimate D2E/DX2                !
 ! A3    A(2,1,5)              111.0162         estimate D2E/DX2                !
 ! A4    A(3,1,4)              112.6389         estimate D2E/DX2                !
 ! A5    A(3,1,5)              113.8821         estimate D2E/DX2                !
 ! A6    A(4,1,5)              109.721          estimate D2E/DX2                !
 ! A7    A(1,5,6)              107.6887         estimate D2E/DX2                !
 ! A8    A(1,5,10)             106.5281         estimate D2E/DX2                !
 ! A9    A(1,5,22)             115.5644         estimate D2E/DX2                !
 ! A10   A(6,5,10)             113.8542         estimate D2E/DX2                !
 ! A11   A(6,5,22)             107.4315         estimate D2E/DX2                !
 ! A12   A(10,5,22)            105.9905         estimate D2E/DX2                !
 ! A13   A(5,6,7)              111.3123         estimate D2E/DX2                !
 ! A14   A(5,6,8)              109.4104         estimate D2E/DX2                !
 ! A15   A(5,6,9)              107.3892         estimate D2E/DX2                !
 ! A16   A(7,6,8)              115.1302         estimate D2E/DX2                !
 ! A17   A(7,6,9)              100.6276         estimate D2E/DX2                !
 ! A18   A(8,6,9)              112.5006         estimate D2E/DX2                !
 ! A19   A(5,10,11)            118.4793         estimate D2E/DX2                !
 ! A20   A(5,10,17)            121.5344         estimate D2E/DX2                !
 ! A21   A(11,10,17)           119.5563         estimate D2E/DX2                !
 ! A22   A(10,11,12)           120.4517         estimate D2E/DX2                !
 ! A23   A(10,11,21)           128.6482         estimate D2E/DX2                !
 ! A24   A(12,11,21)           110.849          estimate D2E/DX2                !
 ! A25   A(11,12,13)           120.1519         estimate D2E/DX2                !
 ! A26   A(11,12,20)           118.115          estimate D2E/DX2                !
 ! A27   A(13,12,20)           121.6106         estimate D2E/DX2                !
 ! A28   A(12,13,14)           116.5298         estimate D2E/DX2                !
 ! A29   A(12,13,16)           121.3437         estimate D2E/DX2                !
 ! A30   A(14,13,16)           121.9724         estimate D2E/DX2                !
 ! A31   A(13,14,15)           104.978          estimate D2E/DX2                !
 ! A32   A(13,16,17)           115.3423         estimate D2E/DX2                !
 ! A33   A(13,16,19)           116.8329         estimate D2E/DX2                !
 ! A34   A(17,16,19)           127.131          estimate D2E/DX2                !
 ! A35   A(10,17,16)           122.6567         estimate D2E/DX2                !
 ! A36   A(10,17,18)           124.9315         estimate D2E/DX2                !
 ! A37   A(16,17,18)           112.4109         estimate D2E/DX2                !
 ! A38   A(5,22,23)            121.7195         estimate D2E/DX2                !
 ! A39   A(5,22,31)            121.118          estimate D2E/DX2                !
 ! A40   A(23,22,31)           115.5495         estimate D2E/DX2                !
 ! A41   A(22,23,24)           116.9514         estimate D2E/DX2                !
 ! A42   A(22,23,25)           125.5812         estimate D2E/DX2                !
 ! A43   A(24,23,25)           117.3824         estimate D2E/DX2                !
 ! A44   A(23,25,26)           125.0917         estimate D2E/DX2                !
 ! A45   A(23,25,27)           115.3348         estimate D2E/DX2                !
 ! A46   A(26,25,27)           119.1931         estimate D2E/DX2                !
 ! A47   A(25,27,28)           116.7636         estimate D2E/DX2                !
 ! A48   A(25,27,29)           119.6739         estimate D2E/DX2                !
 ! A49   A(28,27,29)           123.0789         estimate D2E/DX2                !
 ! A50   A(27,29,30)           113.0003         estimate D2E/DX2                !
 ! A51   A(27,29,31)           121.0038         estimate D2E/DX2                !
 ! A52   A(30,29,31)           125.6649         estimate D2E/DX2                !
 ! A53   A(22,31,29)           121.524          estimate D2E/DX2                !
 ! A54   A(22,31,32)           117.0875         estimate D2E/DX2                !
 ! A55   A(29,31,32)           121.3551         estimate D2E/DX2                !
 ! D1    D(2,1,5,6)             64.3537         estimate D2E/DX2                !
 ! D2    D(2,1,5,10)           -58.1541         estimate D2E/DX2                !
 ! D3    D(2,1,5,22)          -175.5726         estimate D2E/DX2                !
 ! D4    D(3,1,5,6)            -50.1857         estimate D2E/DX2                !
 ! D5    D(3,1,5,10)          -172.6935         estimate D2E/DX2                !
 ! D6    D(3,1,5,22)            69.888          estimate D2E/DX2                !
 ! D7    D(4,1,5,6)           -177.4801         estimate D2E/DX2                !
 ! D8    D(4,1,5,10)            60.0121         estimate D2E/DX2                !
 ! D9    D(4,1,5,22)           -57.4064         estimate D2E/DX2                !
 ! D10   D(1,5,6,7)             83.1861         estimate D2E/DX2                !
 ! D11   D(1,5,6,8)            -45.1877         estimate D2E/DX2                !
 ! D12   D(1,5,6,9)           -167.5681         estimate D2E/DX2                !
 ! D13   D(10,5,6,7)          -158.9408         estimate D2E/DX2                !
 ! D14   D(10,5,6,8)            72.6854         estimate D2E/DX2                !
 ! D15   D(10,5,6,9)           -49.695          estimate D2E/DX2                !
 ! D16   D(22,5,6,7)           -41.9051         estimate D2E/DX2                !
 ! D17   D(22,5,6,8)          -170.2788         estimate D2E/DX2                !
 ! D18   D(22,5,6,9)            67.3408         estimate D2E/DX2                !
 ! D19   D(1,5,10,11)          101.3604         estimate D2E/DX2                !
 ! D20   D(1,5,10,17)          -71.0787         estimate D2E/DX2                !
 ! D21   D(6,5,10,11)          -17.1788         estimate D2E/DX2                !
 ! D22   D(6,5,10,17)          170.3821         estimate D2E/DX2                !
 ! D23   D(22,5,10,11)        -135.0473         estimate D2E/DX2                !
 ! D24   D(22,5,10,17)          52.5136         estimate D2E/DX2                !
 ! D25   D(1,5,22,23)          -17.3013         estimate D2E/DX2                !
 ! D26   D(1,5,22,31)          177.8234         estimate D2E/DX2                !
 ! D27   D(6,5,22,23)          102.9126         estimate D2E/DX2                !
 ! D28   D(6,5,22,31)          -61.9627         estimate D2E/DX2                !
 ! D29   D(10,5,22,23)        -135.0201         estimate D2E/DX2                !
 ! D30   D(10,5,22,31)          60.1047         estimate D2E/DX2                !
 ! D31   D(5,10,11,12)        -173.3772         estimate D2E/DX2                !
 ! D32   D(5,10,11,21)           3.7717         estimate D2E/DX2                !
 ! D33   D(17,10,11,12)         -0.7847         estimate D2E/DX2                !
 ! D34   D(17,10,11,21)        176.3642         estimate D2E/DX2                !
 ! D35   D(5,10,17,16)         178.382          estimate D2E/DX2                !
 ! D36   D(5,10,17,18)          -1.9823         estimate D2E/DX2                !
 ! D37   D(11,10,17,16)          6.0226         estimate D2E/DX2                !
 ! D38   D(11,10,17,18)       -174.3418         estimate D2E/DX2                !
 ! D39   D(10,11,12,13)         -1.2619         estimate D2E/DX2                !
 ! D40   D(10,11,12,20)       -177.3023         estimate D2E/DX2                !
 ! D41   D(21,11,12,13)       -178.8795         estimate D2E/DX2                !
 ! D42   D(21,11,12,20)          5.0802         estimate D2E/DX2                !
 ! D43   D(11,12,13,14)       -177.3698         estimate D2E/DX2                !
 ! D44   D(11,12,13,16)         -1.7971         estimate D2E/DX2                !
 ! D45   D(20,12,13,14)         -1.4709         estimate D2E/DX2                !
 ! D46   D(20,12,13,16)        174.1018         estimate D2E/DX2                !
 ! D47   D(12,13,14,15)        -29.4882         estimate D2E/DX2                !
 ! D48   D(16,13,14,15)        154.9692         estimate D2E/DX2                !
 ! D49   D(12,13,16,17)          6.4355         estimate D2E/DX2                !
 ! D50   D(12,13,16,19)        177.5816         estimate D2E/DX2                !
 ! D51   D(14,13,16,17)       -178.2345         estimate D2E/DX2                !
 ! D52   D(14,13,16,19)         -7.0884         estimate D2E/DX2                !
 ! D53   D(13,16,17,10)         -8.6375         estimate D2E/DX2                !
 ! D54   D(13,16,17,18)        171.6856         estimate D2E/DX2                !
 ! D55   D(19,16,17,10)       -178.7177         estimate D2E/DX2                !
 ! D56   D(19,16,17,18)          1.6054         estimate D2E/DX2                !
 ! D57   D(5,22,23,24)          -3.2575         estimate D2E/DX2                !
 ! D58   D(5,22,23,25)        -179.806          estimate D2E/DX2                !
 ! D59   D(31,22,23,24)        162.4078         estimate D2E/DX2                !
 ! D60   D(31,22,23,25)        -14.1408         estimate D2E/DX2                !
 ! D61   D(5,22,31,29)         177.2461         estimate D2E/DX2                !
 ! D62   D(5,22,31,32)          -4.827          estimate D2E/DX2                !
 ! D63   D(23,22,31,29)         11.4872         estimate D2E/DX2                !
 ! D64   D(23,22,31,32)       -170.5859         estimate D2E/DX2                !
 ! D65   D(22,23,25,26)       -177.3644         estimate D2E/DX2                !
 ! D66   D(22,23,25,27)          9.8058         estimate D2E/DX2                !
 ! D67   D(24,23,25,26)          6.1004         estimate D2E/DX2                !
 ! D68   D(24,23,25,27)       -166.7294         estimate D2E/DX2                !
 ! D69   D(23,25,27,28)        169.8866         estimate D2E/DX2                !
 ! D70   D(23,25,27,29)         -2.3813         estimate D2E/DX2                !
 ! D71   D(26,25,27,28)         -3.395          estimate D2E/DX2                !
 ! D72   D(26,25,27,29)       -175.663          estimate D2E/DX2                !
 ! D73   D(25,27,29,30)        174.359          estimate D2E/DX2                !
 ! D74   D(25,27,29,31)          0.6053         estimate D2E/DX2                !
 ! D75   D(28,27,29,30)          2.6015         estimate D2E/DX2                !
 ! D76   D(28,27,29,31)       -171.1522         estimate D2E/DX2                !
 ! D77   D(27,29,31,22)         -5.2833         estimate D2E/DX2                !
 ! D78   D(27,29,31,32)        176.8781         estimate D2E/DX2                !
 ! D79   D(30,29,31,22)       -178.2022         estimate D2E/DX2                !
 ! D80   D(30,29,31,32)          3.9591         estimate D2E/DX2                !
 --------------------------------------------------------------------------------
 Trust Radius=3.00D-01 FncErr=1.00D-07 GrdErr=1.00D-06 EigMax=2.50D+02 EigMin=1.00D-04
 Number of steps in this run=    178 maximum allowed number of steps=    192.
 GradGradGradGradGradGradGradGradGradGradGradGradGradGradGradGradGradGrad

 Leave Link  103 at Sun Jul 11 15:57:28 2021, MaxMem=   104857600 cpu:               0.1 elap:               0.0
 (Enter /prod/apps/gaussian/g16b1/l202.exe)
                          Input orientation:                          
 ---------------------------------------------------------------------
 Center     Atomic      Atomic             Coordinates (Angstroms)
 Number     Number       Type             X           Y           Z
 ---------------------------------------------------------------------
      1          6           0        1.578000    1.584000   -0.843000
      2          1           0        1.834000    2.435000   -0.208000
      3          1           0        1.593000    2.030000   -1.840000
      4          1           0        2.360000    0.835000   -0.706000
      5          6           0        0.247000    1.004000   -0.456000
      6          6           0       -0.827000    2.075000   -0.727000
      7          1           0       -1.136000    2.071000   -1.774000
      8          1           0       -0.481000    3.040000   -0.349000
      9          1           0       -1.748000    1.743000   -0.244000
     10          6           0        0.359000    0.602000    1.005000
     11          6           0       -0.198000    1.436000    1.966000
     12          6           0       -0.004000    1.184000    3.306000
     13          6           0        0.739000    0.063000    3.713000
     14          8           0        0.840000   -0.150000    5.078000
     15          1           0        0.788000    0.738000    5.476000
     16          6           0        1.273000   -0.853000    2.767000
     17          6           0        1.124000   -0.475000    1.400000
     18          1           0        1.671000   -1.130000    0.727000
     19          1           0        1.870000   -1.672000    3.160000
     20          1           0       -0.494000    1.835000    4.026000
     21          1           0       -0.774000    2.347000    1.823000
     22          6           0       -0.176000   -0.290000   -1.228000
     23          6           0        0.415000   -0.650000   -2.389000
     24          1           0        1.162000    0.029000   -2.793000
     25          6           0        0.093000   -1.806000   -3.161000
     26          1           0        0.601000   -2.110000   -4.073000
     27          6           0       -1.059000   -2.491000   -2.761000
     28          8           0       -1.512000   -3.463000   -3.593000
     29          6           0       -1.778000   -2.048000   -1.631000
     30          1           0       -2.704000   -2.596000   -1.475000
     31          6           0       -1.375000   -0.954000   -0.928000
     32          1           0       -1.952000   -0.578000   -0.087000
 ---------------------------------------------------------------------
                    Distance matrix (angstroms):
                    1          2          3          4          5
     1  C    0.000000
     2  H    1.092228   0.000000
     3  H    1.092314   1.698685   0.000000
     4  H    1.091464   1.756326   1.817215   0.000000
     5  C    1.502574   2.151240   2.186286   2.134439   0.000000
     6  C    2.457349   2.734937   2.664056   3.419797   1.540765
     7  H    2.910279   3.377240   2.730106   3.858800   2.188219
     8  H    2.569718   2.396900   2.746754   3.613967   2.164885
     9  H    3.383247   3.648408   3.713740   4.232443   2.138011
    10  C    2.421857   2.647052   3.414083   2.643068   1.519430
    11  C    3.326644   3.138997   4.248076   3.747552   2.500147
    12  C    4.458355   4.158298   5.454121   4.669737   3.774658
    13  C    4.875910   4.711650   5.952664   4.769820   4.302105
    14  O    6.213666   5.967584   7.292334   6.060964   5.684058
    15  H    6.424140   6.023436   7.472693   6.379476   5.962555
    16  C    4.366245   4.469484   5.444129   4.011564   3.858608
    17  C    3.078416   3.399686   4.122206   2.771107   2.530080
    18  H    3.136773   3.689176   4.071999   2.527733   2.825105
    19  H    5.168250   5.311513   6.227482   4.633692   4.782318
    20  H    5.297485   4.868916   6.229250   5.615794   4.618221
    21  H    3.636156   3.306716   4.372728   4.301621   2.835477
    22  C    2.595499   3.536400   2.980991   2.823013   1.565040
    23  C    2.955240   4.035783   2.978504   2.969973   2.549594
    24  H    2.528553   3.594808   2.257869   2.537796   2.692475
    25  C    4.366973   5.453198   4.325498   4.259248   3.903440
    26  H    5.003305   6.092252   4.807281   4.806641   4.785917
    27  C    5.219015   6.257215   5.321728   5.193733   4.385623
    28  O    6.525550   7.578941   6.548823   6.465289   5.734888
    29  C    5.007505   5.930326   5.295036   5.127412   3.846551
    30  H    6.017254   6.892728   6.324343   6.164999   4.765161
    31  C    3.894724   4.722436   4.306393   4.147292   2.586007
    32  H    4.207931   4.840104   4.737267   4.579637   2.733951
                    6          7          8          9         10
     6  C    0.000000
     7  H    1.091653   0.000000
     8  H    1.092623   1.843532   0.000000
     9  H    1.091675   1.680187   1.816184   0.000000
    10  C    2.564400   3.480780   2.912518   2.702098   0.000000
    11  C    2.838347   3.907770   2.830571   2.716772   1.389002
    12  C    4.211449   5.279639   4.126898   3.994561   2.401061
    13  C    5.119971   6.136355   5.181773   4.966429   2.787146
    14  O    6.436423   7.469091   6.432221   6.213282   4.169676
    15  H    6.547748   7.618475   6.390633   6.337170   4.493593
    16  C    5.019086   5.913860   5.285965   4.993173   2.461111
    17  C    3.851367   4.654459   4.241492   3.983798   1.378832
    18  H    4.315802   4.937677   4.814331   4.570178   2.190537
    19  H    6.035113   6.884072   6.327972   6.028214   3.478250
    20  H    4.770692   5.840193   4.537931   4.451278   3.372586
    21  H    2.565013   3.625690   2.298626   2.363468   2.235584
    22  C    2.503603   2.606537   3.457538   2.751823   2.463367
    23  C    3.424972   3.191812   4.310512   3.873763   3.617993
    24  H    3.522867   3.238662   4.211734   4.231229   3.924021
    25  C    4.672571   4.297131   5.632099   4.949098   4.819209
    26  H    5.545189   5.077729   6.446813   5.918163   5.761909
    27  C    5.003932   4.668184   6.061666   4.973607   5.075444
    28  O    6.273167   5.837405   7.339994   6.194670   6.416110
    29  C    4.326748   4.171184   5.404949   4.036874   4.305550
    30  H    5.089290   4.932435   6.162313   4.610447   5.075389
    31  C    3.084728   3.150153   4.133584   2.807275   3.027273
    32  H    2.951887   3.244846   3.914385   2.335231   2.815242
                   11         12         13         14         15
    11  C    0.000000
    12  C    1.377222   0.000000
    13  C    2.411453   1.405112   0.000000
    14  O    3.643814   2.373157   1.385206   0.000000
    15  H    3.712075   2.352675   1.888437   0.974501   0.000000
    16  C    2.836364   2.463863   1.420960   2.454062   3.178866
    17  C    2.391644   2.767219   2.405751   3.703237   4.265916
    18  H    3.407732   3.848566   3.347845   4.536757   5.179007
    19  H    3.919429   3.419054   2.143641   2.656334   3.513215
    20  H    2.119060   1.087337   2.181339   2.612754   2.224732
    21  H    1.087265   2.035868   3.328352   4.408518   4.286389
    22  C    3.630592   4.770683   5.037392   6.388857   6.850525
    23  C    4.867565   5.997678   6.152052   7.495780   7.995242
    24  H    5.145613   6.315962   6.519825   7.879617   8.307763
    25  C    6.073004   7.125419   7.152786   8.436911   9.030655
    26  H    7.048549   8.103462   8.084724   9.361598   9.966417
    27  C    6.205415   7.171272   7.188073   8.398595   9.038032
    28  O    7.525243   8.453690   8.418866   9.575704  10.255982
    29  C    5.251006   6.161726   6.272954   7.447618   8.053298
    30  H    5.863236   6.666060   6.770515   7.841216   8.463216
    31  C    3.933531   4.937352   5.200208   6.451719   6.967973
    32  H    3.368608   4.290897   4.700251   5.886907   6.339276
                   16         17         18         19         20
    16  C    0.000000
    17  C    1.426104   0.000000
    18  H    2.096839   1.086813   0.000000
    19  H    1.087023   2.255421   2.500571   0.000000
    20  H    3.454376   3.853557   4.935773   4.317117   0.000000
    21  H    3.914249   3.427100   4.389621   4.993062   2.278981
    22  C    4.286793   2.937790   2.817629   5.034936   5.676378
    23  C    5.230842   3.858734   3.393728   5.826913   6.939289
    24  H    5.630617   4.223353   3.740690   6.231603   7.245877
    25  C    6.118970   4.861815   4.250130   6.567399   8.078021
    26  H    6.986933   5.735894   5.014509   7.356527   9.075012
    27  C    6.219329   5.113088   4.633720   6.656429   8.068263
    28  O    7.417407   6.388011   5.851220   7.761998   9.335646
    29  C    5.484435   4.481394   4.277673   6.033487   6.980544
    30  H    6.070349   5.236206   5.112591   6.577118   7.401274
    31  C    4.546991   3.448772   3.471040   5.268519   5.752982
    32  H    4.315271   3.418121   3.754122   5.132984   4.986492
                   21         22         23         24         25
    21  H    0.000000
    22  C    4.076760   0.000000
    23  C    5.304401   1.351592   0.000000
    24  H    5.516219   2.083562   1.087321   0.000000
    25  C    6.545178   2.471256   1.426886   2.155321   0.000000
    26  H    7.517865   3.465567   2.236527   2.555082   1.087301
    27  C    6.670871   2.823859   2.387539   3.359206   1.398688
    28  O    7.977080   4.176847   3.616063   4.470385   2.346976
    29  C    5.679274   2.412338   2.708914   3.782562   2.429013
    30  H    6.247796   3.430660   3.788202   4.855276   3.360045
    31  C    4.338871   1.403031   2.330459   3.298618   2.804856
    32  H    3.686653   2.130493   3.302586   4.169878   3.890949
                   26         27         28         29         30
    26  H    0.000000
    27  C    2.149908   0.000000
    28  O    2.554560   1.357283   0.000000
    29  C    3.409817   1.410713   2.433603   0.000000
    30  H    4.231882   2.090657   2.580402   1.087252   0.000000
    31  C    3.889979   2.412906   3.662796   1.361416   2.182112
    32  H    4.975242   3.406948   4.561673   2.138951   2.562103
                   31         32
    31  C    0.000000
    32  H    1.087008   0.000000
 Stoichiometry    C15H15O2(1-)
 Framework group  C1[X(C15H15O2)]
 Deg. of freedom    90
 Full point group                 C1      NOp   1
 Largest Abelian subgroup         C1      NOp   1
 Largest concise Abelian subgroup C1      NOp   1
                         Standard orientation:                         
 ---------------------------------------------------------------------
 Center     Atomic      Atomic             Coordinates (Angstroms)
 Number     Number       Type             X           Y           Z
 ---------------------------------------------------------------------
      1          6           0       -0.123237    2.276631    1.248649
      2          1           0       -1.058440    2.839766    1.213487
      3          1           0        0.621581    3.073643    1.304918
      4          1           0       -0.151747    1.663752    2.151346
      5          6           0        0.020148    1.394177    0.040988
      6          6           0        0.119595    2.306715   -1.196487
      7          1           0        1.140101    2.665127   -1.344182
      8          1           0       -0.641989    3.087675   -1.133903
      9          1           0       -0.001482    1.674815   -2.078414
     10          6           0       -1.189766    0.475113    0.031095
     11          6           0       -2.238642    0.770200   -0.830362
     12          6           0       -3.409635    0.047190   -0.777704
     13          6           0       -3.543041   -1.014848    0.132580
     14          8           0       -4.730403   -1.726560    0.083260
     15          1           0       -5.396328   -1.084529   -0.223319
     16          6           0       -2.473682   -1.393745    0.988171
     17          6           0       -1.332668   -0.538922    0.954399
     18          1           0       -0.607038   -0.785797    1.724903
     19          1           0       -2.669881   -2.198750    1.691799
     20          1           0       -4.188965    0.280820   -1.499066
     21          1           0       -2.306980    1.564113   -1.570077
     22          6           0        1.273533    0.456983    0.034345
     23          6           0        2.328523    0.675453    0.850475
     24          1           0        2.292354    1.564527    1.475379
     25          6           0        3.510948   -0.120986    0.910148
     26          1           0        4.337698    0.038116    1.598185
     27          6           0        3.640902   -1.076255   -0.103214
     28          8           0        4.841002   -1.702426   -0.202642
     29          6           0        2.612438   -1.226982   -1.056971
     30          1           0        2.866466   -1.927718   -1.848524
     31          6           0        1.497163   -0.447343   -1.014788
     32          1           0        0.724391   -0.523957   -1.775407
 ---------------------------------------------------------------------
 Rotational constants (GHZ):           0.9238515           0.2593482           0.2316408
 Leave Link  202 at Sun Jul 11 15:57:28 2021, MaxMem=   104857600 cpu:               0.0 elap:               0.0
 (Enter /prod/apps/gaussian/g16b1/l301.exe)
 Standard basis: 6-31G(d) (6D, 7F)
 Ernie: Thresh=  0.10000D-02 Tol=  0.10000D-05 Strict=F.
 There are   285 symmetry adapted cartesian basis functions of A   symmetry.
 There are   285 symmetry adapted basis functions of A   symmetry.
   285 basis functions,   536 primitive gaussians,   285 cartesian basis functions
    61 alpha electrons       61 beta electrons
       nuclear repulsion energy      1134.6319324512 Hartrees.
 IExCor=  402 DFT=T Ex+Corr=B3LYP ExCW=0 ScaHFX=  0.200000
 ScaDFX=  0.800000  0.720000  1.000000  0.810000 ScalE2=  1.000000  1.000000
 IRadAn=      5 IRanWt=     -1 IRanGd=            0 ICorTp=0 IEmpDi=  4
 NAtoms=   32 NActive=   32 NUniq=   32 SFac= 1.00D+00 NAtFMM=   60 NAOKFM=F Big=F
 Integral buffers will be    131072 words long.
 Raffenetti 2 integral format.
 Two-electron integral symmetry is turned on.
 Using the following non-standard input for PCM:
 MSTModel=DFT cav MSTCharged
 --- end of non-standard input.
 MST model for solvation energy: B3LYP parametrization.
 MST cavity parameters:
 ISph   IAn     Re0     Alpha   Atom Type   QCorr
 ------------------------------------------------
   1      6     1.50     1.25      CH3        F
   2      1     1.20     1.25      CH3        F
   3      1     1.20     1.25      CH3        F
   4      1     1.20     1.25      CH3        F
   5      6     1.50     1.25      C          F
   6      6     1.50     1.25      CH3        F
   7      1     1.20     1.25      CH3        F
   8      1     1.20     1.25      CH3        F
   9      1     1.20     1.25      CH3        F
  10      6     1.50     1.25      C          F
  11      6     1.50     1.25      CH         F
  12      6     1.50     1.25      CH         F
  13      6     1.50     1.25      C          F
  14      8     1.45     1.25      OH         F
  15      1     0.90     1.25      OH         F
  16      6     1.50     1.25      CH         F
  17      6     1.50     1.25      CH         F
  18      1     1.20     1.25      CH         F
  19      1     1.20     1.25      CH         F
  20      1     1.20     1.25      CH         F
  21      1     1.20     1.25      CH         F
  22      6     1.50     1.25      C          F
  23      6     1.50     1.25      CH         F
  24      1     1.20     1.25      CH         F
  25      6     1.50     1.25      CH         F
  26      1     1.20     1.25      CH         F
  27      6     1.50     1.25      C          F
  28      8     1.40     1.15      O          T
  29      6     1.50     1.25      CH         F
  30      1     1.20     1.25      CH         F
  31      6     1.50     1.25      CH         F
  32      1     1.20     1.25      CH         F
 ------------------------------------------------------------------------------
 Polarizable Continuum Model (PCM)
 =================================
 Model                : PCM.
 Atomic radii         : MST.
 Polarization charges : Total charges.
 Charge compensation  : None.
 Solution method      : On-the-fly selection.
 Cavity type          : Scaled VdW (van der Waals Surface) (Alpha=1.250).
 Cavity algorithm     : GePol (No added spheres)
                        Default sphere list used, NSphG=   32.
                        Lebedev-Laikov grids with approx.  5.0 points / Ang**2.
                        Smoothing algorithm: York/Karplus (Gamma=1.0000).
                        Polarization charges: spherical gaussians, with
                                              point-specific exponents (IZeta= 3).
                        Self-potential: point-specific (ISelfS= 7).
                        Self-field    : sphere-specific E.n sum rule (ISelfD= 2).
 1st derivatives      : Analytical E(r).r(x)/FMM algorithm (CHGder, D1EAlg=3).
                        Cavity 1st derivative terms included.
 Solvent              : Water, Eps=  78.355300 Eps(inf)=   1.777849
 ------------------------------------------------------------------------------
 GePol: Number of generator spheres                  =      32
 GePol: Total number of spheres                      =      32
 GePol: Number of exposed spheres                    =      32 (100.00%)
 GePol: Number of points                             =    2266
 GePol: Average weight of points                     =       0.13
 GePol: Minimum weight of points                     =   0.10D-09
 GePol: Maximum weight of points                     =    0.21416
 GePol: Number of points with low weight             =     153
 GePol: Fraction of low-weight points (<1% of avg)   =       6.75%
 GePol: Cavity surface area                          =    292.276 Ang**2
 GePol: Cavity volume                                =    282.929 Ang**3
 PCM non-electrostatic energy =         0.0020279360 Hartrees.
 Nuclear repulsion after PCM non-electrostatic terms =     1134.6339603871 Hartrees.
 Leave Link  301 at Sun Jul 11 15:57:28 2021, MaxMem=   104857600 cpu:               0.3 elap:               0.1
 (Enter /prod/apps/gaussian/g16b1/l302.exe)
 NPDir=0 NMtPBC=     1 NCelOv=     1 NCel=       1 NClECP=     1 NCelD=      1
         NCelK=      1 NCelE2=     1 NClLst=     1 CellRange=     0.0.
 One-electron integrals computed using PRISM.
 One-electron integral symmetry used in STVInt
 NBasis=   285 RedAO= T EigKep=  5.04D-04  NBF=   285
 NBsUse=   285 1.00D-06 EigRej= -1.00D+00 NBFU=   285
 Precomputing XC quadrature grid using
 IXCGrd= 4 IRadAn=           5 IRanWt=          -1 IRanGd=           0 AccXCQ= 0.00D+00.
 Generated NRdTot=       0 NPtTot=           0 NUsed=           0 NTot=          32
 NSgBfM=   283   283   283   283   283 MxSgAt=    32 MxSgA2=    32.
 Leave Link  302 at Sun Jul 11 15:57:28 2021, MaxMem=   104857600 cpu:               1.4 elap:               0.4
 (Enter /prod/apps/gaussian/g16b1/l303.exe)
 DipDrv:  MaxL=1.
 Leave Link  303 at Sun Jul 11 15:57:29 2021, MaxMem=   104857600 cpu:               0.1 elap:               0.0
 (Enter /prod/apps/gaussian/g16b1/l401.exe)
 ExpMin= 1.61D-01 ExpMax= 5.48D+03 ExpMxC= 8.25D+02 IAcc=3 IRadAn=         5 AccDes= 0.00D+00
 Harris functional with IExCor=  402 and IRadAn=       5 diagonalized for initial guess.
 HarFok:  IExCor=  402 AccDes= 0.00D+00 IRadAn=         5 IDoV= 1 UseB2=F ITyADJ=14
 ICtDFT=  3500011 ScaDFX=  1.000000  1.000000  1.000000  1.000000
 FoFCou: FMM=F IPFlag=           0 FMFlag=      100000 FMFlg1=           0
         NFxFlg=           0 DoJE=T BraDBF=F KetDBF=T FulRan=T
         wScrn=  0.000000 ICntrl=       500 IOpCl=  0 I1Cent=   200000004 NGrid=           0
         NMat0=    1 NMatS0=      1 NMatT0=    0 NMatD0=    1 NMtDS0=    0 NMtDT0=    0
 Petite list used in FoFCou.
 Harris En= -731.311841724589    
 JPrj=0 DoOrth=F DoCkMO=F.
 Leave Link  401 at Sun Jul 11 15:57:31 2021, MaxMem=   104857600 cpu:               7.9 elap:               2.0
 (Enter /prod/apps/gaussian/g16b1/l502.exe)
 Integral symmetry usage will be decided dynamically.
 Closed shell SCF:
 Using DIIS extrapolation, IDIIS=  1040.
 NGot=   104857600 LenX=   104690189 LenY=   104608523
 Requested convergence on RMS density matrix=1.00D-08 within 128 cycles.
 Requested convergence on MAX density matrix=1.00D-06.
 Requested convergence on             energy=1.00D-06.
 No special actions if energy rises.
 Fock matrices will be formed incrementally for  20 cycles.

 Cycle   1  Pass 1  IDiag  1:
 FoFJK:  IHMeth= 1 ICntrl=       0 DoSepK=F KAlg= 0 I1Cent=           0 FoldK=F
 IRaf= 840000000 NMat=       1 IRICut=       1 DoRegI=T DoRafI=F ISym2E= 0 IDoP0=0 IntGTp=1.
 FoFCou: FMM=F IPFlag=           0 FMFlag=      100000 FMFlg1=           0
         NFxFlg=           0 DoJE=F BraDBF=F KetDBF=F FulRan=T
         wScrn=  0.000000 ICntrl=         0 IOpCl=  0 I1Cent=           0 NGrid=           0
         NMat0=    1 NMatS0=      1 NMatT0=    0 NMatD0=    1 NMtDS0=    0 NMtDT0=    0
 Symmetry not used in FoFCou.
 Inv3:  Mode=1 IEnd=    15404268.
 Iteration    1 A*A^-1 deviation from unit magnitude is 3.11D-15 for    596.
 Iteration    1 A*A^-1 deviation from orthogonality  is 2.24D-15 for   1260     16.
 Iteration    1 A^-1*A deviation from unit magnitude is 3.66D-15 for    762.
 Iteration    1 A^-1*A deviation from orthogonality  is 5.38D-15 for   2105   2100.
 E= -730.653165382741    
 DIIS: error= 2.83D-02 at cycle   1 NSaved=   1.
 NSaved= 1 IEnMin= 1 EnMin= -730.653165382741     IErMin= 1 ErrMin= 2.83D-02
 ErrMax= 2.83D-02  0.00D+00 EMaxC= 1.00D-01 BMatC= 4.99D-01 BMatP= 4.99D-01
 IDIUse=3 WtCom= 7.17D-01 WtEn= 2.83D-01
 Coeff-Com:  0.100D+01
 Coeff-En:   0.100D+01
 Coeff:      0.100D+01
 Gap=     0.128 Goal=   None    Shift=    0.000
 GapD=    0.128 DampG=1.000 DampE=0.500 DampFc=0.5000 IDamp=-1.
 Damping current iteration by 5.00D-01
 RMSDP=6.03D-03 MaxDP=1.92D-01              OVMax= 2.13D-01

 Cycle   2  Pass 1  IDiag  1:
 RMSU=  2.98D-03    CP:  9.79D-01
 E= -730.885424525540     Delta-E=       -0.232259142799 Rises=F Damp=T
 DIIS: error= 8.23D-03 at cycle   2 NSaved=   2.
 NSaved= 2 IEnMin= 2 EnMin= -730.885424525540     IErMin= 2 ErrMin= 8.23D-03
 ErrMax= 8.23D-03  0.00D+00 EMaxC= 1.00D-01 BMatC= 2.71D-02 BMatP= 4.99D-01
 IDIUse=3 WtCom= 9.18D-01 WtEn= 8.23D-02
 Coeff-Com:  0.488D-01 0.951D+00
 Coeff-En:   0.469D-01 0.953D+00
 Coeff:      0.486D-01 0.951D+00
 Gap=     0.194 Goal=   None    Shift=    0.000
 RMSDP=1.55D-03 MaxDP=5.83D-02 DE=-2.32D-01 OVMax= 1.35D-01

 Cycle   3  Pass 1  IDiag  1:
 RMSU=  1.44D-03    CP:  9.67D-01  8.30D-01
 E= -731.129359568742     Delta-E=       -0.243935043202 Rises=F Damp=F
 DIIS: error= 9.95D-03 at cycle   3 NSaved=   3.
 NSaved= 3 IEnMin= 3 EnMin= -731.129359568742     IErMin= 2 ErrMin= 8.23D-03
 ErrMax= 9.95D-03  0.00D+00 EMaxC= 1.00D-01 BMatC= 2.84D-02 BMatP= 2.71D-02
 IDIUse=3 WtCom= 9.01D-01 WtEn= 9.95D-02
 Coeff-Com: -0.172D-01 0.511D+00 0.506D+00
 Coeff-En:   0.000D+00 0.000D+00 0.100D+01
 Coeff:     -0.155D-01 0.460D+00 0.555D+00
 Gap=     0.149 Goal=   None    Shift=    0.000
 RMSDP=8.97D-04 MaxDP=4.20D-02 DE=-2.44D-01 OVMax= 6.66D-02

 Cycle   4  Pass 1  IDiag  1:
 RMSU=  6.26D-04    CP:  9.70D-01  9.12D-01  5.91D-01
 E= -731.147734618593     Delta-E=       -0.018375049851 Rises=F Damp=F
 DIIS: error= 4.85D-03 at cycle   4 NSaved=   4.
 NSaved= 4 IEnMin= 4 EnMin= -731.147734618593     IErMin= 4 ErrMin= 4.85D-03
 ErrMax= 4.85D-03  0.00D+00 EMaxC= 1.00D-01 BMatC= 6.70D-03 BMatP= 2.71D-02
 IDIUse=3 WtCom= 9.51D-01 WtEn= 4.85D-02
 Coeff-Com: -0.969D-02 0.735D-01 0.337D+00 0.599D+00
 Coeff-En:   0.000D+00 0.000D+00 0.221D+00 0.779D+00
 Coeff:     -0.922D-02 0.699D-01 0.332D+00 0.608D+00
 Gap=     0.150 Goal=   None    Shift=    0.000
 RMSDP=3.36D-04 MaxDP=1.51D-02 DE=-1.84D-02 OVMax= 2.43D-02

 Cycle   5  Pass 1  IDiag  1:
 RMSU=  1.14D-04    CP:  9.69D-01  8.82D-01  7.25D-01  6.27D-01
 E= -731.153175072058     Delta-E=       -0.005440453465 Rises=F Damp=F
 DIIS: error= 5.42D-04 at cycle   5 NSaved=   5.
 NSaved= 5 IEnMin= 5 EnMin= -731.153175072058     IErMin= 5 ErrMin= 5.42D-04
 ErrMax= 5.42D-04  0.00D+00 EMaxC= 1.00D-01 BMatC= 1.86D-04 BMatP= 6.70D-03
 IDIUse=3 WtCom= 9.95D-01 WtEn= 5.42D-03
 Coeff-Com: -0.360D-02 0.131D-01 0.136D+00 0.297D+00 0.557D+00
 Coeff-En:   0.000D+00 0.000D+00 0.000D+00 0.000D+00 0.100D+01
 Coeff:     -0.358D-02 0.131D-01 0.136D+00 0.295D+00 0.560D+00
 Gap=     0.149 Goal=   None    Shift=    0.000
 RMSDP=5.82D-05 MaxDP=2.24D-03 DE=-5.44D-03 OVMax= 3.35D-03

 Cycle   6  Pass 1  IDiag  1:
 RMSU=  3.89D-05    CP:  9.69D-01  8.88D-01  7.19D-01  6.49D-01  6.82D-01
 E= -731.153325607025     Delta-E=       -0.000150534967 Rises=F Damp=F
 DIIS: error= 1.53D-04 at cycle   6 NSaved=   6.
 NSaved= 6 IEnMin= 6 EnMin= -731.153325607025     IErMin= 6 ErrMin= 1.53D-04
 ErrMax= 1.53D-04  0.00D+00 EMaxC= 1.00D-01 BMatC= 1.58D-05 BMatP= 1.86D-04
 IDIUse=3 WtCom= 9.98D-01 WtEn= 1.53D-03
 Coeff-Com: -0.105D-02 0.823D-03 0.378D-01 0.938D-01 0.284D+00 0.584D+00
 Coeff-En:   0.000D+00 0.000D+00 0.000D+00 0.000D+00 0.000D+00 0.100D+01
 Coeff:     -0.105D-02 0.821D-03 0.377D-01 0.936D-01 0.284D+00 0.585D+00
 Gap=     0.149 Goal=   None    Shift=    0.000
 RMSDP=1.58D-05 MaxDP=5.70D-04 DE=-1.51D-04 OVMax= 9.20D-04

 Cycle   7  Pass 1  IDiag  1:
 RMSU=  8.90D-06    CP:  9.69D-01  8.87D-01  7.20D-01  6.54D-01  7.08D-01
                    CP:  6.96D-01
 E= -731.153338658787     Delta-E=       -0.000013051761 Rises=F Damp=F
 DIIS: error= 3.36D-05 at cycle   7 NSaved=   7.
 NSaved= 7 IEnMin= 7 EnMin= -731.153338658787     IErMin= 7 ErrMin= 3.36D-05
 ErrMax= 3.36D-05  0.00D+00 EMaxC= 1.00D-01 BMatC= 1.11D-06 BMatP= 1.58D-05
 IDIUse=1 WtCom= 1.00D+00 WtEn= 0.00D+00
 Coeff-Com: -0.372D-03-0.144D-03 0.122D-01 0.327D-01 0.119D+00 0.306D+00
 Coeff-Com:  0.531D+00
 Coeff:     -0.372D-03-0.144D-03 0.122D-01 0.327D-01 0.119D+00 0.306D+00
 Coeff:      0.531D+00
 Gap=     0.149 Goal=   None    Shift=    0.000
 RMSDP=4.78D-06 MaxDP=1.24D-04 DE=-1.31D-05 OVMax= 3.63D-04

 Cycle   8  Pass 1  IDiag  1:
 RMSU=  2.75D-06    CP:  9.69D-01  8.87D-01  7.20D-01  6.56D-01  7.09D-01
                    CP:  6.99D-01  5.85D-01
 E= -731.153339623041     Delta-E=       -0.000000964255 Rises=F Damp=F
 DIIS: error= 1.16D-05 at cycle   8 NSaved=   8.
 NSaved= 8 IEnMin= 8 EnMin= -731.153339623041     IErMin= 8 ErrMin= 1.16D-05
 ErrMax= 1.16D-05  0.00D+00 EMaxC= 1.00D-01 BMatC= 7.80D-08 BMatP= 1.11D-06
 IDIUse=1 WtCom= 1.00D+00 WtEn= 0.00D+00
 Coeff-Com: -0.484D-04-0.204D-03 0.104D-02 0.378D-02 0.206D-01 0.686D-01
 Coeff-Com:  0.243D+00 0.663D+00
 Coeff:     -0.484D-04-0.204D-03 0.104D-02 0.378D-02 0.206D-01 0.686D-01
 Coeff:      0.243D+00 0.663D+00
 Gap=     0.149 Goal=   None    Shift=    0.000
 RMSDP=1.35D-06 MaxDP=4.58D-05 DE=-9.64D-07 OVMax= 1.28D-04

 Cycle   9  Pass 1  IDiag  1:
 RMSU=  7.53D-07    CP:  9.69D-01  8.87D-01  7.20D-01  6.55D-01  7.12D-01
                    CP:  7.06D-01  6.57D-01  7.28D-01
 E= -731.153339690647     Delta-E=       -0.000000067606 Rises=F Damp=F
 DIIS: error= 4.23D-06 at cycle   9 NSaved=   9.
 NSaved= 9 IEnMin= 9 EnMin= -731.153339690647     IErMin= 9 ErrMin= 4.23D-06
 ErrMax= 4.23D-06  0.00D+00 EMaxC= 1.00D-01 BMatC= 1.26D-08 BMatP= 7.80D-08
 IDIUse=1 WtCom= 1.00D+00 WtEn= 0.00D+00
 Coeff-Com: -0.128D-05-0.888D-04-0.428D-03-0.580D-03 0.203D-02 0.144D-01
 Coeff-Com:  0.944D-01 0.367D+00 0.523D+00
 Coeff:     -0.128D-05-0.888D-04-0.428D-03-0.580D-03 0.203D-02 0.144D-01
 Coeff:      0.944D-01 0.367D+00 0.523D+00
 Gap=     0.149 Goal=   None    Shift=    0.000
 RMSDP=5.16D-07 MaxDP=1.56D-05 DE=-6.76D-08 OVMax= 4.03D-05

 Cycle  10  Pass 1  IDiag  1:
 RMSU=  3.49D-07    CP:  9.69D-01  8.87D-01  7.20D-01  6.55D-01  7.12D-01
                    CP:  7.06D-01  6.44D-01  8.02D-01  6.40D-01
 E= -731.153339702244     Delta-E=       -0.000000011597 Rises=F Damp=F
 DIIS: error= 1.12D-06 at cycle  10 NSaved=  10.
 NSaved=10 IEnMin=10 EnMin= -731.153339702244     IErMin=10 ErrMin= 1.12D-06
 ErrMax= 1.12D-06  0.00D+00 EMaxC= 1.00D-01 BMatC= 9.31D-10 BMatP= 1.26D-08
 IDIUse=1 WtCom= 1.00D+00 WtEn= 0.00D+00
 Coeff-Com:  0.317D-05-0.161D-04-0.301D-03-0.654D-03-0.123D-02-0.771D-03
 Coeff-Com:  0.174D-01 0.996D-01 0.262D+00 0.624D+00
 Coeff:      0.317D-05-0.161D-04-0.301D-03-0.654D-03-0.123D-02-0.771D-03
 Coeff:      0.174D-01 0.996D-01 0.262D+00 0.624D+00
 Gap=     0.149 Goal=   None    Shift=    0.000
 RMSDP=1.89D-07 MaxDP=3.36D-06 DE=-1.16D-08 OVMax= 1.31D-05

 Cycle  11  Pass 1  IDiag  1:
 RMSU=  8.91D-08    CP:  9.69D-01  8.87D-01  7.20D-01  6.55D-01  7.12D-01
                    CP:  7.07D-01  6.52D-01  8.01D-01  7.06D-01  6.09D-01
 E= -731.153339703132     Delta-E=       -0.000000000888 Rises=F Damp=F
 DIIS: error= 4.27D-07 at cycle  11 NSaved=  11.
 NSaved=11 IEnMin=11 EnMin= -731.153339703132     IErMin=11 ErrMin= 4.27D-07
 ErrMax= 4.27D-07  0.00D+00 EMaxC= 1.00D-01 BMatC= 1.33D-10 BMatP= 9.31D-10
 IDIUse=1 WtCom= 1.00D+00 WtEn= 0.00D+00
 Coeff-Com:  0.167D-05-0.181D-05-0.153D-03-0.358D-03-0.900D-03-0.151D-02
 Coeff-Com:  0.352D-02 0.322D-01 0.115D+00 0.363D+00 0.489D+00
 Coeff:      0.167D-05-0.181D-05-0.153D-03-0.358D-03-0.900D-03-0.151D-02
 Coeff:      0.352D-02 0.322D-01 0.115D+00 0.363D+00 0.489D+00
 Gap=     0.149 Goal=   None    Shift=    0.000
 RMSDP=5.07D-08 MaxDP=1.36D-06 DE=-8.88D-10 OVMax= 4.87D-06

 Cycle  12  Pass 1  IDiag  1:
 RMSU=  2.66D-08    CP:  9.69D-01  8.87D-01  7.20D-01  6.55D-01  7.12D-01
                    CP:  7.06D-01  6.52D-01  8.03D-01  7.07D-01  6.83D-01
                    CP:  6.35D-01
 E= -731.153339703262     Delta-E=       -0.000000000130 Rises=F Damp=F
 DIIS: error= 9.01D-08 at cycle  12 NSaved=  12.
 NSaved=12 IEnMin=12 EnMin= -731.153339703262     IErMin=12 ErrMin= 9.01D-08
 ErrMax= 9.01D-08  0.00D+00 EMaxC= 1.00D-01 BMatC= 4.25D-12 BMatP= 1.33D-10
 IDIUse=1 WtCom= 1.00D+00 WtEn= 0.00D+00
 Coeff-Com: -0.205D-07 0.160D-05-0.154D-04-0.410D-04-0.162D-03-0.440D-03
 Coeff-Com: -0.121D-02-0.183D-02 0.625D-02 0.495D-01 0.169D+00 0.779D+00
 Coeff:     -0.205D-07 0.160D-05-0.154D-04-0.410D-04-0.162D-03-0.440D-03
 Coeff:     -0.121D-02-0.183D-02 0.625D-02 0.495D-01 0.169D+00 0.779D+00
 Gap=     0.149 Goal=   None    Shift=    0.000
 RMSDP=1.17D-08 MaxDP=3.63D-07 DE=-1.30D-10 OVMax= 1.27D-06

 Cycle  13  Pass 1  IDiag  1:
 RMSU=  8.36D-09    CP:  9.69D-01  8.87D-01  7.20D-01  6.55D-01  7.12D-01
                    CP:  7.06D-01  6.52D-01  8.04D-01  7.10D-01  6.85D-01
                    CP:  6.99D-01  8.66D-01
 E= -731.153339703268     Delta-E=       -0.000000000006 Rises=F Damp=F
 DIIS: error= 2.89D-08 at cycle  13 NSaved=  13.
 NSaved=13 IEnMin=13 EnMin= -731.153339703268     IErMin=13 ErrMin= 2.89D-08
 ErrMax= 2.89D-08  0.00D+00 EMaxC= 1.00D-01 BMatC= 1.05D-12 BMatP= 4.25D-12
 IDIUse=1 WtCom= 1.00D+00 WtEn= 0.00D+00
 Coeff-Com: -0.127D-06 0.102D-05 0.152D-05 0.139D-05-0.291D-04-0.136D-03
 Coeff-Com: -0.912D-03-0.314D-02-0.455D-02 0.204D-02 0.570D-01 0.434D+00
 Coeff-Com:  0.516D+00
 Coeff:     -0.127D-06 0.102D-05 0.152D-05 0.139D-05-0.291D-04-0.136D-03
 Coeff:     -0.912D-03-0.314D-02-0.455D-02 0.204D-02 0.570D-01 0.434D+00
 Coeff:      0.516D+00
 Gap=     0.149 Goal=   None    Shift=    0.000
 RMSDP=4.46D-09 MaxDP=1.49D-07 DE=-5.91D-12 OVMax= 2.96D-07

 Error on total polarization charges =  0.02212
 SCF Done:  E(RB3LYP) =  -731.153339703     A.U. after   13 cycles
            NFock= 13  Conv=0.45D-08     -V/T= 2.0090
 KE= 7.246448232098D+02 PE=-3.986495045572D+03 EE= 1.396062922272D+03
 Leave Link  502 at Sun Jul 11 15:58:30 2021, MaxMem=   104857600 cpu:             239.2 elap:              59.8
 (Enter /prod/apps/gaussian/g16b1/l601.exe)
 Copying SCF densities to generalized density rwf, IOpCl= 0 IROHF=0.

 **********************************************************************

            Population analysis using the SCF Density.

 **********************************************************************

 Orbital symmetries:
       Occupied  (A) (A) (A) (A) (A) (A) (A) (A) (A) (A) (A) (A)
                 (A) (A) (A) (A) (A) (A) (A) (A) (A) (A) (A) (A)
                 (A) (A) (A) (A) (A) (A) (A) (A) (A) (A) (A) (A)
                 (A) (A) (A) (A) (A) (A) (A) (A) (A) (A) (A) (A)
                 (A) (A) (A) (A) (A) (A) (A) (A) (A) (A) (A) (A)
                 (A)
       Virtual   (A) (A) (A) (A) (A) (A) (A) (A) (A) (A) (A) (A)
                 (A) (A) (A) (A) (A) (A) (A) (A) (A) (A) (A) (A)
                 (A) (A) (A) (A) (A) (A) (A) (A) (A) (A) (A) (A)
                 (A) (A) (A) (A) (A) (A) (A) (A) (A) (A) (A) (A)
                 (A) (A) (A) (A) (A) (A) (A) (A) (A) (A) (A) (A)
                 (A) (A) (A) (A) (A) (A) (A) (A) (A) (A) (A) (A)
                 (A) (A) (A) (A) (A) (A) (A) (A) (A) (A) (A) (A)
                 (A) (A) (A) (A) (A) (A) (A) (A) (A) (A) (A) (A)
                 (A) (A) (A) (A) (A) (A) (A) (A) (A) (A) (A) (A)
                 (A) (A) (A) (A) (A) (A) (A) (A) (A) (A) (A) (A)
                 (A) (A) (A) (A) (A) (A) (A) (A) (A) (A) (A) (A)
                 (A) (A) (A) (A) (A) (A) (A) (A) (A) (A) (A) (A)
                 (A) (A) (A) (A) (A) (A) (A) (A) (A) (A) (A) (A)
                 (A) (A) (A) (A) (A) (A) (A) (A) (A) (A) (A) (A)
                 (A) (A) (A) (A) (A) (A) (A) (A) (A) (A) (A) (A)
                 (A) (A) (A) (A) (A) (A) (A) (A) (A) (A) (A) (A)
                 (A) (A) (A) (A) (A) (A) (A) (A) (A) (A) (A) (A)
                 (A) (A) (A) (A) (A) (A) (A) (A) (A) (A) (A) (A)
                 (A) (A) (A) (A) (A) (A) (A) (A)
 The electronic state is 1-A.
 Alpha  occ. eigenvalues --  -19.16461 -19.03136 -10.24338 -10.19155 -10.19123
 Alpha  occ. eigenvalues --  -10.18988 -10.18863 -10.18247 -10.18072 -10.17844
 Alpha  occ. eigenvalues --  -10.16491 -10.16472 -10.16457 -10.15899 -10.15442
 Alpha  occ. eigenvalues --  -10.14840 -10.14511  -1.04161  -0.89804  -0.85841
 Alpha  occ. eigenvalues --   -0.82431  -0.78795  -0.74508  -0.72037  -0.71322
 Alpha  occ. eigenvalues --   -0.68718  -0.67927  -0.61266  -0.60660  -0.58158
 Alpha  occ. eigenvalues --   -0.56541  -0.53333  -0.52958  -0.48956  -0.46088
 Alpha  occ. eigenvalues --   -0.45931  -0.44105  -0.43286  -0.42316  -0.42091
 Alpha  occ. eigenvalues --   -0.41224  -0.40969  -0.39662  -0.38963  -0.38430
 Alpha  occ. eigenvalues --   -0.37244  -0.36497  -0.35383  -0.34373  -0.33922
 Alpha  occ. eigenvalues --   -0.32734  -0.32579  -0.31587  -0.30458  -0.29290
 Alpha  occ. eigenvalues --   -0.26726  -0.24899  -0.22625  -0.21415  -0.18302
 Alpha  occ. eigenvalues --   -0.15404
 Alpha virt. eigenvalues --   -0.00482   0.01421   0.02261   0.05448   0.09868
 Alpha virt. eigenvalues --    0.10266   0.11181   0.13570   0.14194   0.14528
 Alpha virt. eigenvalues --    0.14935   0.16077   0.16470   0.17278   0.17879
 Alpha virt. eigenvalues --    0.18855   0.18890   0.19871   0.21132   0.21938
 Alpha virt. eigenvalues --    0.24114   0.24960   0.25069   0.25927   0.27347
 Alpha virt. eigenvalues --    0.28010   0.29459   0.31825   0.32388   0.35294
 Alpha virt. eigenvalues --    0.35388   0.36759   0.37014   0.38847   0.41903
 Alpha virt. eigenvalues --    0.50016   0.50510   0.50660   0.51610   0.51687
 Alpha virt. eigenvalues --    0.52616   0.53646   0.54417   0.55079   0.56728
 Alpha virt. eigenvalues --    0.57381   0.58713   0.59468   0.59783   0.60820
 Alpha virt. eigenvalues --    0.61406   0.61958   0.62358   0.63146   0.63851
 Alpha virt. eigenvalues --    0.64736   0.65087   0.66476   0.66993   0.67285
 Alpha virt. eigenvalues --    0.69028   0.71115   0.71565   0.72327   0.74803
 Alpha virt. eigenvalues --    0.75806   0.76708   0.77728   0.79764   0.81225
 Alpha virt. eigenvalues --    0.81677   0.82588   0.83067   0.84770   0.85790
 Alpha virt. eigenvalues --    0.86615   0.87335   0.87773   0.88684   0.89275
 Alpha virt. eigenvalues --    0.89489   0.89915   0.91176   0.92199   0.92243
 Alpha virt. eigenvalues --    0.94663   0.95892   0.96262   0.97173   0.98432
 Alpha virt. eigenvalues --    0.99208   0.99908   1.01246   1.02480   1.03611
 Alpha virt. eigenvalues --    1.03846   1.05139   1.07039   1.07919   1.09811
 Alpha virt. eigenvalues --    1.11737   1.15270   1.15872   1.17050   1.18155
 Alpha virt. eigenvalues --    1.19718   1.20769   1.22405   1.25943   1.28323
 Alpha virt. eigenvalues --    1.28845   1.30806   1.31906   1.33256   1.37055
 Alpha virt. eigenvalues --    1.40059   1.40697   1.43015   1.43838   1.46460
 Alpha virt. eigenvalues --    1.48483   1.48694   1.49362   1.52046   1.53290
 Alpha virt. eigenvalues --    1.55986   1.58275   1.62871   1.64734   1.65542
 Alpha virt. eigenvalues --    1.67074   1.69950   1.73014   1.75287   1.78544
 Alpha virt. eigenvalues --    1.79492   1.80712   1.83381   1.86222   1.87182
 Alpha virt. eigenvalues --    1.87530   1.89398   1.90124   1.91673   1.91980
 Alpha virt. eigenvalues --    1.92797   1.94946   1.95867   1.97159   1.97758
 Alpha virt. eigenvalues --    1.99840   2.00774   2.01855   2.04703   2.06810
 Alpha virt. eigenvalues --    2.07709   2.08664   2.11527   2.12574   2.13212
 Alpha virt. eigenvalues --    2.15302   2.16123   2.17762   2.18848   2.21112
 Alpha virt. eigenvalues --    2.21873   2.24804   2.27167   2.28660   2.29380
 Alpha virt. eigenvalues --    2.29923   2.31403   2.31698   2.33161   2.35732
 Alpha virt. eigenvalues --    2.38567   2.40040   2.42167   2.42926   2.44698
 Alpha virt. eigenvalues --    2.47978   2.50239   2.55654   2.57499   2.59224
 Alpha virt. eigenvalues --    2.62047   2.63956   2.64863   2.66722   2.68127
 Alpha virt. eigenvalues --    2.69437   2.70806   2.73509   2.78271   2.78732
 Alpha virt. eigenvalues --    2.82717   2.84003   2.89625   2.94489   2.94542
 Alpha virt. eigenvalues --    2.97129   3.00896   3.02693   3.14444   3.18637
 Alpha virt. eigenvalues --    3.39871   3.43398   3.89790   3.95919   4.10226
 Alpha virt. eigenvalues --    4.12666   4.14686   4.16076   4.25043   4.25663
 Alpha virt. eigenvalues --    4.29219   4.33276   4.33859   4.38722   4.47920
 Alpha virt. eigenvalues --    4.51664   4.68788   4.74836   4.80885
          Condensed to atoms (all electrons):
               1          2          3          4          5          6
     1  C    5.207502   0.363427   0.355868   0.362389   0.359318  -0.074611
     2  H    0.363427   0.584932  -0.039254  -0.029911  -0.026776  -0.006892
     3  H    0.355868  -0.039254   0.582317  -0.024960  -0.023615  -0.004622
     4  H    0.362389  -0.029911  -0.024960   0.570995  -0.028401   0.007608
     5  C    0.359318  -0.026776  -0.023615  -0.028401   4.979683   0.355533
     6  C   -0.074611  -0.006892  -0.004622   0.007608   0.355533   5.225339
     7  H   -0.003404  -0.000111   0.002539  -0.000121  -0.025919   0.363026
     8  H   -0.006982   0.005245   0.000249  -0.000028  -0.024173   0.351310
     9  H    0.007291  -0.000055  -0.000033  -0.000274  -0.026745   0.358746
    10  C   -0.062005  -0.004934   0.006713  -0.010499   0.365993  -0.042107
    11  C    0.000577   0.003256  -0.000019  -0.000376  -0.051350  -0.016887
    12  C   -0.000356  -0.000199   0.000005   0.000022   0.007635   0.000272
    13  C    0.000006  -0.000005  -0.000000  -0.000021   0.000320  -0.000010
    14  O   -0.000000   0.000000   0.000000  -0.000000   0.000000   0.000000
    15  H   -0.000000   0.000000   0.000000   0.000000  -0.000001   0.000000
    16  C    0.000207  -0.000094   0.000001   0.000020   0.005083  -0.000150
    17  C   -0.012604  -0.000087   0.000188   0.007297  -0.064426   0.008213
    18  H    0.000091   0.000140  -0.000100   0.002518  -0.008254   0.000169
    19  H    0.000003   0.000000  -0.000000   0.000004  -0.000095   0.000001
    20  H    0.000004   0.000006  -0.000000   0.000000  -0.000192   0.000006
    21  H    0.000387   0.000227  -0.000029  -0.000017  -0.013604   0.005371
    22  C   -0.029907   0.004443  -0.006505  -0.005469   0.366839  -0.057833
    23  C   -0.016406   0.000382   0.001054   0.002326  -0.042695   0.000010
    24  H    0.008079  -0.000121   0.002407   0.000831  -0.020405   0.000542
    25  C   -0.000092   0.000001   0.000084  -0.000071   0.005769  -0.000055
    26  H   -0.000002  -0.000000   0.000002   0.000003  -0.000096   0.000002
    27  C    0.000004   0.000000  -0.000003  -0.000008   0.000233  -0.000028
    28  O    0.000000  -0.000000   0.000000  -0.000000   0.000001  -0.000000
    29  C   -0.000139   0.000002  -0.000001   0.000007   0.004927   0.000543
    30  H    0.000001  -0.000000   0.000000   0.000000  -0.000137   0.000007
    31  C    0.006841  -0.000088  -0.000246  -0.000078  -0.060858  -0.011178
    32  H    0.000151  -0.000011  -0.000006  -0.000001  -0.009423  -0.000504
               7          8          9         10         11         12
     1  C   -0.003404  -0.006982   0.007291  -0.062005   0.000577  -0.000356
     2  H   -0.000111   0.005245  -0.000055  -0.004934   0.003256  -0.000199
     3  H    0.002539   0.000249  -0.000033   0.006713  -0.000019   0.000005
     4  H   -0.000121  -0.000028  -0.000274  -0.010499  -0.000376   0.000022
     5  C   -0.025919  -0.024173  -0.026745   0.365993  -0.051350   0.007635
     6  C    0.363026   0.351310   0.358746  -0.042107  -0.016887   0.000272
     7  H    0.569128  -0.022602  -0.038751   0.004701   0.000372  -0.000007
     8  H   -0.022602   0.574326  -0.025400  -0.007363   0.002932   0.000144
     9  H   -0.038751  -0.025400   0.582459  -0.008847   0.002729   0.000010
    10  C    0.004701  -0.007363  -0.008847   4.788767   0.501957  -0.024236
    11  C    0.000372   0.002932   0.002729   0.501957   5.095065   0.437013
    12  C   -0.000007   0.000144   0.000010  -0.024236   0.437013   5.141107
    13  C    0.000000   0.000001  -0.000018  -0.036250  -0.014652   0.504958
    14  O   -0.000000   0.000000   0.000000   0.000256   0.006562  -0.054624
    15  H   -0.000000   0.000000  -0.000000  -0.000022   0.000642  -0.001781
    16  C    0.000002  -0.000000  -0.000002  -0.021546  -0.038731  -0.057587
    17  C   -0.000110  -0.000461  -0.000091   0.519798  -0.058072  -0.045805
    18  H   -0.000008  -0.000008   0.000002  -0.041885   0.005543   0.000403
    19  H   -0.000000  -0.000000   0.000000   0.003063  -0.000049   0.006454
    20  H   -0.000000  -0.000002   0.000009   0.004247  -0.033229   0.352354
    21  H   -0.000007   0.001666   0.001386  -0.037054   0.359032  -0.045408
    22  C   -0.002016   0.005816  -0.007720  -0.060499   0.001511  -0.000158
    23  C    0.002975  -0.000036  -0.000266  -0.000096  -0.000537   0.000006
    24  H    0.000277  -0.000077  -0.000024   0.000562  -0.000005   0.000000
    25  C   -0.000141   0.000001   0.000006  -0.000159   0.000003  -0.000000
    26  H    0.000002  -0.000000   0.000000   0.000000  -0.000000   0.000000
    27  C   -0.000004   0.000000  -0.000003   0.000043   0.000000  -0.000000
    28  O    0.000000   0.000000   0.000000   0.000000   0.000000   0.000000
    29  C   -0.000249  -0.000002   0.000064  -0.000042   0.000034   0.000000
    30  H    0.000001  -0.000000  -0.000003  -0.000004  -0.000000   0.000000
    31  C    0.000235   0.000259   0.005248  -0.005771   0.001959  -0.000066
    32  H    0.000263  -0.000106   0.003250   0.006474   0.000055   0.000049
              13         14         15         16         17         18
     1  C    0.000006  -0.000000  -0.000000   0.000207  -0.012604   0.000091
     2  H   -0.000005   0.000000   0.000000  -0.000094  -0.000087   0.000140
     3  H   -0.000000   0.000000   0.000000   0.000001   0.000188  -0.000100
     4  H   -0.000021  -0.000000   0.000000   0.000020   0.007297   0.002518
     5  C    0.000320   0.000000  -0.000001   0.005083  -0.064426  -0.008254
     6  C   -0.000010   0.000000   0.000000  -0.000150   0.008213   0.000169
     7  H    0.000000  -0.000000  -0.000000   0.000002  -0.000110  -0.000008
     8  H    0.000001   0.000000   0.000000  -0.000000  -0.000461  -0.000008
     9  H   -0.000018   0.000000  -0.000000  -0.000002  -0.000091   0.000002
    10  C   -0.036250   0.000256  -0.000022  -0.021546   0.519798  -0.041885
    11  C   -0.014652   0.006562   0.000642  -0.038731  -0.058072   0.005543
    12  C    0.504958  -0.054624  -0.001781  -0.057587  -0.045805   0.000403
    13  C    4.539469   0.252837  -0.029008   0.542888  -0.019006   0.004058
    14  O    0.252837   8.284846   0.248816  -0.046173   0.002777  -0.000068
    15  H   -0.029008   0.248816   0.316409   0.003925  -0.000179   0.000006
    16  C    0.542888  -0.046173   0.003925   5.026877   0.476732  -0.045745
    17  C   -0.019006   0.002777  -0.000179   0.476732   5.078617   0.357671
    18  H    0.004058  -0.000068   0.000006  -0.045745   0.357671   0.575289
    19  H   -0.039363   0.000553  -0.000296   0.348926  -0.033414  -0.004525
    20  H   -0.043941  -0.005545   0.005110   0.004529   0.000510   0.000016
    21  H    0.004563  -0.000103  -0.000017   0.000411   0.004705  -0.000115
    22  C    0.000009   0.000000   0.000000   0.000227  -0.005031   0.007131
    23  C   -0.000001  -0.000000  -0.000000   0.000044   0.002592   0.000686
    24  H    0.000000   0.000000  -0.000000  -0.000000  -0.000071  -0.000015
    25  C    0.000000  -0.000000   0.000000   0.000000  -0.000084   0.000085
    26  H    0.000000   0.000000  -0.000000   0.000000   0.000001  -0.000001
    27  C   -0.000000   0.000000   0.000000   0.000000   0.000006  -0.000022
    28  O   -0.000000   0.000000  -0.000000   0.000000  -0.000000   0.000000
    29  C    0.000000   0.000000   0.000000  -0.000018  -0.000206  -0.000083
    30  H   -0.000000   0.000000  -0.000000  -0.000000   0.000001  -0.000000
    31  C    0.000008   0.000000   0.000000  -0.000094  -0.002473   0.000708
    32  H   -0.000041   0.000000  -0.000000  -0.000029   0.001249  -0.000025
              19         20         21         22         23         24
     1  C    0.000003   0.000004   0.000387  -0.029907  -0.016406   0.008079
     2  H    0.000000   0.000006   0.000227   0.004443   0.000382  -0.000121
     3  H   -0.000000  -0.000000  -0.000029  -0.006505   0.001054   0.002407
     4  H    0.000004   0.000000  -0.000017  -0.005469   0.002326   0.000831
     5  C   -0.000095  -0.000192  -0.013604   0.366839  -0.042695  -0.020405
     6  C    0.000001   0.000006   0.005371  -0.057833   0.000010   0.000542
     7  H   -0.000000  -0.000000  -0.000007  -0.002016   0.002975   0.000277
     8  H   -0.000000  -0.000002   0.001666   0.005816  -0.000036  -0.000077
     9  H    0.000000   0.000009   0.001386  -0.007720  -0.000266  -0.000024
    10  C    0.003063   0.004247  -0.037054  -0.060499  -0.000096   0.000562
    11  C   -0.000049  -0.033229   0.359032   0.001511  -0.000537  -0.000005
    12  C    0.006454   0.352354  -0.045408  -0.000158   0.000006   0.000000
    13  C   -0.039363  -0.043941   0.004563   0.000009  -0.000001   0.000000
    14  O    0.000553  -0.005545  -0.000103   0.000000  -0.000000   0.000000
    15  H   -0.000296   0.005110  -0.000017   0.000000  -0.000000  -0.000000
    16  C    0.348926   0.004529   0.000411   0.000227   0.000044  -0.000000
    17  C   -0.033414   0.000510   0.004705  -0.005031   0.002592  -0.000071
    18  H   -0.004525   0.000016  -0.000115   0.007131   0.000686  -0.000015
    19  H    0.567252  -0.000136   0.000015   0.000001  -0.000000  -0.000000
    20  H   -0.000136   0.574283  -0.007318   0.000001  -0.000000  -0.000000
    21  H    0.000015  -0.007318   0.577057   0.000354  -0.000006  -0.000000
    22  C    0.000001   0.000001   0.000354   4.795561   0.530631  -0.045804
    23  C   -0.000000  -0.000000  -0.000006   0.530631   5.212444   0.338390
    24  H   -0.000000  -0.000000  -0.000000  -0.045804   0.338390   0.644906
    25  C   -0.000000   0.000000   0.000000  -0.031161   0.360677  -0.042127
    26  H   -0.000000  -0.000000  -0.000000   0.003533  -0.041457  -0.004918
    27  C   -0.000000   0.000000   0.000000  -0.032022   0.004885   0.002972
    28  O    0.000000   0.000000   0.000000   0.000335   0.007481  -0.000113
    29  C   -0.000000   0.000000  -0.000000  -0.033302  -0.052058   0.000888
    30  H    0.000000  -0.000000  -0.000000   0.004727  -0.000509   0.000034
    31  C   -0.000000   0.000001  -0.000035   0.504921  -0.057093   0.008155
    32  H   -0.000000  -0.000000  -0.000116  -0.051651   0.008609  -0.000323
              25         26         27         28         29         30
     1  C   -0.000092  -0.000002   0.000004   0.000000  -0.000139   0.000001
     2  H    0.000001  -0.000000   0.000000  -0.000000   0.000002  -0.000000
     3  H    0.000084   0.000002  -0.000003   0.000000  -0.000001   0.000000
     4  H   -0.000071   0.000003  -0.000008  -0.000000   0.000007   0.000000
     5  C    0.005769  -0.000096   0.000233   0.000001   0.004927  -0.000137
     6  C   -0.000055   0.000002  -0.000028  -0.000000   0.000543   0.000007
     7  H   -0.000141   0.000002  -0.000004   0.000000  -0.000249   0.000001
     8  H    0.000001  -0.000000   0.000000   0.000000  -0.000002  -0.000000
     9  H    0.000006   0.000000  -0.000003   0.000000   0.000064  -0.000003
    10  C   -0.000159   0.000000   0.000043   0.000000  -0.000042  -0.000004
    11  C    0.000003  -0.000000   0.000000   0.000000   0.000034  -0.000000
    12  C   -0.000000   0.000000  -0.000000   0.000000   0.000000   0.000000
    13  C    0.000000   0.000000  -0.000000  -0.000000   0.000000  -0.000000
    14  O   -0.000000   0.000000   0.000000   0.000000   0.000000   0.000000
    15  H    0.000000  -0.000000   0.000000  -0.000000   0.000000  -0.000000
    16  C    0.000000   0.000000   0.000000   0.000000  -0.000018  -0.000000
    17  C   -0.000084   0.000001   0.000006  -0.000000  -0.000206   0.000001
    18  H    0.000085  -0.000001  -0.000022   0.000000  -0.000083  -0.000000
    19  H   -0.000000  -0.000000  -0.000000   0.000000  -0.000000   0.000000
    20  H    0.000000  -0.000000   0.000000   0.000000   0.000000  -0.000000
    21  H    0.000000  -0.000000   0.000000   0.000000  -0.000000  -0.000000
    22  C   -0.031161   0.003533  -0.032022   0.000335  -0.033302   0.004727
    23  C    0.360677  -0.041457   0.004885   0.007481  -0.052058  -0.000509
    24  H   -0.042127  -0.004918   0.002972  -0.000113   0.000888   0.000034
    25  C    5.360300   0.338255   0.461038  -0.084093  -0.071249   0.011062
    26  H    0.338255   0.639958  -0.040355   0.001997   0.008839  -0.000234
    27  C    0.461038  -0.040355   4.419021   0.399909   0.452187  -0.043723
    28  O   -0.084093   0.001997   0.399909   8.617456  -0.067827   0.004541
    29  C   -0.071249   0.008839   0.452187  -0.067827   5.278271   0.324068
    30  H    0.011062  -0.000234  -0.043723   0.004541   0.324068   0.662613
    31  C   -0.050316  -0.000164   0.002736   0.006183   0.426898  -0.046714
    32  H    0.000271   0.000023   0.003319  -0.000070  -0.037907  -0.006779
              31         32
     1  C    0.006841   0.000151
     2  H   -0.000088  -0.000011
     3  H   -0.000246  -0.000006
     4  H   -0.000078  -0.000001
     5  C   -0.060858  -0.009423
     6  C   -0.011178  -0.000504
     7  H    0.000235   0.000263
     8  H    0.000259  -0.000106
     9  H    0.005248   0.003250
    10  C   -0.005771   0.006474
    11  C    0.001959   0.000055
    12  C   -0.000066   0.000049
    13  C    0.000008  -0.000041
    14  O    0.000000   0.000000
    15  H    0.000000  -0.000000
    16  C   -0.000094  -0.000029
    17  C   -0.002473   0.001249
    18  H    0.000708  -0.000025
    19  H   -0.000000  -0.000000
    20  H    0.000001  -0.000000
    21  H   -0.000035  -0.000116
    22  C    0.504921  -0.051651
    23  C   -0.057093   0.008609
    24  H    0.008155  -0.000323
    25  C   -0.050316   0.000271
    26  H   -0.000164   0.000023
    27  C    0.002736   0.003319
    28  O    0.006183  -0.000070
    29  C    0.426898  -0.037907
    30  H   -0.046714  -0.006779
    31  C    5.155043   0.339841
    32  H    0.339841   0.628440
 Mulliken charges:
               1
     1  C   -0.465636
     2  H    0.146478
     3  H    0.147965
     4  H    0.146214
     5  C   -0.024172
     6  C   -0.461822
     7  H    0.149926
     8  H    0.145291
     9  H    0.147030
    10  C    0.160748
    11  C   -0.205335
    12  C   -0.220208
    13  C    0.333197
    14  O   -0.690135
    15  H    0.456396
    16  C   -0.199703
    17  C   -0.218238
    18  H    0.146335
    19  H    0.151607
    20  H    0.149288
    21  H    0.148653
    22  C    0.143036
    23  C   -0.262032
    24  H    0.105961
    25  C   -0.258005
    26  H    0.094612
    27  C    0.369813
    28  O   -0.885800
    29  C   -0.233647
    30  H    0.091046
    31  C   -0.223863
    32  H    0.114998
 Sum of Mulliken charges =  -1.00000
 Mulliken charges with hydrogens summed into heavy atoms:
               1
     1  C   -0.024979
     5  C   -0.024172
     6  C   -0.019574
    10  C    0.160748
    11  C   -0.056682
    12  C   -0.070920
    13  C    0.333197
    14  O   -0.233740
    16  C   -0.048096
    17  C   -0.071902
    22  C    0.143036
    23  C   -0.156072
    25  C   -0.163393
    27  C    0.369813
    28  O   -0.885800
    29  C   -0.142600
    31  C   -0.108864
 Electronic spatial extent (au):  <R**2>=           4806.9647
 Charge=             -1.0000 electrons
 Dipole moment (field-independent basis, Debye):
    X=            -20.5995    Y=              8.4369    Z=             -0.1116  Tot=             22.2606
 Quadrupole moment (field-independent basis, Debye-Ang):
   XX=           -182.4394   YY=           -115.6504   ZZ=           -100.5170
   XY=             22.9459   XZ=              8.7759   YZ=             -2.5984
 Traceless Quadrupole moment (field-independent basis, Debye-Ang):
   XX=            -49.5705   YY=             17.2185   ZZ=             32.3520
   XY=             22.9459   XZ=              8.7759   YZ=             -2.5984
 Octapole moment (field-independent basis, Debye-Ang**2):
  XXX=           -537.7069  YYY=             26.3304  ZZZ=             -1.7133  XYY=            -43.7797
  XXY=            173.9683  XXZ=             -7.5144  XZZ=            -14.5580  YZZ=             -4.5401
  YYZ=              4.4602  XYZ=             -0.0284
 Hexadecapole moment (field-independent basis, Debye-Ang**3):
 XXXX=          -6132.5946 YYYY=          -1230.7612 ZZZZ=           -583.0488 XXXY=            639.2108
 XXXZ=            244.6924 YYYX=             73.0923 YYYZ=             -8.7677 ZZZX=              5.0019
 ZZZY=             -7.3692 XXYY=          -1324.9371 XXZZ=           -857.6469 YYZZ=           -289.4398
[...]
         wScrn=  0.000000 ICntrl=       500 IOpCl=  0 I1Cent=   200000004 NGrid=           0
         NMat0=    1 NMatS0=      1 NMatT0=    0 NMatD0=    1 NMtDS0=    0 NMtDT0=    0
 Petite list used in FoFCou.
 Harris En= -727.770397932159    
 JPrj=0 DoOrth=F DoCkMO=F.
 Leave Link  401 at Sun Jul 11 16:22:48 2021, MaxMem=   262144000 cpu:              12.0 elap:               3.0
 (Enter /prod/apps/gaussian/g16b1/l502.exe)
 Integral symmetry usage will be decided dynamically.
 Closed shell SCF:
 Using DIIS extrapolation, IDIIS=  1040.
 NGot=   262144000 LenX=   261508168 LenY=   261194008
 Requested convergence on RMS density matrix=1.00D-08 within 128 cycles.
 Requested convergence on MAX density matrix=1.00D-06.
 Requested convergence on             energy=1.00D-06.
 No special actions if energy rises.
 Fock matrices will be formed incrementally for  20 cycles.

 Cycle   1  Pass 1  IDiag  1:
 FoFJK:  IHMeth= 1 ICntrl=       0 DoSepK=F KAlg= 0 I1Cent=           0 FoldK=F
 IRaf= 950000000 NMat=       1 IRICut=       1 DoRegI=T DoRafI=F ISym2E= 0 IDoP0=0 IntGTp=1.
 FoFCou: FMM=F IPFlag=           0 FMFlag=      100000 FMFlg1=           0
         NFxFlg=           0 DoJE=F BraDBF=F KetDBF=F FulRan=T
         wScrn=  0.000000 ICntrl=         0 IOpCl=  0 I1Cent=           0 NGrid=           0
         NMat0=    1 NMatS0=      1 NMatT0=    0 NMatD0=    1 NMtDS0=    0 NMtDT0=    0
 Symmetry not used in FoFCou.
 E= -725.789278071712    
 DIIS: error= 1.69D-02 at cycle   1 NSaved=   1.
 NSaved= 1 IEnMin= 1 EnMin= -725.789278071712     IErMin= 1 ErrMin= 1.69D-02
 ErrMax= 1.69D-02  0.00D+00 EMaxC= 1.00D-01 BMatC= 9.01D-01 BMatP= 9.01D-01
 IDIUse=3 WtCom= 8.31D-01 WtEn= 1.69D-01
 Coeff-Com:  0.100D+01
 Coeff-En:   0.100D+01
 Coeff:      0.100D+01
 Gap=     0.287 Goal=   None    Shift=    0.000
 GapD=    0.287 DampG=1.000 DampE=0.500 DampFc=0.5000 IDamp=-1.
 Damping current iteration by 5.00D-01
 RMSDP=8.79D-01 MaxDP=1.78D+02              OVMax= 9.99D-01

 Cycle   2  Pass 1  IDiag  1:
 RMSU=  4.38D-01    CP:  1.20D+00
 E= -726.011444724663     Delta-E=       -0.222166652951 Rises=F Damp=T
 DIIS: error= 1.05D-02 at cycle   2 NSaved=   2.
 NSaved= 2 IEnMin= 2 EnMin= -726.011444724663     IErMin= 2 ErrMin= 1.05D-02
 ErrMax= 1.05D-02  0.00D+00 EMaxC= 1.00D-01 BMatC= 1.57D-01 BMatP= 9.01D-01
 IDIUse=3 WtCom= 8.95D-01 WtEn= 1.05D-01
 Coeff-Com: -0.267D+00 0.127D+01
 Coeff-En:   0.103D+00 0.897D+00
 Coeff:     -0.228D+00 0.123D+01
 Gap=    -0.300 Goal=   None    Shift=    0.000
 RMSDP=4.50D-01 MaxDP=9.24D+01 DE=-2.22D-01 OVMax= 8.62D-01

 Cycle   3  Pass 1  IDiag  1:
 RMSU=  3.45D-02    CP:  5.08D-01  7.79D-03
 E= -726.445718404756     Delta-E=       -0.434273680093 Rises=F Damp=F
 DIIS: error= 8.28D-03 at cycle   3 NSaved=   3.
 NSaved= 3 IEnMin= 3 EnMin= -726.445718404756     IErMin= 3 ErrMin= 8.28D-03
 ErrMax= 8.28D-03  0.00D+00 EMaxC= 1.00D-01 BMatC= 9.85D-02 BMatP= 1.57D-01
 IDIUse=3 WtCom= 9.17D-01 WtEn= 8.28D-02
 Coeff-Com: -0.283D+00 0.668D+00 0.615D+00
 Coeff-En:   0.000D+00 0.000D+00 0.100D+01
 Coeff:     -0.260D+00 0.613D+00 0.647D+00
 Gap=     0.229 Goal=   None    Shift=    0.000
 RMSDP=4.93D-03 MaxDP=2.57D-01 DE=-4.34D-01 OVMax= 7.66D-02

 Cycle   4  Pass 1  IDiag  1:
 RMSU=  4.71D-03    CP:  5.06D-01  6.65D-03  9.62D-01
 E= -726.552966902869     Delta-E=       -0.107248498112 Rises=F Damp=F
 DIIS: error= 2.67D-03 at cycle   4 NSaved=   4.
 NSaved= 4 IEnMin= 4 EnMin= -726.552966902869     IErMin= 4 ErrMin= 2.67D-03
 ErrMax= 2.67D-03  0.00D+00 EMaxC= 1.00D-01 BMatC= 8.86D-03 BMatP= 9.85D-02
 IDIUse=3 WtCom= 9.73D-01 WtEn= 2.67D-02
 Coeff-Com: -0.132D+00 0.243D+00 0.414D-01 0.847D+00
 Coeff-En:   0.000D+00 0.000D+00 0.000D+00 0.100D+01
 Coeff:     -0.128D+00 0.236D+00 0.403D-01 0.852D+00
 Gap=     0.172 Goal=   None    Shift=    0.000
 RMSDP=2.29D-03 MaxDP=1.65D-01 DE=-1.07D-01 OVMax= 1.88D-02

 Cycle   5  Pass 1  IDiag  1:
 RMSU=  1.88D-03    CP:  5.05D-01  6.54D-03  9.39D-01  1.22D+00
 E= -726.565474931908     Delta-E=       -0.012508029040 Rises=F Damp=F
 DIIS: error= 1.18D-03 at cycle   5 NSaved=   5.
 NSaved= 5 IEnMin= 5 EnMin= -726.565474931908     IErMin= 5 ErrMin= 1.18D-03
 ErrMax= 1.18D-03  0.00D+00 EMaxC= 1.00D-01 BMatC= 2.21D-03 BMatP= 8.86D-03
 IDIUse=3 WtCom= 9.88D-01 WtEn= 1.18D-02
 Coeff-Com: -0.244D-01 0.550D-01-0.940D-01-0.490D-01 0.111D+01
 Coeff-En:   0.000D+00 0.000D+00 0.000D+00 0.000D+00 0.100D+01
 Coeff:     -0.241D-01 0.543D-01-0.929D-01-0.485D-01 0.111D+01
 Gap=     0.177 Goal=   None    Shift=    0.000
 RMSDP=1.27D-03 MaxDP=7.18D-02 DE=-1.25D-02 OVMax= 1.85D-02

 Cycle   6  Pass 1  IDiag  1:
 RMSU=  8.12D-04    CP:  5.06D-01  6.50D-03  9.33D-01  1.30D+00  1.46D+00
 E= -726.569315926403     Delta-E=       -0.003840994495 Rises=F Damp=F
 DIIS: error= 4.16D-04 at cycle   6 NSaved=   6.
 NSaved= 6 IEnMin= 6 EnMin= -726.569315926403     IErMin= 6 ErrMin= 4.16D-04
 ErrMax= 4.16D-04  0.00D+00 EMaxC= 1.00D-01 BMatC= 2.37D-04 BMatP= 2.21D-03
 IDIUse=3 WtCom= 9.96D-01 WtEn= 4.16D-03
 Coeff-Com:  0.123D-01-0.144D-01-0.290D-01-0.213D+00 0.210D+00 0.103D+01
 Coeff-En:   0.000D+00 0.000D+00 0.000D+00 0.000D+00 0.000D+00 0.100D+01
 Coeff:      0.123D-01-0.143D-01-0.289D-01-0.212D+00 0.209D+00 0.103D+01
 Gap=     0.181 Goal=   None    Shift=    0.000
 RMSDP=6.61D-04 MaxDP=3.96D-02 DE=-3.84D-03 OVMax= 9.70D-03

 Cycle   7  Pass 1  IDiag  1:
 RMSU=  3.04D-04    CP:  5.06D-01  6.53D-03  9.29D-01  1.32D+00  1.70D+00
                    CP:  1.40D+00
 E= -726.569897740079     Delta-E=       -0.000581813676 Rises=F Damp=F
 DIIS: error= 1.44D-04 at cycle   7 NSaved=   7.
 NSaved= 7 IEnMin= 7 EnMin= -726.569897740079     IErMin= 7 ErrMin= 1.44D-04
 ErrMax= 1.44D-04  0.00D+00 EMaxC= 1.00D-01 BMatC= 2.17D-05 BMatP= 2.37D-04
 IDIUse=3 WtCom= 9.99D-01 WtEn= 1.44D-03
 Coeff-Com: -0.196D-02 0.216D-02 0.216D-01 0.382D-01-0.167D+00 0.139D-01
 Coeff-Com:  0.109D+01
 Coeff-En:   0.000D+00 0.000D+00 0.000D+00 0.000D+00 0.000D+00 0.000D+00
 Coeff-En:   0.100D+01
 Coeff:     -0.196D-02 0.215D-02 0.216D-01 0.381D-01-0.167D+00 0.139D-01
 Coeff:      0.109D+01
 Gap=     0.183 Goal=   None    Shift=    0.000
 RMSDP=2.06D-04 MaxDP=1.92D-02 DE=-5.82D-04 OVMax= 3.47D-03

 Cycle   8  Pass 1  IDiag  1:
 RMSU=  1.43D-04    CP:  5.06D-01  6.56D-03  9.30D-01  1.30D+00  1.66D+00
                    CP:  1.45D+00  1.22D+00
 E= -726.569960113649     Delta-E=       -0.000062373570 Rises=F Damp=F
 DIIS: error= 6.00D-05 at cycle   8 NSaved=   8.
 NSaved= 8 IEnMin= 8 EnMin= -726.569960113649     IErMin= 8 ErrMin= 6.00D-05
 ErrMax= 6.00D-05  0.00D+00 EMaxC= 1.00D-01 BMatC= 4.32D-06 BMatP= 2.17D-05
 IDIUse=1 WtCom= 1.00D+00 WtEn= 0.00D+00
 Coeff-Com: -0.233D-02 0.315D-02 0.450D-02 0.323D-01-0.380D-01-0.157D+00
 Coeff-Com:  0.102D+00 0.106D+01
 Coeff:     -0.233D-02 0.315D-02 0.450D-02 0.323D-01-0.380D-01-0.157D+00
 Coeff:      0.102D+00 0.106D+01
 Gap=     0.183 Goal=   None    Shift=    0.000
 RMSDP=9.39D-05 MaxDP=6.13D-03 DE=-6.24D-05 OVMax= 2.27D-03

 Cycle   9  Pass 1  IDiag  1:
 RMSU=  4.77D-05    CP:  5.06D-01  6.56D-03  9.30D-01  1.30D+00  1.65D+00
                    CP:  1.45D+00  1.30D+00  1.50D+00
 E= -726.569976190751     Delta-E=       -0.000016077102 Rises=F Damp=F
 DIIS: error= 3.80D-05 at cycle   9 NSaved=   9.
 NSaved= 9 IEnMin= 9 EnMin= -726.569976190751     IErMin= 9 ErrMin= 3.80D-05
 ErrMax= 3.80D-05  0.00D+00 EMaxC= 1.00D-01 BMatC= 1.25D-06 BMatP= 4.32D-06
 IDIUse=1 WtCom= 1.00D+00 WtEn= 0.00D+00
 Coeff-Com:  0.846D-05 0.186D-03-0.371D-02-0.416D-02 0.210D-01-0.369D-01
 Coeff-Com: -0.170D+00 0.169D+00 0.103D+01
 Coeff:      0.846D-05 0.186D-03-0.371D-02-0.416D-02 0.210D-01-0.369D-01
 Coeff:     -0.170D+00 0.169D+00 0.103D+01
 Gap=     0.183 Goal=   None    Shift=    0.000
 RMSDP=5.24D-05 MaxDP=3.60D-03 DE=-1.61D-05 OVMax= 1.28D-03

 Cycle  10  Pass 1  IDiag  1:
 RMSU=  2.36D-05    CP:  5.06D-01  6.56D-03  9.29D-01  1.30D+00  1.66D+00
                    CP:  1.45D+00  1.33D+00  1.74D+00  1.40D+00
 E= -726.569980943515     Delta-E=       -0.000004752764 Rises=F Damp=F
 DIIS: error= 1.49D-05 at cycle  10 NSaved=  10.
 NSaved=10 IEnMin=10 EnMin= -726.569980943515     IErMin=10 ErrMin= 1.49D-05
 ErrMax= 1.49D-05  0.00D+00 EMaxC= 1.00D-01 BMatC= 1.75D-07 BMatP= 1.25D-06
 IDIUse=1 WtCom= 1.00D+00 WtEn= 0.00D+00
 Coeff-Com:  0.460D-03-0.619D-03-0.984D-03-0.652D-02 0.860D-02 0.269D-01
 Coeff-Com: -0.244D-01-0.217D+00 0.956D-01 0.112D+01
 Coeff:      0.460D-03-0.619D-03-0.984D-03-0.652D-02 0.860D-02 0.269D-01
 Coeff:     -0.244D-01-0.217D+00 0.956D-01 0.112D+01
 Gap=     0.183 Goal=   None    Shift=    0.000
 RMSDP=2.46D-05 MaxDP=1.86D-03 DE=-4.75D-06 OVMax= 7.54D-04

 Cycle  11  Pass 1  IDiag  1:
 RMSU=  8.74D-06    CP:  5.06D-01  6.56D-03  9.29D-01  1.30D+00  1.66D+00
                    CP:  1.45D+00  1.33D+00  1.84D+00  1.66D+00  1.29D+00
 E= -726.569981801946     Delta-E=       -0.000000858432 Rises=F Damp=F
 DIIS: error= 7.32D-06 at cycle  11 NSaved=  11.
 NSaved=11 IEnMin=11 EnMin= -726.569981801946     IErMin=11 ErrMin= 7.32D-06
 ErrMax= 7.32D-06  0.00D+00 EMaxC= 1.00D-01 BMatC= 5.40D-08 BMatP= 1.75D-07
 IDIUse=1 WtCom= 1.00D+00 WtEn= 0.00D+00
 Coeff-Com:  0.173D-03-0.332D-03 0.647D-03-0.442D-03-0.167D-02 0.122D-01
 Coeff-Com:  0.260D-01-0.792D-01-0.159D+00 0.210D+00 0.992D+00
 Coeff:      0.173D-03-0.332D-03 0.647D-03-0.442D-03-0.167D-02 0.122D-01
 Coeff:      0.260D-01-0.792D-01-0.159D+00 0.210D+00 0.992D+00
 Gap=     0.183 Goal=   None    Shift=    0.000
 RMSDP=7.89D-06 MaxDP=3.70D-04 DE=-8.58D-07 OVMax= 2.59D-04

 Cycle  12  Pass 1  IDiag  1:
 RMSU=  4.12D-06    CP:  5.06D-01  6.56D-03  9.29D-01  1.30D+00  1.66D+00
                    CP:  1.45D+00  1.33D+00  1.87D+00  1.70D+00  1.45D+00
                    CP:  1.31D+00
 E= -726.569981962873     Delta-E=       -0.000000160926 Rises=F Damp=F
 DIIS: error= 2.73D-06 at cycle  12 NSaved=  12.
 NSaved=12 IEnMin=12 EnMin= -726.569981962873     IErMin=12 ErrMin= 2.73D-06
 ErrMax= 2.73D-06  0.00D+00 EMaxC= 1.00D-01 BMatC= 9.84D-09 BMatP= 5.40D-08
 IDIUse=1 WtCom= 1.00D+00 WtEn= 0.00D+00
 Coeff-Com:  0.610D-05-0.595D-04 0.211D-03 0.774D-03-0.477D-03-0.292D-02
 Coeff-Com:  0.504D-02 0.281D-01-0.303D-01-0.188D+00 0.758D-01 0.111D+01
 Coeff:      0.610D-05-0.595D-04 0.211D-03 0.774D-03-0.477D-03-0.292D-02
 Coeff:      0.504D-02 0.281D-01-0.303D-01-0.188D+00 0.758D-01 0.111D+01
 Gap=     0.183 Goal=   None    Shift=    0.000
 RMSDP=4.21D-06 MaxDP=2.23D-04 DE=-1.61D-07 OVMax= 1.26D-04

 Cycle  13  Pass 1  IDiag  1:
 RMSU=  1.74D-06    CP:  5.06D-01  6.56D-03  9.29D-01  1.30D+00  1.66D+00
                    CP:  1.45D+00  1.33D+00  1.87D+00  1.71D+00  1.50D+00
                    CP:  1.52D+00  1.40D+00
 E= -726.569981996855     Delta-E=       -0.000000033982 Rises=F Damp=F
 DIIS: error= 1.17D-06 at cycle  13 NSaved=  13.
 NSaved=13 IEnMin=13 EnMin= -726.569981996855     IErMin=13 ErrMin= 1.17D-06
 ErrMax= 1.17D-06  0.00D+00 EMaxC= 1.00D-01 BMatC= 1.56D-09 BMatP= 9.84D-09
 IDIUse=1 WtCom= 1.00D+00 WtEn= 0.00D+00
 Coeff-Com: -0.595D-05 0.306D-05-0.947D-04 0.698D-04 0.545D-03-0.229D-02
 Coeff-Com: -0.339D-02 0.178D-01 0.210D-01-0.667D-01-0.182D+00 0.234D+00
 Coeff-Com:  0.981D+00
 Coeff:     -0.595D-05 0.306D-05-0.947D-04 0.698D-04 0.545D-03-0.229D-02
 Coeff:     -0.339D-02 0.178D-01 0.210D-01-0.667D-01-0.182D+00 0.234D+00
 Coeff:      0.981D+00
 Gap=     0.183 Goal=   None    Shift=    0.000
 RMSDP=1.50D-06 MaxDP=8.31D-05 DE=-3.40D-08 OVMax= 3.81D-05

 Cycle  14  Pass 1  IDiag  1:
 RMSU=  7.49D-07    CP:  5.06D-01  6.56D-03  9.29D-01  1.30D+00  1.66D+00
                    CP:  1.45D+00  1.34D+00  1.87D+00  1.70D+00  1.50D+00
                    CP:  1.57D+00  1.58D+00  1.32D+00
 E= -726.569982000903     Delta-E=       -0.000000004048 Rises=F Damp=F
 DIIS: error= 3.97D-07 at cycle  14 NSaved=  14.
 NSaved=14 IEnMin=14 EnMin= -726.569982000903     IErMin=14 ErrMin= 3.97D-07
 ErrMax= 3.97D-07  0.00D+00 EMaxC= 1.00D-01 BMatC= 1.47D-10 BMatP= 1.56D-09
 IDIUse=1 WtCom= 1.00D+00 WtEn= 0.00D+00
 Coeff-Com:  0.694D-05-0.545D-05-0.569D-04-0.197D-03 0.265D-03 0.252D-03
 Coeff-Com: -0.145D-02-0.296D-02 0.679D-02 0.288D-01-0.401D-01-0.140D+00
 Coeff-Com:  0.137D+00 0.101D+01
 Coeff:      0.694D-05-0.545D-05-0.569D-04-0.197D-03 0.265D-03 0.252D-03
 Coeff:     -0.145D-02-0.296D-02 0.679D-02 0.288D-01-0.401D-01-0.140D+00
 Coeff:      0.137D+00 0.101D+01
 Gap=     0.183 Goal=   None    Shift=    0.000
 RMSDP=5.02D-07 MaxDP=4.94D-05 DE=-4.05D-09 OVMax= 1.52D-05

 Cycle  15  Pass 1  IDiag  1:
 RMSU=  3.54D-07    CP:  5.06D-01  6.56D-03  9.29D-01  1.30D+00  1.66D+00
                    CP:  1.45D+00  1.34D+00  1.88D+00  1.70D+00  1.50D+00
                    CP:  1.57D+00  1.58D+00  1.44D+00  1.27D+00
 E= -726.569982001332     Delta-E=       -0.000000000429 Rises=F Damp=F
 DIIS: error= 1.46D-07 at cycle  15 NSaved=  15.
 NSaved=15 IEnMin=15 EnMin= -726.569982001332     IErMin=15 ErrMin= 1.46D-07
 ErrMax= 1.46D-07  0.00D+00 EMaxC= 1.00D-01 BMatC= 2.09D-11 BMatP= 1.47D-10
 IDIUse=1 WtCom= 1.00D+00 WtEn= 0.00D+00
 Coeff-Com:  0.205D-05-0.315D-05 0.131D-04-0.166D-04-0.348D-04 0.273D-03
 Coeff-Com:  0.415D-03-0.218D-02-0.315D-02 0.106D-01 0.192D-01-0.279D-01
 Coeff-Com: -0.131D+00-0.458D-02 0.114D+01
 Coeff:      0.205D-05-0.315D-05 0.131D-04-0.166D-04-0.348D-04 0.273D-03
 Coeff:      0.415D-03-0.218D-02-0.315D-02 0.106D-01 0.192D-01-0.279D-01
 Coeff:     -0.131D+00-0.458D-02 0.114D+01
 Gap=     0.183 Goal=   None    Shift=    0.000
 RMSDP=2.60D-07 MaxDP=1.99D-05 DE=-4.29D-10 OVMax= 4.14D-06

 Cycle  16  Pass 1  IDiag  1:
 RMSU=  1.06D-07    CP:  5.06D-01  6.56D-03  9.29D-01  1.30D+00  1.66D+00
                    CP:  1.45D+00  1.34D+00  1.88D+00  1.70D+00  1.51D+00
                    CP:  1.56D+00  1.56D+00  1.47D+00  1.35D+00  1.38D+00
 E= -726.569982001368     Delta-E=       -0.000000000035 Rises=F Damp=F
 DIIS: error= 3.97D-08 at cycle  16 NSaved=  16.
 NSaved=16 IEnMin=16 EnMin= -726.569982001368     IErMin=16 ErrMin= 3.97D-08
 ErrMax= 3.97D-08  0.00D+00 EMaxC= 1.00D-01 BMatC= 2.69D-12 BMatP= 2.09D-11
 IDIUse=1 WtCom= 1.00D+00 WtEn= 0.00D+00
 Coeff-Com: -0.210D-06-0.500D-06 0.835D-05 0.192D-04-0.190D-04-0.241D-04
 Coeff-Com:  0.176D-03 0.208D-03-0.114D-02-0.213D-02 0.422D-02 0.153D-01
 Coeff-Com: -0.216D-01-0.117D+00 0.473D-01 0.108D+01
 Coeff:     -0.210D-06-0.500D-06 0.835D-05 0.192D-04-0.190D-04-0.241D-04
 Coeff:      0.176D-03 0.208D-03-0.114D-02-0.213D-02 0.422D-02 0.153D-01
 Coeff:     -0.216D-01-0.117D+00 0.473D-01 0.108D+01
 Gap=     0.183 Goal=   None    Shift=    0.000
 RMSDP=8.66D-08 MaxDP=4.03D-06 DE=-3.55D-11 OVMax= 1.31D-06

 Cycle  17  Pass 1  IDiag  1:
 RMSU=  3.34D-08    CP:  5.06D-01  6.56D-03  9.29D-01  1.30D+00  1.66D+00
                    CP:  1.45D+00  1.33D+00  1.88D+00  1.70D+00  1.51D+00
                    CP:  1.56D+00  1.55D+00  1.47D+00  1.36D+00  1.52D+00
                    CP:  1.29D+00
 E= -726.569982001375     Delta-E=       -0.000000000007 Rises=F Damp=F
 DIIS: error= 1.03D-08 at cycle  17 NSaved=  17.
 NSaved=17 IEnMin=17 EnMin= -726.569982001375     IErMin=17 ErrMin= 1.03D-08
 ErrMax= 1.03D-08  0.00D+00 EMaxC= 1.00D-01 BMatC= 2.53D-13 BMatP= 2.69D-12
 IDIUse=1 WtCom= 1.00D+00 WtEn= 0.00D+00
 Coeff-Com: -0.236D-06 0.251D-06-0.631D-06 0.305D-05 0.556D-05-0.374D-04
 Coeff-Com: -0.296D-04 0.284D-03 0.252D-03-0.127D-02-0.226D-02 0.483D-02
 Coeff-Com:  0.148D-01-0.957D-02-0.135D+00 0.676D-01 0.106D+01
 Coeff:     -0.236D-06 0.251D-06-0.631D-06 0.305D-05 0.556D-05-0.374D-04
 Coeff:     -0.296D-04 0.284D-03 0.252D-03-0.127D-02-0.226D-02 0.483D-02
 Coeff:      0.148D-01-0.957D-02-0.135D+00 0.676D-01 0.106D+01
 Gap=     0.183 Goal=   None    Shift=    0.000
 RMSDP=2.25D-08 MaxDP=1.52D-06 DE=-6.82D-12 OVMax= 4.58D-07

 Cycle  18  Pass 1  IDiag  1:
 RMSU=  1.32D-08    CP:  5.06D-01  6.56D-03  9.29D-01  1.30D+00  1.66D+00
                    CP:  1.45D+00  1.33D+00  1.88D+00  1.70D+00  1.51D+00
                    CP:  1.56D+00  1.55D+00  1.47D+00  1.36D+00  1.54D+00
                    CP:  1.36D+00  1.31D+00
 E= -726.569982001352     Delta-E=        0.000000000022 Rises=F Damp=F
 DIIS: error= 4.86D-09 at cycle  18 NSaved=  18.
 NSaved=18 IEnMin=17 EnMin= -726.569982001375     IErMin=18 ErrMin= 4.86D-09
 ErrMax= 4.86D-09  0.00D+00 EMaxC= 1.00D-01 BMatC= 3.23D-14 BMatP= 2.53D-13
 IDIUse=1 WtCom= 1.00D+00 WtEn= 0.00D+00
 Coeff-Com: -0.868D-08 0.843D-07-0.811D-06-0.118D-05 0.128D-05-0.150D-05
 Coeff-Com: -0.139D-04-0.321D-05 0.918D-04 0.153D-03-0.441D-03-0.131D-02
 Coeff-Com:  0.256D-02 0.111D-01-0.685D-02-0.110D+00 0.510D-01 0.105D+01
 Coeff:     -0.868D-08 0.843D-07-0.811D-06-0.118D-05 0.128D-05-0.150D-05
 Coeff:     -0.139D-04-0.321D-05 0.918D-04 0.153D-03-0.441D-03-0.131D-02
 Coeff:      0.256D-02 0.111D-01-0.685D-02-0.110D+00 0.510D-01 0.105D+01
 Gap=     0.183 Goal=   None    Shift=    0.000
 RMSDP=1.04D-08 MaxDP=5.05D-07 DE= 2.23D-11 OVMax= 2.24D-07

 Cycle  19  Pass 1  IDiag  1:
 RMSU=  3.99D-09    CP:  5.06D-01  6.56D-03  9.29D-01  1.30D+00  1.66D+00
                    CP:  1.45D+00  1.33D+00  1.88D+00  1.70D+00  1.51D+00
                    CP:  1.56D+00  1.56D+00  1.47D+00  1.36D+00  1.53D+00
                    CP:  1.36D+00  1.40D+00  1.42D+00
 E= -726.569982001361     Delta-E=       -0.000000000009 Rises=F Damp=F
 DIIS: error= 2.56D-09 at cycle  19 NSaved=  19.
 NSaved=19 IEnMin=17 EnMin= -726.569982001375     IErMin=19 ErrMin= 2.56D-09
 ErrMax= 2.56D-09  0.00D+00 EMaxC= 1.00D-01 BMatC= 8.86D-15 BMatP= 3.23D-14
 IDIUse=1 WtCom= 1.00D+00 WtEn= 0.00D+00
 Coeff-Com:  0.513D-07-0.484D-07 0.354D-07-0.682D-06-0.135D-05 0.747D-05
 Coeff-Com:  0.551D-05-0.577D-04-0.475D-04 0.256D-03 0.488D-03-0.117D-02
 Coeff-Com: -0.281D-02 0.294D-02 0.273D-01-0.291D-01-0.204D+00 0.927D-01
 Coeff-Com:  0.111D+01
 Coeff:      0.513D-07-0.484D-07 0.354D-07-0.682D-06-0.135D-05 0.747D-05
 Coeff:      0.551D-05-0.577D-04-0.475D-04 0.256D-03 0.488D-03-0.117D-02
 Coeff:     -0.281D-02 0.294D-02 0.273D-01-0.291D-01-0.204D+00 0.927D-01
 Coeff:      0.111D+01
 Gap=     0.183 Goal=   None    Shift=    0.000
 RMSDP=5.53D-09 MaxDP=2.00D-07 DE=-8.64D-12 OVMax= 1.35D-07

 SCF Done:  E(RHF) =  -726.569982001     A.U. after   19 cycles
            NFock= 19  Conv=0.55D-08     -V/T= 2.0011
 KE= 7.257909877362D+02 PE=-3.971854545212D+03 EE= 1.390584380255D+03
 Leave Link  502 at Sun Jul 11 16:35:25 2021, MaxMem=   262144000 cpu:            3028.4 elap:             757.2
 (Enter /prod/apps/gaussian/g16b1/l801.exe)
 ExpMin= 2.97D-02 ExpMax= 1.17D+04 ExpMxC= 4.01D+02 IAcc=3 IRadAn=         5 AccDes= 0.00D+00
 HarFok:  IExCor=  205 AccDes= 0.00D+00 IRadAn=         5 IDoV=-2 UseB2=F ITyADJ=14
 ICtDFT= 12500011 ScaDFX=  1.000000  1.000000  1.000000  1.000000
 Largest valence mixing into a core orbital is  1.15D-04
 Largest core mixing into a valence orbital is  4.46D-05
 Range of M.O.s used for correlation:    18   526
 NBasis=   526 NAE=    61 NBE=    61 NFC=    17 NFV=     0
 NROrb=    509 NOA=    44 NOB=    44 NVA=   465 NVB=   465

 **** Warning!!: The largest alpha MO coefficient is  0.11762564D+03

 Leave Link  801 at Sun Jul 11 16:35:25 2021, MaxMem=   262144000 cpu:               0.9 elap:               0.2
 (Enter /prod/apps/gaussian/g16b1/l906.exe)
 FulOut=F Deriv=F AODrv=F NAtomX=    32
   MMem=           5  MDisk=          44 MDiskD=          44
  W3Min=    11457600 MinDsk=    12229780 NBas6D=         560
 NBas2D=      157833    NTT=      157080    LW2=     2000000
    MDV=   260169123 MDiskM=        6403 NBas2p=      146810
 Disk-based method using OVN memory for 44 occupieds at a time.
 Estimated scratch disk usage=  9270571640 words.
 IMap=   1   2   3   4   5   6   7   8   9  10  11  12  13  14  15  16  17  18  19  20
 IMap=  21  22  23  24  25  26  27  28  29  30  31  32  33  34  35  36  37  38  39  40
 IMap=  41  42  43  44
 Actual    scratch disk usage=  9034762360 words.
 JobTyp=1 Pass  1:  I=   1 to  44 NPSUse=  4 ParTrn=T ParDer=T DoDerP=F.
Erroneous write. Write -1 instead of 6937672.
fd = 4
orig len = 8384512 left = 6937672
g_write
