 Entering Gaussian System, Link 0=g16
 Initial command:
 /prod/apps/gaussian/g16b1/l1.exe "/tmp/ubator02/1834565/Gau-194135.inp" -scrdir="/tmp/ubator02/1834565/"
 Entering Link 1 = /prod/apps/gaussian/g16b1/l1.exe PID=    194136.
  
 Copyright (c) 1988-2017, Gaussian, Inc.  All Rights Reserved.
  
 This is part of the Gaussian(R) 16 program.  It is based on
 the Gaussian(R) 09 system (copyright 2009, Gaussian, Inc.),
 the Gaussian(R) 03 system (copyright 2003, Gaussian, Inc.),
 the Gaussian(R) 98 system (copyright 1998, Gaussian, Inc.),
 the Gaussian(R) 94 system (copyright 1995, Gaussian, Inc.),
 the Gaussian 92(TM) system (copyright 1992, Gaussian, Inc.),
 the Gaussian 90(TM) system (copyright 1990, Gaussian, Inc.),
 the Gaussian 88(TM) system (copyright 1988, Gaussian, Inc.),
 the Gaussian 86(TM) system (copyright 1986, Carnegie Mellon
 University), and the Gaussian 82(TM) system (copyright 1983,
 Carnegie Mellon University). Gaussian is a federally registered
 trademark of Gaussian, Inc.
  
 This software contains proprietary and confidential information,
 including trade secrets, belonging to Gaussian, Inc.
  
 This software is provided under written license and may be
 used, copied, transmitted, or stored only in accord with that
 written license.
  
 The following legend is applicable only to US Government
 contracts under FAR:
  
                    RESTRICTED RIGHTS LEGEND
  
 Use, reproduction and disclosure by the US Government is
 subject to restrictions as set forth in subparagraphs (a)
 and (c) of the Commercial Computer Software - Restricted
 Rights clause in FAR 52.227-19.
  
 Gaussian, Inc.
 340 Quinnipiac St., Bldg. 40, Wallingford CT 06492
  
  
 ---------------------------------------------------------------
 Warning -- This program may not be used in any manner that
 competes with the business of Gaussian, Inc. or will provide
 assistance to any competitor of Gaussian, Inc.  The licensee
 of this program is prohibited from giving any competitor of
 Gaussian, Inc. access to this program.  By using this program,
 the user acknowledges that Gaussian, Inc. is engaged in the
 business of creating and licensing software in the field of
 computational chemistry and represents and warrants to the
 licensee that it is not a competitor of Gaussian, Inc. and that
 it will not use this program in any manner prohibited above.
 ---------------------------------------------------------------
  

 Cite this work as:
 Gaussian 16, Revision B.01,
 M. J. Frisch, G. W. Trucks, H. B. Schlegel, G. E. Scuseria, 
 M. A. Robb, J. R. Cheeseman, G. Scalmani, V. Barone, 
 G. A. Petersson, H. Nakatsuji, X. Li, M. Caricato, A. V. Marenich, 
 J. Bloino, B. G. Janesko, R. Gomperts, B. Mennucci, H. P. Hratchian, 
 J. V. Ortiz, A. F. Izmaylov, J. L. Sonnenberg, D. Williams-Young, 
 F. Ding, F. Lipparini, F. Egidi, J. Goings, B. Peng, A. Petrone, 
 T. Henderson, D. Ranasinghe, V. G. Zakrzewski, J. Gao, N. Rega, 
 G. Zheng, W. Liang, M. Hada, M. Ehara, K. Toyota, R. Fukuda, 
 J. Hasegawa, M. Ishida, T. Nakajima, Y. Honda, O. Kitao, H. Nakai, 
 T. Vreven, K. Throssell, J. A. Montgomery, Jr., J. E. Peralta, 
 F. Ogliaro, M. J. Bearpark, J. J. Heyd, E. N. Brothers, K. N. Kudin, 
 V. N. Staroverov, T. A. Keith, R. Kobayashi, J. Normand, 
 K. Raghavachari, A. P. Rendell, J. C. Burant, S. S. Iyengar, 
 J. Tomasi, M. Cossi, J. M. Millam, M. Klene, C. Adamo, R. Cammi, 
 J. W. Ochterski, R. L. Martin, K. Morokuma, O. Farkas, 
 J. B. Foresman, and D. J. Fox, Gaussian, Inc., Wallingford CT, 2016.
 
 ******************************************
 Gaussian 16:  ES64L-G16RevB.01 20-Dec-2017
                11-Jul-2021 
 ******************************************
 %mem=800MB
 %nproc=4
 Will use up to    4 processors via shared memory.
 %chk=SET_328_BBB286_conf1.geo_000_150.chk
 -----------------------------------------------------------
 #p b3lyp/6-31G(d) opt freq scrf=(iefpcm,read,solvent=water)
 -----------------------------------------------------------
 1/18=20,19=15,26=3,38=1,40=2/1,3;
 2/9=110,12=2,17=6,18=5,40=1/2;
 3/5=1,6=6,7=1,11=2,25=1,30=1,70=2203,71=1,72=1,74=-5/1,2,3;
 4//1;
 5/5=2,38=5,53=1/2;
 6/7=2,8=2,9=2,10=2,28=1/1;
 7//1,2,3,16;
 1/18=20,19=15,26=3/3(2);
 2/9=110/2;
 99//99;
 2/9=110/2;
 3/5=1,6=6,7=1,11=2,25=1,30=1,70=2205,71=1,72=1,74=-5/1,2,3;
 4/5=5,16=3,69=1/1;
 5/5=2,38=5,53=1/2;
 7//1,2,3,16;
 1/18=20,19=15,26=3/3(-5);
 2/9=110/2;
 6/7=2,8=2,9=2,10=2,19=2,28=1/1;
 99/9=1/99;
 Leave Link    1 at Sun Jul 11 16:07:40 2021, MaxMem=   104857600 cpu:               0.1 elap:               0.0
 (Enter /prod/apps/gaussian/g16b1/l101.exe)
 -----------------------------------------
 SET_328_BBB286_conf1.geo_000_150 geometry
 -----------------------------------------
 Symbolic Z-matrix:
 Charge =  1 Multiplicity = 1
 C                     3.244    -0.743    -3.517 
 H                     3.13     -0.813    -4.602 
 H                     2.724    -1.641    -3.174 
 H                     4.267    -0.613    -3.156 
 N                     2.378     0.324    -2.992 
 C                     2.163     1.56     -3.442 
 C                     1.08      2.021    -2.819 
 C                     0.574     3.278    -3.154 
 C                     1.254     3.991    -4.157 
 C                     2.46      3.529    -4.71 
 C                     2.873     2.253    -4.42 
 H                     3.747     1.821    -4.901 
 H                     2.87      4.037    -5.579 
 H                     0.868     4.95     -4.493 
 H                    -0.279     3.654    -2.595 
 N                     1.513    -0.056    -1.981 
 C                     0.688     1.037    -1.837 
 C                    -0.451     1.16     -0.896 
 O                    -1.151     2.183    -0.748 
 N                    -0.609     0.02     -0.144 
 H                     0.018    -0.766    -0.233 
 C                    -1.75     -0.16      0.749 
 C                    -1.648     0.592     2.134 
 H                    -0.972     1.45      2.118 
 H                    -2.605     0.972     2.498 
 H                    -2.618     0.188     0.182 
 C                    -2.161    -1.622     0.917 
 H                    -1.993    -2.204     0.009 
 H                    -3.251    -1.584     0.972 
 C                    -1.727    -2.353     2.196 
 H                    -2.316    -3.261     2.35 
 C                    -0.273    -2.799     2.034 
 H                    -0.18     -3.515     1.215 
 H                    -0.217    -3.333     2.985 
 C                     0.801    -1.717     2.121 
 H                     0.866    -1.221     1.151 
 H                     1.742    -2.167     2.444 
 C                     0.454    -0.567     3.06 
 H                     1.11      0.3       2.956 
 H                     0.704    -1.011     4.025 
 C                    -1.121    -0.245     3.287 
 H                    -1.126     0.189     4.29 
 N                    -1.868    -1.537     3.362 
 C                    -3.113    -1.434     3.994 
 H                    -2.798    -1.151     5.002 
 H                    -3.676    -2.371     4.017 
 H                    -3.626    -0.618     3.481 
 H                    -1.338    -2.051     4.037 
 
 ITRead=  0  0  0  0  0  0  0  0  0  0  0  0  0  0  0  0  0  0  0  0
 ITRead=  0  0  0  0  0  0  0  0  0  0  0  0  0  0  0  0  0  0  0  0
 ITRead=  0  0  0  0  0  0  0  0
 MicOpt= -1 -1 -1 -1 -1 -1 -1 -1 -1 -1 -1 -1 -1 -1 -1 -1 -1 -1 -1 -1
 MicOpt= -1 -1 -1 -1 -1 -1 -1 -1 -1 -1 -1 -1 -1 -1 -1 -1 -1 -1 -1 -1
 MicOpt= -1 -1 -1 -1 -1 -1 -1 -1
 NAtoms=     48 NQM=       48 NQMF=       0 NMMI=      0 NMMIF=      0
                NMic=       0 NMicF=      0.
                    Isotopes and Nuclear Properties:
 (Nuclear quadrupole moments (NQMom) in fm**2, nuclear magnetic moments (NMagM)
  in nuclear magnetons)

  Atom         1           2           3           4           5           6           7           8           9          10
 IAtWgt=          12           1           1           1          14          12          12          12          12          12
 AtmWgt=  12.0000000   1.0078250   1.0078250   1.0078250  14.0030740  12.0000000  12.0000000  12.0000000  12.0000000  12.0000000
 NucSpn=           0           1           1           1           2           0           0           0           0           0
 AtZEff=  -0.0000000  -0.0000000  -0.0000000  -0.0000000  -0.0000000  -0.0000000  -0.0000000  -0.0000000  -0.0000000  -0.0000000
 NQMom=    0.0000000   0.0000000   0.0000000   0.0000000   2.0440000   0.0000000   0.0000000   0.0000000   0.0000000   0.0000000
 NMagM=    0.0000000   2.7928460   2.7928460   2.7928460   0.4037610   0.0000000   0.0000000   0.0000000   0.0000000   0.0000000
 AtZNuc=   6.0000000   1.0000000   1.0000000   1.0000000   7.0000000   6.0000000   6.0000000   6.0000000   6.0000000   6.0000000

  Atom        11          12          13          14          15          16          17          18          19          20
 IAtWgt=          12           1           1           1           1          14          12          12          16          14
 AtmWgt=  12.0000000   1.0078250   1.0078250   1.0078250   1.0078250  14.0030740  12.0000000  12.0000000  15.9949146  14.0030740
 NucSpn=           0           1           1           1           1           2           0           0           0           2
 AtZEff=  -0.0000000  -0.0000000  -0.0000000  -0.0000000  -0.0000000  -0.0000000  -0.0000000  -0.0000000  -0.0000000  -0.0000000
 NQMom=    0.0000000   0.0000000   0.0000000   0.0000000   0.0000000   2.0440000   0.0000000   0.0000000   0.0000000   2.0440000
 NMagM=    0.0000000   2.7928460   2.7928460   2.7928460   2.7928460   0.4037610   0.0000000   0.0000000   0.0000000   0.4037610
 AtZNuc=   6.0000000   1.0000000   1.0000000   1.0000000   1.0000000   7.0000000   6.0000000   6.0000000   8.0000000   7.0000000

  Atom        21          22          23          24          25          26          27          28          29          30
 IAtWgt=           1          12          12           1           1           1          12           1           1          12
 AtmWgt=   1.0078250  12.0000000  12.0000000   1.0078250   1.0078250   1.0078250  12.0000000   1.0078250   1.0078250  12.0000000
 NucSpn=           1           0           0           1           1           1           0           1           1           0
 AtZEff=  -0.0000000  -0.0000000  -0.0000000  -0.0000000  -0.0000000  -0.0000000  -0.0000000  -0.0000000  -0.0000000  -0.0000000
 NQMom=    0.0000000   0.0000000   0.0000000   0.0000000   0.0000000   0.0000000   0.0000000   0.0000000   0.0000000   0.0000000
 NMagM=    2.7928460   0.0000000   0.0000000   2.7928460   2.7928460   2.7928460   0.0000000   2.7928460   2.7928460   0.0000000
 AtZNuc=   1.0000000   6.0000000   6.0000000   1.0000000   1.0000000   1.0000000   6.0000000   1.0000000   1.0000000   6.0000000

  Atom        31          32          33          34          35          36          37          38          39          40
 IAtWgt=           1          12           1           1          12           1           1          12           1           1
 AtmWgt=   1.0078250  12.0000000   1.0078250   1.0078250  12.0000000   1.0078250   1.0078250  12.0000000   1.0078250   1.0078250
 NucSpn=           1           0           1           1           0           1           1           0           1           1
 AtZEff=  -0.0000000  -0.0000000  -0.0000000  -0.0000000  -0.0000000  -0.0000000  -0.0000000  -0.0000000  -0.0000000  -0.0000000
 NQMom=    0.0000000   0.0000000   0.0000000   0.0000000   0.0000000   0.0000000   0.0000000   0.0000000   0.0000000   0.0000000
 NMagM=    2.7928460   0.0000000   2.7928460   2.7928460   0.0000000   2.7928460   2.7928460   0.0000000   2.7928460   2.7928460
 AtZNuc=   1.0000000   6.0000000   1.0000000   1.0000000   6.0000000   1.0000000   1.0000000   6.0000000   1.0000000   1.0000000

  Atom        41          42          43          44          45          46          47          48
 IAtWgt=          12           1          14          12           1           1           1           1
 AtmWgt=  12.0000000   1.0078250  14.0030740  12.0000000   1.0078250   1.0078250   1.0078250   1.0078250
 NucSpn=           0           1           2           0           1           1           1           1
 AtZEff=  -0.0000000  -0.0000000  -0.0000000  -0.0000000  -0.0000000  -0.0000000  -0.0000000  -0.0000000
 NQMom=    0.0000000   0.0000000   2.0440000   0.0000000   0.0000000   0.0000000   0.0000000   0.0000000
 NMagM=    0.0000000   2.7928460   0.4037610   0.0000000   2.7928460   2.7928460   2.7928460   2.7928460
 AtZNuc=   6.0000000   1.0000000   7.0000000   6.0000000   1.0000000   1.0000000   1.0000000   1.0000000
 Leave Link  101 at Sun Jul 11 16:07:40 2021, MaxMem=   104857600 cpu:               0.5 elap:               0.1
 (Enter /prod/apps/gaussian/g16b1/l103.exe)

 GradGradGradGradGradGradGradGradGradGradGradGradGradGradGradGradGradGrad
 Berny optimization.
 Initialization pass.
                           ----------------------------
                           !    Initial Parameters    !
                           ! (Angstroms and Degrees)  !
 --------------------------                            --------------------------
 ! Name  Definition              Value          Derivative Info.                !
 --------------------------------------------------------------------------------
 ! R1    R(1,2)                  1.0932         estimate D2E/DX2                !
 ! R2    R(1,3)                  1.0929         estimate D2E/DX2                !
 ! R3    R(1,4)                  1.0926         estimate D2E/DX2                !
 ! R4    R(1,5)                  1.4711         estimate D2E/DX2                !
 ! R5    R(5,6)                  1.3328         estimate D2E/DX2                !
 ! R6    R(5,16)                 1.3837         estimate D2E/DX2                !
 ! R7    R(6,7)                  1.3317         estimate D2E/DX2                !
 ! R8    R(6,11)                 1.3931         estimate D2E/DX2                !
 ! R9    R(7,8)                  1.3958         estimate D2E/DX2                !
 ! R10   R(7,17)                 1.4444         estimate D2E/DX2                !
 ! R11   R(8,9)                  1.406          estimate D2E/DX2                !
 ! R12   R(8,15)                 1.087          estimate D2E/DX2                !
 ! R13   R(9,10)                 1.4049         estimate D2E/DX2                !
 ! R14   R(9,14)                 1.087          estimate D2E/DX2                !
 ! R15   R(10,11)                1.3722         estimate D2E/DX2                !
 ! R16   R(10,13)                1.0869         estimate D2E/DX2                !
 ! R17   R(11,12)                1.0871         estimate D2E/DX2                !
 ! R18   R(16,17)                1.377          estimate D2E/DX2                !
 ! R19   R(17,18)                1.4825         estimate D2E/DX2                !
 ! R20   R(18,19)                1.2484         estimate D2E/DX2                !
 ! R21   R(18,20)                1.3748         estimate D2E/DX2                !
 ! R22   R(20,21)                1.0094         estimate D2E/DX2                !
 ! R23   R(20,22)                1.46           estimate D2E/DX2                !
 ! R24   R(22,23)                1.5793         estimate D2E/DX2                !
 ! R25   R(22,26)                1.0936         estimate D2E/DX2                !
 ! R26   R(22,27)                1.5279         estimate D2E/DX2                !
 ! R27   R(23,24)                1.0924         estimate D2E/DX2                !
 ! R28   R(23,25)                1.0921         estimate D2E/DX2                !
 ! R29   R(23,41)                1.5191         estimate D2E/DX2                !
 ! R30   R(27,28)                1.0915         estimate D2E/DX2                !
 ! R31   R(27,29)                1.092          estimate D2E/DX2                !
 ! R32   R(27,30)                1.5358         estimate D2E/DX2                !
 ! R33   R(30,31)                1.0932         estimate D2E/DX2                !
 ! R34   R(30,32)                1.5295         estimate D2E/DX2                !
 ! R35   R(30,43)                1.4301         estimate D2E/DX2                !
 ! R36   R(32,33)                1.0918         estimate D2E/DX2                !
 ! R37   R(32,34)                1.0921         estimate D2E/DX2                !
 ! R38   R(32,35)                1.527          estimate D2E/DX2                !
 ! R39   R(35,36)                1.0914         estimate D2E/DX2                !
 ! R40   R(35,37)                1.0919         estimate D2E/DX2                !
 ! R41   R(35,38)                1.5247         estimate D2E/DX2                !
 ! R42   R(38,39)                1.0922         estimate D2E/DX2                !
 ! R43   R(38,40)                1.0913         estimate D2E/DX2                !
 ! R44   R(38,41)                1.6235         estimate D2E/DX2                !
 ! R45   R(41,42)                1.0929         estimate D2E/DX2                !
 ! R46   R(41,43)                1.4943         estimate D2E/DX2                !
 ! R47   R(43,44)                1.4            estimate D2E/DX2                !
 ! R48   R(43,48)                1.0004         estimate D2E/DX2                !
 ! R49   R(44,45)                1.0933         estimate D2E/DX2                !
 ! R50   R(44,46)                1.0934         estimate D2E/DX2                !
 ! R51   R(44,47)                1.0919         estimate D2E/DX2                !
 ! A1    A(2,1,3)              102.0787         estimate D2E/DX2                !
 ! A2    A(2,1,4)              115.6696         estimate D2E/DX2                !
 ! A3    A(2,1,5)              109.8315         estimate D2E/DX2                !
 ! A4    A(3,1,4)              116.0757         estimate D2E/DX2                !
 ! A5    A(3,1,5)              101.7633         estimate D2E/DX2                !
 ! A6    A(4,1,5)              110.3023         estimate D2E/DX2                !
 ! A7    A(1,5,6)              130.3229         estimate D2E/DX2                !
 ! A8    A(1,5,16)             115.4395         estimate D2E/DX2                !
 ! A9    A(6,5,16)             113.6101         estimate D2E/DX2                !
 ! A10   A(5,6,7)              107.1127         estimate D2E/DX2                !
 ! A11   A(5,6,11)             128.0326         estimate D2E/DX2                !
 ! A12   A(7,6,11)             124.7964         estimate D2E/DX2                !
 ! A13   A(6,7,8)              119.6211         estimate D2E/DX2                !
 ! A14   A(6,7,17)             107.6336         estimate D2E/DX2                !
 ! A15   A(8,7,17)             132.7104         estimate D2E/DX2                !
 ! A16   A(7,8,9)              116.9087         estimate D2E/DX2                !
 ! A17   A(7,8,15)             118.2016         estimate D2E/DX2                !
 ! A18   A(9,8,15)             124.8204         estimate D2E/DX2                !
 ! A19   A(8,9,10)             121.9528         estimate D2E/DX2                !
 ! A20   A(8,9,14)             119.7468         estimate D2E/DX2                !
 ! A21   A(10,9,14)            118.2481         estimate D2E/DX2                !
 ! A22   A(9,10,11)            118.7501         estimate D2E/DX2                !
 ! A23   A(9,10,13)            119.0018         estimate D2E/DX2                !
 ! A24   A(11,10,13)           119.3452         estimate D2E/DX2                !
 ! A25   A(6,11,10)            117.229          estimate D2E/DX2                !
 ! A26   A(6,11,12)            121.5108         estimate D2E/DX2                !
 ! A27   A(10,11,12)           121.1976         estimate D2E/DX2                !
 ! A28   A(5,16,17)            103.4713         estimate D2E/DX2                !
 ! A29   A(7,17,16)            107.8823         estimate D2E/DX2                !
 ! A30   A(7,17,18)            125.6982         estimate D2E/DX2                !
 ! A31   A(16,17,18)           126.3378         estimate D2E/DX2                !
 ! A32   A(17,18,19)           125.0318         estimate D2E/DX2                !
 ! A33   A(17,18,20)           111.5113         estimate D2E/DX2                !
 ! A34   A(19,18,20)           123.3823         estimate D2E/DX2                !
 ! A35   A(18,20,21)           121.7414         estimate D2E/DX2                !
 ! A36   A(18,20,22)           121.7756         estimate D2E/DX2                !
 ! A37   A(21,20,22)           116.3188         estimate D2E/DX2                !
 ! A38   A(20,22,23)           115.2904         estimate D2E/DX2                !
 ! A39   A(20,22,26)           105.303          estimate D2E/DX2                !
 ! A40   A(20,22,27)           113.2925         estimate D2E/DX2                !
 ! A41   A(23,22,26)           110.7579         estimate D2E/DX2                !
 ! A42   A(23,22,27)           112.121          estimate D2E/DX2                !
 ! A43   A(26,22,27)            98.5103         estimate D2E/DX2                !
 ! A44   A(22,23,24)           113.6473         estimate D2E/DX2                !
 ! A45   A(22,23,25)           113.6643         estimate D2E/DX2                !
 ! A46   A(22,23,41)           115.1932         estimate D2E/DX2                !
 ! A47   A(24,23,25)           105.8932         estimate D2E/DX2                !
 ! A48   A(24,23,41)           103.2493         estimate D2E/DX2                !
 ! A49   A(25,23,41)           104.0478         estimate D2E/DX2                !
 ! A50   A(22,27,28)           112.1681         estimate D2E/DX2                !
 ! A51   A(22,27,29)           103.9295         estimate D2E/DX2                !
 ! A52   A(22,27,30)           118.0992         estimate D2E/DX2                !
 ! A53   A(28,27,29)           102.3613         estimate D2E/DX2                !
 ! A54   A(28,27,30)           113.2971         estimate D2E/DX2                !
 ! A55   A(29,27,30)           104.8735         estimate D2E/DX2                !
 ! A56   A(27,30,31)           111.1252         estimate D2E/DX2                !
 ! A57   A(27,30,32)           108.617          estimate D2E/DX2                !
 ! A58   A(27,30,43)           112.3058         estimate D2E/DX2                !
 ! A59   A(31,30,32)           106.5538         estimate D2E/DX2                !
 ! A60   A(31,30,43)           107.8146         estimate D2E/DX2                !
 ! A61   A(32,30,43)           110.2713         estimate D2E/DX2                !
 ! A62   A(30,32,33)           110.5888         estimate D2E/DX2                !
 ! A63   A(30,32,34)            95.6872         estimate D2E/DX2                !
 ! A64   A(30,32,35)           117.1275         estimate D2E/DX2                !
 ! A65   A(33,32,34)           109.1584         estimate D2E/DX2                !
 ! A66   A(33,32,35)           116.5835         estimate D2E/DX2                !
 ! A67   A(34,32,35)           105.1169         estimate D2E/DX2                !
 ! A68   A(32,35,36)           108.2566         estimate D2E/DX2                !
 ! A69   A(32,35,37)           109.3269         estimate D2E/DX2                !
 ! A70   A(32,35,38)           114.1712         estimate D2E/DX2                !
 ! A71   A(36,35,37)           113.5076         estimate D2E/DX2                !
 ! A72   A(36,35,38)           102.5997         estimate D2E/DX2                !
 ! A73   A(37,35,38)           108.9531         estimate D2E/DX2                !
 ! A74   A(35,38,39)           113.7916         estimate D2E/DX2                !
 ! A75   A(35,38,40)           100.6954         estimate D2E/DX2                !
 ! A76   A(35,38,41)           117.161          estimate D2E/DX2                !
 ! A77   A(39,38,40)           105.6397         estimate D2E/DX2                !
 ! A78   A(39,38,41)           116.0118         estimate D2E/DX2                !
 ! A79   A(40,38,41)           100.3289         estimate D2E/DX2                !
 ! A80   A(23,41,38)           109.8586         estimate D2E/DX2                !
 ! A81   A(23,41,42)           118.4365         estimate D2E/DX2                !
 ! A82   A(23,41,43)           109.9416         estimate D2E/DX2                !
 ! A83   A(38,41,42)           102.2114         estimate D2E/DX2                !
 ! A84   A(38,41,43)           108.6929         estimate D2E/DX2                !
 ! A85   A(42,41,43)           107.1579         estimate D2E/DX2                !
 ! A86   A(30,43,41)           113.7737         estimate D2E/DX2                !
 ! A87   A(30,43,44)           119.8479         estimate D2E/DX2                !
 ! A88   A(30,43,48)           101.8136         estimate D2E/DX2                !
 ! A89   A(41,43,44)           113.8032         estimate D2E/DX2                !
 ! A90   A(41,43,48)           102.3141         estimate D2E/DX2                !
 ! A91   A(44,43,48)           101.7912         estimate D2E/DX2                !
 ! A92   A(43,44,45)           100.3129         estimate D2E/DX2                !
 ! A93   A(43,44,46)           113.8505         estimate D2E/DX2                !
 ! A94   A(43,44,47)           105.1115         estimate D2E/DX2                !
 ! A95   A(45,44,46)           110.5351         estimate D2E/DX2                !
 ! A96   A(45,44,47)           112.0296         estimate D2E/DX2                !
 ! A97   A(46,44,47)           114.105          estimate D2E/DX2                !
 ! D1    D(2,1,5,6)            -44.4402         estimate D2E/DX2                !
 ! D2    D(2,1,5,16)           125.777          estimate D2E/DX2                !
 ! D3    D(3,1,5,6)           -152.0372         estimate D2E/DX2                !
 ! D4    D(3,1,5,16)            18.18           estimate D2E/DX2                !
 ! D5    D(4,1,5,6)             84.1991         estimate D2E/DX2                !
 ! D6    D(4,1,5,16)          -105.5837         estimate D2E/DX2                !
 ! D7    D(1,5,6,7)            165.7869         estimate D2E/DX2                !
 ! D8    D(1,5,6,11)           -11.5147         estimate D2E/DX2                !
 ! D9    D(16,5,6,7)            -4.5732         estimate D2E/DX2                !
 ! D10   D(16,5,6,11)          178.1252         estimate D2E/DX2                !
 ! D11   D(1,5,16,17)         -170.3254         estimate D2E/DX2                !
 ! D12   D(6,5,16,17)            1.547          estimate D2E/DX2                !
 ! D13   D(5,6,7,8)           -176.4109         estimate D2E/DX2                !
 ! D14   D(5,6,7,17)             5.4711         estimate D2E/DX2                !
 ! D15   D(11,6,7,8)             1.0009         estimate D2E/DX2                !
 ! D16   D(11,6,7,17)         -177.1172         estimate D2E/DX2                !
 ! D17   D(5,6,11,10)         -179.7482         estimate D2E/DX2                !
 ! D18   D(5,6,11,12)           -2.5923         estimate D2E/DX2                !
 ! D19   D(7,6,11,10)            3.3928         estimate D2E/DX2                !
 ! D20   D(7,6,11,12)         -179.4513         estimate D2E/DX2                !
 ! D21   D(6,7,8,9)              0.2962         estimate D2E/DX2                !
 ! D22   D(6,7,8,15)          -176.8223         estimate D2E/DX2                !
 ! D23   D(17,7,8,9)           177.8551         estimate D2E/DX2                !
 ! D24   D(17,7,8,15)            0.7365         estimate D2E/DX2                !
 ! D25   D(6,7,17,16)           -4.6736         estimate D2E/DX2                !
 ! D26   D(6,7,17,18)          178.4487         estimate D2E/DX2                !
 ! D27   D(8,7,17,16)          177.553          estimate D2E/DX2                !
 ! D28   D(8,7,17,18)            0.6753         estimate D2E/DX2                !
 ! D29   D(7,8,9,10)            -6.0682         estimate D2E/DX2                !
 ! D30   D(7,8,9,14)           176.6083         estimate D2E/DX2                !
 ! D31   D(15,8,9,10)          170.8383         estimate D2E/DX2                !
 ! D32   D(15,8,9,14)           -6.4851         estimate D2E/DX2                !
 ! D33   D(8,9,10,11)           10.5443         estimate D2E/DX2                !
 ! D34   D(8,9,10,13)          171.1489         estimate D2E/DX2                !
 ! D35   D(14,9,10,11)        -172.0937         estimate D2E/DX2                !
 ! D36   D(14,9,10,13)         -11.4891         estimate D2E/DX2                !
 ! D37   D(9,10,11,6)           -8.837          estimate D2E/DX2                !
 ! D38   D(9,10,11,12)         173.9976         estimate D2E/DX2                !
 ! D39   D(13,10,11,6)        -169.374          estimate D2E/DX2                !
 ! D40   D(13,10,11,12)         13.4606         estimate D2E/DX2                !
 ! D41   D(5,16,17,7)            1.8787         estimate D2E/DX2                !
 ! D42   D(5,16,17,18)         178.7309         estimate D2E/DX2                !
 ! D43   D(7,17,18,19)          -6.6926         estimate D2E/DX2                !
 ! D44   D(7,17,18,20)         176.3687         estimate D2E/DX2                !
 ! D45   D(16,17,18,19)        176.997          estimate D2E/DX2                !
 ! D46   D(16,17,18,20)          0.0582         estimate D2E/DX2                !
 ! D47   D(17,18,20,21)          2.0047         estimate D2E/DX2                !
 ! D48   D(17,18,20,22)       -173.1659         estimate D2E/DX2                !
 ! D49   D(19,18,20,21)       -174.9935         estimate D2E/DX2                !
 ! D50   D(19,18,20,22)          9.836          estimate D2E/DX2                !
 ! D51   D(18,20,22,23)        -78.9341         estimate D2E/DX2                !
 ! D52   D(18,20,22,26)         43.4564         estimate D2E/DX2                !
 ! D53   D(18,20,22,27)        150.0056         estimate D2E/DX2                !
 ! D54   D(21,20,22,23)        105.6474         estimate D2E/DX2                !
 ! D55   D(21,20,22,26)       -131.9621         estimate D2E/DX2                !
 ! D56   D(21,20,22,27)        -25.4129         estimate D2E/DX2                !
 ! D57   D(20,22,23,24)         23.2931         estimate D2E/DX2                !
 ! D58   D(20,22,23,25)        144.51           estimate D2E/DX2                !
 ! D59   D(20,22,23,41)        -95.5545         estimate D2E/DX2                !
 ! D60   D(26,22,23,24)        -96.1297         estimate D2E/DX2                !
 ! D61   D(26,22,23,25)         25.0872         estimate D2E/DX2                !
 ! D62   D(26,22,23,41)        145.0227         estimate D2E/DX2                !
 ! D63   D(27,22,23,24)        154.9106         estimate D2E/DX2                !
 ! D64   D(27,22,23,25)        -83.8725         estimate D2E/DX2                !
 ! D65   D(27,22,23,41)         36.063          estimate D2E/DX2                !
 ! D66   D(20,22,27,28)        -33.1031         estimate D2E/DX2                !
 ! D67   D(20,22,27,29)       -142.9325         estimate D2E/DX2                !
 ! D68   D(20,22,27,30)        101.4586         estimate D2E/DX2                !
 ! D69   D(23,22,27,28)       -165.7181         estimate D2E/DX2                !
 ! D70   D(23,22,27,29)         84.4525         estimate D2E/DX2                !
 ! D71   D(23,22,27,30)        -31.1564         estimate D2E/DX2                !
 ! D72   D(26,22,27,28)         77.6879         estimate D2E/DX2                !
 ! D73   D(26,22,27,29)        -32.1415         estimate D2E/DX2                !
 ! D74   D(26,22,27,30)       -147.7504         estimate D2E/DX2                !
 ! D75   D(22,23,41,38)         69.4315         estimate D2E/DX2                !
 ! D76   D(22,23,41,42)       -173.7391         estimate D2E/DX2                !
 ! D77   D(22,23,41,43)        -50.1417         estimate D2E/DX2                !
 ! D78   D(24,23,41,38)        -55.0511         estimate D2E/DX2                !
 ! D79   D(24,23,41,42)         61.7783         estimate D2E/DX2                !
 ! D80   D(24,23,41,43)       -174.6242         estimate D2E/DX2                !
 ! D81   D(25,23,41,38)       -165.4724         estimate D2E/DX2                !
 ! D82   D(25,23,41,42)        -48.643          estimate D2E/DX2                !
 ! D83   D(25,23,41,43)         74.9545         estimate D2E/DX2                !
 ! D84   D(22,27,30,31)        162.6488         estimate D2E/DX2                !
 ! D85   D(22,27,30,32)        -80.4493         estimate D2E/DX2                !
 ! D86   D(22,27,30,43)         41.7838         estimate D2E/DX2                !
 ! D87   D(28,27,30,31)        -63.2739         estimate D2E/DX2                !
 ! D88   D(28,27,30,32)         53.628          estimate D2E/DX2                !
 ! D89   D(28,27,30,43)        175.8611         estimate D2E/DX2                !
 ! D90   D(29,27,30,31)         47.5515         estimate D2E/DX2                !
 ! D91   D(29,27,30,32)        164.4534         estimate D2E/DX2                !
 ! D92   D(29,27,30,43)        -73.3135         estimate D2E/DX2                !
 ! D93   D(27,30,32,33)        -63.1444         estimate D2E/DX2                !
 ! D94   D(27,30,32,34)       -176.0814         estimate D2E/DX2                !
 ! D95   D(27,30,32,35)         73.7066         estimate D2E/DX2                !
 ! D96   D(31,30,32,33)         56.6494         estimate D2E/DX2                !
 ! D97   D(31,30,32,34)        -56.2876         estimate D2E/DX2                !
 ! D98   D(31,30,32,35)       -166.4996         estimate D2E/DX2                !
 ! D99   D(43,30,32,33)        173.3944         estimate D2E/DX2                !
 ! D100  D(43,30,32,34)         60.4575         estimate D2E/DX2                !
 ! D101  D(43,30,32,35)        -49.7545         estimate D2E/DX2                !
 ! D102  D(27,30,43,41)        -56.6801         estimate D2E/DX2                !
 ! D103  D(27,30,43,44)         82.8934         estimate D2E/DX2                !
 ! D104  D(27,30,43,48)       -165.9625         estimate D2E/DX2                !
 ! D105  D(31,30,43,41)       -179.4324         estimate D2E/DX2                !
 ! D106  D(31,30,43,44)        -39.8589         estimate D2E/DX2                !
 ! D107  D(31,30,43,48)         71.2852         estimate D2E/DX2                !
 ! D108  D(32,30,43,41)         64.6097         estimate D2E/DX2                !
 ! D109  D(32,30,43,44)       -155.8168         estimate D2E/DX2                !
 ! D110  D(32,30,43,48)        -44.6727         estimate D2E/DX2                !
 ! D111  D(30,32,35,36)        -81.5217         estimate D2E/DX2                !
 ! D112  D(30,32,35,37)        154.3677         estimate D2E/DX2                !
 ! D113  D(30,32,35,38)         32.0457         estimate D2E/DX2                !
 ! D114  D(33,32,35,36)         52.7615         estimate D2E/DX2                !
 ! D115  D(33,32,35,37)        -71.3491         estimate D2E/DX2                !
 ! D116  D(33,32,35,38)        166.3289         estimate D2E/DX2                !
 ! D117  D(34,32,35,36)        173.7796         estimate D2E/DX2                !
 ! D118  D(34,32,35,37)         49.669          estimate D2E/DX2                !
 ! D119  D(34,32,35,38)        -72.653          estimate D2E/DX2                !
 ! D120  D(32,35,38,39)       -167.2863         estimate D2E/DX2                !
 ! D121  D(32,35,38,40)         80.1878         estimate D2E/DX2                !
 ! D122  D(32,35,38,41)        -27.3891         estimate D2E/DX2                !
 ! D123  D(36,35,38,39)        -50.4032         estimate D2E/DX2                !
 ! D124  D(36,35,38,40)       -162.9292         estimate D2E/DX2                !
 ! D125  D(36,35,38,41)         89.4939         estimate D2E/DX2                !
 ! D126  D(37,35,38,39)         70.1875         estimate D2E/DX2                !
 ! D127  D(37,35,38,40)        -42.3384         estimate D2E/DX2                !
 ! D128  D(37,35,38,41)       -149.9154         estimate D2E/DX2                !
 ! D129  D(35,38,41,23)        -81.2031         estimate D2E/DX2                !
 ! D130  D(35,38,41,42)        152.2004         estimate D2E/DX2                !
 ! D131  D(35,38,41,43)         39.1297         estimate D2E/DX2                !
 ! D132  D(39,38,41,23)         57.8123         estimate D2E/DX2                !
 ! D133  D(39,38,41,42)        -68.7842         estimate D2E/DX2                !
 ! D134  D(39,38,41,43)        178.1451         estimate D2E/DX2                !
 ! D135  D(40,38,41,23)        171.0067         estimate D2E/DX2                !
 ! D136  D(40,38,41,42)         44.4101         estimate D2E/DX2                !
 ! D137  D(40,38,41,43)        -68.6605         estimate D2E/DX2                !
 ! D138  D(23,41,43,30)         61.7089         estimate D2E/DX2                !
 ! D139  D(23,41,43,44)        -80.3577         estimate D2E/DX2                !
 ! D140  D(23,41,43,48)        170.683          estimate D2E/DX2                !
 ! D141  D(38,41,43,30)        -58.5724         estimate D2E/DX2                !
 ! D142  D(38,41,43,44)        159.361          estimate D2E/DX2                !
 ! D143  D(38,41,43,48)         50.4016         estimate D2E/DX2                !
 ! D144  D(42,41,43,30)       -168.3373         estimate D2E/DX2                !
 ! D145  D(42,41,43,44)         49.5961         estimate D2E/DX2                !
 ! D146  D(42,41,43,48)        -59.3633         estimate D2E/DX2                !
 ! D147  D(30,43,44,45)        156.3814         estimate D2E/DX2                !
 ! D148  D(30,43,44,46)         38.329          estimate D2E/DX2                !
 ! D149  D(30,43,44,47)        -87.2569         estimate D2E/DX2                !
 ! D150  D(41,43,44,45)        -64.0563         estimate D2E/DX2                !
 ! D151  D(41,43,44,46)        177.8913         estimate D2E/DX2                !
 ! D152  D(41,43,44,47)         52.3055         estimate D2E/DX2                !
 ! D153  D(48,43,44,45)         45.2251         estimate D2E/DX2                !
 ! D154  D(48,43,44,46)        -72.8273         estimate D2E/DX2                !
 ! D155  D(48,43,44,47)        161.5869         estimate D2E/DX2                !
 --------------------------------------------------------------------------------
 Trust Radius=3.00D-01 FncErr=1.00D-07 GrdErr=1.00D-06 EigMax=2.50D+02 EigMin=1.00D-04
 Number of steps in this run=    288 maximum allowed number of steps=    288.
 GradGradGradGradGradGradGradGradGradGradGradGradGradGradGradGradGradGrad

 Leave Link  103 at Sun Jul 11 16:07:40 2021, MaxMem=   104857600 cpu:               0.1 elap:               0.0
 (Enter /prod/apps/gaussian/g16b1/l202.exe)
                          Input orientation:                          
 ---------------------------------------------------------------------
 Center     Atomic      Atomic             Coordinates (Angstroms)
 Number     Number       Type             X           Y           Z
 ---------------------------------------------------------------------
      1          6           0        3.244000   -0.743000   -3.517000
      2          1           0        3.130000   -0.813000   -4.602000
      3          1           0        2.724000   -1.641000   -3.174000
      4          1           0        4.267000   -0.613000   -3.156000
      5          7           0        2.378000    0.324000   -2.992000
      6          6           0        2.163000    1.560000   -3.442000
      7          6           0        1.080000    2.021000   -2.819000
      8          6           0        0.574000    3.278000   -3.154000
      9          6           0        1.254000    3.991000   -4.157000
     10          6           0        2.460000    3.529000   -4.710000
     11          6           0        2.873000    2.253000   -4.420000
     12          1           0        3.747000    1.821000   -4.901000
     13          1           0        2.870000    4.037000   -5.579000
     14          1           0        0.868000    4.950000   -4.493000
     15          1           0       -0.279000    3.654000   -2.595000
     16          7           0        1.513000   -0.056000   -1.981000
     17          6           0        0.688000    1.037000   -1.837000
     18          6           0       -0.451000    1.160000   -0.896000
     19          8           0       -1.151000    2.183000   -0.748000
     20          7           0       -0.609000    0.020000   -0.144000
     21          1           0        0.018000   -0.766000   -0.233000
     22          6           0       -1.750000   -0.160000    0.749000
     23          6           0       -1.648000    0.592000    2.134000
     24          1           0       -0.972000    1.450000    2.118000
     25          1           0       -2.605000    0.972000    2.498000
     26          1           0       -2.618000    0.188000    0.182000
     27          6           0       -2.161000   -1.622000    0.917000
     28          1           0       -1.993000   -2.204000    0.009000
     29          1           0       -3.251000   -1.584000    0.972000
     30          6           0       -1.727000   -2.353000    2.196000
     31          1           0       -2.316000   -3.261000    2.350000
     32          6           0       -0.273000   -2.799000    2.034000
     33          1           0       -0.180000   -3.515000    1.215000
     34          1           0       -0.217000   -3.333000    2.985000
     35          6           0        0.801000   -1.717000    2.121000
     36          1           0        0.866000   -1.221000    1.151000
     37          1           0        1.742000   -2.167000    2.444000
     38          6           0        0.454000   -0.567000    3.060000
     39          1           0        1.110000    0.300000    2.956000
     40          1           0        0.704000   -1.011000    4.025000
     41          6           0       -1.121000   -0.245000    3.287000
     42          1           0       -1.126000    0.189000    4.290000
     43          7           0       -1.868000   -1.537000    3.362000
     44          6           0       -3.113000   -1.434000    3.994000
     45          1           0       -2.798000   -1.151000    5.002000
     46          1           0       -3.676000   -2.371000    4.017000
     47          1           0       -3.626000   -0.618000    3.481000
     48          1           0       -1.338000   -2.051000    4.037000
 ---------------------------------------------------------------------
                    Distance matrix (angstroms):
                    1          2          3          4          5
     1  C    0.000000
     2  H    1.093216   0.000000
     3  H    1.092910   1.699884   0.000000
     4  H    1.092589   1.850320   1.854173   0.000000
     5  N    1.471078   2.109591   2.003513   2.114991   0.000000
     6  C    2.545191   2.812795   3.260820   3.038181   1.332824
     7  C    3.579078   3.925958   4.029765   4.148312   2.143488
     8  C    4.840363   5.036479   5.368376   5.364526   3.465080
     9  C    5.174984   5.176468   5.903102   5.592583   4.008427
    10  C    4.504208   4.394716   5.399805   4.778737   3.637344
    11  C    3.151042   3.082131   4.091204   3.428540   2.450561
    12  H    2.956782   2.721773   4.001812   3.039701   2.785579
    13  H    5.219207   4.954254   6.168065   5.426328   4.552033
    14  H    6.245655   6.191986   6.973219   6.654903   5.092443
    15  H    5.709223   5.966860   6.114759   6.260042   4.278570
    16  N    2.414048   3.171337   2.324219   3.045552   1.383743
    17  C    3.538917   4.126874   3.620021   4.155900   2.167601
    18  C    4.913662   5.518218   4.807859   5.523645   3.618750
    19  O    5.961951   6.492788   5.960208   6.555212   4.576599
    20  N    5.177346   5.877735   4.800907   5.766126   4.138320
    21  H    4.603505   5.364225   4.091154   5.159587   3.790749
    22  C    6.593837   7.271452   6.131881   7.187386   5.591934
    23  C    7.592608   8.377172   7.230182   8.026416   6.523525
    24  H    7.371372   8.191824   7.156812   7.714802   6.213089
    25  H    8.563425   9.299809   8.209604   9.039044   7.442466
    26  H    6.993740   7.545075   6.568481   7.693313   5.920540
    27  C    7.046064   7.688207   6.371802   7.676366   6.298390
    28  H    6.480229   7.031453   5.718264   7.192782   5.873877
    29  H    7.939989   8.507707   7.272770   8.631544   7.144187
    30  C    7.742177   8.495578   7.011080   8.221894   7.136715
    31  H    8.466145   9.164165   7.651181   8.981304   7.963845
    32  C    6.885494   7.717584   6.119333   7.233692   6.483950
    33  H    6.465260   7.217645   5.586449   6.877722   6.243407
    34  H    7.807857   8.666913   7.031758   8.075676   7.472095
    35  C    6.221251   7.172181   5.633891   6.409267   5.726725
    36  H    5.260570   6.195899   4.725906   5.521478   4.673074
    37  H    6.310095   7.307939   5.727384   6.336445   6.013291
    38  C    7.146468   8.119590   6.720798   7.292444   6.412672
    39  H    6.895037   7.902059   6.629433   6.939507   6.081702
    40  H    7.962737   8.963805   7.503526   8.026215   7.336402
    41  C    8.099114   8.979418   7.647049   8.407034   7.210590
    42  H    8.995264   9.908845   8.595504   9.228790   8.082312
    43  N    8.607184   9.430243   7.988528   8.998685   7.865440
    44  C    9.864282  10.641988   9.246277  10.308295   9.057916
    45  H   10.452061  11.291246   9.878237  10.805398   9.636941
    46  H   10.358472  11.092167   9.654190  10.845909   9.645726
    47  H    9.807371  10.536434   9.255164  10.312577   8.878914
    48  H    8.931322   9.804488   8.286523   9.231637   8.297959
                    6          7          8          9         10
     6  C    0.000000
     7  C    1.331743   0.000000
     8  C    2.357836   1.395819   0.000000
     9  C    2.692075   2.387765   1.405979   0.000000
    10  C    2.360719   2.784662   2.457872   1.404880   0.000000
    11  C    1.393138   2.414927   2.817584   2.389764   1.372168
    12  H    2.169299   3.389338   3.904201   3.387844   2.147118
    13  H    3.346961   3.858232   3.424664   2.153057   1.086888
    14  H    3.778058   3.380275   2.162161   1.087002   2.144946
    15  H    3.326501   2.136293   1.086953   2.214385   3.462798
    16  N    2.273428   2.281154   3.656939   4.602202   4.603963
    17  C    2.241691   1.444384   2.601839   3.798536   4.195733
    18  C    3.670846   2.604460   3.261152   4.642812   5.350951
    19  O    4.316059   3.048384   3.156499   4.546886   5.527068
    20  N    4.575193   3.743307   4.590659   5.945063   6.525350
    21  H    4.506549   3.947481   5.019493   6.289239   6.667377
    22  C    5.986188   5.049385   5.696861   7.093917   7.818792
    23  C    6.822941   5.832344   6.333626   7.716961   8.505408
    24  H    6.383880   5.376868   5.790137   7.126527   7.919751
    25  H    7.639579   6.553634   6.882498   8.264095   9.173208
    26  H    6.154163   5.103048   5.555705   6.948533   7.802566
    27  C    6.915416   6.142738   6.932768   8.301414   8.919057
    28  H    6.584029   5.940668   6.829816   8.141044   8.658260
    29  H    7.660256   6.791559   7.435963   8.813756   9.541667
    30  C    7.888645   7.222281   8.100942   9.460090   9.991082
    31  H    8.766456   8.133320   9.022452  10.376775  10.897609
    32  C    7.410908   6.972418   8.035091   9.314736   9.643361
    33  H    7.275502   6.964772   8.111814   9.341026   9.575655
    34  H    8.420937   8.002121   9.056397  10.335037  10.652061
    35  C    6.598541   6.201136   7.268231   8.497044   8.771280
    36  H    5.523750   5.130035   6.233722   7.449185   7.710685
    37  H    6.979453   6.758458   7.896192   9.040592   9.172767
    38  C    7.051299   6.453856   7.308367   8.573241   9.009670
    39  H    6.605362   6.026057   6.818202   8.014923   8.427129
    40  H    8.030866   7.494981   8.363639   9.605604   9.999768
    41  C    7.702086   6.874765   7.534656   8.888051   9.540369
    42  H    8.513577   7.665542   8.236811   9.564069  10.247682
    43  N    8.493220   7.717178   8.462024   9.840784  10.466763
    44  C    9.596578   8.714083   9.321524  10.721013  11.465135
    45  H   10.161800   9.288084   9.874551  11.258159  11.994662
    46  H   10.255894   9.414887  10.069605  11.471452  12.191022
    47  H    9.283541   8.294622   8.765959  10.168398  11.014966
    48  H    9.012867   8.332625   9.152293  10.505516  11.048584
                   11         12         13         14         15
    11  C    0.000000
    12  H    1.087134   0.000000
    13  H    2.127427   2.477795   0.000000
    14  H    3.361423   4.271504   2.453766   0.000000
    15  H    3.902375   4.988607   4.355129   2.568585   0.000000
    16  N    3.623507   4.127988   5.616022   5.637926   4.165616
    17  C    3.595104   4.400026   5.269126   4.732685   2.891080
    18  C    4.966105   5.839533   6.421578   5.389088   3.022618
    19  O    5.448033   6.431863   6.553191   5.075202   2.517069
    20  N    5.949352   6.696819   7.601247   6.737969   4.395709
    21  H    5.898844   6.510625   7.731910   7.179328   5.020324
    22  C    7.342565   8.127968   8.888352   7.774612   5.281361
    23  C    8.133467   8.950290   9.579703   8.321031   5.797710
    24  H    7.627206   8.465989   8.983170   7.703306   5.248832
    25  H    8.916735   9.788458  10.227794   8.761295   6.208224
    26  H    7.456119   8.307635   8.838669   7.528909   5.019542
    27  C    8.297008   8.978187   9.976636   9.035160   6.611524
    28  H    7.947254   8.558991   9.686310   8.923735   6.635870
    29  H    9.016630   9.749777  10.581960   9.461794   6.999494
    30  C    9.281524   9.887081  11.064137  10.237703   7.818851
    31  H   10.156910  10.731435  11.959283  11.152804   8.741832
    32  C    8.779188   9.251974  10.703603  10.195617   7.941592
    33  H    8.622288   9.016634  10.606302  10.263323   8.119142
    34  H    9.776785  10.220861  11.712752  11.211860   8.941947
    35  C    7.927091   8.396716   9.832562   9.391399   7.228741
    36  H    6.865331   7.360749   8.772427   8.362774   6.253732
    37  H    8.241969   8.594952  10.204437   9.976850   7.959900
    38  C    8.351908   8.940018  10.082965   9.362505   7.094586
    39  H    7.831204   8.426130   9.482035   8.784570   6.632664
    40  H    9.310010   9.846499  11.063936  10.397920   8.157997
    41  C    9.032712   9.747262  10.624009   9.564128   7.106975
    42  H    9.803887  10.530149  11.321320  10.187455   7.754151
    43  N    9.869180  10.539524  11.552472  10.548360   8.059606
    44  C   10.964559  11.695112  12.544738  11.341648   8.793988
    45  H   11.511800  12.236798  13.076664  11.866625   9.335298
    46  H   11.638460  12.337119  13.266341  12.110536   9.568635
    47  H   10.625697  11.426626  12.081003  10.713699   8.146789
    48  H   10.381608  10.988060  12.134186  11.253503   8.812033
                   16         17         18         19         20
    16  N    0.000000
    17  C    1.376957   0.000000
    18  C    2.552093   1.482542   0.000000
    19  O    3.691924   2.425110   1.248372   0.000000
    20  N    2.807709   2.362784   1.374797   2.310227   0.000000
    21  H    2.407204   2.504501   2.090217   3.213781   1.009379
    22  C    4.255689   3.750207   2.477060   2.844197   1.460045
    23  C    5.229249   4.628581   3.307013   3.329296   2.568266
    24  H    5.024446   4.309083   3.072415   2.963661   2.700613
    25  H    6.170587   5.444290   4.024214   3.757280   3.445357
    26  H    4.669397   3.965703   2.608210   2.645187   2.042200
    27  C    4.934474   4.771960   3.735049   4.274383   2.496115
    28  H    4.567936   4.593426   3.809631   4.530760   2.623936
    29  H    5.809534   5.502349   4.342690   4.643134   3.286097
    30  C    5.763778   5.795637   4.850753   5.438217   3.515203
    31  H    6.609904   6.710275   5.793098   6.371182   4.460812
    32  C    5.180161   5.533810   4.928515   5.773277   3.578176
    33  H    5.004533   5.548769   5.136671   6.104377   3.811449
    34  H    6.196191   6.570206   5.941714   6.725615   4.602925
    35  C    4.482440   4.823178   4.352806   5.220294   3.183629
    36  H    3.403712   3.749452   3.404976   4.388816   2.322225
    37  H    4.908094   5.450091   5.199402   6.122158   4.124065
    38  C    5.176319   5.158312   4.410384   4.963808   3.426391
    39  H    4.966197   4.867659   4.244317   4.730478   3.555750
    40  H    6.135026   6.209477   5.501228   6.035246   4.490823
    41  C    5.892835   5.583134   4.463229   4.709279   3.479099
    42  H    6.808068   6.445916   5.319122   5.418312   4.467237
    43  N    6.494010   6.339417   5.235672   5.589686   4.037495
    44  C    7.681106   7.386068   6.142246   6.278431   5.050463
    45  H    8.279253   7.981946   6.755408   6.847676   5.713517
    46  H    8.262019   8.057808   6.856103   7.058312   5.695375
    47  H    7.520546   7.044909   5.692103   5.644082   4.759197
    48  H    6.951586   6.938609   5.952460   6.392022   4.722419
                   21         22         23         24         25
    21  H    0.000000
    22  C    2.111252   0.000000
    23  C    3.197250   1.579282   0.000000
    24  H    3.379047   2.252009   1.092427   0.000000
    25  H    4.166429   2.251988   1.092129   1.743437   0.000000
    26  H    2.833873   1.093626   2.216849   2.837262   2.445134
    27  C    2.608309   1.527936   2.577994   3.506181   3.070103
    28  H    2.484055   2.187369   3.528777   4.340742   4.081255
    29  H    3.578758   2.080987   2.941909   3.963876   3.046166
    30  C    3.385799   2.627468   2.946712   3.878004   3.452204
    31  H    4.283044   3.535500   3.916438   4.904455   4.245434
    32  C    3.058931   3.285890   3.660534   4.306931   4.458022
    33  H    3.113344   3.733374   4.457245   5.108219   5.259266
    34  H    4.123134   4.173453   4.263518   4.919228   4.946993
    35  C    2.656841   3.288500   3.365895   3.629522   4.355879
    36  H    1.685700   2.851452   3.251685   3.383426   4.321053
    37  H    3.478693   4.369798   4.381813   4.533736   5.362149
    38  C    3.327694   3.219315   2.572773   2.643696   3.470136
    39  H    3.535328   3.641710   2.892665   2.521799   3.802969
    40  H    4.319859   4.180729   3.417220   3.535837   4.148915
    41  C    3.736196   2.616163   1.519114   2.064410   2.075058
    42  H    4.762173   3.612459   2.254602   2.516232   2.451896
    43  N    4.132247   2.955981   2.467595   3.357458   2.754042
    44  C    5.302538   3.743110   3.116168   4.052248   2.878353
    45  H    5.956787   4.490924   3.547671   4.291495   3.288525
    46  H    5.855268   4.390652   4.054361   5.051520   3.824925
    47  H    5.205232   3.345589   2.681603   3.630167   2.129984
    48  H    4.660779   3.815307   3.271538   4.009179   3.621096
                   26         27         28         29         30
    26  H    0.000000
    27  C    2.006284   0.000000
    28  H    2.478350   1.091518   0.000000
    29  H    2.040778   1.092048   1.701274   0.000000
    30  C    3.362552   1.535760   2.208150   2.100503   0.000000
    31  H    4.084976   2.182621   2.588795   2.363353   1.093207
    32  C    4.225056   2.489490   2.722692   3.387116   1.529469
    33  H    4.552268   2.756196   2.541678   3.635774   2.169289
    34  H    5.100887   3.314103   3.644913   4.039347   1.965457
    35  C    4.367872   3.198763   3.536121   4.213857   2.607854
    36  H    3.881043   3.062399   3.231769   4.136847   3.016140
    37  H    5.447226   4.226365   4.458791   5.238007   3.482824
    38  C    4.276692   3.541708   4.239832   4.372763   2.948398
    39  H    4.648183   4.307093   4.958168   5.148207   3.957850
    40  H    5.219381   4.270973   4.982501   5.029032   3.325051
    41  C    3.474122   2.931660   3.917059   3.418925   2.449731
    42  H    4.370552   3.965864   4.980472   4.320680   3.347805
    43  N    3.694662   2.463960   3.420983   2.761702   1.430137
    44  C    4.172200   3.226388   4.210407   3.028866   2.449155
    45  H    5.005769   4.161110   5.165935   4.078431   3.235040
    46  H    4.730229   3.530754   4.350223   3.173644   2.667389
    47  H    3.542471   3.119028   4.151731   2.714565   2.875352
    48  H    4.638162   3.255114   4.083775   3.643060   1.905730
                   31         32         33         34         35
    31  H    0.000000
    32  C    2.118289   0.000000
    33  H    2.432126   1.091818   0.000000
    34  H    2.194131   1.092105   1.779717   0.000000
    35  C    3.485981   1.527013   2.239643   2.096253   0.000000
    36  H    3.965391   2.137076   2.522033   2.999498   1.091394
    37  H    4.203931   2.151220   2.649836   2.343057   1.091929
    38  C    3.928694   2.561841   3.535065   2.847213   1.524674
    39  H    4.978497   3.516614   4.387415   3.867875   2.204766
    40  H    4.121714   2.848781   3.866209   2.705832   2.032993
    41  C    3.376722   2.968506   3.983913   3.231743   2.687085
    42  H    4.133062   3.839960   4.906135   3.864426   3.471416
    43  N    2.048664   2.429044   3.372156   2.468511   2.948905
    44  C    2.583771   3.710852   4.544875   3.607090   4.348289
    45  H    3.423087   4.230905   5.175306   3.935857   4.644709
    46  H    2.328216   3.961803   4.624063   3.735659   4.905717
    47  H    3.159226   4.253608   5.040068   4.386174   4.759804
    48  H    2.294897   2.388669   3.383481   2.001717   2.891009
                   36         37         38         39         40
    36  H    0.000000
    37  H    1.825963   0.000000
    38  C    2.059549   2.144388   0.000000
    39  H    2.372973   2.597625   1.092173   0.000000
    40  H    2.886212   2.216606   1.091266   1.739632   0.000000
    41  C    3.076238   3.549859   1.623526   2.320333   2.112351
    42  H    3.976114   4.145344   2.140289   2.606065   2.204342
    43  N    3.530316   3.777794   2.534519   3.522483   2.707661
    44  C    4.894942   5.148865   3.787814   4.681659   3.840492
    45  H    5.316013   5.309164   3.832483   4.643703   3.638425
    46  H    5.492378   5.645411   4.607295   5.582630   4.586291
    47  H    5.096133   5.682446   4.101980   4.852633   4.381699
    48  H    3.724985   3.469511   2.523499   3.562087   2.291617
                   41         42         43         44         45
    41  C    0.000000
    42  H    1.092882   0.000000
    43  N    1.494288   2.095429   0.000000
    44  C    2.425208   2.582618   1.400021   0.000000
    45  H    2.564057   2.257903   1.924447   1.093333   0.000000
    46  H    3.403058   3.623621   2.096055   1.093374   1.797083
    47  H    2.540037   2.748769   1.987281   1.091876   1.811937
    48  H    1.967543   2.264189   1.000360   1.879671   1.967949
                   46         47         48
    46  H    0.000000
    47  H    1.833795   0.000000
    48  H    2.359882   2.756369   0.000000
 Stoichiometry    C18H25N4O(1+)
 Framework group  C1[X(C18H25N4O)]
 Deg. of freedom   138
 Full point group                 C1      NOp   1
 Largest Abelian subgroup         C1      NOp   1
 Largest concise Abelian subgroup C1      NOp   1
                         Standard orientation:                         
 ---------------------------------------------------------------------
 Center     Atomic      Atomic             Coordinates (Angstroms)
 Number     Number       Type             X           Y           Z
 ---------------------------------------------------------------------
      1          6           0       -3.469068    2.999999   -0.357151
      2          1           0       -4.253355    3.062868   -1.116138
      3          1           0       -2.589365    3.341475   -0.908486
      4          1           0       -3.677377    3.516890    0.582626
      5          7           0       -3.134135    1.590618   -0.101150
      6          6           0       -3.927016    0.532872    0.068955
      7          6           0       -3.162217   -0.551834   -0.040736
      8          6           0       -3.747393   -1.817604    0.020134
      9          6           0       -5.142061   -1.866285    0.191330
     10          6           0       -5.903653   -0.708544    0.422206
     11          6           0       -5.306166    0.516694    0.265208
     12          1           0       -5.880467    1.436824    0.338694
     13          1           0       -6.988108   -0.778676    0.403169
     14          1           0       -5.652506   -2.825981    0.189441
     15          1           0       -3.096178   -2.686997   -0.019135
     16          7           0       -1.795604    1.264709   -0.231005
     17          6           0       -1.792512   -0.110680   -0.165383
     18          6           0       -0.606422   -0.992891   -0.278628
     19          8           0       -0.624050   -2.235732   -0.162579
     20          7           0        0.546207   -0.266681   -0.463385
     21          1           0        0.541055    0.742548   -0.480009
     22          6           0        1.824250   -0.912289   -0.748911
     23          6           0        2.561384   -1.532347    0.502605
     24          1           0        1.891796   -1.768925    1.332712
     25          1           0        3.100492   -2.455851    0.280686
     26          1           0        1.598054   -1.685904   -1.488082
     27          6           0        2.758480   -0.053064   -1.599520
     28          1           0        2.212158    0.570162   -2.309825
     29          1           0        3.254886   -0.772931   -2.253692
     30          6           0        3.901218    0.690565   -0.892608
     31          1           0        4.664505    1.010350   -1.606913
     32          6           0        3.337190    1.963085   -0.258700
     33          1           0        2.951108    2.636093   -1.026858
     34          1           0        4.297526    2.340689    0.098881
     35          6           0        2.482773    1.796282    0.995859
     36          1           0        1.471486    1.525670    0.687298
     37          1           0        2.526969    2.712850    1.587687
     38          6           0        2.888409    0.618821    1.875446
     39          1           0        2.153574    0.369220    2.643923
     40          1           0        3.738034    1.047959    2.409150
     41          6           0        3.609103   -0.638836    1.144189
     42          1           0        4.224037   -1.052024    1.947633
     43          7           0        4.541343   -0.115751    0.100059
     44          6           0        5.535733   -1.026313   -0.276935
     45          1           0        6.081422   -1.121597    0.665679
     46          1           0        6.195990   -0.658008   -1.066795
     47          1           0        5.000115   -1.942270   -0.534481
     48          1           0        5.069678    0.565362    0.607669
 ---------------------------------------------------------------------
 Rotational constants (GHZ):           0.6485008           0.1253524           0.1133169
 Leave Link  202 at Sun Jul 11 16:07:40 2021, MaxMem=   104857600 cpu:               0.1 elap:               0.0
 (Enter /prod/apps/gaussian/g16b1/l301.exe)
 Standard basis: 6-31G(d) (6D, 7F)
 Ernie: Thresh=  0.10000D-02 Tol=  0.10000D-05 Strict=F.
 There are   395 symmetry adapted cartesian basis functions of A   symmetry.
 There are   395 symmetry adapted basis functions of A   symmetry.
   395 basis functions,   744 primitive gaussians,   395 cartesian basis functions
    84 alpha electrons       84 beta electrons
       nuclear repulsion energy      1985.0842404883 Hartrees.
 IExCor=  402 DFT=T Ex+Corr=B3LYP ExCW=0 ScaHFX=  0.200000
 ScaDFX=  0.800000  0.720000  1.000000  0.810000 ScalE2=  1.000000  1.000000
 IRadAn=      5 IRanWt=     -1 IRanGd=            0 ICorTp=0 IEmpDi=  4
 NAtoms=   48 NActive=   48 NUniq=   48 SFac= 1.00D+00 NAtFMM=   60 NAOKFM=F Big=F
 Integral buffers will be    131072 words long.
 Raffenetti 2 integral format.
 Two-electron integral symmetry is turned on.
 Using the following non-standard input for PCM:
 MSTModel=DFT cav MSTCharged
 --- end of non-standard input.
 MST model for solvation energy: B3LYP parametrization.
 MST cavity parameters:
 ISph   IAn     Re0     Alpha   Atom Type   QCorr
 ------------------------------------------------
   1      6     1.50     1.25      CH3        F
   2      1     1.20     1.25      CH3        F
   3      1     1.20     1.25      CH3        F
   4      1     1.20     1.25      CH3        F
   5      7     1.40     1.25      N          F
   6      6     1.50     1.25      C          F
   7      6     1.50     1.25      C          F
   8      6     1.50     1.25      CH         F
   9      6     1.50     1.25      CH         F
  10      6     1.50     1.25      CH         F
  11      6     1.50     1.25      CH         F
  12      1     1.20     1.25      CH         F
  13      1     1.20     1.25      CH         F
  14      1     1.20     1.25      CH         F
  15      1     1.20     1.25      CH         F
  16      7     1.40     1.25      N          F
  17      6     1.50     1.25      C          F
  18      6     1.50     1.25      C          F
  19      8     1.40     1.25      O          F
  20      7     1.50     1.25      NH         F
  21      1     0.90     1.25      NH         F
  22      6     1.50     1.25      CH         F
  23      6     1.50     1.25      CH2        F
  24      1     1.20     1.25      CH2        F
  25      1     1.20     1.25      CH2        F
  26      1     1.20     1.25      CH         F
  27      6     1.50     1.25      CH2        F
  28      1     1.20     1.25      CH2        F
  29      1     1.20     1.25      CH2        F
  30      6     1.50     1.25      CH         F
  31      1     1.20     1.25      CH         F
  32      6     1.50     1.25      CH2        F
  33      1     1.20     1.25      CH2        F
  34      1     1.20     1.25      CH2        F
  35      6     1.50     1.25      CH2        F
  36      1     1.20     1.25      CH2        F
  37      1     1.20     1.25      CH2        F
  38      6     1.50     1.25      CH2        F
  39      1     1.20     1.25      CH2        F
  40      1     1.20     1.25      CH2        F
  41      6     1.50     1.25      CH         F
  42      1     1.20     1.25      CH         F
  43      7     1.50     1.15      NH         T
  44      6     1.50     1.25      CH3        F
  45      1     1.20     1.25      CH3        F
  46      1     1.20     1.25      CH3        F
  47      1     1.20     1.25      CH3        F
  48      1     0.90     1.15      NH         T
 ------------------------------------------------------------------------------
 Polarizable Continuum Model (PCM)
 =================================
 Model                : PCM.
 Atomic radii         : MST.
 Polarization charges : Total charges.
 Charge compensation  : None.
 Solution method      : On-the-fly selection.
 Cavity type          : Scaled VdW (van der Waals Surface) (Alpha=1.250).
 Cavity algorithm     : GePol (No added spheres)
                        Default sphere list used, NSphG=   48.
                        Lebedev-Laikov grids with approx.  5.0 points / Ang**2.
                        Smoothing algorithm: York/Karplus (Gamma=1.0000).
                        Polarization charges: spherical gaussians, with
                                              point-specific exponents (IZeta= 3).
                        Self-potential: point-specific (ISelfS= 7).
                        Self-field    : sphere-specific E.n sum rule (ISelfD= 2).
 1st derivatives      : Analytical E(r).r(x)/FMM algorithm (CHGder, D1EAlg=3).
                        Cavity 1st derivative terms included.
 Solvent              : Water, Eps=  78.355300 Eps(inf)=   1.777849
 ------------------------------------------------------------------------------
 GePol: Number of generator spheres                  =      48
 GePol: Total number of spheres                      =      48
 GePol: Number of exposed spheres                    =      48 (100.00%)
 GePol: Number of points                             =    2995
 GePol: Average weight of points                     =       0.13
 GePol: Minimum weight of points                     =   0.13D-11
 GePol: Maximum weight of points                     =    0.22001
 GePol: Number of points with low weight             =     212
 GePol: Fraction of low-weight points (<1% of avg)   =       7.08%
 GePol: Cavity surface area                          =    388.064 Ang**2
 GePol: Cavity volume                                =    389.169 Ang**3
 PCM non-electrostatic energy =         0.0041076867 Hartrees.
 Nuclear repulsion after PCM non-electrostatic terms =     1985.0883481750 Hartrees.
 Leave Link  301 at Sun Jul 11 16:07:40 2021, MaxMem=   104857600 cpu:               0.4 elap:               0.1
 (Enter /prod/apps/gaussian/g16b1/l302.exe)
 NPDir=0 NMtPBC=     1 NCelOv=     1 NCel=       1 NClECP=     1 NCelD=      1
         NCelK=      1 NCelE2=     1 NClLst=     1 CellRange=     0.0.
 One-electron integrals computed using PRISM.
 One-electron integral symmetry used in STVInt
 NBasis=   395 RedAO= T EigKep=  4.47D-04  NBF=   395
 NBsUse=   395 1.00D-06 EigRej= -1.00D+00 NBFU=   395
 Precomputing XC quadrature grid using
 IXCGrd= 4 IRadAn=           5 IRanWt=          -1 IRanGd=           0 AccXCQ= 0.00D+00.
 Generated NRdTot=       0 NPtTot=           0 NUsed=           0 NTot=          32
 NSgBfM=   391   391   391   391   391 MxSgAt=    48 MxSgA2=    48.
 Leave Link  302 at Sun Jul 11 16:07:41 2021, MaxMem=   104857600 cpu:               3.9 elap:               1.0
 (Enter /prod/apps/gaussian/g16b1/l303.exe)
 DipDrv:  MaxL=1.
 Leave Link  303 at Sun Jul 11 16:07:41 2021, MaxMem=   104857600 cpu:               0.2 elap:               0.1
 (Enter /prod/apps/gaussian/g16b1/l401.exe)
 ExpMin= 1.61D-01 ExpMax= 5.48D+03 ExpMxC= 8.25D+02 IAcc=3 IRadAn=         5 AccDes= 0.00D+00
 Harris functional with IExCor=  402 and IRadAn=       5 diagonalized for initial guess.
 HarFok:  IExCor=  402 AccDes= 0.00D+00 IRadAn=         5 IDoV= 1 UseB2=F ITyADJ=14
 ICtDFT=  3500011 ScaDFX=  1.000000  1.000000  1.000000  1.000000
 FoFCou: FMM=F IPFlag=           0 FMFlag=      100000 FMFlg1=           0
         NFxFlg=           0 DoJE=T BraDBF=F KetDBF=T FulRan=T
         wScrn=  0.000000 ICntrl=       500 IOpCl=  0 I1Cent=   200000004 NGrid=           0
         NMat0=    1 NMatS0=      1 NMatT0=    0 NMatD0=    1 NMtDS0=    0 NMtDT0=    0
 Petite list used in FoFCou.
 Harris En= -994.888972158147    
 JPrj=0 DoOrth=F DoCkMO=F.
 Leave Link  401 at Sun Jul 11 16:07:45 2021, MaxMem=   104857600 cpu:              15.4 elap:               3.9
 (Enter /prod/apps/gaussian/g16b1/l502.exe)
 Integral symmetry usage will be decided dynamically.
 Closed shell SCF:
 Using DIIS extrapolation, IDIIS=  1040.
 NGot=   104857600 LenX=   104538619 LenY=   104382153
 Requested convergence on RMS density matrix=1.00D-08 within 128 cycles.
 Requested convergence on MAX density matrix=1.00D-06.
 Requested convergence on             energy=1.00D-06.
 No special actions if energy rises.
 Fock matrices will be formed incrementally for  20 cycles.

 Cycle   1  Pass 1  IDiag  1:
 FoFJK:  IHMeth= 1 ICntrl=       0 DoSepK=F KAlg= 0 I1Cent=           0 FoldK=F
 IRaf= 740000000 NMat=       1 IRICut=       1 DoRegI=T DoRafI=F ISym2E= 0 IDoP0=0 IntGTp=1.
 FoFCou: FMM=F IPFlag=           0 FMFlag=      100000 FMFlg1=           0
         NFxFlg=           0 DoJE=F BraDBF=F KetDBF=F FulRan=T
         wScrn=  0.000000 ICntrl=         0 IOpCl=  0 I1Cent=           0 NGrid=           0
         NMat0=    1 NMatS0=      1 NMatT0=    0 NMatD0=    1 NMtDS0=    0 NMtDT0=    0
 Symmetry not used in FoFCou.
 Inv3:  Mode=1 IEnd=    26910075.
 Iteration    1 A*A^-1 deviation from unit magnitude is 3.11D-15 for   1532.
 Iteration    1 A*A^-1 deviation from orthogonality  is 2.44D-15 for   2676    567.
 Iteration    1 A^-1*A deviation from unit magnitude is 3.00D-15 for   1529.
 Iteration    1 A^-1*A deviation from orthogonality  is 1.89D-15 for   2237   2084.
 E= -994.495790045058    
 DIIS: error= 2.87D-02 at cycle   1 NSaved=   1.
 NSaved= 1 IEnMin= 1 EnMin= -994.495790045058     IErMin= 1 ErrMin= 2.87D-02
 ErrMax= 2.87D-02  0.00D+00 EMaxC= 1.00D-01 BMatC= 5.16D-01 BMatP= 5.16D-01
 IDIUse=3 WtCom= 7.13D-01 WtEn= 2.87D-01
 Coeff-Com:  0.100D+01
 Coeff-En:   0.100D+01
 Coeff:      0.100D+01
 Gap=     0.205 Goal=   None    Shift=    0.000
 GapD=    0.205 DampG=1.000 DampE=0.500 DampFc=0.5000 IDamp=-1.
 Damping current iteration by 5.00D-01
 RMSDP=4.44D-03 MaxDP=2.13D-01              OVMax= 2.55D-01

 Cycle   2  Pass 1  IDiag  1:
 RMSU=  2.19D-03    CP:  9.79D-01
 E= -994.689249909035     Delta-E=       -0.193459863977 Rises=F Damp=T
 DIIS: error= 8.36D-03 at cycle   2 NSaved=   2.
 NSaved= 2 IEnMin= 2 EnMin= -994.689249909035     IErMin= 2 ErrMin= 8.36D-03
 ErrMax= 8.36D-03  0.00D+00 EMaxC= 1.00D-01 BMatC= 6.11D-02 BMatP= 5.16D-01
 IDIUse=3 WtCom= 9.16D-01 WtEn= 8.36D-02
 Coeff-Com:  0.133D+00 0.867D+00
 Coeff-En:   0.207D+00 0.793D+00
 Coeff:      0.139D+00 0.861D+00
 Gap=     0.249 Goal=   None    Shift=    0.000
 RMSDP=1.61D-03 MaxDP=8.84D-02 DE=-1.93D-01 OVMax= 1.89D-01

 Cycle   3  Pass 1  IDiag  1:
 RMSU=  1.51D-03    CP:  9.63D-01  7.76D-01
 E= -994.950179478165     Delta-E=       -0.260929569130 Rises=F Damp=F
 DIIS: error= 1.33D-02 at cycle   3 NSaved=   3.
 NSaved= 3 IEnMin= 3 EnMin= -994.950179478165     IErMin= 2 ErrMin= 8.36D-03
 ErrMax= 1.33D-02  0.00D+00 EMaxC= 1.00D-01 BMatC= 6.02D-02 BMatP= 6.11D-02
 IDIUse=3 WtCom= 8.67D-01 WtEn= 1.33D-01
 Coeff-Com:  0.290D-02 0.497D+00 0.500D+00
 Coeff-En:   0.000D+00 0.000D+00 0.100D+01
 Coeff:      0.251D-02 0.431D+00 0.566D+00
 Gap=     0.162 Goal=   None    Shift=    0.000
 RMSDP=9.60D-04 MaxDP=7.35D-02 DE=-2.61D-01 OVMax= 1.07D-01

 Cycle   4  Pass 1  IDiag  1:
 RMSU=  5.94D-04    CP:  9.68D-01  9.39D-01  5.64D-01
 E= -994.987549733723     Delta-E=       -0.037370255558 Rises=F Damp=F
 DIIS: error= 6.86D-03 at cycle   4 NSaved=   4.
 NSaved= 4 IEnMin= 4 EnMin= -994.987549733723     IErMin= 4 ErrMin= 6.86D-03
 ErrMax= 6.86D-03  0.00D+00 EMaxC= 1.00D-01 BMatC= 1.63D-02 BMatP= 6.02D-02
 IDIUse=3 WtCom= 9.31D-01 WtEn= 6.86D-02
 Coeff-Com: -0.560D-02 0.125D+00 0.356D+00 0.525D+00
 Coeff-En:   0.000D+00 0.000D+00 0.243D+00 0.757D+00
 Coeff:     -0.521D-02 0.116D+00 0.348D+00 0.541D+00
 Gap=     0.161 Goal=   None    Shift=    0.000
 RMSDP=3.94D-04 MaxDP=3.00D-02 DE=-3.74D-02 OVMax= 4.59D-02

 Cycle   5  Pass 1  IDiag  1:
 RMSU=  1.84D-04    CP:  9.67D-01  8.76D-01  6.87D-01  5.64D-01
 E= -995.000183211512     Delta-E=       -0.012633477789 Rises=F Damp=F
 DIIS: error= 1.07D-03 at cycle   5 NSaved=   5.
 NSaved= 5 IEnMin= 5 EnMin= -995.000183211512     IErMin= 5 ErrMin= 1.07D-03
 ErrMax= 1.07D-03  0.00D+00 EMaxC= 1.00D-01 BMatC= 9.69D-04 BMatP= 1.63D-02
 IDIUse=3 WtCom= 9.89D-01 WtEn= 1.07D-02
 Coeff-Com: -0.263D-02 0.158D-01 0.135D+00 0.304D+00 0.547D+00
 Coeff-En:   0.000D+00 0.000D+00 0.000D+00 0.000D+00 0.100D+01
 Coeff:     -0.260D-02 0.156D-01 0.134D+00 0.301D+00 0.552D+00
 Gap=     0.162 Goal=   None    Shift=    0.000
 RMSDP=1.02D-04 MaxDP=7.13D-03 DE=-1.26D-02 OVMax= 1.13D-02

 Cycle   6  Pass 1  IDiag  1:
 RMSU=  4.86D-05    CP:  9.67D-01  8.83D-01  6.87D-01  6.21D-01  5.57D-01
 E= -995.000992405826     Delta-E=       -0.000809194314 Rises=F Damp=F
 DIIS: error= 2.35D-04 at cycle   6 NSaved=   6.
 NSaved= 6 IEnMin= 6 EnMin= -995.000992405826     IErMin= 6 ErrMin= 2.35D-04
 ErrMax= 2.35D-04  0.00D+00 EMaxC= 1.00D-01 BMatC= 6.71D-05 BMatP= 9.69D-04
 IDIUse=3 WtCom= 9.98D-01 WtEn= 2.35D-03
 Coeff-Com: -0.108D-02 0.221D-03 0.444D-01 0.120D+00 0.299D+00 0.538D+00
 Coeff-En:   0.000D+00 0.000D+00 0.000D+00 0.000D+00 0.000D+00 0.100D+01
 Coeff:     -0.107D-02 0.220D-03 0.443D-01 0.119D+00 0.299D+00 0.539D+00
 Gap=     0.161 Goal=   None    Shift=    0.000
 RMSDP=2.50D-05 MaxDP=1.91D-03 DE=-8.09D-04 OVMax= 2.75D-03

 Cycle   7  Pass 1  IDiag  1:
 RMSU=  1.42D-05    CP:  9.67D-01  8.84D-01  6.87D-01  6.26D-01  6.03D-01
                    CP:  6.20D-01
 E= -995.001049159923     Delta-E=       -0.000056754097 Rises=F Damp=F
 DIIS: error= 9.88D-05 at cycle   7 NSaved=   7.
 NSaved= 7 IEnMin= 7 EnMin= -995.001049159923     IErMin= 7 ErrMin= 9.88D-05
 ErrMax= 9.88D-05  0.00D+00 EMaxC= 1.00D-01 BMatC= 6.38D-06 BMatP= 6.71D-05
 IDIUse=1 WtCom= 1.00D+00 WtEn= 0.00D+00
 Coeff-Com: -0.408D-03-0.104D-02 0.140D-01 0.425D-01 0.126D+00 0.305D+00
 Coeff-Com:  0.514D+00
 Coeff:     -0.408D-03-0.104D-02 0.140D-01 0.425D-01 0.126D+00 0.305D+00
 Coeff:      0.514D+00
 Gap=     0.161 Goal=   None    Shift=    0.000
 RMSDP=7.92D-06 MaxDP=6.04D-04 DE=-5.68D-05 OVMax= 1.03D-03

 Cycle   8  Pass 1  IDiag  1:
 RMSU=  4.92D-06    CP:  9.67D-01  8.84D-01  6.88D-01  6.26D-01  6.07D-01
                    CP:  6.65D-01  6.01D-01
 E= -995.001054451736     Delta-E=       -0.000005291813 Rises=F Damp=F
 DIIS: error= 3.22D-05 at cycle   8 NSaved=   8.
 NSaved= 8 IEnMin= 8 EnMin= -995.001054451736     IErMin= 8 ErrMin= 3.22D-05
 ErrMax= 3.22D-05  0.00D+00 EMaxC= 1.00D-01 BMatC= 7.88D-07 BMatP= 6.38D-06
 IDIUse=1 WtCom= 1.00D+00 WtEn= 0.00D+00
 Coeff-Com: -0.109D-03-0.477D-03 0.310D-02 0.107D-01 0.386D-01 0.115D+00
 Coeff-Com:  0.300D+00 0.533D+00
 Coeff:     -0.109D-03-0.477D-03 0.310D-02 0.107D-01 0.386D-01 0.115D+00
 Coeff:      0.300D+00 0.533D+00
 Gap=     0.161 Goal=   None    Shift=    0.000
 RMSDP=2.72D-06 MaxDP=1.93D-04 DE=-5.29D-06 OVMax= 3.70D-04

 Cycle   9  Pass 1  IDiag  1:
 RMSU=  1.64D-06    CP:  9.67D-01  8.84D-01  6.88D-01  6.27D-01  6.09D-01
                    CP:  6.61D-01  6.46D-01  5.92D-01
 E= -995.001055094412     Delta-E=       -0.000000642676 Rises=F Damp=F
 DIIS: error= 9.75D-06 at cycle   9 NSaved=   9.
 NSaved= 9 IEnMin= 9 EnMin= -995.001055094412     IErMin= 9 ErrMin= 9.75D-06
 ErrMax= 9.75D-06  0.00D+00 EMaxC= 1.00D-01 BMatC= 9.02D-08 BMatP= 7.88D-07
 IDIUse=1 WtCom= 1.00D+00 WtEn= 0.00D+00
 Coeff-Com: -0.205D-05-0.146D-03-0.371D-03-0.417D-03 0.311D-02 0.201D-01
 Coeff-Com:  0.934D-01 0.303D+00 0.581D+00
 Coeff:     -0.205D-05-0.146D-03-0.371D-03-0.417D-03 0.311D-02 0.201D-01
 Coeff:      0.934D-01 0.303D+00 0.581D+00
 Gap=     0.162 Goal=   None    Shift=    0.000
 RMSDP=8.79D-07 MaxDP=4.71D-05 DE=-6.43D-07 OVMax= 8.13D-05

 Cycle  10  Pass 1  IDiag  1:
 RMSU=  4.46D-07    CP:  9.67D-01  8.84D-01  6.88D-01  6.27D-01  6.09D-01
                    CP:  6.65D-01  6.56D-01  6.80D-01  6.52D-01
 E= -995.001055171026     Delta-E=       -0.000000076614 Rises=F Damp=F
 DIIS: error= 2.21D-06 at cycle  10 NSaved=  10.
 NSaved=10 IEnMin=10 EnMin= -995.001055171026     IErMin=10 ErrMin= 2.21D-06
 ErrMax= 2.21D-06  0.00D+00 EMaxC= 1.00D-01 BMatC= 4.62D-09 BMatP= 9.02D-08
 IDIUse=1 WtCom= 1.00D+00 WtEn= 0.00D+00
 Coeff-Com:  0.588D-05-0.431D-04-0.351D-03-0.799D-03-0.664D-03 0.332D-02
 Coeff-Com:  0.270D-01 0.119D+00 0.285D+00 0.568D+00
 Coeff:      0.588D-05-0.431D-04-0.351D-03-0.799D-03-0.664D-03 0.332D-02
 Coeff:      0.270D-01 0.119D+00 0.285D+00 0.568D+00
 Gap=     0.162 Goal=   None    Shift=    0.000
 RMSDP=2.16D-07 MaxDP=1.07D-05 DE=-7.66D-08 OVMax= 2.12D-05

 Cycle  11  Pass 1  IDiag  1:
 RMSU=  1.39D-07    CP:  9.67D-01  8.84D-01  6.88D-01  6.27D-01  6.09D-01
                    CP:  6.66D-01  6.58D-01  6.82D-01  6.86D-01  6.94D-01
 E= -995.001055175275     Delta-E=       -0.000000004250 Rises=F Damp=F
 DIIS: error= 7.12D-07 at cycle  11 NSaved=  11.
 NSaved=11 IEnMin=11 EnMin= -995.001055175275     IErMin=11 ErrMin= 7.12D-07
 ErrMax= 7.12D-07  0.00D+00 EMaxC= 1.00D-01 BMatC= 3.76D-10 BMatP= 4.62D-09
 IDIUse=1 WtCom= 1.00D+00 WtEn= 0.00D+00
 Coeff-Com:  0.234D-05-0.344D-05-0.125D-03-0.326D-03-0.635D-03-0.390D-03
[...]
    19  O    0.049392   0.000019  -0.046206   0.004804  -0.000374  -0.008312
    20  N    0.175440  -0.857514   0.536720  -0.565383   0.379627  -0.020764
    21  H    0.007458   0.022425  -0.213888   0.012673   0.003743   0.130581
    22  C    0.141318  -0.303808  -1.667424   0.368956  -0.075198   0.034608
    23  C    0.084244   0.105628   0.483931   0.072209  -0.030845  -0.430049
    24  H   -0.765246   0.277199  -0.003120   0.017395  -0.029141   0.064528
    25  H    1.697588  -0.353227  -0.057819  -0.009768   0.046626  -0.094139
    26  H   -0.353227   2.471826   0.013114   0.207899  -0.337496   0.091986
    27  C   -0.057819   0.013114   7.294442  -0.110910   0.144370  -1.049829
    28  H   -0.009768   0.207899  -0.110910   2.160595  -0.711519  -0.466756
    29  H    0.046626  -0.337496   0.144370  -0.711519   1.673952   0.309666
    30  C   -0.094139   0.091986  -1.049829  -0.466756   0.309666  10.462726
    31  H   -0.013027   0.013605   0.098703  -0.008554  -0.069267  -0.744950
    32  C    0.009990   0.033316   0.393322   0.099357  -0.063384  -0.836691
    33  H   -0.001605  -0.002244  -0.001380  -0.009041   0.018107  -0.102057
    34  H    0.002528   0.002946   0.010166   0.018832  -0.012632   0.261673
    35  C    0.007967   0.024267   0.014067  -0.017920  -0.003787  -0.124284
    36  H   -0.024339   0.041556  -0.105067   0.048285  -0.040142   0.067740
    37  H    0.000562   0.000283   0.031943   0.000726   0.002159  -0.027318
    38  C   -0.045111   0.001568   0.046782  -0.038327   0.029820  -0.044111
    39  H    0.013009  -0.004162   0.003407  -0.000390   0.002371   0.066404
    40  H   -0.008902   0.000770  -0.015747  -0.003192   0.001649  -0.019595
    41  C    0.460809   0.082110  -0.345499   0.104556  -0.125474   0.050371
    42  H   -0.099144   0.011539   0.004243   0.005263  -0.010677   0.056437
    43  N   -0.178461  -0.028533   0.160437   0.158421  -0.117138  -2.220367
    44  C    0.027740  -0.044201   0.034389  -0.031077   0.046188  -0.190725
    45  H   -0.021994  -0.000181  -0.040489  -0.008245   0.008650   0.027738
    46  H    0.009221  -0.002045   0.058597   0.014893  -0.030881  -0.038028
    47  H   -0.032100   0.024270  -0.077683   0.014135  -0.013580   0.074996
    48  H    0.007484  -0.000460   0.021532  -0.000233   0.007211   0.175883
              31         32         33         34         35         36
     1  C   -0.000047   0.000920   0.000645   0.000120   0.002073  -0.010004
     2  H    0.000004   0.000284  -0.000037   0.000020   0.000263  -0.001741
     3  H    0.000115  -0.001401  -0.001692   0.000173  -0.000326   0.006851
     4  H   -0.000023   0.000616   0.000294   0.000034   0.000272  -0.003443
     5  N    0.000957  -0.032383  -0.002534  -0.002151  -0.010417   0.064535
     6  C    0.000578  -0.002026  -0.000827  -0.000026  -0.007508   0.024035
     7  C    0.000496  -0.009838  -0.002507  -0.000439  -0.002878   0.046411
     8  C   -0.000446   0.002120   0.001049   0.000138   0.009376  -0.033341
     9  C    0.000009  -0.001238  -0.000318  -0.000098   0.001547   0.005898
    10  C   -0.000018   0.000599   0.000239   0.000041  -0.000121  -0.003737
    11  C    0.000093  -0.001051   0.000063  -0.000110   0.001334  -0.001736
    12  H    0.000004  -0.000142  -0.000031  -0.000012  -0.000030   0.000689
    13  H   -0.000001   0.000014   0.000005   0.000001   0.000018  -0.000111
    14  H    0.000002  -0.000043  -0.000006  -0.000003   0.000004   0.000177
    15  H   -0.000053   0.000704   0.000014   0.000048   0.000091  -0.001176
    16  N    0.002126  -0.038105   0.011159  -0.002547   0.002269  -0.012211
    17  C   -0.004674   0.042850  -0.006982   0.004680   0.055175  -0.110327
    18  C    0.016527  -0.110510   0.024843  -0.010951   0.026585   0.047592
    19  O   -0.000601   0.000499  -0.000614   0.000268   0.006815  -0.003830
    20  N    0.040699   0.043116   0.009996   0.000153  -0.108353  -0.090428
    21  H    0.001521  -0.084299   0.020014  -0.010239   0.052849  -0.007969
    22  C    0.025758  -0.250116  -0.019880   0.048798  -0.339594   0.056615
    23  C   -0.026084   0.283922  -0.000622  -0.018716  -0.025078  -0.130575
    24  H    0.006409  -0.006251   0.004499  -0.005330  -0.038830   0.026019
    25  H   -0.013027   0.009990  -0.001605   0.002528   0.007967  -0.024339
    26  H    0.013605   0.033316  -0.002244   0.002946   0.024267   0.041556
    27  C    0.098703   0.393322  -0.001380   0.010166   0.014067  -0.105067
    28  H   -0.008554   0.099357  -0.009041   0.018832  -0.017920   0.048285
    29  H   -0.069267  -0.063384   0.018107  -0.012632  -0.003787  -0.040142
    30  C   -0.744950  -0.836691  -0.102057   0.261673  -0.124284   0.067740
    31  H    1.914825   0.047389   0.001124  -0.043671   0.067465   0.019212
    32  C    0.047389   6.078401  -0.124256   0.188197  -0.274276  -0.073862
    33  H    0.001124  -0.124256   1.605132  -0.434741   0.103567  -0.109467
    34  H   -0.043671   0.188197  -0.434741   1.346523  -0.071449   0.083091
    35  C    0.067465  -0.274276   0.103567  -0.071449   6.312049   0.146650
    36  H    0.019212  -0.073862  -0.109467   0.083091   0.146650   1.625215
    37  H   -0.005507   0.053202   0.063712  -0.109075  -0.117477  -0.388090
    38  C    0.010115   0.222197   0.016678  -0.021557  -0.346285  -0.132075
    39  H   -0.002674   0.031158  -0.005786   0.007425   0.095747  -0.092319
    40  H    0.006105  -0.038224   0.006521   0.003644  -0.110220   0.082539
    41  C    0.095970  -0.265965   0.075389  -0.042484   0.067343   0.215471
    42  H    0.013629   0.031151  -0.000991   0.006030   0.057448   0.012865
    43  N   -0.113816   0.154880   0.021835  -0.138193  -0.078898  -0.042220
    44  C    0.021117  -0.009930  -0.001417   0.008578  -0.071643  -0.002714
    45  H    0.008103  -0.047829  -0.000879  -0.000776  -0.006190  -0.001865
    46  H    0.032639   0.023428  -0.000577   0.009491  -0.000141   0.003067
    47  H    0.008982   0.051241   0.000292  -0.000655  -0.016993   0.000372
    48  H   -0.034794  -0.106320   0.006337   0.004684   0.094110   0.006007
              37         38         39         40         41         42
     1  C    0.000259   0.000859   0.000142  -0.000036   0.001027   0.000032
     2  H    0.000116  -0.000009   0.000045  -0.000005  -0.000053  -0.000001
     3  H   -0.000367  -0.000649  -0.000172  -0.000029   0.000605   0.000017
     4  H   -0.000195   0.000407   0.000085   0.000041  -0.000133  -0.000017
     5  N   -0.000171  -0.011719  -0.006009   0.000354   0.026550   0.000937
     6  C   -0.002122   0.003078  -0.000318   0.000322  -0.005910  -0.000040
     7  C    0.001716  -0.010782  -0.007197  -0.000104   0.042086   0.000609
     8  C    0.001009  -0.003557   0.004557  -0.000809   0.004398   0.000118
     9  C    0.000315  -0.001463  -0.000935  -0.000022   0.002415   0.000156
    10  C   -0.000156   0.000157   0.000352  -0.000008  -0.000020  -0.000007
    11  C    0.000149   0.001209   0.000160   0.000062  -0.001792  -0.000065
    12  H    0.000012  -0.000004  -0.000019  -0.000004  -0.000052   0.000002
    13  H    0.000003   0.000006   0.000013  -0.000000  -0.000005  -0.000001
    14  H    0.000002  -0.000027  -0.000055   0.000003   0.000150   0.000012
    15  H    0.000061   0.000626   0.000486  -0.000115  -0.002898  -0.000101
    16  N    0.010104  -0.017817   0.000042   0.002070   0.035700   0.000519
    17  C   -0.001324   0.053854   0.019855  -0.003733  -0.209287  -0.001959
    18  C    0.011441  -0.076146   0.007081  -0.003051   0.255920   0.000318
    19  O   -0.000636  -0.015501  -0.000524   0.000131   0.032363   0.000119
    20  N    0.024032   0.064770  -0.013302   0.018899  -0.113666   0.012615
    21  H   -0.009648   0.001627  -0.003649   0.001809  -0.033569  -0.001061
    22  C   -0.009876   0.039119   0.045166   0.006734  -0.389636   0.031328
    23  C    0.034038   0.210886  -0.037059   0.031560  -1.321799   0.202257
    24  H    0.004387   0.048312   0.011475   0.010462  -0.586551   0.020711
    25  H    0.000562  -0.045111   0.013009  -0.008902   0.460809  -0.099144
    26  H    0.000283   0.001568  -0.004162   0.000770   0.082110   0.011539
    27  C    0.031943   0.046782   0.003407  -0.015747  -0.345499   0.004243
    28  H    0.000726  -0.038327  -0.000390  -0.003192   0.104556   0.005263
    29  H    0.002159   0.029820   0.002371   0.001649  -0.125474  -0.010677
    30  C   -0.027318  -0.044111   0.066404  -0.019595   0.050371   0.056437
    31  H   -0.005507   0.010115  -0.002674   0.006105   0.095970   0.013629
    32  C    0.053202   0.222197   0.031158  -0.038224  -0.265965   0.031151
    33  H    0.063712   0.016678  -0.005786   0.006521   0.075389  -0.000991
    34  H   -0.109075  -0.021557   0.007425   0.003644  -0.042484   0.006030
    35  C   -0.117477  -0.346285   0.095747  -0.110220   0.067343   0.057448
    36  H   -0.388090  -0.132075  -0.092319   0.082539   0.215471   0.012865
    37  H    1.591299   0.014673   0.054118  -0.115976  -0.023832  -0.003173
    38  C    0.014673   6.203768  -0.117014   0.230081  -1.011623   0.050945
    39  H    0.054118  -0.117014   1.517273  -0.420713  -0.058283  -0.000623
    40  H   -0.115976   0.230081  -0.420713   1.392414   0.207404  -0.035886
    41  C   -0.023832  -1.011623  -0.058283   0.207404  11.870899  -0.919368
    42  H   -0.003173   0.050945  -0.000623  -0.035886  -0.919368   1.990679
    43  N    0.060208   0.156478   0.026102  -0.145903  -2.799261  -0.078545
    44  C    0.002210  -0.005126   0.003591   0.005153  -0.263661   0.029726
    45  H   -0.000024   0.013943  -0.000150   0.009552  -0.031916   0.030165
    46  H   -0.000184  -0.047513  -0.001228  -0.001494   0.060011   0.010702
    47  H   -0.000117   0.061226   0.001188   0.000102   0.037310   0.000567
    48  H    0.000262  -0.118049   0.006676   0.004362   0.208448  -0.031315
              43         44         45         46         47         48
     1  C   -0.000258   0.000023   0.000002   0.000006   0.000001  -0.000018
     2  H   -0.000024  -0.000002  -0.000000   0.000001  -0.000001  -0.000000
     3  H    0.000005   0.000015   0.000005  -0.000006  -0.000005  -0.000005
     4  H    0.000007   0.000007   0.000001   0.000000   0.000004  -0.000006
     5  N   -0.002644   0.000030  -0.000009   0.000059  -0.000201  -0.000084
     6  C    0.000572  -0.000430   0.000013  -0.000100   0.000232  -0.000075
     7  C    0.004780   0.000098  -0.000261   0.000047   0.001628   0.000131
     8  C   -0.001666   0.000009  -0.000008   0.000075  -0.000558   0.000077
     9  C   -0.000282  -0.000074  -0.000007   0.000009  -0.000284   0.000021
    10  C    0.000040   0.000021   0.000000   0.000002   0.000035  -0.000004
    11  C   -0.000008  -0.000062   0.000000  -0.000011  -0.000049   0.000005
    12  H    0.000002  -0.000004  -0.000000  -0.000001  -0.000002   0.000001
    13  H    0.000001   0.000000   0.000000   0.000000   0.000001  -0.000000
    14  H   -0.000011  -0.000005  -0.000001  -0.000000  -0.000004   0.000001
    15  H    0.000370   0.000083   0.000017   0.000002  -0.000038  -0.000014
    16  N   -0.013837  -0.000206   0.000040   0.000141  -0.001312   0.000100
    17  C    0.015489  -0.001725   0.000628  -0.001205  -0.002386   0.000396
    18  C   -0.116621  -0.022897   0.003901   0.002657  -0.011979  -0.000197
    19  O   -0.001858   0.000043  -0.000530   0.000317  -0.000567  -0.000129
    20  N   -0.318605   0.039348   0.014379   0.005773  -0.059959   0.007092
    21  H    0.035776  -0.005064   0.000049  -0.002958   0.002392  -0.000495
    22  C    0.310694   0.168992   0.042857   0.035898   0.033722  -0.064407
    23  C    0.509494   0.010130   0.052909  -0.034334  -0.057457  -0.008066
    24  H    0.218179  -0.018494   0.009705  -0.005888   0.025761  -0.002257
    25  H   -0.178461   0.027740  -0.021994   0.009221  -0.032100   0.007484
    26  H   -0.028533  -0.044201  -0.000181  -0.002045   0.024270  -0.000460
    27  C    0.160437   0.034389  -0.040489   0.058597  -0.077683   0.021532
    28  H    0.158421  -0.031077  -0.008245   0.014893   0.014135  -0.000233
    29  H   -0.117138   0.046188   0.008650  -0.030881  -0.013580   0.007211
    30  C   -2.220367  -0.190725   0.027738  -0.038028   0.074996   0.175883
    31  H   -0.113816   0.021117   0.008103   0.032639   0.008982  -0.034794
    32  C    0.154880  -0.009930  -0.047829   0.023428   0.051241  -0.106320
    33  H    0.021835  -0.001417  -0.000879  -0.000577   0.000292   0.006337
    34  H   -0.138193   0.008578  -0.000776   0.009491  -0.000655   0.004684
    35  C   -0.078898  -0.071643  -0.006190  -0.000141  -0.016993   0.094110
    36  H   -0.042220  -0.002714  -0.001865   0.003067   0.000372   0.006007
    37  H    0.060208   0.002210  -0.000024  -0.000184  -0.000117   0.000262
    38  C    0.156478  -0.005126   0.013943  -0.047513   0.061226  -0.118049
    39  H    0.026102   0.003591  -0.000150  -0.001228   0.001188   0.006676
    40  H   -0.145903   0.005153   0.009552  -0.001494   0.000102   0.004362
    41  C   -2.799261  -0.263661  -0.031916   0.060011   0.037310   0.208448
    42  H   -0.078545   0.029726   0.030165   0.010702   0.000567  -0.031315
    43  N   12.266137   0.443367  -0.278156  -0.201595   0.261229   0.047736
    44  C    0.443367   4.258045   0.412659   0.340454   0.126483  -0.069503
    45  H   -0.278156   0.412659   1.441437  -0.301335  -0.226952  -0.013347
    46  H   -0.201595   0.340454  -0.301335   1.350708  -0.206443  -0.010488
    47  H    0.261229   0.126483  -0.226952  -0.206443   1.045305   0.006460
    48  H    0.047736  -0.069503  -0.013347  -0.010488   0.006460   0.620958
 Mulliken charges:
               1
     1  C    0.850407
     2  H   -0.161750
     3  H   -0.237220
     4  H   -0.052510
     5  N   -0.694578
     6  C   -0.095495
     7  C    0.541561
     8  C    1.282600
     9  C    0.243976
    10  C    0.470741
    11  C    0.968145
    12  H   -0.577940
    13  H   -0.460857
    14  H   -0.481963
    15  H   -0.531738
    16  N   -1.027256
    17  C    0.301154
    18  C    0.272661
    19  O   -0.848968
    20  N    0.370015
    21  H   -0.089900
    22  C   -0.154755
    23  C    0.567208
    24  H   -0.325370
    25  H   -0.010371
    26  H   -0.474984
    27  C    0.635983
    28  H   -0.311804
    29  H   -0.005216
    30  C    0.477296
    31  H   -0.386074
    32  C    0.585270
    33  H   -0.161026
    34  H   -0.082427
    35  C    0.623345
    36  H   -0.208103
    37  H   -0.147733
    38  C    0.581284
    39  H   -0.145351
    40  H   -0.098974
    41  C    0.615430
    42  H   -0.398165
    43  N   -0.975339
    44  C    0.760461
    45  H   -0.095610
    46  H   -0.071740
    47  H   -0.068609
    48  H    0.234290
 Sum of Mulliken charges =   1.00000
 Mulliken charges with hydrogens summed into heavy atoms:
               1
     1  C    0.398926
     5  N   -0.694578
     6  C   -0.095495
     7  C    0.541561
     8  C    0.750862
     9  C   -0.237987
    10  C    0.009884
    11  C    0.390205
    16  N   -1.027256
    17  C    0.301154
    18  C    0.272661
    19  O   -0.848968
    20  N    0.280115
    22  C   -0.629738
    23  C    0.231467
    27  C    0.318964
    30  C    0.091222
    32  C    0.341817
    35  C    0.267508
    38  C    0.336959
    41  C    0.217265
    43  N   -0.741049
    44  C    0.524501
 Electronic spatial extent (au):  <R**2>=           9378.8126
 Charge=              1.0000 electrons
 Dipole moment (field-independent basis, Debye):
    X=             15.2139    Y=              3.7397    Z=              0.0012  Tot=             15.6668
 Quadrupole moment (field-independent basis, Debye-Ang):
   XX=            -18.4791   YY=           -122.5868   ZZ=           -130.1705
   XY=            -10.7067   XZ=             -1.1837   YZ=             -1.5768
 Traceless Quadrupole moment (field-independent basis, Debye-Ang):
   XX=             71.9331   YY=            -32.1747   ZZ=            -39.7583
   XY=            -10.7067   XZ=             -1.1837   YZ=             -1.5768
 Octapole moment (field-independent basis, Debye-Ang**2):
  XXX=            299.7168  YYY=             38.2186  ZZZ=             -1.7262  XYY=             -0.0615
  XXY=             -2.7606  XXZ=             11.3356  XZZ=             62.5988  YZZ=              4.2904
  YYZ=              0.1143  XYZ=             10.9341
 Hexadecapole moment (field-independent basis, Debye-Ang**3):
 XXXX=          -6930.4657 YYYY=          -1660.6705 ZZZZ=           -697.1290 XXXY=           -197.2675
 XXXZ=            -97.2512 YYYX=            -93.9667 YYYZ=            -16.5278 ZZZX=             23.4073
 ZZZY=              8.0403 XXYY=          -1647.4347 XXZZ=          -1803.3424 YYZZ=           -403.4764
 XXYZ=            -29.3969 YYXZ=             -4.5017 ZZXY=            -29.5006
 N-N= 1.982246964118D+03 E-N=-6.251466704952D+03  KE= 9.875386874797D+02
 Leave Link  601 at Sun Jul 11 19:17:40 2021, MaxMem=   262144000 cpu:               0.9 elap:               0.3
 (Enter /prod/apps/gaussian/g16b1/l9999.exe)
 1\1\GINC-PIRINEUS40\SP\RMP2-FC\Aug-CC-pVDZ\C18H25N4O1(1+)\UBATOR02\11-
 Jul-2021\0\\#p mp2/aug-cc-pVDZ scf=tight maxdisk=180GB geom=allcheck\\
 SET_328_BBB286_conf1.geo_000_150 geometry\\1,1\C,0,3.0745557075,-0.866
 2058597,-3.6124479756\H,0,3.0296991501,-0.9222421906,-4.7016516185\H,0
 ,2.7653311065,-1.8185633413,-3.186575995\H,0,4.099504872,-0.6413467011
 ,-3.3036186935\N,0,2.1565159763,0.1498121985,-3.1295184116\C,0,2.06176
 67692,1.4588658781,-3.5310927398\C,0,1.0566961338,2.0534503144,-2.7292
 836651\C,0,0.7224707859,3.4069388124,-2.9191301981\C,0,1.4008134798,4.
 1170589175,-3.8950232925\C,0,2.4065134554,3.5067106236,-4.6852500592\C
 ,0,2.7549955113,2.1761255834,-4.5205364413\H,0,3.5246705972,1.71444650
 9,-5.1260147078\H,0,2.9155769352,4.0973075076,-5.4394566052\H,0,1.1620
 429639,5.1620292072,-4.0624045431\H,0,-0.0461963559,3.8666847974,-2.31
 15253203\N,0,1.2968380896,-0.1261914913,-2.1311174733\C,0,0.6231694791
 ,0.9940647873,-1.8744142022\C,0,-0.4276671627,1.0452539675,-0.83465846
 23\O,0,-1.0307743581,2.0975516708,-0.5771622222\N,0,-0.6725145698,-0.1
 182907544,-0.1782613236\H,0,-0.2621478069,-0.9614751186,-0.5633658776\
 C,0,-1.8058809749,-0.2318421028,0.7402983037\C,0,-1.60200969,0.5499617
 954,2.066351443\H,0,-0.9701408862,1.4170088956,1.8693690777\H,0,-2.576
 1971401,0.9509077448,2.3596109525\H,0,-2.649627864,0.2511093402,0.2391
 298436\C,0,-2.188911607,-1.7069981603,0.9780153861\H,0,-1.9609567769,-
 2.305533766,0.0920411228\H,0,-3.2749022943,-1.7521283757,1.089686127\C
 ,0,-1.5624959003,-2.4015951553,2.1973665085\H,0,-2.1286870927,-3.31521
 01527,2.3876486644\C,0,-0.0696561199,-2.7596330652,2.1370200691\H,0,0.
 0989192162,-3.3480434869,1.2304429351\H,0,0.1411342538,-3.4256148662,2
 .9821765165\C,0,0.8797216071,-1.5538341191,2.1848456998\H,0,0.90573288
 62,-1.0550321621,1.2163524701\H,0,1.8966235701,-1.9072619267,2.3826546
 026\C,0,0.4741460587,-0.5411480568,3.2617248789\H,0,1.0212531119,0.396
 6120798,3.1308808288\H,0,0.7441399716,-0.9209305165,4.2548545057\C,0,-
 1.0275673138,-0.2160306572,3.2709722324\H,0,-1.2577037568,0.3507521699
 ,4.1751798263\N,0,-1.7829323273,-1.5339533329,3.430120816\C,0,-3.22428
 06918,-1.3635497573,3.7932478504\H,0,-3.27292728,-0.8156670445,4.73271
 70472\H,0,-3.6609415193,-2.3544639371,3.9081182335\H,0,-3.7400450452,-
 0.813505348,3.0121878746\H,0,-1.3566671547,-2.0303613546,4.2254960115\
 \Version=ES64L-G16RevB.01\State=1-A\HF=-988.7677071\MP2=-992.1936971\R
 MSD=5.454e-09\PG=C01 [X(C18H25N4O1)]\\@


 HEAVEN'S NET CASTS WIDE.
 THOUGH ITS MESHES ARE COARSE, NOTHING SLIPS THROUGH.

                                          -- LAO-TSU
 Job cpu time:       0 days  5 hours 54 minutes 18.2 seconds.
 Elapsed time:       0 days  1 hours 36 minutes 11.4 seconds.
 File lengths (MBytes):  RWF= 131626 Int=      0 D2E=      0 Chk=     44 Scr=      1
 Normal termination of Gaussian 16 at Sun Jul 11 19:17:43 2021.
