 Entering Gaussian System, Link 0=g16
 Initial command:
 /prod/apps/gaussian/g16b1/l1.exe "/tmp/ubator02/1834530/Gau-210800.inp" -scrdir="/tmp/ubator02/1834530/"
 Entering Link 1 = /prod/apps/gaussian/g16b1/l1.exe PID=    210801.
  
 Copyright (c) 1988-2017, Gaussian, Inc.  All Rights Reserved.
  
 This is part of the Gaussian(R) 16 program.  It is based on
 the Gaussian(R) 09 system (copyright 2009, Gaussian, Inc.),
 the Gaussian(R) 03 system (copyright 2003, Gaussian, Inc.),
 the Gaussian(R) 98 system (copyright 1998, Gaussian, Inc.),
 the Gaussian(R) 94 system (copyright 1995, Gaussian, Inc.),
 the Gaussian 92(TM) system (copyright 1992, Gaussian, Inc.),
 the Gaussian 90(TM) system (copyright 1990, Gaussian, Inc.),
 the Gaussian 88(TM) system (copyright 1988, Gaussian, Inc.),
 the Gaussian 86(TM) system (copyright 1986, Carnegie Mellon
 University), and the Gaussian 82(TM) system (copyright 1983,
 Carnegie Mellon University). Gaussian is a federally registered
 trademark of Gaussian, Inc.
  
 This software contains proprietary and confidential information,
 including trade secrets, belonging to Gaussian, Inc.
  
 This software is provided under written license and may be
 used, copied, transmitted, or stored only in accord with that
 written license.
  
 The following legend is applicable only to US Government
 contracts under FAR:
  
                    RESTRICTED RIGHTS LEGEND
  
 Use, reproduction and disclosure by the US Government is
 subject to restrictions as set forth in subparagraphs (a)
 and (c) of the Commercial Computer Software - Restricted
 Rights clause in FAR 52.227-19.
  
 Gaussian, Inc.
 340 Quinnipiac St., Bldg. 40, Wallingford CT 06492
  
  
 ---------------------------------------------------------------
 Warning -- This program may not be used in any manner that
 competes with the business of Gaussian, Inc. or will provide
 assistance to any competitor of Gaussian, Inc.  The licensee
 of this program is prohibited from giving any competitor of
 Gaussian, Inc. access to this program.  By using this program,
 the user acknowledges that Gaussian, Inc. is engaged in the
 business of creating and licensing software in the field of
 computational chemistry and represents and warrants to the
 licensee that it is not a competitor of Gaussian, Inc. and that
 it will not use this program in any manner prohibited above.
 ---------------------------------------------------------------
  

 Cite this work as:
 Gaussian 16, Revision B.01,
 M. J. Frisch, G. W. Trucks, H. B. Schlegel, G. E. Scuseria, 
 M. A. Robb, J. R. Cheeseman, G. Scalmani, V. Barone, 
 G. A. Petersson, H. Nakatsuji, X. Li, M. Caricato, A. V. Marenich, 
 J. Bloino, B. G. Janesko, R. Gomperts, B. Mennucci, H. P. Hratchian, 
 J. V. Ortiz, A. F. Izmaylov, J. L. Sonnenberg, D. Williams-Young, 
 F. Ding, F. Lipparini, F. Egidi, J. Goings, B. Peng, A. Petrone, 
 T. Henderson, D. Ranasinghe, V. G. Zakrzewski, J. Gao, N. Rega, 
 G. Zheng, W. Liang, M. Hada, M. Ehara, K. Toyota, R. Fukuda, 
 J. Hasegawa, M. Ishida, T. Nakajima, Y. Honda, O. Kitao, H. Nakai, 
 T. Vreven, K. Throssell, J. A. Montgomery, Jr., J. E. Peralta, 
 F. Ogliaro, M. J. Bearpark, J. J. Heyd, E. N. Brothers, K. N. Kudin, 
 V. N. Staroverov, T. A. Keith, R. Kobayashi, J. Normand, 
 K. Raghavachari, A. P. Rendell, J. C. Burant, S. S. Iyengar, 
 J. Tomasi, M. Cossi, J. M. Millam, M. Klene, C. Adamo, R. Cammi, 
 J. W. Ochterski, R. L. Martin, K. Morokuma, O. Farkas, 
 J. B. Foresman, and D. J. Fox, Gaussian, Inc., Wallingford CT, 2016.
 
 ******************************************
 Gaussian 16:  ES64L-G16RevB.01 20-Dec-2017
                11-Jul-2021 
 ******************************************
 %mem=800MB
 %nproc=4
 Will use up to    4 processors via shared memory.
 %chk=SET_328_BBB212_conf1.geo_300_135.chk
 -----------------------------------------------------------
 #p b3lyp/6-31G(d) opt freq scrf=(iefpcm,read,solvent=water)
 -----------------------------------------------------------
 1/18=20,19=15,26=3,38=1,40=2/1,3;
 2/9=110,12=2,17=6,18=5,40=1/2;
 3/5=1,6=6,7=1,11=2,25=1,30=1,70=2203,71=1,72=1,74=-5/1,2,3;
 4//1;
 5/5=2,38=5,53=1/2;
 6/7=2,8=2,9=2,10=2,28=1/1;
 7//1,2,3,16;
 1/18=20,19=15,26=3/3(2);
 2/9=110/2;
 99//99;
 2/9=110/2;
 3/5=1,6=6,7=1,11=2,25=1,30=1,70=2205,71=1,72=1,74=-5/1,2,3;
 4/5=5,16=3,69=1/1;
 5/5=2,38=5,53=1/2;
 7//1,2,3,16;
 1/18=20,19=15,26=3/3(-5);
 2/9=110/2;
 6/7=2,8=2,9=2,10=2,19=2,28=1/1;
 99/9=1/99;
 Leave Link    1 at Sun Jul 11 15:57:28 2021, MaxMem=   104857600 cpu:               0.1 elap:               0.0
 (Enter /prod/apps/gaussian/g16b1/l101.exe)
 -----------------------------------------
 SET_328_BBB212_conf1.geo_300_135 geometry
 -----------------------------------------
 Symbolic Z-matrix:
 Charge = -1 Multiplicity = 1
 C                     1.472    -0.823     1.663 
 H                     2.045    -0.031     2.149 
 H                     2.043    -1.274     0.848 
 H                     1.24     -1.648     2.34 
 C                     0.229    -0.15      1.102 
 C                    -0.522     0.5       2.365 
 H                    -1.38      1.141     2.153 
 H                     0.148     1.065     3.016 
 H                    -0.928    -0.264     3.031 
 C                    -0.771    -1.071     0.363 
 C                    -1.888    -0.553    -0.234 
 C                    -2.769    -1.321    -1.001 
 C                    -2.48     -2.717    -1.111 
 O                    -3.409    -3.554    -1.695 
 H                    -4.316    -3.206    -1.63 
 C                    -1.318    -3.236    -0.59 
 C                    -0.582    -2.429     0.247 
 H                     0.239    -2.884     0.795 
 H                    -1.14     -4.286    -0.804 
 H                    -3.668    -0.918    -1.46 
 H                    -2.002     0.511    -0.046 
 C                     0.887     0.954     0.247 
 C                     1.089     2.313     0.541 
 H                     0.884     2.711     1.532 
 C                     1.745     3.21     -0.312 
 H                     1.898     4.252    -0.044 
 C                     2.04      2.765    -1.597 
 O                     2.652     3.633    -2.429 
 C                     1.687     1.505    -2.017 
 H                     1.96      1.179    -3.017 
 C                     1.229     0.584    -1.053 
 H                     1.216    -0.478    -1.286 
 
 ITRead=  0  0  0  0  0  0  0  0  0  0  0  0  0  0  0  0  0  0  0  0
 ITRead=  0  0  0  0  0  0  0  0  0  0  0  0
 MicOpt= -1 -1 -1 -1 -1 -1 -1 -1 -1 -1 -1 -1 -1 -1 -1 -1 -1 -1 -1 -1
 MicOpt= -1 -1 -1 -1 -1 -1 -1 -1 -1 -1 -1 -1
 NAtoms=     32 NQM=       32 NQMF=       0 NMMI=      0 NMMIF=      0
                NMic=       0 NMicF=      0.
                    Isotopes and Nuclear Properties:
 (Nuclear quadrupole moments (NQMom) in fm**2, nuclear magnetic moments (NMagM)
  in nuclear magnetons)

  Atom         1           2           3           4           5           6           7           8           9          10
 IAtWgt=          12           1           1           1          12          12           1           1           1          12
 AtmWgt=  12.0000000   1.0078250   1.0078250   1.0078250  12.0000000  12.0000000   1.0078250   1.0078250   1.0078250  12.0000000
 NucSpn=           0           1           1           1           0           0           1           1           1           0
 AtZEff=  -0.0000000  -0.0000000  -0.0000000  -0.0000000  -0.0000000  -0.0000000  -0.0000000  -0.0000000  -0.0000000  -0.0000000
 NQMom=    0.0000000   0.0000000   0.0000000   0.0000000   0.0000000   0.0000000   0.0000000   0.0000000   0.0000000   0.0000000
 NMagM=    0.0000000   2.7928460   2.7928460   2.7928460   0.0000000   0.0000000   2.7928460   2.7928460   2.7928460   0.0000000
 AtZNuc=   6.0000000   1.0000000   1.0000000   1.0000000   6.0000000   6.0000000   1.0000000   1.0000000   1.0000000   6.0000000

  Atom        11          12          13          14          15          16          17          18          19          20
 IAtWgt=          12          12          12          16           1          12          12           1           1           1
 AtmWgt=  12.0000000  12.0000000  12.0000000  15.9949146   1.0078250  12.0000000  12.0000000   1.0078250   1.0078250   1.0078250
 NucSpn=           0           0           0           0           1           0           0           1           1           1
 AtZEff=  -0.0000000  -0.0000000  -0.0000000  -0.0000000  -0.0000000  -0.0000000  -0.0000000  -0.0000000  -0.0000000  -0.0000000
 NQMom=    0.0000000   0.0000000   0.0000000   0.0000000   0.0000000   0.0000000   0.0000000   0.0000000   0.0000000   0.0000000
 NMagM=    0.0000000   0.0000000   0.0000000   0.0000000   2.7928460   0.0000000   0.0000000   2.7928460   2.7928460   2.7928460
 AtZNuc=   6.0000000   6.0000000   6.0000000   8.0000000   1.0000000   6.0000000   6.0000000   1.0000000   1.0000000   1.0000000

  Atom        21          22          23          24          25          26          27          28          29          30
 IAtWgt=           1          12          12           1          12           1          12          16          12           1
 AtmWgt=   1.0078250  12.0000000  12.0000000   1.0078250  12.0000000   1.0078250  12.0000000  15.9949146  12.0000000   1.0078250
 NucSpn=           1           0           0           1           0           1           0           0           0           1
 AtZEff=  -0.0000000  -0.0000000  -0.0000000  -0.0000000  -0.0000000  -0.0000000  -0.0000000  -0.0000000  -0.0000000  -0.0000000
 NQMom=    0.0000000   0.0000000   0.0000000   0.0000000   0.0000000   0.0000000   0.0000000   0.0000000   0.0000000   0.0000000
 NMagM=    2.7928460   0.0000000   0.0000000   2.7928460   0.0000000   2.7928460   0.0000000   0.0000000   0.0000000   2.7928460
 AtZNuc=   1.0000000   6.0000000   6.0000000   1.0000000   6.0000000   1.0000000   6.0000000   8.0000000   6.0000000   1.0000000

  Atom        31          32
 IAtWgt=          12           1
 AtmWgt=  12.0000000   1.0078250
 NucSpn=           0           1
 AtZEff=  -0.0000000  -0.0000000
 NQMom=    0.0000000   0.0000000
 NMagM=    0.0000000   2.7928460
 AtZNuc=   6.0000000   1.0000000
 Leave Link  101 at Sun Jul 11 15:57:28 2021, MaxMem=   104857600 cpu:               0.5 elap:               0.1
 (Enter /prod/apps/gaussian/g16b1/l103.exe)

 GradGradGradGradGradGradGradGradGradGradGradGradGradGradGradGradGradGrad
 Berny optimization.
 Initialization pass.
                           ----------------------------
                           !    Initial Parameters    !
                           ! (Angstroms and Degrees)  !
 --------------------------                            --------------------------
 ! Name  Definition              Value          Derivative Info.                !
 --------------------------------------------------------------------------------
 ! R1    R(1,2)                  1.0917         estimate D2E/DX2                !
 ! R2    R(1,3)                  1.0926         estimate D2E/DX2                !
 ! R3    R(1,4)                  1.0921         estimate D2E/DX2                !
 ! R4    R(1,5)                  1.5208         estimate D2E/DX2                !
 ! R5    R(5,6)                  1.6068         estimate D2E/DX2                !
 ! R6    R(5,10)                 1.5474         estimate D2E/DX2                !
 ! R7    R(5,22)                 1.5436         estimate D2E/DX2                !
 ! R8    R(6,7)                  1.0918         estimate D2E/DX2                !
 ! R9    R(6,8)                  1.0918         estimate D2E/DX2                !
 ! R10   R(6,9)                  1.0918         estimate D2E/DX2                !
 ! R11   R(10,11)                1.3684         estimate D2E/DX2                !
 ! R12   R(10,17)                1.376          estimate D2E/DX2                !
 ! R13   R(11,12)                1.398          estimate D2E/DX2                !
 ! R14   R(11,21)                1.0865         estimate D2E/DX2                !
 ! R15   R(12,13)                1.4298         estimate D2E/DX2                !
 ! R16   R(12,20)                1.0869         estimate D2E/DX2                !
 ! R17   R(13,14)                1.3801         estimate D2E/DX2                !
 ! R18   R(13,16)                1.3752         estimate D2E/DX2                !
 ! R19   R(14,15)                0.9736         estimate D2E/DX2                !
 ! R20   R(16,17)                1.3761         estimate D2E/DX2                !
 ! R21   R(16,19)                1.0863         estimate D2E/DX2                !
 ! R22   R(17,18)                1.0869         estimate D2E/DX2                !
 ! R23   R(22,23)                1.405          estimate D2E/DX2                !
 ! R24   R(22,31)                1.3942         estimate D2E/DX2                !
 ! R25   R(23,24)                1.0874         estimate D2E/DX2                !
 ! R26   R(23,25)                1.4009         estimate D2E/DX2                !
 ! R27   R(25,26)                1.0867         estimate D2E/DX2                !
 ! R28   R(25,27)                1.3915         estimate D2E/DX2                !
 ! R29   R(27,28)                1.3491         estimate D2E/DX2                !
 ! R30   R(27,29)                1.3743         estimate D2E/DX2                !
 ! R31   R(29,30)                1.0866         estimate D2E/DX2                !
 ! R32   R(29,31)                1.4097         estimate D2E/DX2                !
 ! R33   R(31,32)                1.0873         estimate D2E/DX2                !
 ! A1    A(2,1,3)              110.9313         estimate D2E/DX2                !
 ! A2    A(2,1,4)              112.5545         estimate D2E/DX2                !
 ! A3    A(2,1,5)              105.7939         estimate D2E/DX2                !
 ! A4    A(3,1,4)              105.1653         estimate D2E/DX2                !
 ! A5    A(3,1,5)              109.5527         estimate D2E/DX2                !
 ! A6    A(4,1,5)              112.9133         estimate D2E/DX2                !
 ! A7    A(1,5,6)              105.729          estimate D2E/DX2                !
 ! A8    A(1,5,10)             116.1676         estimate D2E/DX2                !
 ! A9    A(1,5,22)              99.9285         estimate D2E/DX2                !
 ! A10   A(6,5,10)             108.3083         estimate D2E/DX2                !
 ! A11   A(6,5,22)             110.2            estimate D2E/DX2                !
 ! A12   A(10,5,22)            115.8895         estimate D2E/DX2                !
 ! A13   A(5,6,7)              116.8845         estimate D2E/DX2                !
 ! A14   A(5,6,8)              113.0312         estimate D2E/DX2                !
 ! A15   A(5,6,9)              111.7287         estimate D2E/DX2                !
 ! A16   A(7,6,8)              107.1112         estimate D2E/DX2                !
 ! A17   A(7,6,9)              103.7123         estimate D2E/DX2                !
 ! A18   A(8,6,9)              103.0972         estimate D2E/DX2                !
 ! A19   A(5,10,11)            120.703          estimate D2E/DX2                !
 ! A20   A(5,10,17)            122.6099         estimate D2E/DX2                !
 ! A21   A(11,10,17)           116.6763         estimate D2E/DX2                !
 ! A22   A(10,11,12)           123.0824         estimate D2E/DX2                !
 ! A23   A(10,11,21)           112.3882         estimate D2E/DX2                !
 ! A24   A(12,11,21)           124.5288         estimate D2E/DX2                !
 ! A25   A(11,12,13)           116.821          estimate D2E/DX2                !
 ! A26   A(11,12,20)           123.3174         estimate D2E/DX2                !
 ! A27   A(13,12,20)           119.7824         estimate D2E/DX2                !
 ! A28   A(12,13,14)           119.2503         estimate D2E/DX2                !
 ! A29   A(12,13,16)           120.6722         estimate D2E/DX2                !
 ! A30   A(14,13,16)           120.0152         estimate D2E/DX2                !
 ! A31   A(13,14,15)           112.4607         estimate D2E/DX2                !
 ! A32   A(13,16,17)           117.4563         estimate D2E/DX2                !
 ! A33   A(13,16,19)           115.3811         estimate D2E/DX2                !
 ! A34   A(17,16,19)           126.803          estimate D2E/DX2                !
 ! A35   A(10,17,16)           123.8214         estimate D2E/DX2                !
 ! A36   A(10,17,18)           118.3199         estimate D2E/DX2                !
 ! A37   A(16,17,18)           117.7221         estimate D2E/DX2                !
 ! A38   A(5,22,23)            129.5794         estimate D2E/DX2                !
 ! A39   A(5,22,31)            115.5449         estimate D2E/DX2                !
 ! A40   A(23,22,31)           114.6154         estimate D2E/DX2                !
 ! A41   A(22,23,24)           121.1712         estimate D2E/DX2                !
 ! A42   A(22,23,25)           124.0027         estimate D2E/DX2                !
 ! A43   A(24,23,25)           114.1308         estimate D2E/DX2                !
 ! A44   A(23,25,26)           121.9857         estimate D2E/DX2                !
 ! A45   A(23,25,27)           117.1804         estimate D2E/DX2                !
 ! A46   A(26,25,27)           120.2996         estimate D2E/DX2                !
 ! A47   A(25,27,28)           117.3811         estimate D2E/DX2                !
 ! A48   A(25,27,29)           121.398          estimate D2E/DX2                !
 ! A49   A(28,27,29)           121.1931         estimate D2E/DX2                !
 ! A50   A(27,29,30)           119.4574         estimate D2E/DX2                !
 ! A51   A(27,29,31)           118.2594         estimate D2E/DX2                !
 ! A52   A(30,29,31)           120.9921         estimate D2E/DX2                !
 ! A53   A(22,31,29)           122.9513         estimate D2E/DX2                !
 ! A54   A(22,31,32)           117.1336         estimate D2E/DX2                !
 ! A55   A(29,31,32)           119.6994         estimate D2E/DX2                !
 ! D1    D(2,1,5,6)            -59.3713         estimate D2E/DX2                !
 ! D2    D(2,1,5,10)          -179.5038         estimate D2E/DX2                !
 ! D3    D(2,1,5,22)            55.0525         estimate D2E/DX2                !
 ! D4    D(3,1,5,6)           -179.0042         estimate D2E/DX2                !
 ! D5    D(3,1,5,10)            60.8633         estimate D2E/DX2                !
 ! D6    D(3,1,5,22)           -64.5804         estimate D2E/DX2                !
 ! D7    D(4,1,5,6)             64.1549         estimate D2E/DX2                !
 ! D8    D(4,1,5,10)           -55.9776         estimate D2E/DX2                !
 ! D9    D(4,1,5,22)           178.5787         estimate D2E/DX2                !
 ! D10   D(1,5,6,7)            172.5154         estimate D2E/DX2                !
 ! D11   D(1,5,6,8)             47.4869         estimate D2E/DX2                !
 ! D12   D(1,5,6,9)            -68.2657         estimate D2E/DX2                !
 ! D13   D(10,5,6,7)           -62.3311         estimate D2E/DX2                !
 ! D14   D(10,5,6,8)           172.6404         estimate D2E/DX2                !
 ! D15   D(10,5,6,9)            56.8878         estimate D2E/DX2                !
 ! D16   D(22,5,6,7)            65.3885         estimate D2E/DX2                !
 ! D17   D(22,5,6,8)           -59.6399         estimate D2E/DX2                !
 ! D18   D(22,5,6,9)          -175.3925         estimate D2E/DX2                !
 ! D19   D(1,5,10,11)         -176.8214         estimate D2E/DX2                !
 ! D20   D(1,5,10,17)            1.9447         estimate D2E/DX2                !
 ! D21   D(6,5,10,11)           64.4455         estimate D2E/DX2                !
 ! D22   D(6,5,10,17)         -116.7884         estimate D2E/DX2                !
 ! D23   D(22,5,10,11)         -59.9481         estimate D2E/DX2                !
 ! D24   D(22,5,10,17)         118.8181         estimate D2E/DX2                !
 ! D25   D(1,5,22,23)          -99.3609         estimate D2E/DX2                !
 ! D26   D(1,5,22,31)           86.8831         estimate D2E/DX2                !
 ! D27   D(6,5,22,23)           11.5949         estimate D2E/DX2                !
 ! D28   D(6,5,22,31)         -162.161          estimate D2E/DX2                !
 ! D29   D(10,5,22,23)         135.0052         estimate D2E/DX2                !
 ! D30   D(10,5,22,31)         -38.7508         estimate D2E/DX2                !
 ! D31   D(5,10,11,12)         174.9086         estimate D2E/DX2                !
 ! D32   D(5,10,11,21)          -4.831          estimate D2E/DX2                !
 ! D33   D(17,10,11,12)         -3.9283         estimate D2E/DX2                !
 ! D34   D(17,10,11,21)        176.3322         estimate D2E/DX2                !
 ! D35   D(5,10,17,16)        -168.2931         estimate D2E/DX2                !
 ! D36   D(5,10,17,18)           7.3552         estimate D2E/DX2                !
 ! D37   D(11,10,17,16)         10.5196         estimate D2E/DX2                !
 ! D38   D(11,10,17,18)       -173.8321         estimate D2E/DX2                !
 ! D39   D(10,11,12,13)          1.9581         estimate D2E/DX2                !
 ! D40   D(10,11,12,20)        178.7075         estimate D2E/DX2                !
 ! D41   D(21,11,12,13)       -178.3342         estimate D2E/DX2                !
 ! D42   D(21,11,12,20)         -1.5848         estimate D2E/DX2                !
 ! D43   D(11,12,13,14)        171.0271         estimate D2E/DX2                !
 ! D44   D(11,12,13,16)         -6.1023         estimate D2E/DX2                !
 ! D45   D(20,12,13,14)         -5.8433         estimate D2E/DX2                !
 ! D46   D(20,12,13,16)        177.0273         estimate D2E/DX2                !
 ! D47   D(12,13,14,15)        -25.2843         estimate D2E/DX2                !
 ! D48   D(16,13,14,15)        151.8644         estimate D2E/DX2                !
 ! D49   D(12,13,16,17)         12.0248         estimate D2E/DX2                !
 ! D50   D(12,13,16,19)       -174.3863         estimate D2E/DX2                !
 ! D51   D(14,13,16,17)       -165.0827         estimate D2E/DX2                !
 ! D52   D(14,13,16,19)          8.5062         estimate D2E/DX2                !
 ! D53   D(13,16,17,10)        -14.6479         estimate D2E/DX2                !
 ! D54   D(13,16,17,18)        169.6797         estimate D2E/DX2                !
 ! D55   D(19,16,17,10)        172.5903         estimate D2E/DX2                !
 ! D56   D(19,16,17,18)         -3.0821         estimate D2E/DX2                !
 ! D57   D(5,22,23,24)           7.9346         estimate D2E/DX2                !
 ! D58   D(5,22,23,25)         177.8106         estimate D2E/DX2                !
 ! D59   D(31,22,23,24)       -178.262          estimate D2E/DX2                !
 ! D60   D(31,22,23,25)         -8.386          estimate D2E/DX2                !
 ! D61   D(5,22,31,29)         172.1186         estimate D2E/DX2                !
 ! D62   D(5,22,31,32)         -13.2423         estimate D2E/DX2                !
 ! D63   D(23,22,31,29)         -2.5908         estimate D2E/DX2                !
 ! D64   D(23,22,31,32)        172.0483         estimate D2E/DX2                !
 ! D65   D(22,23,25,26)       -178.9498         estimate D2E/DX2                !
 ! D66   D(22,23,25,27)          9.4167         estimate D2E/DX2                !
 ! D67   D(24,23,25,26)         -8.4355         estimate D2E/DX2                !
 ! D68   D(24,23,25,27)        179.931          estimate D2E/DX2                !
 ! D69   D(23,25,27,28)        178.9358         estimate D2E/DX2                !
 ! D70   D(23,25,27,29)          0.8324         estimate D2E/DX2                !
 ! D71   D(26,25,27,28)          7.1539         estimate D2E/DX2                !
 ! D72   D(26,25,27,29)       -170.9495         estimate D2E/DX2                !
 ! D73   D(25,27,29,30)       -178.1272         estimate D2E/DX2                !
 ! D74   D(25,27,29,31)        -10.9699         estimate D2E/DX2                !
 ! D75   D(28,27,29,30)          3.8416         estimate D2E/DX2                !
 ! D76   D(28,27,29,31)        170.9989         estimate D2E/DX2                !
 ! D77   D(27,29,31,22)         12.063          estimate D2E/DX2                !
 ! D78   D(27,29,31,32)       -162.4442         estimate D2E/DX2                !
 ! D79   D(30,29,31,22)        179.0148         estimate D2E/DX2                !
 ! D80   D(30,29,31,32)          4.5076         estimate D2E/DX2                !
 --------------------------------------------------------------------------------
 Trust Radius=3.00D-01 FncErr=1.00D-07 GrdErr=1.00D-06 EigMax=2.50D+02 EigMin=1.00D-04
 Number of steps in this run=    178 maximum allowed number of steps=    192.
 GradGradGradGradGradGradGradGradGradGradGradGradGradGradGradGradGradGrad

 Leave Link  103 at Sun Jul 11 15:57:28 2021, MaxMem=   104857600 cpu:               0.1 elap:               0.0
 (Enter /prod/apps/gaussian/g16b1/l202.exe)
                          Input orientation:                          
 ---------------------------------------------------------------------
 Center     Atomic      Atomic             Coordinates (Angstroms)
 Number     Number       Type             X           Y           Z
 ---------------------------------------------------------------------
      1          6           0        1.472000   -0.823000    1.663000
      2          1           0        2.045000   -0.031000    2.149000
      3          1           0        2.043000   -1.274000    0.848000
      4          1           0        1.240000   -1.648000    2.340000
      5          6           0        0.229000   -0.150000    1.102000
      6          6           0       -0.522000    0.500000    2.365000
      7          1           0       -1.380000    1.141000    2.153000
      8          1           0        0.148000    1.065000    3.016000
      9          1           0       -0.928000   -0.264000    3.031000
     10          6           0       -0.771000   -1.071000    0.363000
     11          6           0       -1.888000   -0.553000   -0.234000
     12          6           0       -2.769000   -1.321000   -1.001000
     13          6           0       -2.480000   -2.717000   -1.111000
     14          8           0       -3.409000   -3.554000   -1.695000
     15          1           0       -4.316000   -3.206000   -1.630000
     16          6           0       -1.318000   -3.236000   -0.590000
     17          6           0       -0.582000   -2.429000    0.247000
     18          1           0        0.239000   -2.884000    0.795000
     19          1           0       -1.140000   -4.286000   -0.804000
     20          1           0       -3.668000   -0.918000   -1.460000
     21          1           0       -2.002000    0.511000   -0.046000
     22          6           0        0.887000    0.954000    0.247000
     23          6           0        1.089000    2.313000    0.541000
     24          1           0        0.884000    2.711000    1.532000
     25          6           0        1.745000    3.210000   -0.312000
     26          1           0        1.898000    4.252000   -0.044000
     27          6           0        2.040000    2.765000   -1.597000
     28          8           0        2.652000    3.633000   -2.429000
     29          6           0        1.687000    1.505000   -2.017000
     30          1           0        1.960000    1.179000   -3.017000
     31          6           0        1.229000    0.584000   -1.053000
     32          1           0        1.216000   -0.478000   -1.286000
 ---------------------------------------------------------------------
                    Distance matrix (angstroms):
                    1          2          3          4          5
     1  C    0.000000
     2  H    1.091691   0.000000
     3  H    1.092551   1.799348   0.000000
     4  H    1.092144   1.816369   1.735151   0.000000
     5  C    1.520756   2.099578   2.149067   2.190609   0.000000
     6  C    2.493826   2.630229   3.468082   2.778340   1.606758
     7  H    3.497328   3.619976   4.387731   3.831173   2.315203
     8  H    2.673599   2.356165   3.709740   3.001634   2.268520
     9  H    2.818493   3.109814   3.822621   2.663299   2.252262
    10  C    2.604334   3.493029   2.862696   2.878468   1.547373
    11  C    3.867959   4.628138   4.140450   4.196294   2.535546
    12  C    5.032989   5.895863   5.155226   5.228890   3.844718
    13  C    5.186580   6.190139   5.135899   5.185611   4.338841
    14  O    6.523702   7.545461   6.433471   6.444165   5.713621
    15  H    7.072728   8.051322   7.092953   7.004099   6.120456
    16  C    4.322346   5.392950   4.148929   4.201191   3.844407
    17  C    2.967020   4.033502   2.930162   2.882758   2.565655
    18  H    2.553710   3.637934   2.418538   2.217368   2.751201
    19  H    4.990090   6.080252   4.683240   4.744279   4.755365
    20  H    6.015127   6.815425   6.170018   6.249909   4.726550
    21  H    4.094986   4.635731   4.510819   4.567805   2.594646
    22  C    2.346276   2.434911   2.580992   3.357925   1.543634
    23  C    3.352621   2.998989   3.724370   4.353013   2.668462
    24  H    3.584977   3.040917   4.206110   4.447525   2.966352
    25  C    4.498916   4.080515   4.641192   5.557724   3.948069
    26  H    5.371308   4.814036   5.599408   6.397376   4.845253
    27  C    4.880980   4.674415   4.721393   5.967792   4.365953
    28  O    6.163830   5.895034   5.931969   7.254383   5.714016
    29  C    4.359840   4.454550   4.007219   5.396727   3.820072
    30  H    5.113565   5.306494   4.578463   6.099818   4.661412
    31  C    3.068445   3.361084   2.780029   4.061329   2.486520
    32  H    2.980128   3.561780   2.423118   3.810164   2.604668
                    6          7          8          9         10
     6  C    0.000000
     7  H    1.091782   0.000000
     8  H    1.091754   1.756510   0.000000
     9  H    1.091828   1.717327   1.710042   0.000000
    10  C    2.556960   2.909970   3.527813   2.791795   0.000000
    11  C    3.119225   2.970769   4.162418   3.415457   1.368365
    12  C    4.437906   4.235384   5.508010   4.556704   2.432077
    13  C    5.124981   5.171833   6.184015   5.057873   2.793327
    14  O    6.422872   6.400545   7.495394   6.270131   4.166497
    15  H    6.639947   6.467426   7.730075   6.469840   4.593180
    16  C    4.829424   5.165852   5.800948   4.700694   2.427889
    17  C    3.615047   4.124868   4.517554   3.543670   1.375987
    18  H    3.807293   4.545982   4.531636   3.636755   2.119833
    19  H    5.773238   6.184964   6.699593   5.561354   3.440098
    20  H    5.151569   4.746387   6.207151   5.301358   3.426273
    21  H    2.829036   2.370524   3.782230   3.349930   2.045817
    22  C    2.584051   2.967675   2.868066   3.539549   2.619741
    23  C    3.034677   3.173025   2.927219   4.112094   3.865584
    24  H    2.749408   2.824223   2.335223   3.792225   4.290584
    25  C    4.432800   4.485823   4.269311   5.512645   5.011271
    26  H    5.073183   5.024979   4.752165   6.151110   5.968546
    27  C    5.233690   5.328816   5.267773   6.277121   5.143755
    28  O    6.547702   6.592557   6.520174   7.603592   6.452892
    29  C    5.009155   5.189209   5.281402   5.953981   4.282749
    30  H    5.965508   6.155156   6.300272   6.855735   4.893390
    31  C    3.841325   4.170799   4.237533   4.695829   2.957039
    32  H    4.160160   4.602944   4.693472   4.824834   2.649343
                   11         12         13         14         15
    11  C    0.000000
    12  C    1.397954   0.000000
    13  C    2.408836   1.429838   0.000000
    14  O    3.667964   2.424361   1.380096   0.000000
    15  H    3.857773   2.518348   1.969614   0.973642   0.000000
    16  C    2.765886   2.437529   1.375153   2.386300   3.173406
    17  C    2.335888   2.751025   2.351491   3.609559   4.250837
    18  H    3.319116   3.836228   3.324708   4.467315   5.170332
    19  H    3.849635   3.388757   2.086051   2.545205   3.454801
    20  H    2.191963   1.086872   2.183929   2.659098   2.384061
    21  H    1.086479   2.203755   3.432593   4.606851   4.656151
    22  C    3.194219   4.483243   5.163051   6.522963   6.920978
    23  C    4.204416   5.519772   6.384964   7.723561   8.024128
    24  H    4.632109   6.001460   6.911232   8.251885   8.488176
    25  C    5.231151   6.432797   7.322456   8.615573   8.924007
    26  H    6.120288   7.331785   8.298936   9.582468   9.836206
    27  C    5.319406   6.338540   7.121722   8.344517   8.720818
    28  O    6.553794   7.481213   8.270251   9.430135   9.796088
    29  C    4.493893   5.373497   6.000834   7.187933   7.640635
    30  H    5.054900   5.716441   6.206871   7.278402   7.780756
    31  C    3.417487   4.428965   4.965546   6.248700   6.741221
    32  H    3.278284   4.083148   4.324831   5.569532   6.177649
                   16         17         18         19         20
    16  C    0.000000
    17  C    1.376050   0.000000
    18  H    2.113381   1.086908   0.000000
    19  H    1.086269   2.205542   2.534570   0.000000
    20  H    3.413579   3.836713   4.920857   4.261988   0.000000
    21  H    3.847571   3.278086   4.153960   4.932425   2.610937
    22  C    4.808190   3.688177   3.930706   5.715849   5.212126
    23  C    6.153390   5.036392   5.272175   7.093960   6.088712
    24  H    6.687189   5.497270   5.680072   7.649280   6.545411
    25  C    7.142140   6.125825   6.374192   8.047068   6.903539
    26  H    8.167675   7.132380   7.374191   9.094201   7.727504
    27  C    6.949979   6.103512   6.393471   7.775465   6.794448
    28  O    8.144076   7.373437   7.660812   8.929191   7.848118
    29  C    5.791669   5.074486   5.409932   6.557361   5.903999
    30  H    6.010644   5.489365   5.831051   6.661351   6.204518
    31  C    4.614540   3.748051   4.052435   5.421352   5.138313
    32  H    3.809480   3.064195   3.327751   4.503768   4.906866
                   21         22         23         24         25
    21  H    0.000000
    22  C    2.937417   0.000000
    23  C    3.625749   1.405034   0.000000
    24  H    3.957156   2.176760   1.087433   0.000000
    25  C    4.625513   2.477535   1.400912   2.095390   0.000000
    26  H    5.404173   3.461735   2.180923   2.426243   1.086737
    27  C    4.880971   2.830100   2.383222   3.336149   1.391501
    28  O    6.089769   4.177708   3.606421   4.434572   2.341638
    29  C    4.299023   2.463594   2.748424   3.833360   2.411932
    30  H    4.997050   3.443203   3.834574   4.919167   3.389426
    31  C    3.385076   1.394225   2.355818   3.365320   2.776907
    32  H    3.587652   2.123430   3.338224   4.268614   3.850956
                   26         27         28         29         30
    26  H    0.000000
    27  C    2.154795   0.000000
    28  O    2.576801   1.349145   0.000000
    29  C    3.388696   1.374267   2.372626   0.000000
    30  H    4.276202   2.130304   2.616625   1.086649   0.000000
    31  C    3.862624   2.389648   3.635204   1.409717   2.178459
    32  H    4.937670   3.360468   4.502096   2.165292   2.509093
                   31         32
    31  C    0.000000
    32  H    1.087337   0.000000
 Stoichiometry    C15H15O2(1-)
 Framework group  C1[X(C15H15O2)]
 Deg. of freedom    90
 Full point group                 C1      NOp   1
 Largest Abelian subgroup         C1      NOp   1
 Largest concise Abelian subgroup C1      NOp   1
                         Standard orientation:                         
 ---------------------------------------------------------------------
 Center     Atomic      Atomic             Coordinates (Angstroms)
 Number     Number       Type             X           Y           Z
 ---------------------------------------------------------------------
      1          6           0        0.296389    2.193785    1.348386
      2          1           0        1.257369    2.695571    1.219861
      3          1           0        0.325933    1.505167    2.196088
      4          1           0       -0.513256    2.890947    1.574699
      5          6           0        0.062944    1.411675    0.065224
      6          6           0        0.062564    2.501652   -1.115293
      7          1           0        0.033761    2.121411   -2.138316
      8          1           0        0.901836    3.197261   -1.054654
      9          1           0       -0.807761    3.158479   -1.058713
     10          6           0       -1.257524    0.608898   -0.013978
     11          6           0       -1.532183   -0.179032   -1.098484
     12          6           0       -2.658070   -1.003968   -1.176792
     13          6           0       -3.563918   -0.965889   -0.071158
     14          8           0       -4.779264   -1.611890   -0.172555
     15          1           0       -5.075890   -1.703677   -1.095358
     16          6           0       -3.259605   -0.246451    1.060588
     17          6           0       -2.195958    0.623891    0.992231
     18          1           0       -2.055415    1.316391    1.818101
     19          1           0       -3.961477   -0.352976    1.882786
     20          1           0       -2.890640   -1.615868   -2.044421
     21          1           0       -0.778627   -0.090070   -1.876092
     22          6           0        1.361807    0.578715    0.021193
     23          6           0        2.539651    0.795208   -0.713609
     24          1           0        2.691822    1.713838   -1.275278
     25          6           0        3.675628   -0.020449   -0.631048
     26          1           0        4.576243    0.187295   -1.202652
     27          6           0        3.552010   -1.212799    0.075560
     28          8           0        4.637233   -2.011835    0.138993
     29          6           0        2.361047   -1.582693    0.652964
     30          1           0        2.307808   -2.505914    1.223606
     31          6           0        1.326536   -0.627376    0.719737
     32          1           0        0.496637   -0.779055    1.405713
 ---------------------------------------------------------------------
 Rotational constants (GHZ):           0.8793453           0.2620554           0.2303276
 Leave Link  202 at Sun Jul 11 15:57:28 2021, MaxMem=   104857600 cpu:               0.0 elap:               0.0
 (Enter /prod/apps/gaussian/g16b1/l301.exe)
 Standard basis: 6-31G(d) (6D, 7F)
 Ernie: Thresh=  0.10000D-02 Tol=  0.10000D-05 Strict=F.
 There are   285 symmetry adapted cartesian basis functions of A   symmetry.
 There are   285 symmetry adapted basis functions of A   symmetry.
   285 basis functions,   536 primitive gaussians,   285 cartesian basis functions
    61 alpha electrons       61 beta electrons
       nuclear repulsion energy      1130.7111885267 Hartrees.
 IExCor=  402 DFT=T Ex+Corr=B3LYP ExCW=0 ScaHFX=  0.200000
 ScaDFX=  0.800000  0.720000  1.000000  0.810000 ScalE2=  1.000000  1.000000
 IRadAn=      5 IRanWt=     -1 IRanGd=            0 ICorTp=0 IEmpDi=  4
 NAtoms=   32 NActive=   32 NUniq=   32 SFac= 1.00D+00 NAtFMM=   60 NAOKFM=F Big=F
 Integral buffers will be    131072 words long.
 Raffenetti 2 integral format.
 Two-electron integral symmetry is turned on.
 Using the following non-standard input for PCM:
 MSTModel=DFT cav MSTCharged
 --- end of non-standard input.
 MST model for solvation energy: B3LYP parametrization.
 MST cavity parameters:
 ISph   IAn     Re0     Alpha   Atom Type   QCorr
 ------------------------------------------------
   1      6     1.50     1.25      CH3        F
   2      1     1.20     1.25      CH3        F
   3      1     1.20     1.25      CH3        F
   4      1     1.20     1.25      CH3        F
   5      6     1.50     1.25      C          F
   6      6     1.50     1.25      CH3        F
   7      1     1.20     1.25      CH3        F
   8      1     1.20     1.25      CH3        F
   9      1     1.20     1.25      CH3        F
  10      6     1.50     1.25      C          F
  11      6     1.50     1.25      CH         F
  12      6     1.50     1.25      CH         F
  13      6     1.50     1.25      C          F
  14      8     1.45     1.25      OH         F
  15      1     0.90     1.25      OH         F
  16      6     1.50     1.25      CH         F
  17      6     1.50     1.25      CH         F
  18      1     1.20     1.25      CH         F
  19      1     1.20     1.25      CH         F
  20      1     1.20     1.25      CH         F
  21      1     1.20     1.25      CH         F
  22      6     1.50     1.25      C          F
  23      6     1.50     1.25      CH         F
  24      1     1.20     1.25      CH         F
  25      6     1.50     1.25      CH         F
  26      1     1.20     1.25      CH         F
  27      6     1.50     1.25      C          F
  28      8     1.40     1.15      O          T
  29      6     1.50     1.25      CH         F
  30      1     1.20     1.25      CH         F
  31      6     1.50     1.25      CH         F
  32      1     1.20     1.25      CH         F
 ------------------------------------------------------------------------------
 Polarizable Continuum Model (PCM)
 =================================
 Model                : PCM.
 Atomic radii         : MST.
 Polarization charges : Total charges.
 Charge compensation  : None.
 Solution method      : On-the-fly selection.
 Cavity type          : Scaled VdW (van der Waals Surface) (Alpha=1.250).
 Cavity algorithm     : GePol (No added spheres)
                        Default sphere list used, NSphG=   32.
                        Lebedev-Laikov grids with approx.  5.0 points / Ang**2.
                        Smoothing algorithm: York/Karplus (Gamma=1.0000).
                        Polarization charges: spherical gaussians, with
                                              point-specific exponents (IZeta= 3).
                        Self-potential: point-specific (ISelfS= 7).
                        Self-field    : sphere-specific E.n sum rule (ISelfD= 2).
 1st derivatives      : Analytical E(r).r(x)/FMM algorithm (CHGder, D1EAlg=3).
                        Cavity 1st derivative terms included.
 Solvent              : Water, Eps=  78.355300 Eps(inf)=   1.777849
 ------------------------------------------------------------------------------
 GePol: Number of generator spheres                  =      32
 GePol: Total number of spheres                      =      32
 GePol: Number of exposed spheres                    =      32 (100.00%)
 GePol: Number of points                             =    2327
 GePol: Average weight of points                     =       0.13
 GePol: Minimum weight of points                     =   0.11D-09
 GePol: Maximum weight of points                     =    0.21416
 GePol: Number of points with low weight             =     160
 GePol: Fraction of low-weight points (<1% of avg)   =       6.88%
 GePol: Cavity surface area                          =    292.355 Ang**2
 GePol: Cavity volume                                =    282.918 Ang**3
 PCM non-electrostatic energy =         0.0020338864 Hartrees.
 Nuclear repulsion after PCM non-electrostatic terms =     1130.7132224131 Hartrees.
 Leave Link  301 at Sun Jul 11 15:57:28 2021, MaxMem=   104857600 cpu:               0.3 elap:               0.1
 (Enter /prod/apps/gaussian/g16b1/l302.exe)
 NPDir=0 NMtPBC=     1 NCelOv=     1 NCel=       1 NClECP=     1 NCelD=      1
         NCelK=      1 NCelE2=     1 NClLst=     1 CellRange=     0.0.
 One-electron integrals computed using PRISM.
 One-electron integral symmetry used in STVInt
 NBasis=   285 RedAO= T EigKep=  4.88D-04  NBF=   285
 NBsUse=   285 1.00D-06 EigRej= -1.00D+00 NBFU=   285
 Precomputing XC quadrature grid using
 IXCGrd= 4 IRadAn=           5 IRanWt=          -1 IRanGd=           0 AccXCQ= 0.00D+00.
 Generated NRdTot=       0 NPtTot=           0 NUsed=           0 NTot=          32
 NSgBfM=   283   283   283   283   283 MxSgAt=    32 MxSgA2=    32.
 Leave Link  302 at Sun Jul 11 15:57:29 2021, MaxMem=   104857600 cpu:               1.4 elap:               0.4
 (Enter /prod/apps/gaussian/g16b1/l303.exe)
 DipDrv:  MaxL=1.
 Leave Link  303 at Sun Jul 11 15:57:29 2021, MaxMem=   104857600 cpu:               0.1 elap:               0.1
 (Enter /prod/apps/gaussian/g16b1/l401.exe)
 ExpMin= 1.61D-01 ExpMax= 5.48D+03 ExpMxC= 8.25D+02 IAcc=3 IRadAn=         5 AccDes= 0.00D+00
 Harris functional with IExCor=  402 and IRadAn=       5 diagonalized for initial guess.
 HarFok:  IExCor=  402 AccDes= 0.00D+00 IRadAn=         5 IDoV= 1 UseB2=F ITyADJ=14
 ICtDFT=  3500011 ScaDFX=  1.000000  1.000000  1.000000  1.000000
 FoFCou: FMM=F IPFlag=           0 FMFlag=      100000 FMFlg1=           0
         NFxFlg=           0 DoJE=T BraDBF=F KetDBF=T FulRan=T
         wScrn=  0.000000 ICntrl=       500 IOpCl=  0 I1Cent=   200000004 NGrid=           0
         NMat0=    1 NMatS0=      1 NMatT0=    0 NMatD0=    1 NMtDS0=    0 NMtDT0=    0
 Petite list used in FoFCou.
 Harris En= -731.311525664637    
 JPrj=0 DoOrth=F DoCkMO=F.
 Leave Link  401 at Sun Jul 11 15:57:31 2021, MaxMem=   104857600 cpu:               7.9 elap:               2.0
 (Enter /prod/apps/gaussian/g16b1/l502.exe)
 Integral symmetry usage will be decided dynamically.
 Closed shell SCF:
 Using DIIS extrapolation, IDIIS=  1040.
 NGot=   104857600 LenX=   104690189 LenY=   104608523
 Requested convergence on RMS density matrix=1.00D-08 within 128 cycles.
 Requested convergence on MAX density matrix=1.00D-06.
 Requested convergence on             energy=1.00D-06.
 No special actions if energy rises.
 Fock matrices will be formed incrementally for  20 cycles.

 Cycle   1  Pass 1  IDiag  1:
 FoFJK:  IHMeth= 1 ICntrl=       0 DoSepK=F KAlg= 0 I1Cent=           0 FoldK=F
 IRaf= 840000000 NMat=       1 IRICut=       1 DoRegI=T DoRafI=F ISym2E= 0 IDoP0=0 IntGTp=1.
 FoFCou: FMM=F IPFlag=           0 FMFlag=      100000 FMFlg1=           0
         NFxFlg=           0 DoJE=F BraDBF=F KetDBF=F FulRan=T
         wScrn=  0.000000 ICntrl=         0 IOpCl=  0 I1Cent=           0 NGrid=           0
         NMat0=    1 NMatS0=      1 NMatT0=    0 NMatD0=    1 NMtDS0=    0 NMtDT0=    0
 Symmetry not used in FoFCou.
 Inv3:  Mode=1 IEnd=    16244787.
 Iteration    1 A*A^-1 deviation from unit magnitude is 4.00D-15 for   2037.
 Iteration    1 A*A^-1 deviation from orthogonality  is 3.41D-15 for   2302    821.
 Iteration    1 A^-1*A deviation from unit magnitude is 4.00D-15 for   2037.
 Iteration    1 A^-1*A deviation from orthogonality  is 5.22D-15 for   1982   1973.
 E= -730.650860904493    
 DIIS: error= 2.45D-02 at cycle   1 NSaved=   1.
 NSaved= 1 IEnMin= 1 EnMin= -730.650860904493     IErMin= 1 ErrMin= 2.45D-02
 ErrMax= 2.45D-02  0.00D+00 EMaxC= 1.00D-01 BMatC= 4.99D-01 BMatP= 4.99D-01
 IDIUse=3 WtCom= 7.55D-01 WtEn= 2.45D-01
 Coeff-Com:  0.100D+01
 Coeff-En:   0.100D+01
 Coeff:      0.100D+01
 Gap=     0.131 Goal=   None    Shift=    0.000
 GapD=    0.131 DampG=1.000 DampE=0.500 DampFc=0.5000 IDamp=-1.
 Damping current iteration by 5.00D-01
 RMSDP=6.04D-03 MaxDP=2.04D-01              OVMax= 2.42D-01

 Cycle   2  Pass 1  IDiag  1:
 RMSU=  2.99D-03    CP:  9.79D-01
 E= -730.884141040462     Delta-E=       -0.233280135969 Rises=F Damp=T
 DIIS: error= 1.19D-02 at cycle   2 NSaved=   2.
 NSaved= 2 IEnMin= 2 EnMin= -730.884141040462     IErMin= 2 ErrMin= 1.19D-02
 ErrMax= 1.19D-02  0.00D+00 EMaxC= 1.00D-01 BMatC= 2.68D-02 BMatP= 4.99D-01
 IDIUse=3 WtCom= 8.81D-01 WtEn= 1.19D-01
 Coeff-Com:  0.468D-01 0.953D+00
 Coeff-En:   0.400D-01 0.960D+00
 Coeff:      0.460D-01 0.954D+00
 Gap=     0.210 Goal=   None    Shift=    0.000
 RMSDP=1.51D-03 MaxDP=5.95D-02 DE=-2.33D-01 OVMax= 1.50D-01

 Cycle   3  Pass 1  IDiag  1:
 RMSU=  1.41D-03    CP:  9.67D-01  8.31D-01
 E= -731.128614189071     Delta-E=       -0.244473148609 Rises=F Damp=F
 DIIS: error= 1.08D-02 at cycle   3 NSaved=   3.
 NSaved= 3 IEnMin= 3 EnMin= -731.128614189071     IErMin= 3 ErrMin= 1.08D-02
 ErrMax= 1.08D-02  0.00D+00 EMaxC= 1.00D-01 BMatC= 2.67D-02 BMatP= 2.68D-02
 IDIUse=3 WtCom= 8.92D-01 WtEn= 1.08D-01
 Coeff-Com: -0.182D-01 0.504D+00 0.514D+00
 Coeff-En:   0.000D+00 0.000D+00 0.100D+01
 Coeff:     -0.162D-01 0.450D+00 0.567D+00
 Gap=     0.152 Goal=   None    Shift=    0.000
 RMSDP=8.86D-04 MaxDP=4.71D-02 DE=-2.44D-01 OVMax= 7.67D-02

 Cycle   4  Pass 1  IDiag  1:
 RMSU=  6.44D-04    CP:  9.70D-01  9.09D-01  6.03D-01
 E= -731.145021752332     Delta-E=       -0.016407563261 Rises=F Damp=F
 DIIS: error= 5.57D-03 at cycle   4 NSaved=   4.
 NSaved= 4 IEnMin= 4 EnMin= -731.145021752332     IErMin= 4 ErrMin= 5.57D-03
 ErrMax= 5.57D-03  0.00D+00 EMaxC= 1.00D-01 BMatC= 6.90D-03 BMatP= 2.67D-02
 IDIUse=3 WtCom= 9.44D-01 WtEn= 5.57D-02
 Coeff-Com: -0.949D-02 0.740D-01 0.347D+00 0.589D+00
 Coeff-En:   0.000D+00 0.000D+00 0.236D+00 0.764D+00
 Coeff:     -0.896D-02 0.699D-01 0.341D+00 0.598D+00
 Gap=     0.153 Goal=   None    Shift=    0.000
 RMSDP=3.46D-04 MaxDP=1.77D-02 DE=-1.64D-02 OVMax= 2.85D-02

 Cycle   5  Pass 1  IDiag  1:
 RMSU=  1.13D-04    CP:  9.69D-01  8.80D-01  7.37D-01  6.08D-01
 E= -731.150522586181     Delta-E=       -0.005500833849 Rises=F Damp=F
 DIIS: error= 5.88D-04 at cycle   5 NSaved=   5.
 NSaved= 5 IEnMin= 5 EnMin= -731.150522586181     IErMin= 5 ErrMin= 5.88D-04
 ErrMax= 5.88D-04  0.00D+00 EMaxC= 1.00D-01 BMatC= 1.97D-04 BMatP= 6.90D-03
 IDIUse=3 WtCom= 9.94D-01 WtEn= 5.88D-03
 Coeff-Com: -0.347D-02 0.132D-01 0.140D+00 0.295D+00 0.555D+00
 Coeff-En:   0.000D+00 0.000D+00 0.000D+00 0.000D+00 0.100D+01
 Coeff:     -0.345D-02 0.131D-01 0.139D+00 0.293D+00 0.558D+00
 Gap=     0.152 Goal=   None    Shift=    0.000
 RMSDP=5.66D-05 MaxDP=2.48D-03 DE=-5.50D-03 OVMax= 3.42D-03

 Cycle   6  Pass 1  IDiag  1:
 RMSU=  3.78D-05    CP:  9.69D-01  8.85D-01  7.32D-01  6.32D-01  6.89D-01
 E= -731.150681124113     Delta-E=       -0.000158537932 Rises=F Damp=F
 DIIS: error= 1.56D-04 at cycle   6 NSaved=   6.
 NSaved= 6 IEnMin= 6 EnMin= -731.150681124113     IErMin= 6 ErrMin= 1.56D-04
 ErrMax= 1.56D-04  0.00D+00 EMaxC= 1.00D-01 BMatC= 1.56D-05 BMatP= 1.97D-04
 IDIUse=3 WtCom= 9.98D-01 WtEn= 1.56D-03
 Coeff-Com: -0.968D-03 0.549D-03 0.368D-01 0.912D-01 0.279D+00 0.594D+00
 Coeff-En:   0.000D+00 0.000D+00 0.000D+00 0.000D+00 0.000D+00 0.100D+01
 Coeff:     -0.967D-03 0.548D-03 0.368D-01 0.910D-01 0.278D+00 0.594D+00
 Gap=     0.152 Goal=   None    Shift=    0.000
 RMSDP=1.56D-05 MaxDP=6.86D-04 DE=-1.59D-04 OVMax= 1.10D-03

 Cycle   7  Pass 1  IDiag  1:
 RMSU=  8.77D-06    CP:  9.69D-01  8.84D-01  7.33D-01  6.38D-01  7.13D-01
                    CP:  6.88D-01
 E= -731.150694061424     Delta-E=       -0.000012937311 Rises=F Damp=F
 DIIS: error= 3.39D-05 at cycle   7 NSaved=   7.
 NSaved= 7 IEnMin= 7 EnMin= -731.150694061424     IErMin= 7 ErrMin= 3.39D-05
 ErrMax= 3.39D-05  0.00D+00 EMaxC= 1.00D-01 BMatC= 1.13D-06 BMatP= 1.56D-05
 IDIUse=1 WtCom= 1.00D+00 WtEn= 0.00D+00
 Coeff-Com: -0.357D-03-0.214D-03 0.123D-01 0.331D-01 0.119D+00 0.314D+00
 Coeff-Com:  0.522D+00
 Coeff:     -0.357D-03-0.214D-03 0.123D-01 0.331D-01 0.119D+00 0.314D+00
 Coeff:      0.522D+00
 Gap=     0.152 Goal=   None    Shift=    0.000
 RMSDP=5.02D-06 MaxDP=1.40D-04 DE=-1.29D-05 OVMax= 4.10D-04

 Cycle   8  Pass 1  IDiag  1:
 RMSU=  2.80D-06    CP:  9.69D-01  8.84D-01  7.33D-01  6.40D-01  7.14D-01
                    CP:  6.97D-01  5.58D-01
 E= -731.150695064965     Delta-E=       -0.000001003542 Rises=F Damp=F
 DIIS: error= 9.75D-06 at cycle   8 NSaved=   8.
 NSaved= 8 IEnMin= 8 EnMin= -731.150695064965     IErMin= 8 ErrMin= 9.75D-06
 ErrMax= 9.75D-06  0.00D+00 EMaxC= 1.00D-01 BMatC= 8.50D-08 BMatP= 1.13D-06
 IDIUse=1 WtCom= 1.00D+00 WtEn= 0.00D+00
 Coeff-Com: -0.383D-04-0.208D-03 0.626D-03 0.301D-02 0.176D-01 0.636D-01
 Coeff-Com:  0.244D+00 0.672D+00
 Coeff:     -0.383D-04-0.208D-03 0.626D-03 0.301D-02 0.176D-01 0.636D-01
 Coeff:      0.244D+00 0.672D+00
 Gap=     0.152 Goal=   None    Shift=    0.000
 RMSDP=1.41D-06 MaxDP=5.51D-05 DE=-1.00D-06 OVMax= 1.18D-04

 Cycle   9  Pass 1  IDiag  1:
 RMSU=  7.52D-07    CP:  9.69D-01  8.84D-01  7.33D-01  6.39D-01  7.18D-01
                    CP:  7.03D-01  6.45D-01  7.36D-01
 E= -731.150695142493     Delta-E=       -0.000000077527 Rises=F Damp=F
 DIIS: error= 3.40D-06 at cycle   9 NSaved=   9.
 NSaved= 9 IEnMin= 9 EnMin= -731.150695142493     IErMin= 9 ErrMin= 3.40D-06
 ErrMax= 3.40D-06  0.00D+00 EMaxC= 1.00D-01 BMatC= 1.13D-08 BMatP= 8.50D-08
 IDIUse=1 WtCom= 1.00D+00 WtEn= 0.00D+00
 Coeff-Com: -0.421D-06-0.884D-04-0.511D-03-0.652D-03 0.165D-02 0.141D-01
 Coeff-Com:  0.990D-01 0.364D+00 0.523D+00
 Coeff:     -0.421D-06-0.884D-04-0.511D-03-0.652D-03 0.165D-02 0.141D-01
 Coeff:      0.990D-01 0.364D+00 0.523D+00
 Gap=     0.152 Goal=   None    Shift=    0.000
 RMSDP=4.91D-07 MaxDP=1.69D-05 DE=-7.75D-08 OVMax= 3.72D-05

 Cycle  10  Pass 1  IDiag  1:
 RMSU=  3.14D-07    CP:  9.69D-01  8.84D-01  7.33D-01  6.40D-01  7.17D-01
                    CP:  7.04D-01  6.31D-01  8.03D-01  6.29D-01
 E= -731.150695152784     Delta-E=       -0.000000010291 Rises=F Damp=F
 DIIS: error= 1.11D-06 at cycle  10 NSaved=  10.
 NSaved=10 IEnMin=10 EnMin= -731.150695152784     IErMin=10 ErrMin= 1.11D-06
 ErrMax= 1.11D-06  0.00D+00 EMaxC= 1.00D-01 BMatC= 8.70D-10 BMatP= 1.13D-08
 IDIUse=1 WtCom= 1.00D+00 WtEn= 0.00D+00
 Coeff-Com:  0.301D-05-0.134D-04-0.304D-03-0.643D-03-0.126D-02-0.981D-03
 Coeff-Com:  0.177D-01 0.913D-01 0.259D+00 0.635D+00
 Coeff:      0.301D-05-0.134D-04-0.304D-03-0.643D-03-0.126D-02-0.981D-03
 Coeff:      0.177D-01 0.913D-01 0.259D+00 0.635D+00
 Gap=     0.152 Goal=   None    Shift=    0.000
 RMSDP=1.64D-07 MaxDP=4.31D-06 DE=-1.03D-08 OVMax= 1.19D-05

 Cycle  11  Pass 1  IDiag  1:
 RMSU=  8.05D-08    CP:  9.69D-01  8.84D-01  7.33D-01  6.40D-01  7.17D-01
                    CP:  7.04D-01  6.38D-01  8.02D-01  7.07D-01  6.56D-01
 E= -731.150695153609     Delta-E=       -0.000000000826 Rises=F Damp=F
 DIIS: error= 4.20D-07 at cycle  11 NSaved=  11.
 NSaved=11 IEnMin=11 EnMin= -731.150695153609     IErMin=11 ErrMin= 4.20D-07
 ErrMax= 4.20D-07  0.00D+00 EMaxC= 1.00D-01 BMatC= 1.07D-10 BMatP= 8.70D-10
 IDIUse=1 WtCom= 1.00D+00 WtEn= 0.00D+00
 Coeff-Com:  0.140D-05-0.888D-06-0.144D-03-0.330D-03-0.823D-03-0.141D-02
 Coeff-Com:  0.404D-02 0.295D-01 0.112D+00 0.358D+00 0.499D+00
 Coeff:      0.140D-05-0.888D-06-0.144D-03-0.330D-03-0.823D-03-0.141D-02
 Coeff:      0.404D-02 0.295D-01 0.112D+00 0.358D+00 0.499D+00
 Gap=     0.152 Goal=   None    Shift=    0.000
 RMSDP=4.50D-08 MaxDP=1.87D-06 DE=-8.26D-10 OVMax= 3.98D-06

 Cycle  12  Pass 1  IDiag  1:
 RMSU=  2.70D-08    CP:  9.69D-01  8.84D-01  7.33D-01  6.40D-01  7.17D-01
                    CP:  7.04D-01  6.38D-01  8.03D-01  7.05D-01  7.13D-01
                    CP:  6.33D-01
 E= -731.150695153715     Delta-E=       -0.000000000106 Rises=F Damp=F
 DIIS: error= 1.22D-07 at cycle  12 NSaved=  12.
 NSaved=12 IEnMin=12 EnMin= -731.150695153715     IErMin=12 ErrMin= 1.22D-07
 ErrMax= 1.22D-07  0.00D+00 EMaxC= 1.00D-01 BMatC= 5.21D-12 BMatP= 1.07D-10
 IDIUse=1 WtCom= 1.00D+00 WtEn= 0.00D+00
 Coeff-Com: -0.691D-07 0.181D-05-0.115D-04-0.327D-04-0.142D-03-0.442D-03
 Coeff-Com: -0.139D-02-0.285D-02 0.304D-02 0.469D-01 0.197D+00 0.758D+00
 Coeff:     -0.691D-07 0.181D-05-0.115D-04-0.327D-04-0.142D-03-0.442D-03
 Coeff:     -0.139D-02-0.285D-02 0.304D-02 0.469D-01 0.197D+00 0.758D+00
 Gap=     0.152 Goal=   None    Shift=    0.000
 RMSDP=1.20D-08 MaxDP=3.68D-07 DE=-1.06D-10 OVMax= 1.18D-06

 Cycle  13  Pass 1  IDiag  1:
 RMSU=  7.94D-09    CP:  9.69D-01  8.84D-01  7.33D-01  6.40D-01  7.17D-01
                    CP:  7.04D-01  6.38D-01  8.04D-01  7.09D-01  7.18D-01
                    CP:  7.08D-01  8.41D-01
 E= -731.150695153719     Delta-E=       -0.000000000004 Rises=F Damp=F
 DIIS: error= 3.23D-08 at cycle  13 NSaved=  13.
 NSaved=13 IEnMin=13 EnMin= -731.150695153719     IErMin=13 ErrMin= 3.23D-08
 ErrMax= 3.23D-08  0.00D+00 EMaxC= 1.00D-01 BMatC= 8.52D-13 BMatP= 5.21D-12
 IDIUse=1 WtCom= 1.00D+00 WtEn= 0.00D+00
 Coeff-Com: -0.127D-06 0.102D-05 0.179D-05 0.136D-05-0.279D-04-0.149D-03
 Coeff-Com: -0.957D-03-0.305D-02-0.474D-02 0.535D-02 0.764D-01 0.411D+00
 Coeff-Com:  0.516D+00
 Coeff:     -0.127D-06 0.102D-05 0.179D-05 0.136D-05-0.279D-04-0.149D-03
 Coeff:     -0.957D-03-0.305D-02-0.474D-02 0.535D-02 0.764D-01 0.411D+00
 Coeff:      0.516D+00
 Gap=     0.152 Goal=   None    Shift=    0.000
 RMSDP=4.20D-09 MaxDP=1.15D-07 DE=-4.32D-12 OVMax= 2.90D-07

 Error on total polarization charges =  0.02228
 SCF Done:  E(RB3LYP) =  -731.150695154     A.U. after   13 cycles
            NFock= 13  Conv=0.42D-08     -V/T= 2.0090
 KE= 7.246107633544D+02 PE=-3.978664366060D+03 EE= 1.392189685139D+03
 Leave Link  502 at Sun Jul 11 15:58:30 2021, MaxMem=   104857600 cpu:             237.7 elap:              59.5
 (Enter /prod/apps/gaussian/g16b1/l601.exe)
 Copying SCF densities to generalized density rwf, IOpCl= 0 IROHF=0.

 **********************************************************************

            Population analysis using the SCF Density.

 **********************************************************************

 Orbital symmetries:
       Occupied  (A) (A) (A) (A) (A) (A) (A) (A) (A) (A) (A) (A)
                 (A) (A) (A) (A) (A) (A) (A) (A) (A) (A) (A) (A)
                 (A) (A) (A) (A) (A) (A) (A) (A) (A) (A) (A) (A)
                 (A) (A) (A) (A) (A) (A) (A) (A) (A) (A) (A) (A)
                 (A) (A) (A) (A) (A) (A) (A) (A) (A) (A) (A) (A)
                 (A)
       Virtual   (A) (A) (A) (A) (A) (A) (A) (A) (A) (A) (A) (A)
                 (A) (A) (A) (A) (A) (A) (A) (A) (A) (A) (A) (A)
                 (A) (A) (A) (A) (A) (A) (A) (A) (A) (A) (A) (A)
                 (A) (A) (A) (A) (A) (A) (A) (A) (A) (A) (A) (A)
                 (A) (A) (A) (A) (A) (A) (A) (A) (A) (A) (A) (A)
                 (A) (A) (A) (A) (A) (A) (A) (A) (A) (A) (A) (A)
                 (A) (A) (A) (A) (A) (A) (A) (A) (A) (A) (A) (A)
                 (A) (A) (A) (A) (A) (A) (A) (A) (A) (A) (A) (A)
                 (A) (A) (A) (A) (A) (A) (A) (A) (A) (A) (A) (A)
                 (A) (A) (A) (A) (A) (A) (A) (A) (A) (A) (A) (A)
                 (A) (A) (A) (A) (A) (A) (A) (A) (A) (A) (A) (A)
                 (A) (A) (A) (A) (A) (A) (A) (A) (A) (A) (A) (A)
                 (A) (A) (A) (A) (A) (A) (A) (A) (A) (A) (A) (A)
                 (A) (A) (A) (A) (A) (A) (A) (A) (A) (A) (A) (A)
                 (A) (A) (A) (A) (A) (A) (A) (A) (A) (A) (A) (A)
                 (A) (A) (A) (A) (A) (A) (A) (A) (A) (A) (A) (A)
                 (A) (A) (A) (A) (A) (A) (A) (A) (A) (A) (A) (A)
                 (A) (A) (A) (A) (A) (A) (A) (A) (A) (A) (A) (A)
                 (A) (A) (A) (A) (A) (A) (A) (A)
 The electronic state is 1-A.
 Alpha  occ. eigenvalues --  -19.16438 -19.02763 -10.24492 -10.20253 -10.18771
 Alpha  occ. eigenvalues --  -10.18694 -10.18264 -10.18209 -10.18103 -10.18004
 Alpha  occ. eigenvalues --  -10.16822 -10.16648 -10.16523 -10.16344 -10.16114
 Alpha  occ. eigenvalues --  -10.14656 -10.14574  -1.03988  -0.90125  -0.85986
 Alpha  occ. eigenvalues --   -0.82437  -0.78319  -0.74663  -0.72531  -0.71523
 Alpha  occ. eigenvalues --   -0.68348  -0.67605  -0.62348  -0.60041  -0.57990
 Alpha  occ. eigenvalues --   -0.57001  -0.53726  -0.53406  -0.48746  -0.47068
 Alpha  occ. eigenvalues --   -0.45287  -0.44189  -0.42714  -0.42241  -0.41834
 Alpha  occ. eigenvalues --   -0.41033  -0.40240  -0.39820  -0.39324  -0.38184
 Alpha  occ. eigenvalues --   -0.37550  -0.36487  -0.35405  -0.34132  -0.33542
 Alpha  occ. eigenvalues --   -0.33278  -0.32327  -0.32089  -0.30703  -0.29666
 Alpha  occ. eigenvalues --   -0.26270  -0.24965  -0.22577  -0.21409  -0.18124
 Alpha  occ. eigenvalues --   -0.15414
 Alpha virt. eigenvalues --   -0.00217   0.01335   0.01800   0.05231   0.09497
 Alpha virt. eigenvalues --    0.10144   0.11855   0.13158   0.13863   0.14568
 Alpha virt. eigenvalues --    0.15579   0.15978   0.16770   0.17217   0.17944
 Alpha virt. eigenvalues --    0.18842   0.19461   0.20128   0.21724   0.22724
 Alpha virt. eigenvalues --    0.23551   0.23674   0.24703   0.25681   0.26653
 Alpha virt. eigenvalues --    0.27190   0.29839   0.30794   0.33059   0.34810
 Alpha virt. eigenvalues --    0.36337   0.37049   0.38471   0.39224   0.40780
 Alpha virt. eigenvalues --    0.48952   0.50201   0.51146   0.51498   0.52202
 Alpha virt. eigenvalues --    0.52751   0.53421   0.54395   0.55013   0.56595
 Alpha virt. eigenvalues --    0.56833   0.57132   0.58402   0.60254   0.61259
 Alpha virt. eigenvalues --    0.61664   0.61849   0.62408   0.63306   0.63908
 Alpha virt. eigenvalues --    0.64365   0.65220   0.65269   0.67140   0.67862
 Alpha virt. eigenvalues --    0.69303   0.70028   0.71184   0.72335   0.74153
 Alpha virt. eigenvalues --    0.75915   0.77932   0.78286   0.79048   0.81354
 Alpha virt. eigenvalues --    0.81880   0.83255   0.83614   0.84517   0.84731
 Alpha virt. eigenvalues --    0.86744   0.87215   0.87716   0.88396   0.89178
 Alpha virt. eigenvalues --    0.90208   0.90667   0.90839   0.91468   0.92466
 Alpha virt. eigenvalues --    0.94674   0.95649   0.96820   0.97995   0.98865
 Alpha virt. eigenvalues --    0.99571   1.01079   1.01886   1.02381   1.03270
 Alpha virt. eigenvalues --    1.03980   1.04123   1.05759   1.06673   1.09266
 Alpha virt. eigenvalues --    1.12356   1.12767   1.15834   1.17013   1.17957
 Alpha virt. eigenvalues --    1.20222   1.21667   1.23436   1.25949   1.28239
 Alpha virt. eigenvalues --    1.29335   1.31070   1.32892   1.34963   1.35552
 Alpha virt. eigenvalues --    1.36611   1.39119   1.41703   1.42912   1.45121
 Alpha virt. eigenvalues --    1.46758   1.48874   1.49902   1.52164   1.53116
 Alpha virt. eigenvalues --    1.53936   1.57701   1.61090   1.63015   1.64210
 Alpha virt. eigenvalues --    1.68999   1.70328   1.74166   1.74938   1.77843
 Alpha virt. eigenvalues --    1.79423   1.81255   1.82600   1.84075   1.84871
 Alpha virt. eigenvalues --    1.87358   1.88930   1.89954   1.90018   1.91255
 Alpha virt. eigenvalues --    1.93665   1.94352   1.95531   1.96989   1.97719
 Alpha virt. eigenvalues --    1.98805   2.00257   2.01183   2.02319   2.07341
 Alpha virt. eigenvalues --    2.08696   2.09332   2.10418   2.12399   2.13314
 Alpha virt. eigenvalues --    2.16196   2.16647   2.17576   2.19236   2.20211
 Alpha virt. eigenvalues --    2.21692   2.24368   2.24804   2.28218   2.28668
 Alpha virt. eigenvalues --    2.30216   2.31174   2.32872   2.33971   2.36405
 Alpha virt. eigenvalues --    2.38466   2.39818   2.41233   2.43174   2.45075
 Alpha virt. eigenvalues --    2.49487   2.49665   2.57168   2.57648   2.59665
 Alpha virt. eigenvalues --    2.60393   2.63198   2.64555   2.65377   2.66550
 Alpha virt. eigenvalues --    2.69669   2.70939   2.72430   2.76965   2.78273
 Alpha virt. eigenvalues --    2.79006   2.82648   2.88825   2.91335   2.94223
 Alpha virt. eigenvalues --    2.98441   3.01233   3.05213   3.13417   3.20207
 Alpha virt. eigenvalues --    3.42005   3.42460   3.91671   3.95641   4.11070
 Alpha virt. eigenvalues --    4.13508   4.14173   4.15805   4.22916   4.26087
 Alpha virt. eigenvalues --    4.29853   4.33180   4.33994   4.39099   4.45131
 Alpha virt. eigenvalues --    4.52598   4.67831   4.74956   4.79103
          Condensed to atoms (all electrons):
               1          2          3          4          5          6
     1  C    5.226937   0.368043   0.366824   0.337192   0.344143  -0.059155
     2  H    0.368043   0.559280  -0.025276  -0.024277  -0.030235  -0.007509
     3  H    0.366824  -0.025276   0.577372  -0.037697  -0.031088   0.006669
     4  H    0.337192  -0.024277  -0.037697   0.609063  -0.024720  -0.005855
     5  C    0.344143  -0.030235  -0.031088  -0.024720   5.026242   0.338700
     6  C   -0.059155  -0.007509   0.006669  -0.005855   0.338700   5.212838
     7  H    0.005034   0.000017  -0.000179  -0.000070  -0.020233   0.365327
     8  H   -0.006216   0.005063  -0.000007   0.000317  -0.019800   0.358868
     9  H   -0.003799  -0.000166  -0.000115   0.003441  -0.024501   0.360163
    10  C   -0.035497   0.004449  -0.005750  -0.004940   0.372432  -0.049154
    11  C    0.006587  -0.000101  -0.000056  -0.000362  -0.063570  -0.009488
    12  C   -0.000206   0.000003   0.000000   0.000008   0.006690   0.000189
    13  C    0.000010   0.000000  -0.000002  -0.000010  -0.000070   0.000003
    14  O   -0.000000  -0.000000  -0.000000   0.000000   0.000000  -0.000000
    15  H    0.000000   0.000000  -0.000000  -0.000000  -0.000000   0.000000
    16  C   -0.000020  -0.000000  -0.000157   0.000207   0.006787  -0.000132
    17  C   -0.011909   0.000349   0.002178   0.001172  -0.047218   0.002335
    18  H    0.008347  -0.000085   0.001329   0.001421  -0.018120   0.000439
    19  H   -0.000001  -0.000000   0.000002   0.000003  -0.000077   0.000001
    20  H    0.000001  -0.000000   0.000000   0.000000  -0.000129   0.000003
    21  H    0.000322  -0.000019   0.000005  -0.000023  -0.011392   0.002168
    22  C   -0.083911  -0.004339  -0.009369   0.009044   0.356219  -0.040868
    23  C   -0.001673   0.003379  -0.000338  -0.000022  -0.050502  -0.009968
    24  H    0.000324   0.000285   0.000006  -0.000030  -0.010404   0.004198
    25  C   -0.000166  -0.000084   0.000008  -0.000001   0.004799   0.000032
    26  H    0.000002   0.000003   0.000001  -0.000000  -0.000097   0.000003
    27  C    0.000002   0.000003  -0.000024  -0.000000   0.000201  -0.000010
    28  O   -0.000000  -0.000000  -0.000000   0.000000   0.000001   0.000000
    29  C    0.000107  -0.000104  -0.000045   0.000002   0.005588  -0.000140
    30  H    0.000001  -0.000000   0.000009  -0.000000  -0.000150   0.000002
    31  C   -0.008574  -0.000587   0.005179   0.000205  -0.059093   0.005495
    32  H    0.000645   0.000098   0.003189  -0.000252  -0.013038   0.000297
               7          8          9         10         11         12
     1  C    0.005034  -0.006216  -0.003799  -0.035497   0.006587  -0.000206
     2  H    0.000017   0.005063  -0.000166   0.004449  -0.000101   0.000003
     3  H   -0.000179  -0.000007  -0.000115  -0.005750  -0.000056   0.000000
     4  H   -0.000070   0.000317   0.003441  -0.004940  -0.000362   0.000008
     5  C   -0.020233  -0.019800  -0.024501   0.372432  -0.063570   0.006690
     6  C    0.365327   0.358868   0.360163  -0.049154  -0.009488   0.000189
     7  H    0.569722  -0.031588  -0.035892  -0.004896   0.002380  -0.000000
     8  H   -0.031588   0.579110  -0.035109   0.004433   0.000209   0.000002
     9  H   -0.035892  -0.035109   0.591817  -0.001901   0.000063  -0.000035
    10  C   -0.004896   0.004433  -0.001901   4.684205   0.523665  -0.017885
    11  C    0.002380   0.000209   0.000063   0.523665   5.101814   0.432846
    12  C   -0.000000   0.000002  -0.000035  -0.017885   0.432846   5.160853
    13  C   -0.000001   0.000000  -0.000009  -0.037306  -0.002631   0.488289
    14  O   -0.000000   0.000000   0.000000   0.000426   0.004694  -0.055827
    15  H    0.000000   0.000000   0.000000  -0.000032   0.000436  -0.003866
    16  C    0.000004   0.000001  -0.000011  -0.020410  -0.054180  -0.059500
    17  C   -0.000138  -0.000059   0.000845   0.525193  -0.047457  -0.057469
    18  H   -0.000004  -0.000026  -0.000067  -0.040159   0.009218   0.000329
    19  H    0.000000  -0.000000   0.000000   0.003664  -0.000172   0.007469
    20  H    0.000000  -0.000000  -0.000000   0.002564  -0.033607   0.355182
    21  H    0.003391  -0.000203   0.000044  -0.048399   0.345551  -0.040483
    22  C   -0.003862  -0.005681   0.003796  -0.043430  -0.006101   0.000121
    23  C    0.001647   0.001594   0.000237   0.002041   0.000797   0.000004
    24  H    0.000657   0.002187  -0.000139   0.000050  -0.000029  -0.000000
    25  C   -0.000020   0.000100  -0.000000  -0.000042  -0.000005   0.000000
    26  H    0.000002  -0.000002  -0.000000   0.000000   0.000000   0.000000
    27  C   -0.000004  -0.000002   0.000000   0.000009  -0.000005   0.000000
    28  O   -0.000000  -0.000000  -0.000000   0.000000   0.000000   0.000000
    29  C   -0.000001   0.000002   0.000002   0.000398  -0.000135  -0.000025
    30  H    0.000000   0.000000  -0.000000  -0.000005   0.000005  -0.000000
    31  C    0.000006  -0.000146  -0.000095  -0.009931  -0.000490  -0.000169
    32  H    0.000001  -0.000010  -0.000008   0.006013   0.000231  -0.000183
              13         14         15         16         17         18
     1  C    0.000010  -0.000000   0.000000  -0.000020  -0.011909   0.008347
     2  H    0.000000  -0.000000   0.000000  -0.000000   0.000349  -0.000085
     3  H   -0.000002  -0.000000  -0.000000  -0.000157   0.002178   0.001329
     4  H   -0.000010   0.000000  -0.000000   0.000207   0.001172   0.001421
     5  C   -0.000070   0.000000  -0.000000   0.006787  -0.047218  -0.018120
     6  C    0.000003  -0.000000   0.000000  -0.000132   0.002335   0.000439
     7  H   -0.000001  -0.000000   0.000000   0.000004  -0.000138  -0.000004
     8  H    0.000000   0.000000   0.000000   0.000001  -0.000059  -0.000026
     9  H   -0.000009   0.000000   0.000000  -0.000011   0.000845  -0.000067
    10  C   -0.037306   0.000426  -0.000032  -0.020410   0.525193  -0.040159
    11  C   -0.002631   0.004694   0.000436  -0.054180  -0.047457   0.009218
    12  C    0.488289  -0.055827  -0.003866  -0.059500  -0.057469   0.000329
    13  C    4.511992   0.272886  -0.023438   0.537049  -0.007975   0.005192
    14  O    0.272886   8.276024   0.249778  -0.051340   0.002737  -0.000081
    15  H   -0.023438   0.249778   0.308745   0.004015  -0.000165   0.000006
    16  C    0.537049  -0.051340   0.004015   5.017422   0.490435  -0.052915
    17  C   -0.007975   0.002737  -0.000165   0.490435   5.064366   0.352998
    18  H    0.005192  -0.000081   0.000006  -0.052915   0.352998   0.600853
    19  H   -0.042036   0.000305  -0.000364   0.347653  -0.038016  -0.006042
    20  H   -0.038634  -0.004448   0.003687   0.004929   0.000555   0.000017
    21  H    0.002880  -0.000051  -0.000008   0.000586   0.009018  -0.000287
    22  C    0.000033   0.000000   0.000000  -0.000011  -0.001179   0.000104
    23  C    0.000000   0.000000  -0.000000   0.000002  -0.000250  -0.000000
    24  H    0.000000   0.000000  -0.000000   0.000000   0.000002   0.000000
    25  C   -0.000000   0.000000  -0.000000  -0.000000   0.000000   0.000000
    26  H   -0.000000   0.000000  -0.000000   0.000000  -0.000000  -0.000000
    27  C    0.000000  -0.000000  -0.000000   0.000000  -0.000000  -0.000000
    28  O    0.000000   0.000000   0.000000   0.000000  -0.000000   0.000000
    29  C    0.000000   0.000000  -0.000000  -0.000002   0.000067   0.000001
    30  H   -0.000000   0.000000  -0.000000  -0.000000   0.000000   0.000000
    31  C    0.000011  -0.000000  -0.000000  -0.000228   0.000349  -0.000107
    32  H   -0.000033  -0.000000   0.000000   0.000518   0.001950   0.000018
              19         20         21         22         23         24
     1  C   -0.000001   0.000001   0.000322  -0.083911  -0.001673   0.000324
     2  H   -0.000000  -0.000000  -0.000019  -0.004339   0.003379   0.000285
     3  H    0.000002   0.000000   0.000005  -0.009369  -0.000338   0.000006
     4  H    0.000003   0.000000  -0.000023   0.009044  -0.000022  -0.000030
     5  C   -0.000077  -0.000129  -0.011392   0.356219  -0.050502  -0.010404
     6  C    0.000001   0.000003   0.002168  -0.040868  -0.009968   0.004198
     7  H    0.000000   0.000000   0.003391  -0.003862   0.001647   0.000657
     8  H   -0.000000  -0.000000  -0.000203  -0.005681   0.001594   0.002187
     9  H    0.000000  -0.000000   0.000044   0.003796   0.000237  -0.000139
    10  C    0.003664   0.002564  -0.048399  -0.043430   0.002041   0.000050
    11  C   -0.000172  -0.033607   0.345551  -0.006101   0.000797  -0.000029
    12  C    0.007469   0.355182  -0.040483   0.000121   0.000004  -0.000000
    13  C   -0.042036  -0.038634   0.002880   0.000033   0.000000   0.000000
    14  O    0.000305  -0.004448  -0.000051   0.000000   0.000000   0.000000
    15  H   -0.000364   0.003687  -0.000008   0.000000  -0.000000  -0.000000
    16  C    0.347653   0.004929   0.000586  -0.000011   0.000002   0.000000
    17  C   -0.038016   0.000555   0.009018  -0.001179  -0.000250   0.000002
    18  H   -0.006042   0.000017  -0.000287   0.000104  -0.000000   0.000000
    19  H    0.581179  -0.000176   0.000022  -0.000000  -0.000000  -0.000000
    20  H   -0.000176   0.561477  -0.004048  -0.000003  -0.000000   0.000000
    21  H    0.000022  -0.004048   0.597451   0.005461   0.000279  -0.000030
    22  C   -0.000000  -0.000003   0.005461   4.838989   0.518638  -0.047703
    23  C   -0.000000  -0.000000   0.000279   0.518638   5.189626   0.338082
    24  H   -0.000000   0.000000  -0.000030  -0.047703   0.338082   0.642287
    25  C    0.000000  -0.000000  -0.000011  -0.033499   0.375458  -0.040818
    26  H   -0.000000  -0.000000  -0.000000   0.003964  -0.043015  -0.006597
    27  C    0.000000  -0.000000  -0.000017  -0.034778   0.005522   0.003793
    28  O    0.000000   0.000000   0.000000   0.000421   0.008144  -0.000134
    29  C   -0.000000  -0.000000  -0.000092  -0.040553  -0.041010   0.000481
    30  H   -0.000000   0.000000   0.000000   0.004820  -0.000491   0.000025
    31  C    0.000000  -0.000001   0.001328   0.522044  -0.052294   0.007247
    32  H   -0.000002   0.000000   0.000045  -0.050275   0.007350  -0.000241
              25         26         27         28         29         30
     1  C   -0.000166   0.000002   0.000002  -0.000000   0.000107   0.000001
     2  H   -0.000084   0.000003   0.000003  -0.000000  -0.000104  -0.000000
     3  H    0.000008   0.000001  -0.000024  -0.000000  -0.000045   0.000009
     4  H   -0.000001  -0.000000  -0.000000   0.000000   0.000002  -0.000000
     5  C    0.004799  -0.000097   0.000201   0.000001   0.005588  -0.000150
     6  C    0.000032   0.000003  -0.000010   0.000000  -0.000140   0.000002
     7  H   -0.000020   0.000002  -0.000004  -0.000000  -0.000001   0.000000
     8  H    0.000100  -0.000002  -0.000002  -0.000000   0.000002   0.000000
     9  H   -0.000000  -0.000000   0.000000  -0.000000   0.000002  -0.000000
    10  C   -0.000042   0.000000   0.000009   0.000000   0.000398  -0.000005
    11  C   -0.000005   0.000000  -0.000005   0.000000  -0.000135   0.000005
    12  C    0.000000   0.000000   0.000000   0.000000  -0.000025  -0.000000
    13  C   -0.000000  -0.000000   0.000000   0.000000   0.000000  -0.000000
    14  O    0.000000   0.000000  -0.000000   0.000000   0.000000   0.000000
    15  H   -0.000000  -0.000000  -0.000000   0.000000  -0.000000  -0.000000
    16  C   -0.000000   0.000000   0.000000   0.000000  -0.000002  -0.000000
    17  C    0.000000  -0.000000  -0.000000  -0.000000   0.000067   0.000000
    18  H    0.000000  -0.000000  -0.000000   0.000000   0.000001   0.000000
    19  H    0.000000  -0.000000   0.000000   0.000000  -0.000000  -0.000000
    20  H   -0.000000  -0.000000  -0.000000   0.000000  -0.000000   0.000000
    21  H   -0.000011  -0.000000  -0.000017   0.000000  -0.000092   0.000000
    22  C   -0.033499   0.003964  -0.034778   0.000421  -0.040553   0.004820
    23  C    0.375458  -0.043015   0.005522   0.008144  -0.041010  -0.000491
    24  H   -0.040818  -0.006597   0.003793  -0.000134   0.000481   0.000025
    25  C    5.332974   0.341957   0.449529  -0.075905  -0.074208   0.010088
    26  H    0.341957   0.633608  -0.040455   0.001384   0.008940  -0.000167
    27  C    0.449529  -0.040455   4.397845   0.395076   0.465999  -0.044796
    28  O   -0.075905   0.001384   0.395076   8.631581  -0.072996   0.001489
    29  C   -0.074208   0.008940   0.465999  -0.072996   5.306688   0.335187
    30  H    0.010088  -0.000167  -0.044796   0.001489   0.335187   0.651858
    31  C   -0.044257  -0.000181   0.006758   0.006267   0.394182  -0.044707
    32  H    0.000404   0.000021   0.003001  -0.000086  -0.036028  -0.005779
              31         32
     1  C   -0.008574   0.000645
     2  H   -0.000587   0.000098
     3  H    0.005179   0.003189
     4  H    0.000205  -0.000252
     5  C   -0.059093  -0.013038
     6  C    0.005495   0.000297
     7  H    0.000006   0.000001
     8  H   -0.000146  -0.000010
     9  H   -0.000095  -0.000008
    10  C   -0.009931   0.006013
    11  C   -0.000490   0.000231
    12  C   -0.000169  -0.000183
    13  C    0.000011  -0.000033
    14  O   -0.000000  -0.000000
    15  H   -0.000000   0.000000
    16  C   -0.000228   0.000518
    17  C    0.000349   0.001950
    18  H   -0.000107   0.000018
    19  H    0.000000  -0.000002
    20  H   -0.000001   0.000000
    21  H    0.001328   0.000045
    22  C    0.522044  -0.050275
    23  C   -0.052294   0.007350
    24  H    0.007247  -0.000241
    25  C   -0.044257   0.000404
    26  H   -0.000181   0.000021
    27  C    0.006758   0.003001
    28  O    0.006267  -0.000086
    29  C    0.394182  -0.036028
    30  H   -0.044707  -0.005779
    31  C    5.162571   0.340872
    32  H    0.340872   0.626319
 Mulliken charges:
               1
     1  C   -0.453395
     2  H    0.151813
     3  H    0.147334
     4  H    0.136185
     5  C   -0.037366
     6  C   -0.475452
     7  H    0.148700
     8  H    0.146963
     9  H    0.141439
    10  C    0.190193
    11  C   -0.210107
    12  C   -0.216336
    13  C    0.333800
    14  O   -0.695103
    15  H    0.461207
    16  C   -0.170704
    17  C   -0.242715
    18  H    0.137620
    19  H    0.146587
    20  H    0.152631
    21  H    0.136514
    22  C    0.141907
    23  C   -0.253237
    24  H    0.106500
    25  C   -0.246335
    26  H    0.100630
    27  C    0.392354
    28  O   -0.895242
    29  C   -0.252305
    30  H    0.092611
    31  C   -0.231653
    32  H    0.114961
 Sum of Mulliken charges =  -1.00000
 Mulliken charges with hydrogens summed into heavy atoms:
               1
     1  C   -0.018063
     5  C   -0.037366
     6  C   -0.038350
    10  C    0.190193
    11  C   -0.073593
    12  C   -0.063705
    13  C    0.333800
    14  O   -0.233896
    16  C   -0.024117
    17  C   -0.105094
    22  C    0.141907
    23  C   -0.146736
    25  C   -0.145705
    27  C    0.392354
    28  O   -0.895242
    29  C   -0.159694
    31  C   -0.116692
 Electronic spatial extent (au):  <R**2>=           4825.6738
 Charge=             -1.0000 electrons
 Dipole moment (field-independent basis, Debye):
    X=            -19.1698    Y=              7.7815    Z=             -2.2267  Tot=             20.8084
 Quadrupole moment (field-independent basis, Debye-Ang):
   XX=           -182.3494   YY=           -117.0313   ZZ=            -96.8317
   XY=             36.6802   XZ=              4.7367   YZ=              4.5426
 Traceless Quadrupole moment (field-independent basis, Debye-Ang):
   XX=            -50.2786   YY=             15.0395   ZZ=             35.2391
   XY=             36.6802   XZ=              4.7367   YZ=              4.5426
 Octapole moment (field-independent basis, Debye-Ang**2):
  XXX=           -424.9027  YYY=             26.5688  ZZZ=             -5.7988  XYY=            -78.9265
  XXY=            149.9453  XXZ=            -61.6179  XZZ=            -32.6086  YZZ=             -9.3362
  YYZ=            -10.2641  XYZ=            -19.8546
 Hexadecapole moment (field-independent basis, Debye-Ang**3):
 XXXX=          -6207.1448 YYYY=          -1339.5127 ZZZZ=           -559.4660 XXXY=            855.8102
 XXXZ=            164.1336 YYYX=            179.0321 YYYZ=             11.6839 ZZZX=             17.8067
 ZZZY=             13.8123 XXYY=          -1304.6068 XXZZ=           -766.7333 YYZZ=           -295.8374
[...]
     32          1           0        0.717496   -0.472487    1.803702
 ---------------------------------------------------------------------
 Rotational constants (GHZ):           0.8605857           0.2618065           0.2324175
 Leave Link  202 at Sun Jul 11 16:20:29 2021, MaxMem=   262144000 cpu:               0.0 elap:               0.0
 (Enter /prod/apps/gaussian/g16b1/l301.exe)
 Standard basis: Aug-CC-pVDZ (5D, 7F)
 Ernie: Thresh=  0.10000D-02 Tol=  0.10000D-05 Strict=F.
 Ernie:  34 primitive shells out of 530 were deleted.
 There are   560 symmetry adapted cartesian basis functions of A   symmetry.
 There are   526 symmetry adapted basis functions of A   symmetry.
   526 basis functions,   896 primitive gaussians,   560 cartesian basis functions
    61 alpha electrons       61 beta electrons
       nuclear repulsion energy      1129.3683410102 Hartrees.
 IExCor=    0 DFT=F Ex=HF Corr=None ExCW=0 ScaHFX=  1.000000
 ScaDFX=  1.000000  1.000000  1.000000  1.000000 ScalE2=  1.000000  1.000000
 IRadAn=      5 IRanWt=     -1 IRanGd=            0 ICorTp=0 IEmpDi=  4
 NAtoms=   32 NActive=   32 NUniq=   32 SFac= 1.00D+00 NAtFMM=   60 NAOKFM=F Big=F
 Integral buffers will be    131072 words long.
 Raffenetti 1 integral format.
 Two-electron integral symmetry is turned on.
 Leave Link  301 at Sun Jul 11 16:20:29 2021, MaxMem=   262144000 cpu:               0.3 elap:               0.1
 (Enter /prod/apps/gaussian/g16b1/l302.exe)
 NPDir=0 NMtPBC=     1 NCelOv=     1 NCel=       1 NClECP=     1 NCelD=      1
         NCelK=      1 NCelE2=     1 NClLst=     1 CellRange=     0.0.
 One-electron integrals computed using PRISM.
 One-electron integral symmetry used in STVInt
 NBasis=   526 RedAO= T EigKep=  1.35D-06  NBF=   526
 NBsUse=   526 1.00D-06 EigRej= -1.00D+00 NBFU=   526
 Leave Link  302 at Sun Jul 11 16:20:29 2021, MaxMem=   262144000 cpu:               1.4 elap:               0.4
 (Enter /prod/apps/gaussian/g16b1/l303.exe)
 DipDrv:  MaxL=1.
 Leave Link  303 at Sun Jul 11 16:20:29 2021, MaxMem=   262144000 cpu:               0.3 elap:               0.1
 (Enter /prod/apps/gaussian/g16b1/l401.exe)
 ExpMin= 2.97D-02 ExpMax= 1.17D+04 ExpMxC= 4.01D+02 IAcc=3 IRadAn=         5 AccDes= 0.00D+00
 Harris functional with IExCor=  205 and IRadAn=       5 diagonalized for initial guess.
 HarFok:  IExCor=  205 AccDes= 0.00D+00 IRadAn=         5 IDoV= 1 UseB2=F ITyADJ=14
 ICtDFT=  3500011 ScaDFX=  1.000000  1.000000  1.000000  1.000000
 FoFCou: FMM=F IPFlag=           0 FMFlag=      100000 FMFlg1=           0
         NFxFlg=           0 DoJE=T BraDBF=F KetDBF=T FulRan=T
         wScrn=  0.000000 ICntrl=       500 IOpCl=  0 I1Cent=   200000004 NGrid=           0
         NMat0=    1 NMatS0=      1 NMatT0=    0 NMatD0=    1 NMtDS0=    0 NMtDT0=    0
 Petite list used in FoFCou.
 Harris En= -727.770855192479    
 JPrj=0 DoOrth=F DoCkMO=F.
 Leave Link  401 at Sun Jul 11 16:20:32 2021, MaxMem=   262144000 cpu:              12.1 elap:               3.1
 (Enter /prod/apps/gaussian/g16b1/l502.exe)
 Integral symmetry usage will be decided dynamically.
 Closed shell SCF:
 Using DIIS extrapolation, IDIIS=  1040.
 NGot=   262144000 LenX=   261508168 LenY=   261194008
 Requested convergence on RMS density matrix=1.00D-08 within 128 cycles.
 Requested convergence on MAX density matrix=1.00D-06.
 Requested convergence on             energy=1.00D-06.
 No special actions if energy rises.
 Fock matrices will be formed incrementally for  20 cycles.

 Cycle   1  Pass 1  IDiag  1:
 FoFJK:  IHMeth= 1 ICntrl=       0 DoSepK=F KAlg= 0 I1Cent=           0 FoldK=F
 IRaf= 950000000 NMat=       1 IRICut=       1 DoRegI=T DoRafI=F ISym2E= 0 IDoP0=0 IntGTp=1.
 FoFCou: FMM=F IPFlag=           0 FMFlag=      100000 FMFlg1=           0
         NFxFlg=           0 DoJE=F BraDBF=F KetDBF=F FulRan=T
         wScrn=  0.000000 ICntrl=         0 IOpCl=  0 I1Cent=           0 NGrid=           0
         NMat0=    1 NMatS0=      1 NMatT0=    0 NMatD0=    1 NMtDS0=    0 NMtDT0=    0
 Symmetry not used in FoFCou.
 E= -725.790463037765    
 DIIS: error= 1.92D-02 at cycle   1 NSaved=   1.
 NSaved= 1 IEnMin= 1 EnMin= -725.790463037765     IErMin= 1 ErrMin= 1.92D-02
 ErrMax= 1.92D-02  0.00D+00 EMaxC= 1.00D-01 BMatC= 9.01D-01 BMatP= 9.01D-01
 IDIUse=3 WtCom= 8.08D-01 WtEn= 1.92D-01
 Coeff-Com:  0.100D+01
 Coeff-En:   0.100D+01
 Coeff:      0.100D+01
 Gap=     0.285 Goal=   None    Shift=    0.000
 GapD=    0.285 DampG=1.000 DampE=0.500 DampFc=0.5000 IDamp=-1.
 Damping current iteration by 5.00D-01
 RMSDP=8.47D-02 MaxDP=6.27D+00              OVMax= 1.98D-01

 Cycle   2  Pass 1  IDiag  1:
 RMSU=  1.86D-02    CP:  7.65D-01
 E= -726.199140400379     Delta-E=       -0.408677362614 Rises=F Damp=T
 DIIS: error= 1.05D-02 at cycle   2 NSaved=   2.
 NSaved= 2 IEnMin= 2 EnMin= -726.199140400379     IErMin= 2 ErrMin= 1.05D-02
 ErrMax= 1.05D-02  0.00D+00 EMaxC= 1.00D-01 BMatC= 1.59D-01 BMatP= 9.01D-01
 IDIUse=3 WtCom= 8.95D-01 WtEn= 1.05D-01
 Coeff-Com: -0.533D+00 0.153D+01
 Coeff-En:   0.000D+00 0.100D+01
 Coeff:     -0.477D+00 0.148D+01
 Gap=     0.200 Goal=   None    Shift=    0.000
 RMSDP=4.43D-02 MaxDP=3.88D+00 DE=-4.09D-01 OVMax= 8.67D-02

 Cycle   3  Pass 1  IDiag  1:
 RMSU=  1.18D-02    CP:  5.13D-01  1.66D+00
 E= -726.564027654781     Delta-E=       -0.364887254401 Rises=F Damp=F
 DIIS: error= 1.68D-03 at cycle   3 NSaved=   3.
 NSaved= 3 IEnMin= 3 EnMin= -726.564027654781     IErMin= 3 ErrMin= 1.68D-03
 ErrMax= 1.68D-03  0.00D+00 EMaxC= 1.00D-01 BMatC= 5.47D-03 BMatP= 1.59D-01
 IDIUse=3 WtCom= 9.83D-01 WtEn= 1.68D-02
 Coeff-Com: -0.118D+00 0.207D+00 0.911D+00
 Coeff-En:   0.000D+00 0.000D+00 0.100D+01
 Coeff:     -0.116D+00 0.204D+00 0.913D+00
 Gap=     0.184 Goal=   None    Shift=    0.000
 RMSDP=2.35D-03 MaxDP=1.20D-01 DE=-3.65D-01 OVMax= 2.28D-02

 Cycle   4  Pass 1  IDiag  1:
 RMSU=  1.92D-03    CP:  5.04D-01  1.67D+00  9.83D-01
 E= -726.569115563434     Delta-E=       -0.005087908653 Rises=F Damp=F
 DIIS: error= 8.19D-04 at cycle   4 NSaved=   4.
 NSaved= 4 IEnMin= 4 EnMin= -726.569115563434     IErMin= 4 ErrMin= 8.19D-04
 ErrMax= 8.19D-04  0.00D+00 EMaxC= 1.00D-01 BMatC= 9.30D-04 BMatP= 5.47D-03
 IDIUse=3 WtCom= 9.92D-01 WtEn= 8.19D-03
 Coeff-Com: -0.195D-01 0.105D-01 0.309D+00 0.700D+00
 Coeff-En:   0.000D+00 0.000D+00 0.000D+00 0.100D+01
 Coeff:     -0.193D-01 0.104D-01 0.306D+00 0.703D+00
 Gap=     0.186 Goal=   None    Shift=    0.000
 RMSDP=7.25D-04 MaxDP=5.50D-02 DE=-5.09D-03 OVMax= 8.76D-03

 Cycle   5  Pass 1  IDiag  1:
 RMSU=  5.95D-04    CP:  5.03D-01  1.66D+00  9.86D-01  1.12D+00
 E= -726.570140222099     Delta-E=       -0.001024658665 Rises=F Damp=F
 DIIS: error= 2.67D-04 at cycle   5 NSaved=   5.
 NSaved= 5 IEnMin= 5 EnMin= -726.570140222099     IErMin= 5 ErrMin= 2.67D-04
 ErrMax= 2.67D-04  0.00D+00 EMaxC= 1.00D-01 BMatC= 7.33D-05 BMatP= 9.30D-04
 IDIUse=3 WtCom= 9.97D-01 WtEn= 2.67D-03
 Coeff-Com:  0.990D-02-0.192D-01-0.752D-01 0.784D-01 0.101D+01
 Coeff-En:   0.000D+00 0.000D+00 0.000D+00 0.000D+00 0.100D+01
 Coeff:      0.988D-02-0.192D-01-0.750D-01 0.782D-01 0.101D+01
 Gap=     0.188 Goal=   None    Shift=    0.000
 RMSDP=3.63D-04 MaxDP=3.36D-02 DE=-1.02D-03 OVMax= 4.96D-03

 Cycle   6  Pass 1  IDiag  1:
 RMSU=  2.33D-04    CP:  5.03D-01  1.66D+00  9.97D-01  1.24D+00  1.15D+00
 E= -726.570300495175     Delta-E=       -0.000160273076 Rises=F Damp=F
 DIIS: error= 8.90D-05 at cycle   6 NSaved=   6.
 NSaved= 6 IEnMin= 6 EnMin= -726.570300495175     IErMin= 6 ErrMin= 8.90D-05
 ErrMax= 8.90D-05  0.00D+00 EMaxC= 1.00D-01 BMatC= 9.69D-06 BMatP= 7.33D-05
 IDIUse=1 WtCom= 1.00D+00 WtEn= 0.00D+00
 Coeff-Com:  0.357D-02-0.397D-02-0.437D-01-0.684D-01 0.122D+00 0.990D+00
 Coeff:      0.357D-02-0.397D-02-0.437D-01-0.684D-01 0.122D+00 0.990D+00
 Gap=     0.188 Goal=   None    Shift=    0.000
 RMSDP=1.53D-04 MaxDP=9.37D-03 DE=-1.60D-04 OVMax= 4.15D-03

 Cycle   7  Pass 1  IDiag  1:
 RMSU=  7.16D-05    CP:  5.02D-01  1.65D+00  9.98D-01  1.28D+00  1.28D+00
                    CP:  1.27D+00
 E= -726.570334992784     Delta-E=       -0.000034497609 Rises=F Damp=F
 DIIS: error= 5.40D-05 at cycle   7 NSaved=   7.
 NSaved= 7 IEnMin= 7 EnMin= -726.570334992784     IErMin= 7 ErrMin= 5.40D-05
 ErrMax= 5.40D-05  0.00D+00 EMaxC= 1.00D-01 BMatC= 2.88D-06 BMatP= 9.69D-06
 IDIUse=1 WtCom= 1.00D+00 WtEn= 0.00D+00
 Coeff-Com: -0.991D-03 0.225D-02 0.710D-02-0.238D-01-0.152D+00 0.187D+00
 Coeff-Com:  0.980D+00
 Coeff:     -0.991D-03 0.225D-02 0.710D-02-0.238D-01-0.152D+00 0.187D+00
 Coeff:      0.980D+00
 Gap=     0.188 Goal=   None    Shift=    0.000
 RMSDP=6.21D-05 MaxDP=4.39D-03 DE=-3.45D-05 OVMax= 1.65D-03

 Cycle   8  Pass 1  IDiag  1:
 RMSU=  3.69D-05    CP:  5.03D-01  1.65D+00  9.97D-01  1.29D+00  1.31D+00
                    CP:  1.41D+00  1.42D+00
 E= -726.570345656879     Delta-E=       -0.000010664095 Rises=F Damp=F
 DIIS: error= 2.41D-05 at cycle   8 NSaved=   8.
 NSaved= 8 IEnMin= 8 EnMin= -726.570345656879     IErMin= 8 ErrMin= 2.41D-05
 ErrMax= 2.41D-05  0.00D+00 EMaxC= 1.00D-01 BMatC= 6.38D-07 BMatP= 2.88D-06
 IDIUse=1 WtCom= 1.00D+00 WtEn= 0.00D+00
 Coeff-Com: -0.133D-02 0.176D-02 0.148D-01 0.159D-01-0.525D-01-0.261D+00
 Coeff-Com:  0.177D-01 0.126D+01
 Coeff:     -0.133D-02 0.176D-02 0.148D-01 0.159D-01-0.525D-01-0.261D+00
 Coeff:      0.177D-01 0.126D+01
 Gap=     0.188 Goal=   None    Shift=    0.000
 RMSDP=4.94D-05 MaxDP=2.20D-03 DE=-1.07D-05 OVMax= 1.83D-03

 Cycle   9  Pass 1  IDiag  1:
 RMSU=  1.86D-05    CP:  5.03D-01  1.65D+00  9.97D-01  1.28D+00  1.31D+00
                    CP:  1.50D+00  1.82D+00  1.68D+00
 E= -726.570349621085     Delta-E=       -0.000003964206 Rises=F Damp=F
 DIIS: error= 1.10D-05 at cycle   9 NSaved=   9.
 NSaved= 9 IEnMin= 9 EnMin= -726.570349621085     IErMin= 9 ErrMin= 1.10D-05
 ErrMax= 1.10D-05  0.00D+00 EMaxC= 1.00D-01 BMatC= 1.38D-07 BMatP= 6.38D-07
 IDIUse=1 WtCom= 1.00D+00 WtEn= 0.00D+00
 Coeff-Com: -0.913D-04-0.822D-04 0.221D-02 0.746D-02 0.190D-01-0.951D-01
 Coeff-Com: -0.212D+00 0.326D+00 0.952D+00
 Coeff:     -0.913D-04-0.822D-04 0.221D-02 0.746D-02 0.190D-01-0.951D-01
 Coeff:     -0.212D+00 0.326D+00 0.952D+00
 Gap=     0.188 Goal=   None    Shift=    0.000
 RMSDP=1.73D-05 MaxDP=1.15D-03 DE=-3.96D-06 OVMax= 5.75D-04

 Cycle  10  Pass 1  IDiag  1:
 RMSU=  7.18D-06    CP:  5.03D-01  1.65D+00  9.97D-01  1.28D+00  1.30D+00
                    CP:  1.52D+00  1.94D+00  1.96D+00  1.28D+00
 E= -726.570350157929     Delta-E=       -0.000000536844 Rises=F Damp=F
 DIIS: error= 3.36D-06 at cycle  10 NSaved=  10.
 NSaved=10 IEnMin=10 EnMin= -726.570350157929     IErMin=10 ErrMin= 3.36D-06
 ErrMax= 3.36D-06  0.00D+00 EMaxC= 1.00D-01 BMatC= 1.31D-08 BMatP= 1.38D-07
 IDIUse=1 WtCom= 1.00D+00 WtEn= 0.00D+00
 Coeff-Com:  0.222D-03-0.284D-03-0.250D-02-0.372D-02 0.706D-02 0.514D-01
 Coeff-Com:  0.608D-02-0.213D+00-0.907D-01 0.125D+01
 Coeff:      0.222D-03-0.284D-03-0.250D-02-0.372D-02 0.706D-02 0.514D-01
 Coeff:      0.608D-02-0.213D+00-0.907D-01 0.125D+01
 Gap=     0.188 Goal=   None    Shift=    0.000
 RMSDP=6.10D-06 MaxDP=3.96D-04 DE=-5.37D-07 OVMax= 2.04D-04

 Cycle  11  Pass 1  IDiag  1:
 RMSU=  2.82D-06    CP:  5.03D-01  1.65D+00  9.97D-01  1.28D+00  1.30D+00
                    CP:  1.52D+00  1.95D+00  2.04D+00  1.41D+00  1.41D+00
 E= -726.570350221645     Delta-E=       -0.000000063716 Rises=F Damp=F
 DIIS: error= 1.36D-06 at cycle  11 NSaved=  11.
 NSaved=11 IEnMin=11 EnMin= -726.570350221645     IErMin=11 ErrMin= 1.36D-06
 ErrMax= 1.36D-06  0.00D+00 EMaxC= 1.00D-01 BMatC= 2.02D-09 BMatP= 1.31D-08
 IDIUse=1 WtCom= 1.00D+00 WtEn= 0.00D+00
 Coeff-Com:  0.500D-04-0.446D-04-0.607D-03-0.149D-02-0.116D-02 0.202D-01
 Coeff-Com:  0.255D-01-0.662D-01-0.150D+00 0.170D+00 0.100D+01
 Coeff:      0.500D-04-0.446D-04-0.607D-03-0.149D-02-0.116D-02 0.202D-01
 Coeff:      0.255D-01-0.662D-01-0.150D+00 0.170D+00 0.100D+01
 Gap=     0.188 Goal=   None    Shift=    0.000
 RMSDP=1.62D-06 MaxDP=1.17D-04 DE=-6.37D-08 OVMax= 4.69D-05

 Cycle  12  Pass 1  IDiag  1:
 RMSU=  9.35D-07    CP:  5.03D-01  1.65D+00  9.96D-01  1.28D+00  1.30D+00
                    CP:  1.52D+00  1.95D+00  2.05D+00  1.43D+00  1.52D+00
                    CP:  1.25D+00
 E= -726.570350226762     Delta-E=       -0.000000005117 Rises=F Damp=F
 DIIS: error= 4.97D-07 at cycle  12 NSaved=  12.
 NSaved=12 IEnMin=12 EnMin= -726.570350226762     IErMin=12 ErrMin= 4.97D-07
 ErrMax= 4.97D-07  0.00D+00 EMaxC= 1.00D-01 BMatC= 2.07D-10 BMatP= 2.02D-09
 IDIUse=1 WtCom= 1.00D+00 WtEn= 0.00D+00
 Coeff-Com: -0.148D-04 0.229D-04 0.172D-03 0.885D-04-0.115D-02-0.206D-02
 Coeff-Com:  0.399D-02 0.140D-01-0.254D-01-0.994D-01 0.213D+00 0.897D+00
 Coeff:     -0.148D-04 0.229D-04 0.172D-03 0.885D-04-0.115D-02-0.206D-02
 Coeff:      0.399D-02 0.140D-01-0.254D-01-0.994D-01 0.213D+00 0.897D+00
 Gap=     0.188 Goal=   None    Shift=    0.000
 RMSDP=5.66D-07 MaxDP=3.87D-05 DE=-5.12D-09 OVMax= 8.95D-06

 Cycle  13  Pass 1  IDiag  1:
 RMSU=  3.56D-07    CP:  5.03D-01  1.65D+00  9.96D-01  1.28D+00  1.30D+00
                    CP:  1.52D+00  1.95D+00  2.05D+00  1.42D+00  1.53D+00
                    CP:  1.29D+00  1.16D+00
 E= -726.570350227191     Delta-E=       -0.000000000429 Rises=F Damp=F
 DIIS: error= 1.30D-07 at cycle  13 NSaved=  13.
 NSaved=13 IEnMin=13 EnMin= -726.570350227191     IErMin=13 ErrMin= 1.30D-07
 ErrMax= 1.30D-07  0.00D+00 EMaxC= 1.00D-01 BMatC= 2.60D-11 BMatP= 2.07D-10
 IDIUse=1 WtCom= 1.00D+00 WtEn= 0.00D+00
 Coeff-Com: -0.754D-05 0.806D-05 0.912D-04 0.180D-03 0.572D-04-0.261D-02
 Coeff-Com: -0.251D-02 0.100D-01 0.135D-01-0.284D-01-0.112D+00 0.703D-01
 Coeff-Com:  0.105D+01
 Coeff:     -0.754D-05 0.806D-05 0.912D-04 0.180D-03 0.572D-04-0.261D-02
 Coeff:     -0.251D-02 0.100D-01 0.135D-01-0.284D-01-0.112D+00 0.703D-01
 Coeff:      0.105D+01
 Gap=     0.188 Goal=   None    Shift=    0.000
 RMSDP=2.80D-07 MaxDP=1.97D-05 DE=-4.29D-10 OVMax= 2.77D-06

 Cycle  14  Pass 1  IDiag  1:
 RMSU=  1.17D-07    CP:  5.03D-01  1.65D+00  9.97D-01  1.28D+00  1.30D+00
                    CP:  1.52D+00  1.95D+00  2.05D+00  1.42D+00  1.52D+00
                    CP:  1.30D+00  1.27D+00  1.28D+00
 E= -726.570350227275     Delta-E=       -0.000000000085 Rises=F Damp=F
 DIIS: error= 5.66D-08 at cycle  14 NSaved=  14.
 NSaved=14 IEnMin=14 EnMin= -726.570350227275     IErMin=14 ErrMin= 5.66D-08
 ErrMax= 5.66D-08  0.00D+00 EMaxC= 1.00D-01 BMatC= 2.97D-12 BMatP= 2.60D-11
 IDIUse=1 WtCom= 1.00D+00 WtEn= 0.00D+00
 Coeff-Com:  0.552D-06-0.120D-05-0.707D-05 0.221D-05 0.112D-03-0.416D-04
 Coeff-Com: -0.693D-03-0.361D-03 0.314D-02 0.870D-02-0.293D-01-0.913D-01
 Coeff-Com:  0.960D-01 0.101D+01
 Coeff:      0.552D-06-0.120D-05-0.707D-05 0.221D-05 0.112D-03-0.416D-04
 Coeff:     -0.693D-03-0.361D-03 0.314D-02 0.870D-02-0.293D-01-0.913D-01
 Coeff:      0.960D-01 0.101D+01
 Gap=     0.188 Goal=   None    Shift=    0.000
 RMSDP=9.42D-08 MaxDP=7.75D-06 DE=-8.46D-11 OVMax= 1.15D-06

 Cycle  15  Pass 1  IDiag  1:
 RMSU=  4.81D-08    CP:  5.03D-01  1.65D+00  9.97D-01  1.28D+00  1.30D+00
                    CP:  1.52D+00  1.95D+00  2.05D+00  1.42D+00  1.51D+00
                    CP:  1.29D+00  1.28D+00  1.37D+00  1.19D+00
 E= -726.570350227282     Delta-E=       -0.000000000006 Rises=F Damp=F
 DIIS: error= 1.94D-08 at cycle  15 NSaved=  15.
 NSaved=15 IEnMin=15 EnMin= -726.570350227282     IErMin=15 ErrMin= 1.94D-08
 ErrMax= 1.94D-08  0.00D+00 EMaxC= 1.00D-01 BMatC= 5.36D-13 BMatP= 2.97D-12
 IDIUse=1 WtCom= 1.00D+00 WtEn= 0.00D+00
 Coeff-Com:  0.110D-05-0.123D-05-0.118D-04-0.278D-04-0.150D-04 0.407D-03
 Coeff-Com:  0.375D-03-0.129D-02-0.263D-02 0.348D-02 0.212D-01-0.845D-02
 Coeff-Com: -0.172D+00-0.816D-01 0.124D+01
 Coeff:      0.110D-05-0.123D-05-0.118D-04-0.278D-04-0.150D-04 0.407D-03
 Coeff:      0.375D-03-0.129D-02-0.263D-02 0.348D-02 0.212D-01-0.845D-02
 Coeff:     -0.172D+00-0.816D-01 0.124D+01
 Gap=     0.188 Goal=   None    Shift=    0.000
 RMSDP=4.06D-08 MaxDP=3.17D-06 DE=-6.37D-12 OVMax= 8.16D-07

 Cycle  16  Pass 1  IDiag  1:
 RMSU=  2.03D-08    CP:  5.03D-01  1.65D+00  9.97D-01  1.28D+00  1.30D+00
                    CP:  1.52D+00  1.95D+00  2.05D+00  1.42D+00  1.51D+00
                    CP:  1.29D+00  1.28D+00  1.38D+00  1.33D+00  1.38D+00
 E= -726.570350227291     Delta-E=       -0.000000000010 Rises=F Damp=F
 DIIS: error= 7.39D-09 at cycle  16 NSaved=  16.
 NSaved=16 IEnMin=16 EnMin= -726.570350227291     IErMin=16 ErrMin= 7.39D-09
 ErrMax= 7.39D-09  0.00D+00 EMaxC= 1.00D-01 BMatC= 9.04D-14 BMatP= 5.36D-13
 IDIUse=1 WtCom= 1.00D+00 WtEn= 0.00D+00
 Coeff-Com:  0.339D-07 0.163D-07 0.275D-06-0.272D-05-0.158D-04 0.329D-04
 Coeff-Com:  0.113D-03-0.360D-05-0.698D-03-0.102D-02 0.627D-02 0.979D-02
 Coeff-Com: -0.220D-01-0.142D+00 0.769D-01 0.107D+01
 Coeff:      0.339D-07 0.163D-07 0.275D-06-0.272D-05-0.158D-04 0.329D-04
 Coeff:      0.113D-03-0.360D-05-0.698D-03-0.102D-02 0.627D-02 0.979D-02
 Coeff:     -0.220D-01-0.142D+00 0.769D-01 0.107D+01
 Gap=     0.188 Goal=   None    Shift=    0.000
 RMSDP=1.40D-08 MaxDP=1.07D-06 DE=-9.55D-12 OVMax= 3.38D-07

 Cycle  17  Pass 1  IDiag  1:
 RMSU=  9.08D-09    CP:  5.03D-01  1.65D+00  9.97D-01  1.28D+00  1.30D+00
                    CP:  1.52D+00  1.95D+00  2.05D+00  1.42D+00  1.51D+00
                    CP:  1.29D+00  1.27D+00  1.38D+00  1.36D+00  1.47D+00
                    CP:  1.35D+00
 E= -726.570350227279     Delta-E=        0.000000000012 Rises=F Damp=F
 DIIS: error= 3.72D-09 at cycle  17 NSaved=  17.
 NSaved=17 IEnMin=16 EnMin= -726.570350227291     IErMin=17 ErrMin= 3.72D-09
 ErrMax= 3.72D-09  0.00D+00 EMaxC= 1.00D-01 BMatC= 1.79D-14 BMatP= 9.04D-14
 IDIUse=1 WtCom= 1.00D+00 WtEn= 0.00D+00
 Coeff-Com: -0.226D-06 0.243D-06 0.272D-05 0.618D-05 0.349D-05-0.932D-04
 Coeff-Com: -0.726D-04 0.285D-03 0.529D-03-0.854D-03-0.407D-02 0.968D-03
 Coeff-Com:  0.384D-01 0.137D-01-0.266D+00 0.260D-01 0.119D+01
 Coeff:     -0.226D-06 0.243D-06 0.272D-05 0.618D-05 0.349D-05-0.932D-04
 Coeff:     -0.726D-04 0.285D-03 0.529D-03-0.854D-03-0.407D-02 0.968D-03
 Coeff:      0.384D-01 0.137D-01-0.266D+00 0.260D-01 0.119D+01
 Gap=     0.188 Goal=   None    Shift=    0.000
 RMSDP=8.36D-09 MaxDP=5.09D-07 DE= 1.23D-11 OVMax= 2.26D-07

 SCF Done:  E(RHF) =  -726.570350227     A.U. after   17 cycles
            NFock= 17  Conv=0.84D-08     -V/T= 2.0011
 KE= 7.258010726888D+02 PE=-3.972769314402D+03 EE= 1.391029550476D+03
 Leave Link  502 at Sun Jul 11 16:31:42 2021, MaxMem=   262144000 cpu:            2678.0 elap:             669.6
 (Enter /prod/apps/gaussian/g16b1/l801.exe)
 ExpMin= 2.97D-02 ExpMax= 1.17D+04 ExpMxC= 4.01D+02 IAcc=3 IRadAn=         5 AccDes= 0.00D+00
 HarFok:  IExCor=  205 AccDes= 0.00D+00 IRadAn=         5 IDoV=-2 UseB2=F ITyADJ=14
 ICtDFT= 12500011 ScaDFX=  1.000000  1.000000  1.000000  1.000000
 Largest valence mixing into a core orbital is  1.14D-04
 Largest core mixing into a valence orbital is  4.34D-05
 Range of M.O.s used for correlation:    18   526
 NBasis=   526 NAE=    61 NBE=    61 NFC=    17 NFV=     0
 NROrb=    509 NOA=    44 NOB=    44 NVA=   465 NVB=   465

 **** Warning!!: The largest alpha MO coefficient is  0.12037114D+03

 Leave Link  801 at Sun Jul 11 16:31:42 2021, MaxMem=   262144000 cpu:               0.9 elap:               0.2
 (Enter /prod/apps/gaussian/g16b1/l906.exe)
 FulOut=F Deriv=F AODrv=F NAtomX=    32
   MMem=           5  MDisk=          44 MDiskD=          44
  W3Min=    11457600 MinDsk=    12229780 NBas6D=         560
 NBas2D=      157833    NTT=      157080    LW2=     2000000
    MDV=   260167741 MDiskM=        6402 NBas2p=      146990
 Disk-based method using OVN memory for 44 occupieds at a time.
 Estimated scratch disk usage=  9281981544 words.
 IMap=   1   2   3   4   5   6   7   8   9  10  11  12  13  14  15  16  17  18  19  20
 IMap=  21  22  23  24  25  26  27  28  29  30  31  32  33  34  35  36  37  38  39  40
 IMap=  41  42  43  44
 Actual    scratch disk usage=  9045839464 words.
 JobTyp=1 Pass  1:  I=   1 to  44 NPSUse=  4 ParTrn=T ParDer=T DoDerP=F.
Erroneous write. Write -1 instead of 4238280.
fd = 4
orig len = 8384512 left = 4238280
