 Entering Gaussian System, Link 0=g16
 Initial command:
 /prod/apps/gaussian/g16b1/l1.exe "/tmp/ubator02/1834556/Gau-213675.inp" -scrdir="/tmp/ubator02/1834556/"
 Entering Link 1 = /prod/apps/gaussian/g16b1/l1.exe PID=    213676.
  
 Copyright (c) 1988-2017, Gaussian, Inc.  All Rights Reserved.
  
 This is part of the Gaussian(R) 16 program.  It is based on
 the Gaussian(R) 09 system (copyright 2009, Gaussian, Inc.),
 the Gaussian(R) 03 system (copyright 2003, Gaussian, Inc.),
 the Gaussian(R) 98 system (copyright 1998, Gaussian, Inc.),
 the Gaussian(R) 94 system (copyright 1995, Gaussian, Inc.),
 the Gaussian 92(TM) system (copyright 1992, Gaussian, Inc.),
 the Gaussian 90(TM) system (copyright 1990, Gaussian, Inc.),
 the Gaussian 88(TM) system (copyright 1988, Gaussian, Inc.),
 the Gaussian 86(TM) system (copyright 1986, Carnegie Mellon
 University), and the Gaussian 82(TM) system (copyright 1983,
 Carnegie Mellon University). Gaussian is a federally registered
 trademark of Gaussian, Inc.
  
 This software contains proprietary and confidential information,
 including trade secrets, belonging to Gaussian, Inc.
  
 This software is provided under written license and may be
 used, copied, transmitted, or stored only in accord with that
 written license.
  
 The following legend is applicable only to US Government
 contracts under FAR:
  
                    RESTRICTED RIGHTS LEGEND
  
 Use, reproduction and disclosure by the US Government is
 subject to restrictions as set forth in subparagraphs (a)
 and (c) of the Commercial Computer Software - Restricted
 Rights clause in FAR 52.227-19.
  
 Gaussian, Inc.
 340 Quinnipiac St., Bldg. 40, Wallingford CT 06492
  
  
 ---------------------------------------------------------------
 Warning -- This program may not be used in any manner that
 competes with the business of Gaussian, Inc. or will provide
 assistance to any competitor of Gaussian, Inc.  The licensee
 of this program is prohibited from giving any competitor of
 Gaussian, Inc. access to this program.  By using this program,
 the user acknowledges that Gaussian, Inc. is engaged in the
 business of creating and licensing software in the field of
 computational chemistry and represents and warrants to the
 licensee that it is not a competitor of Gaussian, Inc. and that
 it will not use this program in any manner prohibited above.
 ---------------------------------------------------------------
  

 Cite this work as:
 Gaussian 16, Revision B.01,
 M. J. Frisch, G. W. Trucks, H. B. Schlegel, G. E. Scuseria, 
 M. A. Robb, J. R. Cheeseman, G. Scalmani, V. Barone, 
 G. A. Petersson, H. Nakatsuji, X. Li, M. Caricato, A. V. Marenich, 
 J. Bloino, B. G. Janesko, R. Gomperts, B. Mennucci, H. P. Hratchian, 
 J. V. Ortiz, A. F. Izmaylov, J. L. Sonnenberg, D. Williams-Young, 
 F. Ding, F. Lipparini, F. Egidi, J. Goings, B. Peng, A. Petrone, 
 T. Henderson, D. Ranasinghe, V. G. Zakrzewski, J. Gao, N. Rega, 
 G. Zheng, W. Liang, M. Hada, M. Ehara, K. Toyota, R. Fukuda, 
 J. Hasegawa, M. Ishida, T. Nakajima, Y. Honda, O. Kitao, H. Nakai, 
 T. Vreven, K. Throssell, J. A. Montgomery, Jr., J. E. Peralta, 
 F. Ogliaro, M. J. Bearpark, J. J. Heyd, E. N. Brothers, K. N. Kudin, 
 V. N. Staroverov, T. A. Keith, R. Kobayashi, J. Normand, 
 K. Raghavachari, A. P. Rendell, J. C. Burant, S. S. Iyengar, 
 J. Tomasi, M. Cossi, J. M. Millam, M. Klene, C. Adamo, R. Cammi, 
 J. W. Ochterski, R. L. Martin, K. Morokuma, O. Farkas, 
 J. B. Foresman, and D. J. Fox, Gaussian, Inc., Wallingford CT, 2016.
 
 ******************************************
 Gaussian 16:  ES64L-G16RevB.01 20-Dec-2017
                11-Jul-2021 
 ******************************************
 %mem=800MB
 %nproc=4
 Will use up to    4 processors via shared memory.
 %chk=SET_328_BBB285_conf1.geo_300_075.chk
 -----------------------------------------------------------
 #p b3lyp/6-31G(d) opt freq scrf=(iefpcm,read,solvent=water)
 -----------------------------------------------------------
 1/18=20,19=15,26=3,38=1,40=2/1,3;
 2/9=110,12=2,17=6,18=5,40=1/2;
 3/5=1,6=6,7=1,11=2,25=1,30=1,70=2203,71=1,72=1,74=-5/1,2,3;
 4//1;
 5/5=2,38=5,53=1/2;
 6/7=2,8=2,9=2,10=2,28=1/1;
 7//1,2,3,16;
 1/18=20,19=15,26=3/3(2);
 2/9=110/2;
 99//99;
 2/9=110/2;
 3/5=1,6=6,7=1,11=2,25=1,30=1,70=2205,71=1,72=1,74=-5/1,2,3;
 4/5=5,16=3,69=1/1;
 5/5=2,38=5,53=1/2;
 7//1,2,3,16;
 1/18=20,19=15,26=3/3(-5);
 2/9=110/2;
 6/7=2,8=2,9=2,10=2,19=2,28=1/1;
 99/9=1/99;
 Leave Link    1 at Sun Jul 11 16:05:17 2021, MaxMem=   104857600 cpu:               0.1 elap:               0.0
 (Enter /prod/apps/gaussian/g16b1/l101.exe)
 -----------------------------------------
 SET_328_BBB285_conf1.geo_300_075 geometry
 -----------------------------------------
 Symbolic Z-matrix:
 Charge = -1 Multiplicity = 1
 N                     2.073    -3.269     0.977 
 H                     1.18     -2.8       0.95 
 C                     2.934    -2.747     0.15 
 O                     4.001    -3.347    -0.041 
 C                     2.399    -1.549    -0.465 
 C                     3.008    -0.817    -1.592 
 N                     2.26      0.208    -1.918 
 H                     3.971    -0.977    -2.061 
 N                     1.231    -0.986    -0.279 
 N                     1.16      0.053    -1.112 
 C                     0.168     1.08     -1.05 
 H                     0.325     1.835    -1.835 
 O                    -1.167     0.552    -1.212 
 C                    -1.8       0.301     0.089 
 C                    -3.413     0.237    -0.015 
 O                    -3.833    -1.035    -0.624 
 H                    -3.193    -1.666    -0.251 
 H                    -3.926     1.024    -0.574 
 H                    -3.673     0.305     1.044 
 H                    -1.339    -0.605     0.491 
 C                    -1.268     1.489     0.913 
 O                    -2.101     2.681     0.892 
 H                    -1.67      3.13      1.642 
 H                    -1.215     1.157     1.953 
 C                     0.155     1.797     0.34 
 H                     0.928     1.358     0.975 
 O                     0.314     3.181     0.193 
 H                     0.307     3.606     1.069 
 
 ITRead=  0  0  0  0  0  0  0  0  0  0  0  0  0  0  0  0  0  0  0  0
 ITRead=  0  0  0  0  0  0  0  0
 MicOpt= -1 -1 -1 -1 -1 -1 -1 -1 -1 -1 -1 -1 -1 -1 -1 -1 -1 -1 -1 -1
 MicOpt= -1 -1 -1 -1 -1 -1 -1 -1
 NAtoms=     28 NQM=       28 NQMF=       0 NMMI=      0 NMMIF=      0
                NMic=       0 NMicF=      0.
                    Isotopes and Nuclear Properties:
 (Nuclear quadrupole moments (NQMom) in fm**2, nuclear magnetic moments (NMagM)
  in nuclear magnetons)

  Atom         1           2           3           4           5           6           7           8           9          10
 IAtWgt=          14           1          12          16          12          12          14           1          14          14
 AtmWgt=  14.0030740   1.0078250  12.0000000  15.9949146  12.0000000  12.0000000  14.0030740   1.0078250  14.0030740  14.0030740
 NucSpn=           2           1           0           0           0           0           2           1           2           2
 AtZEff=  -0.0000000  -0.0000000  -0.0000000  -0.0000000  -0.0000000  -0.0000000  -0.0000000  -0.0000000  -0.0000000  -0.0000000
 NQMom=    2.0440000   0.0000000   0.0000000   0.0000000   0.0000000   0.0000000   2.0440000   0.0000000   2.0440000   2.0440000
 NMagM=    0.4037610   2.7928460   0.0000000   0.0000000   0.0000000   0.0000000   0.4037610   2.7928460   0.4037610   0.4037610
 AtZNuc=   7.0000000   1.0000000   6.0000000   8.0000000   6.0000000   6.0000000   7.0000000   1.0000000   7.0000000   7.0000000

  Atom        11          12          13          14          15          16          17          18          19          20
 IAtWgt=          12           1          16          12          12          16           1           1           1           1
 AtmWgt=  12.0000000   1.0078250  15.9949146  12.0000000  12.0000000  15.9949146   1.0078250   1.0078250   1.0078250   1.0078250
 NucSpn=           0           1           0           0           0           0           1           1           1           1
 AtZEff=  -0.0000000  -0.0000000  -0.0000000  -0.0000000  -0.0000000  -0.0000000  -0.0000000  -0.0000000  -0.0000000  -0.0000000
 NQMom=    0.0000000   0.0000000   0.0000000   0.0000000   0.0000000   0.0000000   0.0000000   0.0000000   0.0000000   0.0000000
 NMagM=    0.0000000   2.7928460   0.0000000   0.0000000   0.0000000   0.0000000   2.7928460   2.7928460   2.7928460   2.7928460
 AtZNuc=   6.0000000   1.0000000   8.0000000   6.0000000   6.0000000   8.0000000   1.0000000   1.0000000   1.0000000   1.0000000

  Atom        21          22          23          24          25          26          27          28
 IAtWgt=          12          16           1           1          12           1          16           1
 AtmWgt=  12.0000000  15.9949146   1.0078250   1.0078250  12.0000000   1.0078250  15.9949146   1.0078250
 NucSpn=           0           0           1           1           0           1           0           1
 AtZEff=  -0.0000000  -0.0000000  -0.0000000  -0.0000000  -0.0000000  -0.0000000  -0.0000000  -0.0000000
 NQMom=    0.0000000   0.0000000   0.0000000   0.0000000   0.0000000   0.0000000   0.0000000   0.0000000
 NMagM=    0.0000000   0.0000000   2.7928460   2.7928460   0.0000000   2.7928460   0.0000000   2.7928460
 AtZNuc=   6.0000000   8.0000000   1.0000000   1.0000000   6.0000000   1.0000000   8.0000000   1.0000000
 Leave Link  101 at Sun Jul 11 16:05:17 2021, MaxMem=   104857600 cpu:               0.5 elap:               0.1
 (Enter /prod/apps/gaussian/g16b1/l103.exe)

 GradGradGradGradGradGradGradGradGradGradGradGradGradGradGradGradGradGrad
 Berny optimization.
 Initialization pass.
                           ----------------------------
                           !    Initial Parameters    !
                           ! (Angstroms and Degrees)  !
 --------------------------                            --------------------------
 ! Name  Definition              Value          Derivative Info.                !
 --------------------------------------------------------------------------------
 ! R1    R(1,2)                  1.009          estimate D2E/DX2                !
 ! R2    R(1,3)                  1.303          estimate D2E/DX2                !
 ! R3    R(3,4)                  1.2389         estimate D2E/DX2                !
 ! R4    R(3,5)                  1.449          estimate D2E/DX2                !
 ! R5    R(5,6)                  1.4754         estimate D2E/DX2                !
 ! R6    R(5,9)                  1.3099         estimate D2E/DX2                !
 ! R7    R(6,7)                  1.3101         estimate D2E/DX2                !
 ! R8    R(6,8)                  1.083          estimate D2E/DX2                !
 ! R9    R(7,10)                 1.3725         estimate D2E/DX2                !
 ! R10   R(9,10)                 1.3336         estimate D2E/DX2                !
 ! R11   R(10,11)                1.4292         estimate D2E/DX2                !
 ! R12   R(11,12)                1.1004         estimate D2E/DX2                !
 ! R13   R(11,13)                1.4447         estimate D2E/DX2                !
 ! R14   R(11,25)                1.5641         estimate D2E/DX2                !
 ! R15   R(13,14)                1.4684         estimate D2E/DX2                !
 ! R16   R(14,15)                1.6176         estimate D2E/DX2                !
 ! R17   R(14,20)                1.0931         estimate D2E/DX2                !
 ! R18   R(14,21)                1.5406         estimate D2E/DX2                !
 ! R19   R(15,16)                1.4715         estimate D2E/DX2                !
 ! R20   R(15,18)                1.0932         estimate D2E/DX2                !
 ! R21   R(15,19)                1.0926         estimate D2E/DX2                !
 ! R22   R(16,17)                0.9731         estimate D2E/DX2                !
 ! R23   R(21,22)                1.4544         estimate D2E/DX2                !
 ! R24   R(21,24)                1.093          estimate D2E/DX2                !
 ! R25   R(21,25)                1.5646         estimate D2E/DX2                !
 ! R26   R(22,23)                0.9746         estimate D2E/DX2                !
 ! R27   R(25,26)                1.0925         estimate D2E/DX2                !
 ! R28   R(25,27)                1.4008         estimate D2E/DX2                !
 ! R29   R(27,28)                0.9737         estimate D2E/DX2                !
 ! A1    A(2,1,3)              112.4339         estimate D2E/DX2                !
 ! A2    A(1,3,4)              118.2243         estimate D2E/DX2                !
 ! A3    A(1,3,5)              110.8933         estimate D2E/DX2                !
 ! A4    A(4,3,5)              130.7633         estimate D2E/DX2                !
 ! A5    A(3,5,6)              125.5904         estimate D2E/DX2                !
 ! A6    A(3,5,9)              128.6315         estimate D2E/DX2                !
 ! A7    A(6,5,9)              105.2648         estimate D2E/DX2                !
 ! A8    A(5,6,7)              110.0334         estimate D2E/DX2                !
 ! A9    A(5,6,8)              128.6466         estimate D2E/DX2                !
 ! A10   A(7,6,8)              121.0307         estimate D2E/DX2                !
 ! A11   A(6,7,10)             102.8917         estimate D2E/DX2                !
 ! A12   A(5,9,10)             107.0762         estimate D2E/DX2                !
 ! A13   A(7,10,9)             114.3394         estimate D2E/DX2                !
 ! A14   A(7,10,11)            120.0411         estimate D2E/DX2                !
 ! A15   A(9,10,11)            124.7296         estimate D2E/DX2                !
 ! A16   A(10,11,12)           111.2875         estimate D2E/DX2                !
 ! A17   A(10,11,13)           111.9558         estimate D2E/DX2                !
 ! A18   A(10,11,25)           111.9458         estimate D2E/DX2                !
 ! A19   A(12,11,13)           107.6136         estimate D2E/DX2                !
 ! A20   A(12,11,25)           108.7014         estimate D2E/DX2                !
 ! A21   A(13,11,25)           105.0407         estimate D2E/DX2                !
 ! A22   A(11,13,14)           111.1895         estimate D2E/DX2                !
 ! A23   A(13,14,15)           112.3116         estimate D2E/DX2                !
 ! A24   A(13,14,20)           106.6002         estimate D2E/DX2                !
 ! A25   A(13,14,21)           101.1401         estimate D2E/DX2                !
 ! A26   A(15,14,20)           114.2908         estimate D2E/DX2                !
 ! A27   A(15,14,21)           114.1571         estimate D2E/DX2                !
 ! A28   A(20,14,21)           107.2655         estimate D2E/DX2                !
 ! A29   A(14,15,16)           110.2075         estimate D2E/DX2                !
 ! A30   A(14,15,18)           118.1857         estimate D2E/DX2                !
 ! A31   A(14,15,19)            99.934          estimate D2E/DX2                !
 ! A32   A(16,15,18)           106.0663         estimate D2E/DX2                !
 ! A33   A(16,15,19)           112.7698         estimate D2E/DX2                !
 ! A34   A(18,15,19)           109.826          estimate D2E/DX2                !
 ! A35   A(15,16,17)           102.3673         estimate D2E/DX2                !
 ! A36   A(14,21,22)           115.2468         estimate D2E/DX2                !
 ! A37   A(14,21,24)           106.9444         estimate D2E/DX2                !
 ! A38   A(14,21,25)           105.6635         estimate D2E/DX2                !
 ! A39   A(22,21,24)           106.886          estimate D2E/DX2                !
 ! A40   A(22,21,25)           110.7493         estimate D2E/DX2                !
 ! A41   A(24,21,25)           111.3555         estimate D2E/DX2                !
 ! A42   A(21,22,23)            96.499          estimate D2E/DX2                !
 ! A43   A(11,25,21)           104.0505         estimate D2E/DX2                !
 ! A44   A(11,25,26)           109.0546         estimate D2E/DX2                !
 ! A45   A(11,25,27)           111.0206         estimate D2E/DX2                !
 ! A46   A(21,25,26)           110.5822         estimate D2E/DX2                !
 ! A47   A(21,25,27)           109.6419         estimate D2E/DX2                !
 ! A48   A(26,25,27)           112.1911         estimate D2E/DX2                !
 ! A49   A(25,27,28)           109.6344         estimate D2E/DX2                !
 ! D1    D(2,1,3,4)           -170.2611         estimate D2E/DX2                !
 ! D2    D(2,1,3,5)              6.1974         estimate D2E/DX2                !
 ! D3    D(1,3,5,6)           -170.2641         estimate D2E/DX2                !
 ! D4    D(1,3,5,9)              0.2789         estimate D2E/DX2                !
 ! D5    D(4,3,5,6)              5.6151         estimate D2E/DX2                !
 ! D6    D(4,3,5,9)            176.1581         estimate D2E/DX2                !
 ! D7    D(3,5,6,7)            179.0154         estimate D2E/DX2                !
 ! D8    D(3,5,6,8)             -7.2047         estimate D2E/DX2                !
 ! D9    D(9,5,6,7)              6.6612         estimate D2E/DX2                !
 ! D10   D(9,5,6,8)           -179.559          estimate D2E/DX2                !
 ! D11   D(3,5,9,10)          -176.8045         estimate D2E/DX2                !
 ! D12   D(6,5,9,10)            -4.7656         estimate D2E/DX2                !
 ! D13   D(5,6,7,10)            -5.3183         estimate D2E/DX2                !
 ! D14   D(8,6,7,10)          -179.6509         estimate D2E/DX2                !
 ! D15   D(6,7,10,9)             2.4723         estimate D2E/DX2                !
 ! D16   D(6,7,10,11)          172.1781         estimate D2E/DX2                !
 ! D17   D(5,9,10,7)             1.7727         estimate D2E/DX2                !
 ! D18   D(5,9,10,11)         -167.3778         estimate D2E/DX2                !
 ! D19   D(7,10,11,12)          10.7209         estimate D2E/DX2                !
 ! D20   D(7,10,11,13)         131.1998         estimate D2E/DX2                !
 ! D21   D(7,10,11,25)        -111.1489         estimate D2E/DX2                !
 ! D22   D(9,10,11,12)         179.2943         estimate D2E/DX2                !
 ! D23   D(9,10,11,13)         -60.2268         estimate D2E/DX2                !
 ! D24   D(9,10,11,25)          57.4244         estimate D2E/DX2                !
 ! D25   D(10,11,13,14)         95.2858         estimate D2E/DX2                !
 ! D26   D(12,11,13,14)       -142.1206         estimate D2E/DX2                !
 ! D27   D(25,11,13,14)        -26.4211         estimate D2E/DX2                !
 ! D28   D(10,11,25,21)       -117.4627         estimate D2E/DX2                !
 ! D29   D(10,11,25,26)          0.5611         estimate D2E/DX2                !
 ! D30   D(10,11,25,27)        124.6728         estimate D2E/DX2                !
 ! D31   D(12,11,25,21)        119.1962         estimate D2E/DX2                !
 ! D32   D(12,11,25,26)       -122.7799         estimate D2E/DX2                !
 ! D33   D(12,11,25,27)          1.3317         estimate D2E/DX2                !
 ! D34   D(13,11,25,21)          4.2507         estimate D2E/DX2                !
 ! D35   D(13,11,25,26)        122.2746         estimate D2E/DX2                !
 ! D36   D(13,11,25,27)       -113.6138         estimate D2E/DX2                !
 ! D37   D(11,13,14,15)        159.1045         estimate D2E/DX2                !
 ! D38   D(11,13,14,20)        -74.9981         estimate D2E/DX2                !
 ! D39   D(11,13,14,21)         36.9867         estimate D2E/DX2                !
 ! D40   D(13,14,15,16)         74.8419         estimate D2E/DX2                !
 ! D41   D(13,14,15,18)        -47.2865         estimate D2E/DX2                !
 ! D42   D(13,14,15,19)       -166.2663         estimate D2E/DX2                !
 ! D43   D(20,14,15,16)        -46.7602         estimate D2E/DX2                !
 ! D44   D(20,14,15,18)       -168.8885         estimate D2E/DX2                !
 ! D45   D(20,14,15,19)         72.1316         estimate D2E/DX2                !
 ! D46   D(21,14,15,16)       -170.7681         estimate D2E/DX2                !
 ! D47   D(21,14,15,18)         67.1035         estimate D2E/DX2                !
 ! D48   D(21,14,15,19)        -51.8763         estimate D2E/DX2                !
 ! D49   D(13,14,21,22)         90.7493         estimate D2E/DX2                !
 ! D50   D(13,14,21,24)       -150.6052         estimate D2E/DX2                !
 ! D51   D(13,14,21,25)        -31.8682         estimate D2E/DX2                !
 ! D52   D(15,14,21,22)        -30.0741         estimate D2E/DX2                !
 ! D53   D(15,14,21,24)         88.5714         estimate D2E/DX2                !
 ! D54   D(15,14,21,25)       -152.6915         estimate D2E/DX2                !
 ! D55   D(20,14,21,22)       -157.7741         estimate D2E/DX2                !
 ! D56   D(20,14,21,24)        -39.1286         estimate D2E/DX2                !
 ! D57   D(20,14,21,25)         79.6085         estimate D2E/DX2                !
 ! D58   D(14,15,16,17)         37.3403         estimate D2E/DX2                !
 ! D59   D(18,15,16,17)        166.3737         estimate D2E/DX2                !
 ! D60   D(19,15,16,17)        -73.3835         estimate D2E/DX2                !
 ! D61   D(14,21,22,23)        165.8251         estimate D2E/DX2                !
 ! D62   D(24,21,22,23)         47.1472         estimate D2E/DX2                !
 ! D63   D(25,21,22,23)        -74.3166         estimate D2E/DX2                !
 ! D64   D(14,21,25,11)         17.3583         estimate D2E/DX2                !
 ! D65   D(14,21,25,26)        -99.6078         estimate D2E/DX2                !
 ! D66   D(14,21,25,27)        136.1701         estimate D2E/DX2                !
 ! D67   D(22,21,25,11)       -108.0867         estimate D2E/DX2                !
 ! D68   D(22,21,25,26)        134.9472         estimate D2E/DX2                !
 ! D69   D(22,21,25,27)         10.7251         estimate D2E/DX2                !
 ! D70   D(24,21,25,11)        133.1204         estimate D2E/DX2                !
 ! D71   D(24,21,25,26)         16.1543         estimate D2E/DX2                !
 ! D72   D(24,21,25,27)       -108.0679         estimate D2E/DX2                !
 ! D73   D(11,25,27,28)       -179.7463         estimate D2E/DX2                !
 ! D74   D(21,25,27,28)         65.841          estimate D2E/DX2                !
 ! D75   D(26,25,27,28)        -57.4381         estimate D2E/DX2                !
 --------------------------------------------------------------------------------
 Trust Radius=3.00D-01 FncErr=1.00D-07 GrdErr=1.00D-06 EigMax=2.50D+02 EigMin=1.00D-04
 Number of steps in this run=    163 maximum allowed number of steps=    168.
 GradGradGradGradGradGradGradGradGradGradGradGradGradGradGradGradGradGrad

 Leave Link  103 at Sun Jul 11 16:05:17 2021, MaxMem=   104857600 cpu:               0.1 elap:               0.0
 (Enter /prod/apps/gaussian/g16b1/l202.exe)
                          Input orientation:                          
 ---------------------------------------------------------------------
 Center     Atomic      Atomic             Coordinates (Angstroms)
 Number     Number       Type             X           Y           Z
 ---------------------------------------------------------------------
      1          7           0        2.073000   -3.269000    0.977000
      2          1           0        1.180000   -2.800000    0.950000
      3          6           0        2.934000   -2.747000    0.150000
      4          8           0        4.001000   -3.347000   -0.041000
      5          6           0        2.399000   -1.549000   -0.465000
      6          6           0        3.008000   -0.817000   -1.592000
      7          7           0        2.260000    0.208000   -1.918000
      8          1           0        3.971000   -0.977000   -2.061000
      9          7           0        1.231000   -0.986000   -0.279000
     10          7           0        1.160000    0.053000   -1.112000
     11          6           0        0.168000    1.080000   -1.050000
     12          1           0        0.325000    1.835000   -1.835000
     13          8           0       -1.167000    0.552000   -1.212000
     14          6           0       -1.800000    0.301000    0.089000
     15          6           0       -3.413000    0.237000   -0.015000
     16          8           0       -3.833000   -1.035000   -0.624000
     17          1           0       -3.193000   -1.666000   -0.251000
     18          1           0       -3.926000    1.024000   -0.574000
     19          1           0       -3.673000    0.305000    1.044000
     20          1           0       -1.339000   -0.605000    0.491000
     21          6           0       -1.268000    1.489000    0.913000
     22          8           0       -2.101000    2.681000    0.892000
     23          1           0       -1.670000    3.130000    1.642000
     24          1           0       -1.215000    1.157000    1.953000
     25          6           0        0.155000    1.797000    0.340000
     26          1           0        0.928000    1.358000    0.975000
     27          8           0        0.314000    3.181000    0.193000
     28          1           0        0.307000    3.606000    1.069000
 ---------------------------------------------------------------------
                    Distance matrix (angstroms):
                    1          2          3          4          5
     1  N    0.000000
     2  H    1.009029   0.000000
     3  C    1.302971   1.928555   0.000000
     4  O    2.181649   3.039627   1.238939   0.000000
     5  C    2.268048   2.247929   1.449018   2.445196   0.000000
     6  C    3.672368   3.706162   2.600950   3.129305   1.475410
     7  N    4.528302   4.294169   3.669186   4.380894   2.284202
     8  H    4.252659   4.492119   3.016089   3.114193   2.312052
     9  N    2.738355   2.191720   2.487041   3.647446   1.309881
    10  N    4.029041   3.520206   3.546790   4.558324   2.126061
    11  C    5.162514   4.480909   4.872031   5.942079   3.497317
    12  H    6.083886   5.474530   5.633989   6.601859   4.198789
    13  O    5.467116   4.628019   5.436602   6.578880   4.205778
    14  C    5.341683   4.386106   5.630700   6.853934   4.621798
    15  C    6.585765   5.590192   7.015404   8.234873   6.096855
    16  O    6.514199   5.542821   7.022984   8.188821   6.255182
    17  H    5.639889   4.674557   6.234540   7.390771   5.597316
    18  H    7.538133   6.558718   7.861566   9.067914   6.829190
    19  H    6.767162   5.762072   7.332557   8.567649   6.525610
    20  H    4.356011   3.372546   4.791970   6.026374   3.972117
    21  C    5.814202   4.938582   6.015203   7.215218   4.957340
    22  O    7.268563   6.388246   7.440764   8.627959   6.323318
    23  H    7.443082   6.615608   7.613278   8.771788   6.548989
    24  H    5.599375   4.732851   5.975469   7.174169   5.121538
    25  C    5.454251   4.749225   5.329810   6.434098   4.108440
    26  H    4.766567   4.165704   4.642810   5.710745   3.562035
    27  O    6.731362   6.090597   6.481314   7.500901   5.210863
    28  H    7.098792   6.466307   6.935870   7.951223   5.770931
                    6          7          8          9         10
     6  C    0.000000
     7  N    1.310116   0.000000
     8  H    1.083019   2.086192   0.000000
     9  N    2.215910   2.273939   3.268517   0.000000
    10  N    2.098191   1.372465   3.140577   1.333586   0.000000
    11  C    3.458030   2.426988   4.440290   2.448013   1.429209
    12  H    3.780297   2.529475   4.609961   3.346642   2.096540
    13  O    4.410123   3.515836   5.427494   2.997722   2.382001
    14  C    5.214648   4.529934   6.289692   3.313420   3.203983
    15  C    6.695303   5.983743   7.757794   4.809591   4.706336
    16  O    6.912585   6.351703   7.935411   5.075975   5.133414
    17  H    6.400897   6.002164   7.421167   4.476043   4.758665
    18  H    7.246100   6.382694   8.281170   5.542723   5.205735
    19  H    7.269329   6.631994   8.349568   5.240823   5.298087
    20  H    4.824960   4.406478   5.903151   2.709790   3.040982
    21  C    5.465971   4.701309   6.509451   3.713690   3.472449
    22  O    6.671442   5.747186   7.679216   5.091204   4.642900
    23  H    6.922518   6.054468   7.899401   5.389573   5.006131
    24  H    5.856401   5.287804   6.896430   3.944260   4.031584
    25  C    4.324954   3.471961   5.293556   3.047298   2.481908
    26  H    3.955567   3.386174   4.891766   2.675567   2.472330
    27  O    5.140804   4.133034   5.978556   4.292734   3.493297
    28  H    5.825740   4.927756   6.650239   4.874151   4.255371
                   11         12         13         14         15
    11  C    0.000000
    12  H    1.100409   0.000000
    13  O    1.444733   2.064045   0.000000
    14  C    2.403578   3.251239   1.468431   0.000000
    15  C    3.821706   4.454060   2.564479   1.617616   0.000000
    16  O    4.545624   5.195420   3.157827   2.535025   1.471484
    17  H    4.413076   5.209835   3.154001   2.434161   1.930157
    18  H    4.121959   4.507643   2.870873   2.341404   1.093169
    19  H    4.442830   5.158832   3.380914   2.102420   1.092568
    20  H    2.735865   3.759358   2.066021   1.093143   2.294880
    21  C    2.466322   3.195132   2.324606   1.540566   2.651361
    22  O    3.388647   3.746695   3.135572   2.529785   2.918412
    23  H    3.850663   4.212669   3.878712   3.229853   3.762067
    24  H    3.307057   4.144904   3.222663   2.132946   3.090409
    25  C    1.564084   2.181964   2.388810   2.474478   3.910275
    26  H    2.180713   2.913286   3.133948   3.056833   4.591407
    27  O    2.445520   2.434054   3.328517   3.574103   4.754043
    28  H    3.300024   3.401467   4.086876   4.040158   5.134551
                   16         17         18         19         20
    16  O    0.000000
    17  H    0.973083   0.000000
    18  H    2.061706   2.806727   0.000000
    19  H    2.145559   2.406713   1.788545   0.000000
    20  H    2.765531   2.261327   3.237350   2.565437   0.000000
    21  C    3.913077   3.874861   3.080967   2.683848   2.137279
    22  O    4.371125   4.625508   2.868001   2.853010   3.396946
    23  H    5.211578   5.376299   3.799398   3.514291   3.922319
    24  H    4.277817   4.091385   3.708496   2.755712   2.292916
    25  C    4.985345   4.852912   4.252939   4.168365   2.832744
    26  H    5.563306   5.256453   5.106102   4.720463   3.037584
    27  O    5.969904   5.999133   4.818562   4.989163   4.141861
    28  H    6.445520   6.464239   5.223453   5.170844   4.558061
                   21         22         23         24         25
    21  C    0.000000
    22  O    1.454371   0.000000
    23  H    1.840089   0.974609   0.000000
    24  H    1.092993   2.057497   2.048530   0.000000
    25  C    1.564648   2.485095   2.608202   2.210943   0.000000
    26  H    2.200777   3.306366   3.214728   2.364177   1.092463
    27  O    2.425693   2.563362   2.457327   3.087396   1.400838
    28  H    2.643227   2.585618   2.112684   3.015881   1.956279
                   26         27         28
    26  H    0.000000
    27  O    2.076499   0.000000
    28  H    2.334091   0.973679   0.000000
 Stoichiometry    C8H11N4O5(1-)
 Framework group  C1[X(C8H11N4O5)]
 Deg. of freedom    78
 Full point group                 C1      NOp   1
 Largest Abelian subgroup         C1      NOp   1
 Largest concise Abelian subgroup C1      NOp   1
                         Standard orientation:                         
 ---------------------------------------------------------------------
 Center     Atomic      Atomic             Coordinates (Angstroms)
 Number     Number       Type             X           Y           Z
 ---------------------------------------------------------------------
      1          7           0        3.236260    1.719790   -1.326075
      2          1           0        2.240639    1.833002   -1.207501
      3          6           0        3.712246    0.733948   -0.619472
      4          8           0        4.942463    0.611595   -0.538440
      5          6           0        2.643653   -0.005470    0.021640
      6          6           0        2.818302   -1.049017    1.049911
      7          7           0        1.650016   -1.501023    1.433584
      8          1           0        3.736042   -1.499476    1.407358
      9          7           0        1.352114    0.203600   -0.041649
     10          7           0        0.771573   -0.684770    0.765954
     11          6           0       -0.629191   -0.967211    0.792856
     12          1           0       -0.865601   -1.745724    1.533752
     13          8           0       -1.409849    0.202579    1.123639
     14          6           0       -1.891376    0.879199   -0.087397
     15          6           0       -3.167922    1.828457    0.205897
     16          8           0       -2.740354    3.057161    0.893455
     17          1           0       -1.888060    3.249796    0.465230
     18          1           0       -3.989672    1.419767    0.799797
     19          1           0       -3.505399    2.011840   -0.816935
     20          1           0       -1.031923    1.401159   -0.516183
     21          6           0       -2.196939   -0.324340   -0.999246
     22          8           0       -3.554410   -0.839134   -0.912904
     23          1           0       -3.517110   -1.384473   -1.719796
     24          1           0       -2.049359    0.010702   -2.029100
     25          6           0       -1.159673   -1.427318   -0.604731
     26          1           0       -0.328693   -1.444245   -1.313717
     27          8           0       -1.803326   -2.668232   -0.514241
     28          1           0       -2.121413   -2.936765   -1.394445
 ---------------------------------------------------------------------
 Rotational constants (GHZ):           0.7378963           0.2726856           0.2314583
 Leave Link  202 at Sun Jul 11 16:05:17 2021, MaxMem=   104857600 cpu:               0.0 elap:               0.0
 (Enter /prod/apps/gaussian/g16b1/l301.exe)
 Standard basis: 6-31G(d) (6D, 7F)
 Ernie: Thresh=  0.10000D-02 Tol=  0.10000D-05 Strict=F.
 There are   277 symmetry adapted cartesian basis functions of A   symmetry.
 There are   277 symmetry adapted basis functions of A   symmetry.
   277 basis functions,   520 primitive gaussians,   277 cartesian basis functions
    64 alpha electrons       64 beta electrons
       nuclear repulsion energy      1260.2535494169 Hartrees.
 IExCor=  402 DFT=T Ex+Corr=B3LYP ExCW=0 ScaHFX=  0.200000
 ScaDFX=  0.800000  0.720000  1.000000  0.810000 ScalE2=  1.000000  1.000000
 IRadAn=      5 IRanWt=     -1 IRanGd=            0 ICorTp=0 IEmpDi=  4
 NAtoms=   28 NActive=   28 NUniq=   28 SFac= 1.00D+00 NAtFMM=   60 NAOKFM=F Big=F
 Integral buffers will be    131072 words long.
 Raffenetti 2 integral format.
 Two-electron integral symmetry is turned on.
 Using the following non-standard input for PCM:
 MSTModel=DFT cav MSTCharged
 --- end of non-standard input.
 MST model for solvation energy: B3LYP parametrization.
 MST cavity parameters:
 ISph   IAn     Re0     Alpha   Atom Type   QCorr
 ------------------------------------------------
   1      7     1.50     1.15      NH         T
   2      1     0.90     1.15      NH         T
   3      6     1.50     1.25      C          F
   4      8     1.40     1.25      O          F
   5      6     1.50     1.25      C          F
   6      6     1.50     1.25      CH         F
   7      7     1.40     1.25      N          F
   8      1     1.20     1.25      CH         F
   9      7     1.40     1.25      N          F
  10      7     1.40     1.25      N          F
  11      6     1.50     1.25      CH         F
  12      1     1.20     1.25      CH         F
  13      8     1.40     1.25      O          F
  14      6     1.50     1.25      CH         F
  15      6     1.50     1.25      CH2        F
  16      8     1.45     1.25      OH         F
  17      1     0.90     1.25      OH         F
  18      1     1.20     1.25      CH2        F
  19      1     1.20     1.25      CH2        F
  20      1     1.20     1.25      CH         F
  21      6     1.50     1.25      CH         F
  22      8     1.45     1.25      OH         F
  23      1     0.90     1.25      OH         F
  24      1     1.20     1.25      CH         F
  25      6     1.50     1.25      CH         F
  26      1     1.20     1.25      CH         F
  27      8     1.45     1.25      OH         F
  28      1     0.90     1.25      OH         F
 ------------------------------------------------------------------------------
 Polarizable Continuum Model (PCM)
 =================================
 Model                : PCM.
 Atomic radii         : MST.
 Polarization charges : Total charges.
 Charge compensation  : None.
 Solution method      : On-the-fly selection.
 Cavity type          : Scaled VdW (van der Waals Surface) (Alpha=1.250).
 Cavity algorithm     : GePol (No added spheres)
                        Default sphere list used, NSphG=   28.
                        Lebedev-Laikov grids with approx.  5.0 points / Ang**2.
                        Smoothing algorithm: York/Karplus (Gamma=1.0000).
                        Polarization charges: spherical gaussians, with
                                              point-specific exponents (IZeta= 3).
                        Self-potential: point-specific (ISelfS= 7).
                        Self-field    : sphere-specific E.n sum rule (ISelfD= 2).
 1st derivatives      : Analytical E(r).r(x)/FMM algorithm (CHGder, D1EAlg=3).
                        Cavity 1st derivative terms included.
 Solvent              : Water, Eps=  78.355300 Eps(inf)=   1.777849
 ------------------------------------------------------------------------------
 GePol: Number of generator spheres                  =      28
 GePol: Total number of spheres                      =      28
 GePol: Number of exposed spheres                    =      28 (100.00%)
 GePol: Number of points                             =    2068
 GePol: Average weight of points                     =       0.13
 GePol: Minimum weight of points                     =   0.41D-11
 GePol: Maximum weight of points                     =    0.22001
 GePol: Number of points with low weight             =     114
 GePol: Fraction of low-weight points (<1% of avg)   =       5.51%
 GePol: Cavity surface area                          =    273.436 Ang**2
 GePol: Cavity volume                                =    252.586 Ang**3
 PCM non-electrostatic energy =         0.0014411444 Hartrees.
 Nuclear repulsion after PCM non-electrostatic terms =     1260.2549905612 Hartrees.
 Leave Link  301 at Sun Jul 11 16:05:17 2021, MaxMem=   104857600 cpu:               0.3 elap:               0.1
 (Enter /prod/apps/gaussian/g16b1/l302.exe)
 NPDir=0 NMtPBC=     1 NCelOv=     1 NCel=       1 NClECP=     1 NCelD=      1
         NCelK=      1 NCelE2=     1 NClLst=     1 CellRange=     0.0.
 One-electron integrals computed using PRISM.
 One-electron integral symmetry used in STVInt
 NBasis=   277 RedAO= T EigKep=  1.00D-03  NBF=   277
 NBsUse=   277 1.00D-06 EigRej= -1.00D+00 NBFU=   277
 Precomputing XC quadrature grid using
 IXCGrd= 4 IRadAn=           5 IRanWt=          -1 IRanGd=           0 AccXCQ= 0.00D+00.
 Generated NRdTot=       0 NPtTot=           0 NUsed=           0 NTot=          32
 NSgBfM=   275   275   275   275   275 MxSgAt=    28 MxSgA2=    28.
 Leave Link  302 at Sun Jul 11 16:05:17 2021, MaxMem=   104857600 cpu:               1.2 elap:               0.3
 (Enter /prod/apps/gaussian/g16b1/l303.exe)
 DipDrv:  MaxL=1.
 Leave Link  303 at Sun Jul 11 16:05:17 2021, MaxMem=   104857600 cpu:               0.1 elap:               0.1
 (Enter /prod/apps/gaussian/g16b1/l401.exe)
 ExpMin= 1.61D-01 ExpMax= 5.48D+03 ExpMxC= 8.25D+02 IAcc=3 IRadAn=         5 AccDes= 0.00D+00
 Harris functional with IExCor=  402 and IRadAn=       5 diagonalized for initial guess.
 HarFok:  IExCor=  402 AccDes= 0.00D+00 IRadAn=         5 IDoV= 1 UseB2=F ITyADJ=14
 ICtDFT=  3500011 ScaDFX=  1.000000  1.000000  1.000000  1.000000
 FoFCou: FMM=F IPFlag=           0 FMFlag=      100000 FMFlg1=           0
         NFxFlg=           0 DoJE=T BraDBF=F KetDBF=T FulRan=T
         wScrn=  0.000000 ICntrl=       500 IOpCl=  0 I1Cent=   200000004 NGrid=           0
         NMat0=    1 NMatS0=      1 NMatT0=    0 NMatD0=    1 NMtDS0=    0 NMtDT0=    0
 Petite list used in FoFCou.
 Harris En= -906.619657712698    
 JPrj=0 DoOrth=F DoCkMO=F.
 Leave Link  401 at Sun Jul 11 16:05:19 2021, MaxMem=   104857600 cpu:               6.9 elap:               1.7
 (Enter /prod/apps/gaussian/g16b1/l502.exe)
 Integral symmetry usage will be decided dynamically.
 Closed shell SCF:
 Using DIIS extrapolation, IDIIS=  1040.
 NGot=   104857600 LenX=   104699417 LenY=   104622247
 Requested convergence on RMS density matrix=1.00D-08 within 128 cycles.
 Requested convergence on MAX density matrix=1.00D-06.
 Requested convergence on             energy=1.00D-06.
 No special actions if energy rises.
 Fock matrices will be formed incrementally for  20 cycles.

 Cycle   1  Pass 1  IDiag  1:
 FoFJK:  IHMeth= 1 ICntrl=       0 DoSepK=F KAlg= 0 I1Cent=           0 FoldK=F
 IRaf= 820000000 NMat=       1 IRICut=       1 DoRegI=T DoRafI=F ISym2E= 0 IDoP0=0 IntGTp=1.
 FoFCou: FMM=F IPFlag=           0 FMFlag=      100000 FMFlg1=           0
         NFxFlg=           0 DoJE=F BraDBF=F KetDBF=F FulRan=T
         wScrn=  0.000000 ICntrl=         0 IOpCl=  0 I1Cent=           0 NGrid=           0
         NMat0=    1 NMatS0=      1 NMatT0=    0 NMatD0=    1 NMtDS0=    0 NMtDT0=    0
 Symmetry not used in FoFCou.
 Inv3:  Mode=1 IEnd=    12829872.
 Iteration    1 A*A^-1 deviation from unit magnitude is 3.55D-15 for    362.
 Iteration    1 A*A^-1 deviation from orthogonality  is 2.22D-15 for   1841    573.
 Iteration    1 A^-1*A deviation from unit magnitude is 3.66D-15 for    253.
 Iteration    1 A^-1*A deviation from orthogonality  is 9.08D-14 for   1846   1841.
 E= -906.192735949209    
 DIIS: error= 2.94D-02 at cycle   1 NSaved=   1.
 NSaved= 1 IEnMin= 1 EnMin= -906.192735949209     IErMin= 1 ErrMin= 2.94D-02
 ErrMax= 2.94D-02  0.00D+00 EMaxC= 1.00D-01 BMatC= 5.12D-01 BMatP= 5.12D-01
 IDIUse=3 WtCom= 7.06D-01 WtEn= 2.94D-01
 Coeff-Com:  0.100D+01
 Coeff-En:   0.100D+01
 Coeff:      0.100D+01
 Gap=     0.254 Goal=   None    Shift=    0.000
 GapD=    0.254 DampG=1.000 DampE=0.500 DampFc=0.5000 IDamp=-1.
 Damping current iteration by 5.00D-01
 RMSDP=6.68D-03 MaxDP=2.20D-01              OVMax= 3.48D-01

 Cycle   2  Pass 1  IDiag  1:
 RMSU=  3.33D-03    CP:  9.92D-01
 E= -906.317119737702     Delta-E=       -0.124383788493 Rises=F Damp=T
 DIIS: error= 7.52D-03 at cycle   2 NSaved=   2.
 NSaved= 2 IEnMin= 2 EnMin= -906.317119737702     IErMin= 2 ErrMin= 7.52D-03
 ErrMax= 7.52D-03  0.00D+00 EMaxC= 1.00D-01 BMatC= 6.15D-02 BMatP= 5.12D-01
 IDIUse=3 WtCom= 9.25D-01 WtEn= 7.52D-02
 Coeff-Com:  0.187D+00 0.813D+00
 Coeff-En:   0.320D+00 0.680D+00
 Coeff:      0.197D+00 0.803D+00
 Gap=     0.148 Goal=   None    Shift=    0.000
 RMSDP=1.87D-03 MaxDP=1.01D-01 DE=-1.24D-01 OVMax= 3.54D-01

 Cycle   3  Pass 1  IDiag  1:
 RMSU=  1.62D-03    CP:  9.82D-01  7.24D-01
 E= -906.578731011394     Delta-E=       -0.261611273692 Rises=F Damp=F
 DIIS: error= 7.33D-03 at cycle   3 NSaved=   3.
 NSaved= 3 IEnMin= 3 EnMin= -906.578731011394     IErMin= 3 ErrMin= 7.33D-03
 ErrMax= 7.33D-03  0.00D+00 EMaxC= 1.00D-01 BMatC= 3.16D-02 BMatP= 6.15D-02
 IDIUse=3 WtCom= 9.27D-01 WtEn= 7.33D-02
 Coeff-Com:  0.452D-01 0.413D+00 0.542D+00
 Coeff-En:   0.000D+00 0.000D+00 0.100D+01
 Coeff:      0.419D-01 0.382D+00 0.576D+00
 Gap=     0.153 Goal=   None    Shift=    0.000
 RMSDP=9.72D-04 MaxDP=4.27D-02 DE=-2.62D-01 OVMax= 7.17D-02

 Cycle   4  Pass 1  IDiag  1:
 RMSU=  6.67D-04    CP:  9.87D-01  7.71D-01  5.79D-01
 E= -906.601533957704     Delta-E=       -0.022802946310 Rises=F Damp=F
 DIIS: error= 4.62D-03 at cycle   4 NSaved=   4.
 NSaved= 4 IEnMin= 4 EnMin= -906.601533957704     IErMin= 4 ErrMin= 4.62D-03
 ErrMax= 4.62D-03  0.00D+00 EMaxC= 1.00D-01 BMatC= 8.01D-03 BMatP= 3.16D-02
 IDIUse=3 WtCom= 9.54D-01 WtEn= 4.62D-02
 Coeff-Com:  0.405D-02 0.114D+00 0.349D+00 0.534D+00
 Coeff-En:   0.000D+00 0.000D+00 0.201D+00 0.799D+00
 Coeff:      0.387D-02 0.109D+00 0.342D+00 0.546D+00
 Gap=     0.156 Goal=   None    Shift=    0.000
 RMSDP=3.93D-04 MaxDP=1.48D-02 DE=-2.28D-02 OVMax= 2.99D-02

 Cycle   5  Pass 1  IDiag  1:
 RMSU=  2.36D-04    CP:  9.86D-01  7.66D-01  6.79D-01  5.99D-01
 E= -906.607671584404     Delta-E=       -0.006137626700 Rises=F Damp=F
 DIIS: error= 1.41D-03 at cycle   5 NSaved=   5.
 NSaved= 5 IEnMin= 5 EnMin= -906.607671584404     IErMin= 5 ErrMin= 1.41D-03
 ErrMax= 1.41D-03  0.00D+00 EMaxC= 1.00D-01 BMatC= 9.88D-04 BMatP= 8.01D-03
 IDIUse=3 WtCom= 9.86D-01 WtEn= 1.41D-02
 Coeff-Com: -0.896D-03 0.126D-01 0.126D+00 0.329D+00 0.533D+00
 Coeff-En:   0.000D+00 0.000D+00 0.000D+00 0.842D-01 0.916D+00
 Coeff:     -0.884D-03 0.125D-01 0.125D+00 0.325D+00 0.539D+00
 Gap=     0.159 Goal=   None    Shift=    0.000
 RMSDP=1.26D-04 MaxDP=4.40D-03 DE=-6.14D-03 OVMax= 7.01D-03

 Cycle   6  Pass 1  IDiag  1:
 RMSU=  5.58D-05    CP:  9.86D-01  7.62D-01  6.88D-01  6.82D-01  5.93D-01
 E= -906.608483007814     Delta-E=       -0.000811423410 Rises=F Damp=F
 DIIS: error= 3.08D-04 at cycle   6 NSaved=   6.
 NSaved= 6 IEnMin= 6 EnMin= -906.608483007814     IErMin= 6 ErrMin= 3.08D-04
 ErrMax= 3.08D-04  0.00D+00 EMaxC= 1.00D-01 BMatC= 3.77D-05 BMatP= 9.88D-04
 IDIUse=3 WtCom= 9.97D-01 WtEn= 3.08D-03
 Coeff-Com: -0.517D-03-0.924D-03 0.385D-01 0.122D+00 0.259D+00 0.582D+00
 Coeff-En:   0.000D+00 0.000D+00 0.000D+00 0.000D+00 0.000D+00 0.100D+01
 Coeff:     -0.516D-03-0.921D-03 0.384D-01 0.121D+00 0.258D+00 0.584D+00
 Gap=     0.160 Goal=   None    Shift=    0.000
 RMSDP=2.76D-05 MaxDP=9.94D-04 DE=-8.11D-04 OVMax= 2.87D-03

 Cycle   7  Pass 1  IDiag  1:
 RMSU=  1.97D-05    CP:  9.86D-01  7.62D-01  6.90D-01  6.81D-01  6.29D-01
                    CP:  6.92D-01
 E= -906.608510174607     Delta-E=       -0.000027166793 Rises=F Damp=F
 DIIS: error= 1.60D-04 at cycle   7 NSaved=   7.
 NSaved= 7 IEnMin= 7 EnMin= -906.608510174607     IErMin= 7 ErrMin= 1.60D-04
 ErrMax= 1.60D-04  0.00D+00 EMaxC= 1.00D-01 BMatC= 6.69D-06 BMatP= 3.77D-05
 IDIUse=3 WtCom= 9.98D-01 WtEn= 1.60D-03
 Coeff-Com: -0.142D-03-0.229D-02 0.113D-01 0.426D-01 0.106D+00 0.351D+00
 Coeff-Com:  0.491D+00
 Coeff-En:   0.000D+00 0.000D+00 0.000D+00 0.000D+00 0.000D+00 0.880D-01
 Coeff-En:   0.912D+00
 Coeff:     -0.142D-03-0.229D-02 0.112D-01 0.426D-01 0.106D+00 0.351D+00
 Coeff:      0.492D+00
 Gap=     0.160 Goal=   None    Shift=    0.000
 RMSDP=1.11D-05 MaxDP=4.81D-04 DE=-2.72D-05 OVMax= 1.15D-03

 Cycle   8  Pass 1  IDiag  1:
 RMSU=  6.80D-06    CP:  9.86D-01  7.62D-01  6.90D-01  6.84D-01  6.31D-01
                    CP:  7.70D-01  6.52D-01
 E= -906.608515413331     Delta-E=       -0.000005238724 Rises=F Damp=F
 DIIS: error= 4.30D-05 at cycle   8 NSaved=   8.
 NSaved= 8 IEnMin= 8 EnMin= -906.608515413331     IErMin= 8 ErrMin= 4.30D-05
 ErrMax= 4.30D-05  0.00D+00 EMaxC= 1.00D-01 BMatC= 4.82D-07 BMatP= 6.69D-06
 IDIUse=1 WtCom= 1.00D+00 WtEn= 0.00D+00
 Coeff-Com:  0.446D-04-0.972D-03 0.220D-02 0.965D-02 0.278D-01 0.122D+00
 Coeff-Com:  0.256D+00 0.583D+00
 Coeff:      0.446D-04-0.972D-03 0.220D-02 0.965D-02 0.278D-01 0.122D+00
 Coeff:      0.256D+00 0.583D+00
 Gap=     0.160 Goal=   None    Shift=    0.000
 RMSDP=3.39D-06 MaxDP=1.78D-04 DE=-5.24D-06 OVMax= 4.58D-04

 Cycle   9  Pass 1  IDiag  1:
 RMSU=  2.41D-06    CP:  9.86D-01  7.62D-01  6.90D-01  6.84D-01  6.34D-01
                    CP:  7.72D-01  7.18D-01  7.27D-01
 E= -906.608515808043     Delta-E=       -0.000000394713 Rises=F Damp=F
 DIIS: error= 1.79D-05 at cycle   9 NSaved=   9.
 NSaved= 9 IEnMin= 9 EnMin= -906.608515808043     IErMin= 9 ErrMin= 1.79D-05
 ErrMax= 1.79D-05  0.00D+00 EMaxC= 1.00D-01 BMatC= 9.20D-08 BMatP= 4.82D-07
 IDIUse=1 WtCom= 1.00D+00 WtEn= 0.00D+00
 Coeff-Com:  0.608D-04-0.236D-03-0.853D-03-0.234D-02-0.352D-02 0.712D-02
 Coeff-Com:  0.525D-01 0.342D+00 0.605D+00
 Coeff:      0.608D-04-0.236D-03-0.853D-03-0.234D-02-0.352D-02 0.712D-02
 Coeff:      0.525D-01 0.342D+00 0.605D+00
 Gap=     0.160 Goal=   None    Shift=    0.000
 RMSDP=1.28D-06 MaxDP=4.56D-05 DE=-3.95D-07 OVMax= 1.05D-04

 Cycle  10  Pass 1  IDiag  1:
 RMSU=  6.45D-07    CP:  9.86D-01  7.62D-01  6.90D-01  6.85D-01  6.34D-01
                    CP:  7.80D-01  7.27D-01  8.20D-01  7.43D-01
 E= -906.608515885548     Delta-E=       -0.000000077504 Rises=F Damp=F
 DIIS: error= 2.29D-06 at cycle  10 NSaved=  10.
 NSaved=10 IEnMin=10 EnMin= -906.608515885548     IErMin=10 ErrMin= 2.29D-06
 ErrMax= 2.29D-06  0.00D+00 EMaxC= 1.00D-01 BMatC= 4.87D-09 BMatP= 9.20D-08
 IDIUse=1 WtCom= 1.00D+00 WtEn= 0.00D+00
 Coeff-Com:  0.280D-04-0.559D-04-0.494D-03-0.157D-02-0.310D-02-0.250D-02
 Coeff-Com:  0.984D-02 0.145D+00 0.290D+00 0.563D+00
 Coeff:      0.280D-04-0.559D-04-0.494D-03-0.157D-02-0.310D-02-0.250D-02
 Coeff:      0.984D-02 0.145D+00 0.290D+00 0.563D+00
 Gap=     0.160 Goal=   None    Shift=    0.000
 RMSDP=3.07D-07 MaxDP=1.30D-05 DE=-7.75D-08 OVMax= 1.89D-05

 Cycle  11  Pass 1  IDiag  1:
 RMSU=  2.03D-07    CP:  9.86D-01  7.62D-01  6.90D-01  6.85D-01  6.34D-01
                    CP:  7.80D-01  7.30D-01  8.34D-01  7.64D-01  7.05D-01
 E= -906.608515889347     Delta-E=       -0.000000003799 Rises=F Damp=F
 DIIS: error= 1.10D-06 at cycle  11 NSaved=  11.
 NSaved=11 IEnMin=11 EnMin= -906.608515889347     IErMin=11 ErrMin= 1.10D-06
 ErrMax= 1.10D-06  0.00D+00 EMaxC= 1.00D-01 BMatC= 6.17D-10 BMatP= 4.87D-09
 IDIUse=1 WtCom= 1.00D+00 WtEn= 0.00D+00
 Coeff-Com:  0.483D-05 0.172D-05-0.134D-03-0.452D-03-0.107D-02-0.210D-02
 Coeff-Com: -0.368D-02 0.262D-01 0.460D-01 0.273D+00 0.662D+00
 Coeff:      0.483D-05 0.172D-05-0.134D-03-0.452D-03-0.107D-02-0.210D-02
 Coeff:     -0.368D-02 0.262D-01 0.460D-01 0.273D+00 0.662D+00
 Gap=     0.160 Goal=   None    Shift=    0.000
 RMSDP=1.06D-07 MaxDP=3.41D-06 DE=-3.80D-09 OVMax= 7.78D-06

 Cycle  12  Pass 1  IDiag  1:
 RMSU=  5.71D-08    CP:  9.86D-01  7.62D-01  6.90D-01  6.85D-01  6.34D-01
                    CP:  7.81D-01  7.30D-01  8.39D-01  7.68D-01  7.72D-01
                    CP:  7.84D-01
 E= -906.608515889836     Delta-E=       -0.000000000489 Rises=F Damp=F
 DIIS: error= 2.60D-07 at cycle  12 NSaved=  12.
 NSaved=12 IEnMin=12 EnMin= -906.608515889836     IErMin=12 ErrMin= 2.60D-07
 ErrMax= 2.60D-07  0.00D+00 EMaxC= 1.00D-01 BMatC= 5.07D-11 BMatP= 6.17D-10
 IDIUse=1 WtCom= 1.00D+00 WtEn= 0.00D+00
 Coeff-Com:  0.345D-06 0.528D-05-0.406D-04-0.135D-03-0.363D-03-0.933D-03
 Coeff-Com: -0.293D-02 0.378D-02 0.946D-03 0.101D+00 0.326D+00 0.573D+00
 Coeff:      0.345D-06 0.528D-05-0.406D-04-0.135D-03-0.363D-03-0.933D-03
 Coeff:     -0.293D-02 0.378D-02 0.946D-03 0.101D+00 0.326D+00 0.573D+00
 Gap=     0.160 Goal=   None    Shift=    0.000
 RMSDP=3.41D-08 MaxDP=1.22D-06 DE=-4.89D-10 OVMax= 2.20D-06

 Cycle  13  Pass 1  IDiag  1:
 RMSU=  2.22D-08    CP:  9.86D-01  7.62D-01  6.90D-01  6.85D-01  6.34D-01
                    CP:  7.81D-01  7.30D-01  8.40D-01  7.69D-01  7.88D-01
                    CP:  8.20D-01  6.97D-01
 E= -906.608515889868     Delta-E=       -0.000000000032 Rises=F Damp=F
 DIIS: error= 1.39D-07 at cycle  13 NSaved=  13.
 NSaved=13 IEnMin=13 EnMin= -906.608515889868     IErMin=13 ErrMin= 1.39D-07
 ErrMax= 1.39D-07  0.00D+00 EMaxC= 1.00D-01 BMatC= 7.66D-12 BMatP= 5.07D-11
 IDIUse=1 WtCom= 1.00D+00 WtEn= 0.00D+00
 Coeff-Com: -0.498D-06 0.254D-05-0.257D-05-0.537D-05-0.368D-04-0.138D-03
 Coeff-Com: -0.102D-02-0.777D-03-0.569D-02 0.176D-01 0.774D-01 0.312D+00
 Coeff-Com:  0.601D+00
 Coeff:     -0.498D-06 0.254D-05-0.257D-05-0.537D-05-0.368D-04-0.138D-03
 Coeff:     -0.102D-02-0.777D-03-0.569D-02 0.176D-01 0.774D-01 0.312D+00
 Coeff:      0.601D+00
 Gap=     0.160 Goal=   None    Shift=    0.000
 RMSDP=1.24D-08 MaxDP=4.81D-07 DE=-3.18D-11 OVMax= 1.09D-06

 Cycle  14  Pass 1  IDiag  1:
 RMSU=  6.81D-09    CP:  9.86D-01  7.62D-01  6.90D-01  6.85D-01  6.34D-01
                    CP:  7.81D-01  7.30D-01  8.41D-01  7.69D-01  7.91D-01
                    CP:  8.28D-01  8.10D-01  7.11D-01
 E= -906.608515889868     Delta-E=        0.000000000000 Rises=F Damp=F
 DIIS: error= 6.10D-08 at cycle  14 NSaved=  14.
 NSaved=14 IEnMin=13 EnMin= -906.608515889868     IErMin=14 ErrMin= 6.10D-08
 ErrMax= 6.10D-08  0.00D+00 EMaxC= 1.00D-01 BMatC= 1.12D-12 BMatP= 7.66D-12
 IDIUse=1 WtCom= 1.00D+00 WtEn= 0.00D+00
 Coeff-Com: -0.388D-06 0.973D-06 0.233D-05 0.105D-04 0.132D-04 0.616D-05
 Coeff-Com: -0.388D-03-0.956D-03-0.404D-02 0.558D-03 0.152D-01 0.138D+00
 Coeff-Com:  0.364D+00 0.488D+00
 Coeff:     -0.388D-06 0.973D-06 0.233D-05 0.105D-04 0.132D-04 0.616D-05
 Coeff:     -0.388D-03-0.956D-03-0.404D-02 0.558D-03 0.152D-01 0.138D+00
 Coeff:      0.364D+00 0.488D+00
 Gap=     0.160 Goal=   None    Shift=    0.000
 RMSDP=3.87D-09 MaxDP=1.69D-07 DE= 0.00D+00 OVMax= 3.69D-07

 Error on total polarization charges =  0.01930
 SCF Done:  E(RB3LYP) =  -906.608515890     A.U. after   14 cycles
            NFock= 14  Conv=0.39D-08     -V/T= 2.0087
 KE= 8.987680895735D+02 PE=-4.658305264855D+03 EE= 1.592673668831D+03
 Leave Link  502 at Sun Jul 11 16:06:11 2021, MaxMem=   104857600 cpu:             209.6 elap:              52.4
 (Enter /prod/apps/gaussian/g16b1/l601.exe)
 Copying SCF densities to generalized density rwf, IOpCl= 0 IROHF=0.

 **********************************************************************

            Population analysis using the SCF Density.

 **********************************************************************

 Orbital symmetries:
       Occupied  (A) (A) (A) (A) (A) (A) (A) (A) (A) (A) (A) (A)
                 (A) (A) (A) (A) (A) (A) (A) (A) (A) (A) (A) (A)
                 (A) (A) (A) (A) (A) (A) (A) (A) (A) (A) (A) (A)
                 (A) (A) (A) (A) (A) (A) (A) (A) (A) (A) (A) (A)
                 (A) (A) (A) (A) (A) (A) (A) (A) (A) (A) (A) (A)
                 (A) (A) (A) (A)
       Virtual   (A) (A) (A) (A) (A) (A) (A) (A) (A) (A) (A) (A)
                 (A) (A) (A) (A) (A) (A) (A) (A) (A) (A) (A) (A)
                 (A) (A) (A) (A) (A) (A) (A) (A) (A) (A) (A) (A)
                 (A) (A) (A) (A) (A) (A) (A) (A) (A) (A) (A) (A)
                 (A) (A) (A) (A) (A) (A) (A) (A) (A) (A) (A) (A)
                 (A) (A) (A) (A) (A) (A) (A) (A) (A) (A) (A) (A)
                 (A) (A) (A) (A) (A) (A) (A) (A) (A) (A) (A) (A)
                 (A) (A) (A) (A) (A) (A) (A) (A) (A) (A) (A) (A)
                 (A) (A) (A) (A) (A) (A) (A) (A) (A) (A) (A) (A)
                 (A) (A) (A) (A) (A) (A) (A) (A) (A) (A) (A) (A)
                 (A) (A) (A) (A) (A) (A) (A) (A) (A) (A) (A) (A)
                 (A) (A) (A) (A) (A) (A) (A) (A) (A) (A) (A) (A)
                 (A) (A) (A) (A) (A) (A) (A) (A) (A) (A) (A) (A)
                 (A) (A) (A) (A) (A) (A) (A) (A) (A) (A) (A) (A)
                 (A) (A) (A) (A) (A) (A) (A) (A) (A) (A) (A) (A)
                 (A) (A) (A) (A) (A) (A) (A) (A) (A) (A) (A) (A)
                 (A) (A) (A) (A) (A) (A) (A) (A) (A) (A) (A) (A)
                 (A) (A) (A) (A) (A) (A) (A) (A) (A)
 The electronic state is 1-A.
 Alpha  occ. eigenvalues --  -19.15808 -19.15007 -19.14851 -19.14456 -19.05509
 Alpha  occ. eigenvalues --  -14.44098 -14.37385 -14.37377 -14.23127 -10.28700
 Alpha  occ. eigenvalues --  -10.24846 -10.24409 -10.24352 -10.23731 -10.22433
 Alpha  occ. eigenvalues --  -10.21712 -10.21626  -1.10434  -1.04780  -1.02533
 Alpha  occ. eigenvalues --   -1.00516  -1.00150  -0.97546  -0.90005  -0.85717
 Alpha  occ. eigenvalues --   -0.80732  -0.76448  -0.73764  -0.67851  -0.63923
 Alpha  occ. eigenvalues --   -0.62647  -0.59207  -0.57853  -0.54538  -0.52109
 Alpha  occ. eigenvalues --   -0.51337  -0.50972  -0.49141  -0.48008  -0.46223
 Alpha  occ. eigenvalues --   -0.46166  -0.45435  -0.44335  -0.43962  -0.41478
 Alpha  occ. eigenvalues --   -0.39949  -0.39480  -0.37462  -0.37431  -0.36594
 Alpha  occ. eigenvalues --   -0.35476  -0.33749  -0.32848  -0.31490  -0.30658
 Alpha  occ. eigenvalues --   -0.30130  -0.28392  -0.27723  -0.26887  -0.26552
 Alpha  occ. eigenvalues --   -0.24783  -0.21990  -0.21032  -0.18292
 Alpha virt. eigenvalues --   -0.02333   0.02356   0.05380   0.08539   0.09517
 Alpha virt. eigenvalues --    0.11706   0.12275   0.13002   0.13394   0.14676
 Alpha virt. eigenvalues --    0.15267   0.16188   0.16834   0.17335   0.17854
 Alpha virt. eigenvalues --    0.19217   0.19951   0.20406   0.21743   0.23133
 Alpha virt. eigenvalues --    0.24134   0.24615   0.26338   0.27634   0.29391
 Alpha virt. eigenvalues --    0.31970   0.33875   0.34858   0.38417   0.40710
 Alpha virt. eigenvalues --    0.43166   0.48045   0.51597   0.52664   0.53659
 Alpha virt. eigenvalues --    0.53969   0.54885   0.56499   0.57412   0.58072
 Alpha virt. eigenvalues --    0.59113   0.59876   0.61237   0.62023   0.64320
 Alpha virt. eigenvalues --    0.64551   0.66505   0.66854   0.67005   0.68691
 Alpha virt. eigenvalues --    0.69766   0.70246   0.72770   0.73681   0.74900
 Alpha virt. eigenvalues --    0.76259   0.76460   0.78112   0.79515   0.79779
 Alpha virt. eigenvalues --    0.80298   0.81419   0.81894   0.82368   0.83623
 Alpha virt. eigenvalues --    0.83980   0.85408   0.86155   0.87338   0.88276
 Alpha virt. eigenvalues --    0.90065   0.91257   0.91298   0.92547   0.94661
 Alpha virt. eigenvalues --    0.96178   0.96789   0.97723   0.99136   1.00718
 Alpha virt. eigenvalues --    1.01111   1.02914   1.03447   1.04485   1.04710
 Alpha virt. eigenvalues --    1.06606   1.07982   1.09021   1.11283   1.11912
 Alpha virt. eigenvalues --    1.12909   1.15270   1.17569   1.19958   1.21354
 Alpha virt. eigenvalues --    1.23226   1.25829   1.29392   1.30589   1.31867
 Alpha virt. eigenvalues --    1.33377   1.34918   1.37261   1.39971   1.42992
 Alpha virt. eigenvalues --    1.45773   1.46922   1.48737   1.49229   1.53366
 Alpha virt. eigenvalues --    1.53956   1.54847   1.55956   1.58747   1.60702
 Alpha virt. eigenvalues --    1.62907   1.63787   1.66330   1.69216   1.71247
 Alpha virt. eigenvalues --    1.73037   1.74721   1.75254   1.76779   1.77753
 Alpha virt. eigenvalues --    1.79505   1.80762   1.81156   1.82604   1.84670
 Alpha virt. eigenvalues --    1.85806   1.86750   1.86944   1.90115   1.90225
 Alpha virt. eigenvalues --    1.90944   1.92290   1.94868   1.95838   1.96802
 Alpha virt. eigenvalues --    2.00690   2.01558   2.03143   2.05482   2.06413
 Alpha virt. eigenvalues --    2.08037   2.09566   2.10921   2.14235   2.15898
 Alpha virt. eigenvalues --    2.16686   2.18654   2.19236   2.22685   2.24648
 Alpha virt. eigenvalues --    2.26316   2.27992   2.30583   2.31278   2.33149
 Alpha virt. eigenvalues --    2.33683   2.37359   2.37603   2.40174   2.41896
 Alpha virt. eigenvalues --    2.43447   2.46704   2.49160   2.50108   2.52581
 Alpha virt. eigenvalues --    2.53435   2.56397   2.57465   2.59697   2.62698
 Alpha virt. eigenvalues --    2.63746   2.65571   2.66329   2.70173   2.71806
 Alpha virt. eigenvalues --    2.73653   2.77484   2.80180   2.81698   2.82645
 Alpha virt. eigenvalues --    2.84609   2.86541   2.91492   2.95522   2.96711
 Alpha virt. eigenvalues --    3.01483   3.05261   3.08507   3.14663   3.23887
 Alpha virt. eigenvalues --    3.28335   3.64586   3.72835   3.74801   3.86897
 Alpha virt. eigenvalues --    3.94996   4.01757   4.05908   4.08404   4.15230
 Alpha virt. eigenvalues --    4.23361   4.26597   4.31063   4.45543   4.48046
 Alpha virt. eigenvalues --    4.57918   4.68817   4.81772
          Condensed to atoms (all electrons):
               1          2          3          4          5          6
     1  N    7.418666   0.264359   0.491921  -0.147588  -0.171669   0.012135
     2  H    0.264359   0.499444  -0.047605   0.008487  -0.009962   0.000592
     3  C    0.491921  -0.047605   4.392523   0.605940   0.229065  -0.029761
     4  O   -0.147588   0.008487   0.605940   8.324410  -0.104322   0.006931
     5  C   -0.171669  -0.009962   0.229065  -0.104322   5.163454   0.397127
     6  C    0.012135   0.000592  -0.029761   0.006931   0.397127   5.076009
     7  N   -0.000320   0.000036   0.006225   0.000172  -0.021167   0.406552
     8  H    0.000066  -0.000056  -0.000927   0.002589  -0.036142   0.370431
     9  N   -0.029610   0.015519  -0.039724   0.002017   0.381450  -0.082340
    10  N    0.001059   0.000389   0.004712  -0.000027  -0.103720  -0.123910
    11  C    0.000034  -0.000085  -0.000154   0.000001   0.004216   0.006616
    12  H    0.000000   0.000000   0.000000  -0.000000  -0.000161   0.000163
    13  O    0.000000  -0.000007   0.000000  -0.000000   0.000569  -0.000311
    14  C   -0.000006  -0.000080   0.000004  -0.000000   0.000016  -0.000018
    15  C   -0.000000   0.000001  -0.000000  -0.000000   0.000000  -0.000000
    16  O   -0.000000   0.000000  -0.000000   0.000000  -0.000000   0.000000
    17  H    0.000000   0.000001   0.000000   0.000000  -0.000001  -0.000000
    18  H   -0.000000   0.000000   0.000000   0.000000  -0.000000   0.000000
    19  H   -0.000000   0.000000  -0.000000   0.000000  -0.000000   0.000000
    20  H   -0.000035   0.000731  -0.000009   0.000000  -0.000039   0.000049
    21  C    0.000001  -0.000003  -0.000000   0.000000  -0.000109   0.000011
    22  O   -0.000000   0.000000   0.000000  -0.000000   0.000000   0.000000
    23  H    0.000000  -0.000000  -0.000000  -0.000000  -0.000000   0.000000
    24  H   -0.000000   0.000000   0.000000  -0.000000   0.000003   0.000000
    25  C   -0.000003  -0.000000   0.000008  -0.000000   0.000774  -0.000131
    26  H   -0.000005   0.000034   0.000002  -0.000000   0.001251   0.000030
    27  O   -0.000000   0.000000  -0.000000   0.000000  -0.000005  -0.000006
    28  H   -0.000000   0.000000  -0.000000  -0.000000   0.000000   0.000001
               7          8          9         10         11         12
     1  N   -0.000320   0.000066  -0.029610   0.001059   0.000034   0.000000
     2  H    0.000036  -0.000056   0.015519   0.000389  -0.000085   0.000000
     3  C    0.006225  -0.000927  -0.039724   0.004712  -0.000154   0.000000
     4  O    0.000172   0.002589   0.002017  -0.000027   0.000001  -0.000000
     5  C   -0.021167  -0.036142   0.381450  -0.103720   0.004216  -0.000161
     6  C    0.406552   0.370431  -0.082340  -0.123910   0.006616   0.000163
     7  N    6.836904  -0.043048  -0.090799   0.236588  -0.045556   0.006926
     8  H   -0.043048   0.521036   0.005044   0.006295  -0.000155  -0.000016
     9  N   -0.090799   0.005044   7.032022   0.239316  -0.050322   0.003730
    10  N    0.236588   0.006295   0.239316   6.759482   0.196062  -0.047677
    11  C   -0.045556  -0.000155  -0.050322   0.196062   4.890951   0.370182
    12  H    0.006926  -0.000016   0.003730  -0.047677   0.370182   0.522832
    13  O    0.001656   0.000001   0.003035  -0.059543   0.260539  -0.030411
    14  C   -0.000005   0.000000  -0.001201  -0.005947  -0.034725   0.005650
    15  C    0.000001  -0.000000   0.000120  -0.000076   0.002714  -0.000112
    16  O   -0.000000  -0.000000   0.000000  -0.000004   0.000036   0.000003
    17  H   -0.000000   0.000000  -0.000026   0.000006  -0.000009  -0.000000
    18  H   -0.000000   0.000000  -0.000001   0.000006   0.000103  -0.000018
    19  H   -0.000000  -0.000000  -0.000001   0.000003  -0.000093   0.000002
    20  H    0.000060  -0.000000   0.011059   0.002964  -0.003362  -0.000348
    21  C   -0.000133  -0.000000  -0.000510   0.000136  -0.049845   0.002863
    22  O    0.000000   0.000000   0.000000   0.000018   0.001262  -0.000020
    23  H   -0.000000  -0.000000   0.000000  -0.000007  -0.000193   0.000004
    24  H    0.000001   0.000000  -0.000189   0.000262   0.006082  -0.000201
    25  C    0.002538   0.000009  -0.003893  -0.043370   0.290591  -0.038061
    26  H    0.000545  -0.000004   0.006677  -0.002793  -0.060595   0.003945
    27  O   -0.000064  -0.000000   0.000078   0.001840  -0.030857   0.005296
    28  H   -0.000001   0.000000  -0.000001  -0.000234   0.005170  -0.000290
              13         14         15         16         17         18
     1  N    0.000000  -0.000006  -0.000000  -0.000000   0.000000  -0.000000
     2  H   -0.000007  -0.000080   0.000001   0.000000   0.000001   0.000000
     3  C    0.000000   0.000004  -0.000000  -0.000000   0.000000   0.000000
     4  O   -0.000000  -0.000000  -0.000000   0.000000   0.000000   0.000000
     5  C    0.000569   0.000016   0.000000  -0.000000  -0.000001  -0.000000
     6  C   -0.000311  -0.000018  -0.000000   0.000000  -0.000000   0.000000
     7  N    0.001656  -0.000005   0.000001  -0.000000  -0.000000  -0.000000
     8  H    0.000001   0.000000  -0.000000  -0.000000   0.000000   0.000000
     9  N    0.003035  -0.001201   0.000120   0.000000  -0.000026  -0.000001
    10  N   -0.059543  -0.005947  -0.000076  -0.000004   0.000006   0.000006
    11  C    0.260539  -0.034725   0.002714   0.000036  -0.000009   0.000103
    12  H   -0.030411   0.005650  -0.000112   0.000003  -0.000000  -0.000018
    13  O    8.335217   0.193587  -0.029340   0.001474  -0.000201  -0.000203
    14  C    0.193587   5.008533   0.338830  -0.027418  -0.002652  -0.016946
    15  C   -0.029340   0.338830   4.844303   0.246330  -0.032739   0.373076
    16  O    0.001474  -0.027418   0.246330   8.280531   0.243201  -0.036642
    17  H   -0.000201  -0.002652  -0.032739   0.243201   0.346624   0.005668
    18  H   -0.000203  -0.016946   0.373076  -0.036642   0.005668   0.539812
    19  H    0.002812  -0.055286   0.349654  -0.032593  -0.002346  -0.040910
    20  H   -0.044505   0.357804  -0.033712  -0.002879   0.006055   0.002950
    21  C   -0.045977   0.280636  -0.022310   0.002665  -0.000006  -0.004049
    22  O    0.000734  -0.035719   0.002203   0.000030   0.000007   0.003278
    23  H   -0.000131   0.006326  -0.000113   0.000000  -0.000000  -0.000087
    24  H    0.004297  -0.041429  -0.000180  -0.000024  -0.000010   0.000128
    25  C   -0.060920  -0.051364   0.003156  -0.000039  -0.000008  -0.000072
    26  H    0.002825   0.005616  -0.000088   0.000000  -0.000001  -0.000001
    27  O    0.001711   0.001507  -0.000032   0.000000  -0.000000   0.000000
    28  H   -0.000139   0.000035  -0.000006  -0.000000   0.000000  -0.000000
              19         20         21         22         23         24
     1  N   -0.000000  -0.000035   0.000001  -0.000000   0.000000  -0.000000
     2  H    0.000000   0.000731  -0.000003   0.000000  -0.000000   0.000000
     3  C   -0.000000  -0.000009  -0.000000   0.000000  -0.000000   0.000000
     4  O    0.000000   0.000000   0.000000  -0.000000  -0.000000  -0.000000
     5  C   -0.000000  -0.000039  -0.000109   0.000000  -0.000000   0.000003
     6  C    0.000000   0.000049   0.000011   0.000000   0.000000   0.000000
     7  N   -0.000000   0.000060  -0.000133   0.000000  -0.000000   0.000001
     8  H   -0.000000  -0.000000  -0.000000   0.000000  -0.000000   0.000000
     9  N   -0.000001   0.011059  -0.000510   0.000000   0.000000  -0.000189
    10  N    0.000003   0.002964   0.000136   0.000018  -0.000007   0.000262
    11  C   -0.000093  -0.003362  -0.049845   0.001262  -0.000193   0.006082
    12  H    0.000002  -0.000348   0.002863  -0.000020   0.000004  -0.000201
    13  O    0.002812  -0.044505  -0.045977   0.000734  -0.000131   0.004297
    14  C   -0.055286   0.357804   0.280636  -0.035719   0.006326  -0.041429
    15  C    0.349654  -0.033712  -0.022310   0.002203  -0.000113  -0.000180
    16  O   -0.032593  -0.002879   0.002665   0.000030   0.000000  -0.000024
    17  H   -0.002346   0.006055  -0.000006   0.000007  -0.000000  -0.000010
    18  H   -0.040910   0.002950  -0.004049   0.003278  -0.000087   0.000128
    19  H    0.618454  -0.000226   0.004294   0.001540  -0.000082   0.001204
    20  H   -0.000226   0.578018  -0.050328   0.002156  -0.000266   0.000747
    21  C    0.004294  -0.050328   5.090820   0.233813  -0.025067   0.352895
    22  O    0.001540   0.002156   0.233813   8.302791   0.236768  -0.036950
    23  H   -0.000082  -0.000266  -0.025067   0.236768   0.340318  -0.008364
    24  H    0.001204   0.000747   0.352895  -0.036950  -0.008364   0.618253
    25  C    0.000109  -0.000269   0.278925  -0.050680  -0.002392  -0.046898
    26  H   -0.000007   0.000455  -0.046938   0.002431   0.000159  -0.003133
    27  O    0.000002   0.000012  -0.051738  -0.010221   0.008513   0.002062
    28  H   -0.000000  -0.000005  -0.001943   0.005130   0.003071   0.000487
              25         26         27         28
     1  N   -0.000003  -0.000005  -0.000000  -0.000000
     2  H   -0.000000   0.000034   0.000000   0.000000
     3  C    0.000008   0.000002  -0.000000  -0.000000
     4  O   -0.000000  -0.000000   0.000000  -0.000000
     5  C    0.000774   0.001251  -0.000005   0.000000
     6  C   -0.000131   0.000030  -0.000006   0.000001
     7  N    0.002538   0.000545  -0.000064  -0.000001
     8  H    0.000009  -0.000004  -0.000000   0.000000
     9  N   -0.003893   0.006677   0.000078  -0.000001
    10  N   -0.043370  -0.002793   0.001840  -0.000234
    11  C    0.290591  -0.060595  -0.030857   0.005170
    12  H   -0.038061   0.003945   0.005296  -0.000290
    13  O   -0.060920   0.002825   0.001711  -0.000139
    14  C   -0.051364   0.005616   0.001507   0.000035
    15  C    0.003156  -0.000088  -0.000032  -0.000006
    16  O   -0.000039   0.000000   0.000000  -0.000000
    17  H   -0.000008  -0.000001  -0.000000   0.000000
    18  H   -0.000072  -0.000001   0.000000  -0.000000
    19  H    0.000109  -0.000007   0.000002  -0.000000
    20  H   -0.000269   0.000455   0.000012  -0.000005
    21  C    0.278925  -0.046938  -0.051738  -0.001943
    22  O   -0.050680   0.002431  -0.010221   0.005130
    23  H   -0.002392   0.000159   0.008513   0.003071
    24  H   -0.046898  -0.003133   0.002062   0.000487
    25  C    5.013894   0.372851   0.239298  -0.021413
    26  H    0.372851   0.594461  -0.033286  -0.003883
    27  O    0.239298  -0.033286   8.292493   0.239922
    28  H   -0.021413  -0.003883   0.239922   0.327248
 Mulliken charges:
               1
     1  N   -0.839007
     2  H    0.268205
     3  C    0.387780
     4  O   -0.698609
     5  C    0.269372
     6  C   -0.040171
     7  N   -0.297111
     8  H    0.174878
     9  N   -0.401449
    10  N   -0.061832
    11  C    0.241393
    12  H    0.195719
    13  O   -0.536770
    14  C    0.074251
    15  C   -0.041681
    16  O   -0.674671
    17  H    0.436440
    18  H    0.173909
    19  H    0.153472
    20  H    0.172923
    21  C    0.051897
    22  O   -0.658571
    23  H    0.441542
    24  H    0.150954
    25  C    0.117362
    26  H    0.159452
    27  O   -0.666526
    28  H    0.446849
 Sum of Mulliken charges =  -1.00000
 Mulliken charges with hydrogens summed into heavy atoms:
               1
     1  N   -0.570802
     3  C    0.387780
     4  O   -0.698609
     5  C    0.269372
     6  C    0.134707
     7  N   -0.297111
     9  N   -0.401449
    10  N   -0.061832
    11  C    0.437112
    13  O   -0.536770
    14  C    0.247174
    15  C    0.285700
    16  O   -0.238231
    21  C    0.202851
    22  O   -0.217030
    25  C    0.276813
    27  O   -0.219677
 Electronic spatial extent (au):  <R**2>=           4755.9757
 Charge=             -1.0000 electrons
 Dipole moment (field-independent basis, Debye):
    X=            -18.7613    Y=             -7.3454    Z=             -2.3771  Tot=             20.2877
 Quadrupole moment (field-independent basis, Debye-Ang):
   XX=           -195.5605   YY=           -112.1566   ZZ=           -102.3971
   XY=            -15.8366   XZ=             35.5778   YZ=             12.2572
 Traceless Quadrupole moment (field-independent basis, Debye-Ang):
   XX=            -58.8558   YY=             24.5482   ZZ=             34.3076
   XY=            -15.8366   XZ=             35.5778   YZ=             12.2572
 Octapole moment (field-independent basis, Debye-Ang**2):
  XXX=           -418.1325  YYY=            -36.1692  ZZZ=            -14.4287  XYY=            -39.1521
  XXY=           -138.2663  XXZ=             52.2069  XZZ=            -56.3942  YZZ=            -36.9226
  YYZ=            -24.3286  XYZ=             28.7166
 Hexadecapole moment (field-independent basis, Debye-Ang**3):
 XXXX=          -6261.1984 YYYY=          -1383.9087 ZZZZ=           -545.5360 XXXY=           -372.1726
 XXXZ=            482.6548 YYYX=             50.6798 YYYZ=             73.8918 ZZZX=            106.2098
 ZZZY=             76.5070 XXYY=          -1113.3953 XXZZ=           -821.3875 YYZZ=           -311.9563
 XXYZ=            138.6971 YYXZ=            162.4371 ZZXY=             21.4501
 N-N= 1.260254990561D+03 E-N=-4.658305264628D+03  KE= 8.987680895735D+02
 No NMR shielding tensors so no spin-rotation constants.
 Leave Link  601 at Sun Jul 11 16:06:12 2021, MaxMem=   104857600 cpu:               0.4 elap:               0.1
 (Enter /prod/apps/gaussian/g16b1/l701.exe)
 ... and contract with generalized density number  0.
 Compute integral first derivatives.
 D1PCM: PCM CHGder 1st derivatives, ID1Alg=3 FixD1E=F DoIter=F DoCFld=F I1PDM=0.
 GePol: Maximum number of non-zero 1st derivatives   =     239
 Leave Link  701 at Sun Jul 11 16:06:13 2021, MaxMem=   104857600 cpu:               6.6 elap:               1.7
 (Enter /prod/apps/gaussian/g16b1/l702.exe)
 L702 exits ... SP integral derivatives will be done elsewhere.
 Leave Link  702 at Sun Jul 11 16:06:13 2021, MaxMem=   104857600 cpu:               0.1 elap:               0.0
 (Enter /prod/apps/gaussian/g16b1/l703.exe)
 Integral derivatives from FoFJK, PRISM(SPDF).
 Compute integral first derivatives, UseDBF=F ICtDFT=           0.
 Calling FoFJK, ICntrl=      2127 FMM=F ISym2X=0 I1Cent= 0 IOpClX= 0 NMat=1 NMatS=1 NMatT=0.
 FoFJK:  IHMeth= 1 ICntrl=    2127 DoSepK=F KAlg= 0 I1Cent=           0 FoldK=F
 IRaf=         0 NMat=       1 IRICut=       1 DoRegI=T DoRafI=F ISym2E= 0 IDoP0=0 IntGTp=1.
 FoFCou: FMM=F IPFlag=           0 FMFlag=      100000 FMFlg1=         800
         NFxFlg=           0 DoJE=F BraDBF=F KetDBF=F FulRan=T
         wScrn=  0.000000 ICntrl=      2127 IOpCl=  0 I1Cent=           0 NGrid=           0
         NMat0=    1 NMatS0=      1 NMatT0=    0 NMatD0=    1 NMtDS0=    0 NMtDT0=    0
 Symmetry not used in FoFCou.
 Leave Link  703 at Sun Jul 11 16:06:25 2021, MaxMem=   104857600 cpu:              45.0 elap:              11.3
 (Enter /prod/apps/gaussian/g16b1/l716.exe)
 Dipole        =-7.38124577D+00-2.88991518D+00-9.35225997D-01
 ***** Axes restored to original set *****
 -------------------------------------------------------------------
 Center     Atomic                   Forces (Hartrees/Bohr)
 Number     Number              X              Y              Z
 -------------------------------------------------------------------
      1        7          -0.022970598   -0.028526086    0.032050603
      2        1          -0.004984164    0.009407364    0.002169106
      3        6          -0.046655257   -0.031846877    0.036994274
      4        8           0.053558265    0.013592280   -0.031312174
      5        6           0.043849931    0.038204903   -0.082777048
      6        6           0.007738010   -0.013280843    0.030722608
      7        7          -0.022679385   -0.001481335    0.003641905
      8        1          -0.002009792   -0.000841480    0.000879940
      9        7          -0.021704269    0.015270138    0.018316033
     10        7           0.027095880   -0.001896795   -0.021380339
     11        6          -0.038846021    0.016698393    0.016682619
     12        1           0.005914327   -0.012289535    0.001774530
     13        8           0.003855195   -0.006094864   -0.007745417
     14        6          -0.010607244    0.041247312   -0.025574324
     15        6           0.036687891   -0.030544611   -0.001826640
     16        8           0.011786945    0.025020844    0.014795703
     17        1          -0.005759115   -0.006082489   -0.002269789
     18        1           0.011359370    0.001704900    0.000634407
     19        1          -0.011189145   -0.002308777    0.001057954
     20        1          -0.010242287   -0.005189512    0.002844451
     21        6          -0.012715380   -0.006833453    0.012135665
     22        8           0.014060339   -0.025268606    0.003409915
     23        1          -0.012357340    0.013455215   -0.002092765
     24        1           0.003765072    0.000740687    0.002232424
     25        6          -0.012044648   -0.006189779    0.005606280
     26        1           0.000943188    0.000002472    0.001302663
     27        8           0.012889758    0.006546806   -0.011574474
     28        1           0.001260473   -0.003216272   -0.000698109
 -------------------------------------------------------------------
 Cartesian Forces:  Max     0.082777048 RMS     0.020695989
 Leave Link  716 at Sun Jul 11 16:06:25 2021, MaxMem=   104857600 cpu:               0.1 elap:               0.0
 (Enter /prod/apps/gaussian/g16b1/l103.exe)

 GradGradGradGradGradGradGradGradGradGradGradGradGradGradGradGradGradGrad
 Berny optimization.
 FormGI is forming the generalized inverse of G from B-inverse, IUseBI=4.
 Internal  Forces:  Max     0.070491242 RMS     0.012410945
 Search for a local minimum.
 Step number   1 out of a maximum of  163
 All quantities printed in internal units (Hartrees-Bohrs-Radians)
 RMS Force = .12411D-01 SwitMx=.10000D-02 MixMth= 1
 Mixed Optimization -- RFO/linear search
 Second derivative matrix not updated -- first step.
 ITU=  0
     Eigenvalues ---    0.00230   0.00296   0.00746   0.00768   0.00973
     Eigenvalues ---    0.01305   0.01440   0.01520   0.01635   0.01681
     Eigenvalues ---    0.01753   0.01873   0.01885   0.02278   0.02975
     Eigenvalues ---    0.03151   0.03556   0.03814   0.04561   0.04931
     Eigenvalues ---    0.05119   0.05178   0.05802   0.05984   0.06102
     Eigenvalues ---    0.06187   0.06321   0.07875   0.08349   0.10559
     Eigenvalues ---    0.11040   0.12862   0.13703   0.14935   0.15914
     Eigenvalues ---    0.16000   0.16000   0.16000   0.16000   0.16363
     Eigenvalues ---    0.19323   0.19992   0.21970   0.22617   0.23584
     Eigenvalues ---    0.24679   0.24702   0.24875   0.24969   0.25000
     Eigenvalues ---    0.25182   0.25593   0.27603   0.33637   0.33660
     Eigenvalues ---    0.34127   0.34449   0.34452   0.34469   0.34518
     Eigenvalues ---    0.34530   0.35563   0.35632   0.37028   0.37678
     Eigenvalues ---    0.38374   0.41103   0.45482   0.46136   0.47819
     Eigenvalues ---    0.52446   0.52632   0.52752   0.54629   0.60595
     Eigenvalues ---    0.63993   0.66375   0.87461
 RFO step:  Lambda=-7.19222065D-02 EMin= 2.30000000D-03
 Linear search not attempted -- first point.
 Maximum step size (   0.300) exceeded in Quadratic search.
    -- Step size scaled by   0.672
 Iteration  1 RMS(Cart)=  0.06086219 RMS(Int)=  0.00280864
 Iteration  2 RMS(Cart)=  0.00335691 RMS(Int)=  0.00047987
 Iteration  3 RMS(Cart)=  0.00001154 RMS(Int)=  0.00047980
 Iteration  4 RMS(Cart)=  0.00000001 RMS(Int)=  0.00047980
 ITry= 1 IFail=0 DXMaxC= 3.31D-01 DCOld= 1.00D+10 DXMaxT= 3.00D-01 DXLimC= 3.00D+00 Rises=F
 Variable       Old X    -DE/DX   Delta X   Delta X   Delta X     New X
                                 (Linear)    (Quad)   (Total)
[...]
 Alpha virt. eigenvalues --    0.80483   0.80978   0.81978   0.82325   0.82744
 Alpha virt. eigenvalues --    0.83399   0.83625   0.84536   0.84622   0.84963
 Alpha virt. eigenvalues --    0.86033   0.86678   0.87600   0.88455   0.88931
 Alpha virt. eigenvalues --    0.89822   0.89893   0.90231   0.91000   0.91674
 Alpha virt. eigenvalues --    0.92573   0.92631   0.93478   0.93849   0.94804
 Alpha virt. eigenvalues --    0.94961   0.95134   0.96527   0.96928   0.97668
 Alpha virt. eigenvalues --    0.98785   0.99506   0.99749   1.00374   1.00613
 Alpha virt. eigenvalues --    1.01335   1.02271   1.02809   1.03641   1.04370
 Alpha virt. eigenvalues --    1.04939   1.05390   1.05967   1.06580   1.07313
 Alpha virt. eigenvalues --    1.08415   1.09133   1.10301   1.10858   1.11462
 Alpha virt. eigenvalues --    1.11945   1.12917   1.13720   1.14097   1.15540
 Alpha virt. eigenvalues --    1.15894   1.16516   1.17387   1.18918   1.20138
 Alpha virt. eigenvalues --    1.21250   1.21666   1.22034   1.23805   1.24144
 Alpha virt. eigenvalues --    1.25441   1.25945   1.26142   1.26698   1.27293
 Alpha virt. eigenvalues --    1.28676   1.30020   1.30439   1.31100   1.32012
 Alpha virt. eigenvalues --    1.33440   1.34379   1.34610   1.35718   1.36668
 Alpha virt. eigenvalues --    1.38062   1.38514   1.39785   1.40491   1.41009
 Alpha virt. eigenvalues --    1.42183   1.43087   1.44144   1.45351   1.46197
 Alpha virt. eigenvalues --    1.47159   1.47786   1.48673   1.50168   1.50567
 Alpha virt. eigenvalues --    1.51439   1.52089   1.53084   1.53985   1.56275
 Alpha virt. eigenvalues --    1.57663   1.58538   1.59027   1.59915   1.61331
 Alpha virt. eigenvalues --    1.63409   1.64462   1.66321   1.67355   1.68103
 Alpha virt. eigenvalues --    1.68501   1.69075   1.70067   1.70671   1.72244
 Alpha virt. eigenvalues --    1.73510   1.73858   1.75370   1.76222   1.78005
 Alpha virt. eigenvalues --    1.79295   1.79662   1.80586   1.82635   1.83983
 Alpha virt. eigenvalues --    1.84406   1.86129   1.86675   1.87044   1.87504
 Alpha virt. eigenvalues --    1.88540   1.88787   1.89921   1.90891   1.91474
 Alpha virt. eigenvalues --    1.93162   1.93894   1.95679   1.97455   1.98127
 Alpha virt. eigenvalues --    1.98926   1.99083   1.99811   2.00380   2.02506
 Alpha virt. eigenvalues --    2.03487   2.03869   2.06833   2.08051   2.09480
 Alpha virt. eigenvalues --    2.10536   2.12198   2.13930   2.14417   2.15227
 Alpha virt. eigenvalues --    2.16092   2.17755   2.18657   2.19338   2.19455
 Alpha virt. eigenvalues --    2.20922   2.21271   2.23071   2.23968   2.24698
 Alpha virt. eigenvalues --    2.26225   2.26499   2.27578   2.28605   2.29139
 Alpha virt. eigenvalues --    2.30955   2.31110   2.33590   2.34446   2.35081
 Alpha virt. eigenvalues --    2.36437   2.37131   2.38903   2.39552   2.41025
 Alpha virt. eigenvalues --    2.41630   2.43151   2.44573   2.45478   2.46549
 Alpha virt. eigenvalues --    2.47785   2.48595   2.49583   2.49822   2.51164
 Alpha virt. eigenvalues --    2.52994   2.55740   2.56593   2.56701   2.57861
 Alpha virt. eigenvalues --    2.59574   2.60808   2.62640   2.63176   2.64030
 Alpha virt. eigenvalues --    2.64960   2.66604   2.68140   2.69497   2.70098
 Alpha virt. eigenvalues --    2.71890   2.74805   2.75195   2.76152   2.76571
 Alpha virt. eigenvalues --    2.78912   2.79555   2.80210   2.80760   2.82393
 Alpha virt. eigenvalues --    2.86534   2.87478   2.88425   2.90103   2.91361
 Alpha virt. eigenvalues --    2.93286   2.96230   2.97002   2.98494   2.99544
 Alpha virt. eigenvalues --    3.00642   3.02089   3.03933   3.04698   3.05680
 Alpha virt. eigenvalues --    3.07153   3.07877   3.10136   3.10981   3.13375
 Alpha virt. eigenvalues --    3.13999   3.16330   3.18679   3.21287   3.22642
 Alpha virt. eigenvalues --    3.24216   3.25300   3.28328   3.30589   3.33473
 Alpha virt. eigenvalues --    3.35000   3.36624   3.38622   3.40166   3.45585
 Alpha virt. eigenvalues --    3.49467   3.52264   3.56328   3.63849   3.68841
 Alpha virt. eigenvalues --    3.72861   3.74182   3.75447   3.77873   3.81233
 Alpha virt. eigenvalues --    3.85442   3.87432   3.87621   3.89637   3.91680
 Alpha virt. eigenvalues --    3.93994   3.96496   3.97757   3.98305   3.99638
 Alpha virt. eigenvalues --    4.00504   4.02390   4.03110   4.05435   4.06796
 Alpha virt. eigenvalues --    4.09571   4.10493   4.12452   4.13679   4.17208
 Alpha virt. eigenvalues --    4.23387   4.23797   4.28948   4.31977   4.40385
 Alpha virt. eigenvalues --    4.41570   4.44537   4.47878   4.60022   4.74778
 Alpha virt. eigenvalues --    5.14317
          Condensed to atoms (all electrons):
               1          2          3          4          5          6
     1  N    7.593060   0.233619  -0.189638  -0.158044   0.459464  -0.043786
     2  H    0.233619   0.814691   0.084890   0.013645  -0.232149  -0.036869
     3  C   -0.189638   0.084890   6.059052   0.120228  -1.343338   0.069023
     4  O   -0.158044   0.013645   0.120228   9.029259   0.048603   0.028051
     5  C    0.459464  -0.232149  -1.343338   0.048603   7.352092  -0.566803
     6  C   -0.043786  -0.036869   0.069023   0.028051  -0.566803   6.061224
     7  N    0.005271   0.015308  -0.048106   0.005143   0.171080   0.461120
     8  H   -0.003103   0.000328   0.077687  -0.018774  -0.046163   0.136743
     9  N   -0.129825  -0.012528  -0.008559  -0.003414   0.074507   0.422518
    10  N   -0.071203   0.145134   0.309075  -0.043455  -0.592403  -0.913904
    11  C   -0.016815   0.021711   0.011097  -0.003557  -0.135688  -0.235084
    12  H   -0.001004  -0.001310  -0.003037  -0.000332  -0.051357   0.041055
    13  O    0.000145   0.000083   0.005088  -0.000351   0.039454  -0.005116
    14  C   -0.000141  -0.005052   0.000950   0.000061  -0.007650   0.032103
    15  C   -0.000048   0.000552  -0.000600   0.000037  -0.000513   0.006029
    16  O   -0.000030   0.000023   0.000390  -0.000000   0.000637   0.000512
    17  H    0.000018   0.000061  -0.000156  -0.000005  -0.000062   0.000322
    18  H    0.000000  -0.000196  -0.000224   0.000014  -0.001893   0.000694
    19  H    0.000009   0.000160   0.000198  -0.000006   0.001289  -0.000732
    20  H   -0.001272  -0.003093   0.004851   0.000142  -0.009717   0.003427
    21  C    0.003606   0.013059  -0.010223   0.000289   0.055335   0.006116
    22  O    0.000002  -0.000144  -0.000003   0.000001  -0.002611   0.000899
    23  H    0.000009   0.000110   0.000125  -0.000007   0.000925  -0.000939
    24  H    0.000338  -0.000098  -0.001419   0.000050  -0.003555   0.000981
    25  C   -0.003699  -0.015578   0.003963  -0.001082  -0.069770  -0.004519
    26  H   -0.000817  -0.007435   0.004439   0.000017   0.004183  -0.024833
    27  O   -0.000082   0.000397   0.001358   0.000005   0.010872   0.005175
    28  H   -0.000058  -0.000208  -0.000244   0.000021  -0.003766   0.000738
               7          8          9         10         11         12
     1  N    0.005271  -0.003103  -0.129825  -0.071203  -0.016815  -0.001004
     2  H    0.015308   0.000328  -0.012528   0.145134   0.021711  -0.001310
     3  C   -0.048106   0.077687  -0.008559   0.309075   0.011097  -0.003037
     4  O    0.005143  -0.018774  -0.003414  -0.043455  -0.003557  -0.000332
     5  C    0.171080  -0.046163   0.074507  -0.592403  -0.135688  -0.051357
     6  C    0.461120   0.136743   0.422518  -0.913904  -0.235084   0.041055
     7  N   10.010519  -0.294685  -1.366033  -1.331421  -0.264120   0.254766
     8  H   -0.294685   1.271965  -0.065773   0.278811  -0.022207  -0.003374
     9  N   -1.366033  -0.065773  10.583600  -1.264539  -0.646273  -0.066595
    10  N   -1.331421   0.278811  -1.264539  11.459385  -0.086075  -0.328557
    11  C   -0.264120  -0.022207  -0.646273  -0.086075   8.847800  -0.351729
    12  H    0.254766  -0.003374  -0.066595  -0.328557  -0.351729   1.685117
    13  O   -0.166005   0.001723   0.170983   0.044050  -0.272473  -0.145881
    14  C    0.201572  -0.000844  -0.047017  -0.226413  -1.738636   0.181747
    15  C    0.000300   0.000220  -0.011569   0.046291   0.124445   0.006198
    16  O   -0.004415   0.000065   0.001167  -0.002930   0.010487  -0.001471
    17  H    0.001289   0.000007  -0.000745   0.000153  -0.008485  -0.000361
    18  H    0.000662   0.000004   0.000293  -0.000135  -0.068218   0.004636
    19  H   -0.001849  -0.000016   0.003388  -0.005239   0.035473   0.002897
    20  H   -0.008706  -0.000072   0.002789  -0.008021  -0.067204   0.011537
    21  C   -0.088270  -0.000715   0.020297   0.612549   0.290006  -0.162704
    22  O    0.008847  -0.000011  -0.014498  -0.007586   0.035867   0.032819
    23  H   -0.002198   0.000041   0.001150   0.000273  -0.011639   0.000957
    24  H   -0.001024  -0.000113  -0.000611  -0.029059   0.051004   0.003145
    25  C   -0.013799   0.004307   0.221820  -0.472324  -1.484608   0.174210
    26  H   -0.040793  -0.000461   0.084441  -0.098949  -0.212872   0.072955
    27  O    0.011320   0.000187  -0.012164   0.024242   0.194015  -0.023744
    28  H    0.003129  -0.000041  -0.004524  -0.017302   0.002976  -0.008459
              13         14         15         16         17         18
     1  N    0.000145  -0.000141  -0.000048  -0.000030   0.000018   0.000000
     2  H    0.000083  -0.005052   0.000552   0.000023   0.000061  -0.000196
     3  C    0.005088   0.000950  -0.000600   0.000390  -0.000156  -0.000224
     4  O   -0.000351   0.000061   0.000037  -0.000000  -0.000005   0.000014
     5  C    0.039454  -0.007650  -0.000513   0.000637  -0.000062  -0.001893
     6  C   -0.005116   0.032103   0.006029   0.000512   0.000322   0.000694
     7  N   -0.166005   0.201572   0.000300  -0.004415   0.001289   0.000662
     8  H    0.001723  -0.000844   0.000220   0.000065   0.000007   0.000004
     9  N    0.170983  -0.047017  -0.011569   0.001167  -0.000745   0.000293
    10  N    0.044050  -0.226413   0.046291  -0.002930   0.000153  -0.000135
    11  C   -0.272473  -1.738636   0.124445   0.010487  -0.008485  -0.068218
    12  H   -0.145881   0.181747   0.006198  -0.001471  -0.000361   0.004636
    13  O    9.683927  -0.272201  -0.056418  -0.004337  -0.010508  -0.033345
    14  C   -0.272201   8.562553  -0.088387   0.185225  -0.015706  -0.022409
    15  C   -0.056418  -0.088387   4.701532  -0.147353   0.013995   0.247403
    16  O   -0.004337   0.185225  -0.147353   8.621427   0.316602  -0.161614
    17  H   -0.010508  -0.015706   0.013995   0.316602   0.574668   0.009421
    18  H   -0.033345  -0.022409   0.247403  -0.161614   0.009421   1.216980
    19  H    0.089786  -0.001777   0.149023  -0.051152  -0.048797  -0.227223
    20  H   -0.067357  -0.342979  -0.127243  -0.014906   0.012762   0.119651
    21  C    0.118563  -2.559087   0.215787  -0.055231   0.005119  -0.008838
    22  O   -0.024736   0.070435  -0.014739   0.008158  -0.001116  -0.006258
    23  H    0.000142  -0.022377   0.019036  -0.000381   0.000232   0.000207
    24  H    0.015435   0.352455  -0.042402   0.004489   0.000521  -0.007330
    25  C   -0.015061   1.744513  -0.378479   0.020124  -0.002675   0.011517
    26  H    0.028478   0.023338   0.015726   0.000027  -0.000724  -0.001783
    27  O    0.020012  -0.055085   0.011171  -0.000067  -0.000203   0.000578
    28  H   -0.000399   0.012592  -0.003671   0.000096  -0.000009   0.000664
              19         20         21         22         23         24
     1  N    0.000009  -0.001272   0.003606   0.000002   0.000009   0.000338
     2  H    0.000160  -0.003093   0.013059  -0.000144   0.000110  -0.000098
     3  C    0.000198   0.004851  -0.010223  -0.000003   0.000125  -0.001419
     4  O   -0.000006   0.000142   0.000289   0.000001  -0.000007   0.000050
     5  C    0.001289  -0.009717   0.055335  -0.002611   0.000925  -0.003555
     6  C   -0.000732   0.003427   0.006116   0.000899  -0.000939   0.000981
     7  N   -0.001849  -0.008706  -0.088270   0.008847  -0.002198  -0.001024
     8  H   -0.000016  -0.000072  -0.000715  -0.000011   0.000041  -0.000113
     9  N    0.003388   0.002789   0.020297  -0.014498   0.001150  -0.000611
    10  N   -0.005239  -0.008021   0.612549  -0.007586   0.000273  -0.029059
    11  C    0.035473  -0.067204   0.290006   0.035867  -0.011639   0.051004
    12  H    0.002897   0.011537  -0.162704   0.032819   0.000957   0.003145
    13  O    0.089786  -0.067357   0.118563  -0.024736   0.000142   0.015435
    14  C   -0.001777  -0.342979  -2.559087   0.070435  -0.022377   0.352455
    15  C    0.149023  -0.127243   0.215787  -0.014739   0.019036  -0.042402
    16  O   -0.051152  -0.014906  -0.055231   0.008158  -0.000381   0.004489
    17  H   -0.048797   0.012762   0.005119  -0.001116   0.000232   0.000521
    18  H   -0.227223   0.119651  -0.008838  -0.006258   0.000207  -0.007330
    19  H    1.226825  -0.083046  -0.040527   0.008701  -0.002478   0.003938
    20  H   -0.083046   1.806208   0.201592   0.043178   0.001911  -0.100016
    21  C   -0.040527   0.201592   9.952047  -0.407073   0.046072  -0.725151
    22  O    0.008701   0.043178  -0.407073   8.862800   0.305154  -0.101101
    23  H   -0.002478   0.001911   0.046072   0.305154   0.575272  -0.016885
    24  H    0.003938  -0.100016  -0.725151  -0.101101  -0.016885   1.461541
    25  C    0.000350  -0.074256  -2.957401   0.157108  -0.140968   0.377087
    26  H    0.006818   0.001855   0.167558  -0.003356   0.029769  -0.070178
    27  O    0.000151   0.009196   0.298803  -0.033195   0.036098  -0.033752
    28  H   -0.000879   0.001351  -0.136250   0.011411  -0.012638   0.015083
              25         26         27         28
     1  N   -0.003699  -0.000817  -0.000082  -0.000058
     2  H   -0.015578  -0.007435   0.000397  -0.000208
     3  C    0.003963   0.004439   0.001358  -0.000244
     4  O   -0.001082   0.000017   0.000005   0.000021
     5  C   -0.069770   0.004183   0.010872  -0.003766
     6  C   -0.004519  -0.024833   0.005175   0.000738
     7  N   -0.013799  -0.040793   0.011320   0.003129
     8  H    0.004307  -0.000461   0.000187  -0.000041
     9  N    0.221820   0.084441  -0.012164  -0.004524
    10  N   -0.472324  -0.098949   0.024242  -0.017302
    11  C   -1.484608  -0.212872   0.194015   0.002976
    12  H    0.174210   0.072955  -0.023744  -0.008459
    13  O   -0.015061   0.028478   0.020012  -0.000399
    14  C    1.744513   0.023338  -0.055085   0.012592
    15  C   -0.378479   0.015726   0.011171  -0.003671
    16  O    0.020124   0.000027  -0.000067   0.000096
    17  H   -0.002675  -0.000724  -0.000203  -0.000009
    18  H    0.011517  -0.001783   0.000578   0.000664
    19  H    0.000350   0.006818   0.000151  -0.000879
    20  H   -0.074256   0.001855   0.009196   0.001351
    21  C   -2.957401   0.167558   0.298803  -0.136250
    22  O    0.157108  -0.003356  -0.033195   0.011411
    23  H   -0.140968   0.029769   0.036098  -0.012638
    24  H    0.377087  -0.070178  -0.033752   0.015083
    25  C    9.125041  -0.218847  -0.668325   0.158601
    26  H   -0.218847   1.682556  -0.063949  -0.091824
    27  O   -0.668325  -0.063949   8.793946   0.341646
    28  H    0.158601  -0.091824   0.341646   0.569763
 Mulliken charges:
               1
     1  N   -0.675975
     2  H   -0.029112
     3  C    0.853133
     4  O   -1.016541
     5  C    0.848997
     6  C    0.555856
     7  N   -0.518902
     8  H   -0.315734
     9  N   -0.932284
    10  N   -0.420449
    11  C    2.000804
    12  H   -0.322127
    13  O   -1.143681
    14  C    0.038218
    15  C    1.313679
    16  O   -0.725542
    17  H    0.154385
    18  H   -0.073258
    19  H   -0.065286
    20  H   -0.312561
    21  C    1.144670
    22  O   -0.928951
    23  H    0.193026
    24  H   -0.153371
    25  C    0.522750
    26  H   -0.285340
    27  O   -0.868606
    28  H    0.162202
 Sum of Mulliken charges =  -1.00000
 Mulliken charges with hydrogens summed into heavy atoms:
               1
     1  N   -0.705087
     3  C    0.853133
     4  O   -1.016541
     5  C    0.848997
     6  C    0.240123
     7  N   -0.518902
     9  N   -0.932284
    10  N   -0.420449
    11  C    1.678677
    13  O   -1.143681
    14  C   -0.274343
    15  C    1.175135
    16  O   -0.571157
    21  C    0.991299
    22  O   -0.735925
    25  C    0.237410
    27  O   -0.706404
 Electronic spatial extent (au):  <R**2>=           4854.4960
 Charge=             -1.0000 electrons
 Dipole moment (field-independent basis, Debye):
    X=            -18.6399    Y=             -5.3024    Z=             -1.2403  Tot=             19.4190
 Quadrupole moment (field-independent basis, Debye-Ang):
   XX=           -206.7693   YY=           -105.1713   ZZ=           -112.4544
   XY=            -12.6271   XZ=             28.3382   YZ=              5.2425
 Traceless Quadrupole moment (field-independent basis, Debye-Ang):
   XX=            -65.3043   YY=             36.2937   ZZ=             29.0106
   XY=            -12.6271   XZ=             28.3382   YZ=              5.2425
 Octapole moment (field-independent basis, Debye-Ang**2):
  XXX=           -460.1811  YYY=            -20.7198  ZZZ=             12.1332  XYY=            -39.7569
  XXY=           -100.3094  XXZ=             70.4922  XZZ=            -64.4480  YZZ=            -25.7544
  YYZ=            -29.2638  XYZ=             35.6577
 Hexadecapole moment (field-independent basis, Debye-Ang**3):
 XXXX=          -7159.9749 YYYY=          -1071.9913 ZZZZ=           -715.2964 XXXY=           -368.0038
 XXXZ=            397.0091 YYYX=             33.3570 YYYZ=             38.6867 ZZZX=            138.5921
 ZZZY=             67.9883 XXYY=          -1077.2216 XXZZ=          -1036.9829 YYZZ=           -302.3136
 XXYZ=             55.7791 YYXZ=            114.3710 ZZXY=            -29.5412
 N-N= 1.262876390778D+03 E-N=-4.661039549056D+03  KE= 9.001278733239D+02
 Leave Link  601 at Sun Jul 11 16:59:50 2021, MaxMem=   262144000 cpu:               1.4 elap:               0.5
 (Enter /prod/apps/gaussian/g16b1/l9999.exe)
 1\1\GINC-PIRINEUS28\SP\RMP2-FC\Aug-CC-pVDZ\C8H11N4O5(1-)\UBATOR02\11-J
 ul-2021\0\\#p mp2/aug-cc-pVDZ scf=tight maxdisk=180GB geom=allcheck\\S
 ET_328_BBB285_conf1.geo_300_075 geometry\\-1,1\N,0,2.8205497344,-3.187
 2061845,1.1738896881\H,0,2.0601506225,-2.5978280618,1.5197107188\C,0,3
 .1957218251,-2.7393485202,-0.0085792416\O,0,4.1165389237,-3.228884333,
 -0.733721492\C,0,2.5029630111,-1.5345681524,-0.6117545262\C,0,2.790351
 9065,-0.9065414413,-1.8416957907\N,0,1.956629999,0.1184223002,-2.02089
 28353\H,0,3.5468069442,-1.1501640568,-2.5705943828\N,0,1.4849310356,-0
 .8690726276,-0.0498710636\N,0,1.204592512,0.1046754389,-0.9156635596\C
 ,0,0.0715200779,1.0053109219,-0.7485771038\H,0,0.2166012091,1.78160256
 8,-1.5004039967\O,0,-1.1458272304,0.3267926019,-0.976857027\C,0,-1.946
 8703033,0.331579199,0.231287953\C,0,-3.417211009,0.3134211933,-0.15035
 64587\O,0,-3.7841652048,-0.846859362,-0.8836331667\H,0,-3.6936746378,-
 1.6091496946,-0.286031258\H,0,-3.6214114393,1.1712444178,-0.7924593385
 \H,0,-4.0174792696,0.4212357576,0.7637007319\H,0,-1.7057217883,-0.5630
 303532,0.8224271262\C,0,-1.4937712266,1.5746659424,0.9907857217\O,0,-2
 .1176439498,2.7294033775,0.4582384372\H,0,-1.4369558001,3.4312003956,0
 .4933543094\H,0,-1.6839943533,1.4847471001,2.0668588795\C,0,0.01114676
 16,1.6034856985,0.6698353445\H,0,0.5624406242,0.9588347003,1.356791440
 4\O,0,0.5442542748,2.9159115713,0.6420631545\H,0,0.7955267506,3.156119
 6032,1.5511477359\\Version=ES64L-G16RevB.01\State=1-A\HF=-901.5357416\
 MP2=-904.3521878\RMSD=5.466e-09\PG=C01 [X(C8H11N4O5)]\\@


 Mondays are the potholes in the road of life.
                                -- Tom Wilson
 Job cpu time:       0 days  1 hours 37 minutes  1.0 seconds.
 Elapsed time:       0 days  0 hours 27 minutes 35.9 seconds.
 File lengths (MBytes):  RWF=  57981 Int=      0 D2E=      0 Chk=     20 Scr=      1
 Normal termination of Gaussian 16 at Sun Jul 11 16:59:51 2021.
