 Entering Gaussian System, Link 0=g16
 Initial command:
 /prod/apps/gaussian/g16b1/l1.exe "/tmp/ubator02/1834549/Gau-41228.inp" -scrdir="/tmp/ubator02/1834549/"
 Entering Link 1 = /prod/apps/gaussian/g16b1/l1.exe PID=     41229.
  
 Copyright (c) 1988-2017, Gaussian, Inc.  All Rights Reserved.
  
 This is part of the Gaussian(R) 16 program.  It is based on
 the Gaussian(R) 09 system (copyright 2009, Gaussian, Inc.),
 the Gaussian(R) 03 system (copyright 2003, Gaussian, Inc.),
 the Gaussian(R) 98 system (copyright 1998, Gaussian, Inc.),
 the Gaussian(R) 94 system (copyright 1995, Gaussian, Inc.),
 the Gaussian 92(TM) system (copyright 1992, Gaussian, Inc.),
 the Gaussian 90(TM) system (copyright 1990, Gaussian, Inc.),
 the Gaussian 88(TM) system (copyright 1988, Gaussian, Inc.),
 the Gaussian 86(TM) system (copyright 1986, Carnegie Mellon
 University), and the Gaussian 82(TM) system (copyright 1983,
 Carnegie Mellon University). Gaussian is a federally registered
 trademark of Gaussian, Inc.
  
 This software contains proprietary and confidential information,
 including trade secrets, belonging to Gaussian, Inc.
  
 This software is provided under written license and may be
 used, copied, transmitted, or stored only in accord with that
 written license.
  
 The following legend is applicable only to US Government
 contracts under FAR:
  
                    RESTRICTED RIGHTS LEGEND
  
 Use, reproduction and disclosure by the US Government is
 subject to restrictions as set forth in subparagraphs (a)
 and (c) of the Commercial Computer Software - Restricted
 Rights clause in FAR 52.227-19.
  
 Gaussian, Inc.
 340 Quinnipiac St., Bldg. 40, Wallingford CT 06492
  
  
 ---------------------------------------------------------------
 Warning -- This program may not be used in any manner that
 competes with the business of Gaussian, Inc. or will provide
 assistance to any competitor of Gaussian, Inc.  The licensee
 of this program is prohibited from giving any competitor of
 Gaussian, Inc. access to this program.  By using this program,
 the user acknowledges that Gaussian, Inc. is engaged in the
 business of creating and licensing software in the field of
 computational chemistry and represents and warrants to the
 licensee that it is not a competitor of Gaussian, Inc. and that
 it will not use this program in any manner prohibited above.
 ---------------------------------------------------------------
  

 Cite this work as:
 Gaussian 16, Revision B.01,
 M. J. Frisch, G. W. Trucks, H. B. Schlegel, G. E. Scuseria, 
 M. A. Robb, J. R. Cheeseman, G. Scalmani, V. Barone, 
 G. A. Petersson, H. Nakatsuji, X. Li, M. Caricato, A. V. Marenich, 
 J. Bloino, B. G. Janesko, R. Gomperts, B. Mennucci, H. P. Hratchian, 
 J. V. Ortiz, A. F. Izmaylov, J. L. Sonnenberg, D. Williams-Young, 
 F. Ding, F. Lipparini, F. Egidi, J. Goings, B. Peng, A. Petrone, 
 T. Henderson, D. Ranasinghe, V. G. Zakrzewski, J. Gao, N. Rega, 
 G. Zheng, W. Liang, M. Hada, M. Ehara, K. Toyota, R. Fukuda, 
 J. Hasegawa, M. Ishida, T. Nakajima, Y. Honda, O. Kitao, H. Nakai, 
 T. Vreven, K. Throssell, J. A. Montgomery, Jr., J. E. Peralta, 
 F. Ogliaro, M. J. Bearpark, J. J. Heyd, E. N. Brothers, K. N. Kudin, 
 V. N. Staroverov, T. A. Keith, R. Kobayashi, J. Normand, 
 K. Raghavachari, A. P. Rendell, J. C. Burant, S. S. Iyengar, 
 J. Tomasi, M. Cossi, J. M. Millam, M. Klene, C. Adamo, R. Cammi, 
 J. W. Ochterski, R. L. Martin, K. Morokuma, O. Farkas, 
 J. B. Foresman, and D. J. Fox, Gaussian, Inc., Wallingford CT, 2016.
 
 ******************************************
 Gaussian 16:  ES64L-G16RevB.01 20-Dec-2017
                11-Jul-2021 
 ******************************************
 %mem=800MB
 %nproc=4
 Will use up to    4 processors via shared memory.
 %chk=SET_328_BBB282_conf1.geo_000_270.chk
 -----------------------------------------------------------
 #p b3lyp/6-31G(d) opt freq scrf=(iefpcm,read,solvent=water)
 -----------------------------------------------------------
 1/18=20,19=15,26=3,38=1,40=2/1,3;
 2/9=110,12=2,17=6,18=5,40=1/2;
 3/5=1,6=6,7=1,11=2,25=1,30=1,70=2203,71=1,72=1,74=-5/1,2,3;
 4//1;
 5/5=2,38=5,53=1/2;
 6/7=2,8=2,9=2,10=2,28=1/1;
 7//1,2,3,16;
 1/18=20,19=15,26=3/3(2);
 2/9=110/2;
 99//99;
 2/9=110/2;
 3/5=1,6=6,7=1,11=2,25=1,30=1,70=2205,71=1,72=1,74=-5/1,2,3;
 4/5=5,16=3,69=1/1;
 5/5=2,38=5,53=1/2;
 7//1,2,3,16;
 1/18=20,19=15,26=3/3(-5);
 2/9=110/2;
 6/7=2,8=2,9=2,10=2,19=2,28=1/1;
 99/9=1/99;
 Leave Link    1 at Sun Jul 11 16:01:50 2021, MaxMem=   104857600 cpu:               0.1 elap:               0.0
 (Enter /prod/apps/gaussian/g16b1/l101.exe)
 -----------------------------------------
 SET_328_BBB282_conf1.geo_000_270 geometry
 -----------------------------------------
 Symbolic Z-matrix:
 Charge = -1 Multiplicity = 1
 C                     0.595     2.17      2.285 
 H                    -0.223     2.813     2.617 
 H                     1.468     2.702     2.669 
 H                     0.402     1.183     2.711 
 C                     0.791     2.073     0.801 
 H                     1.843     1.8       0.682 
 H                     0.792     3.012     0.243 
 N                    -0.053     1.107     0.077 
 C                    -1.183     1.618    -0.573 
 H                    -1.19      2.683    -0.769 
 C                    -2.179     0.639    -0.792 
 C                    -3.493     1.198    -1.172 
 O                    -4.479     0.379    -1.348 
 O                    -3.711     2.38     -1.245 
 C                    -1.954    -0.828    -0.606 
 O                    -2.764    -1.668    -0.823 
 C                    -0.567    -1.179    -0.301 
 C                    -0.187    -2.518    -0.336 
 H                    -0.84     -3.369    -0.512 
 C                     1.187    -2.723    -0.433 
 H                     1.579    -3.721    -0.613 
 C                     2.085    -1.719    -0.352 
 C                     3.518    -2.004    -0.115 
 H                     4.175    -1.451    -0.79 
 H                     3.646    -3.081    -0.243 
 H                     3.84     -1.835     0.914 
 N                     1.651    -0.478    -0.037 
 C                     0.333    -0.161    -0.115 
 
 ITRead=  0  0  0  0  0  0  0  0  0  0  0  0  0  0  0  0  0  0  0  0
 ITRead=  0  0  0  0  0  0  0  0
 MicOpt= -1 -1 -1 -1 -1 -1 -1 -1 -1 -1 -1 -1 -1 -1 -1 -1 -1 -1 -1 -1
 MicOpt= -1 -1 -1 -1 -1 -1 -1 -1
 NAtoms=     28 NQM=       28 NQMF=       0 NMMI=      0 NMMIF=      0
                NMic=       0 NMicF=      0.
                    Isotopes and Nuclear Properties:
 (Nuclear quadrupole moments (NQMom) in fm**2, nuclear magnetic moments (NMagM)
  in nuclear magnetons)

  Atom         1           2           3           4           5           6           7           8           9          10
 IAtWgt=          12           1           1           1          12           1           1          14          12           1
 AtmWgt=  12.0000000   1.0078250   1.0078250   1.0078250  12.0000000   1.0078250   1.0078250  14.0030740  12.0000000   1.0078250
 NucSpn=           0           1           1           1           0           1           1           2           0           1
 AtZEff=  -0.0000000  -0.0000000  -0.0000000  -0.0000000  -0.0000000  -0.0000000  -0.0000000  -0.0000000  -0.0000000  -0.0000000
 NQMom=    0.0000000   0.0000000   0.0000000   0.0000000   0.0000000   0.0000000   0.0000000   2.0440000   0.0000000   0.0000000
 NMagM=    0.0000000   2.7928460   2.7928460   2.7928460   0.0000000   2.7928460   2.7928460   0.4037610   0.0000000   2.7928460
 AtZNuc=   6.0000000   1.0000000   1.0000000   1.0000000   6.0000000   1.0000000   1.0000000   7.0000000   6.0000000   1.0000000

  Atom        11          12          13          14          15          16          17          18          19          20
 IAtWgt=          12          12          16          16          12          16          12          12           1          12
 AtmWgt=  12.0000000  12.0000000  15.9949146  15.9949146  12.0000000  15.9949146  12.0000000  12.0000000   1.0078250  12.0000000
 NucSpn=           0           0           0           0           0           0           0           0           1           0
 AtZEff=  -0.0000000  -0.0000000  -0.0000000  -0.0000000  -0.0000000  -0.0000000  -0.0000000  -0.0000000  -0.0000000  -0.0000000
 NQMom=    0.0000000   0.0000000   0.0000000   0.0000000   0.0000000   0.0000000   0.0000000   0.0000000   0.0000000   0.0000000
 NMagM=    0.0000000   0.0000000   0.0000000   0.0000000   0.0000000   0.0000000   0.0000000   0.0000000   2.7928460   0.0000000
 AtZNuc=   6.0000000   6.0000000   8.0000000   8.0000000   6.0000000   8.0000000   6.0000000   6.0000000   1.0000000   6.0000000

  Atom        21          22          23          24          25          26          27          28
 IAtWgt=           1          12          12           1           1           1          14          12
 AtmWgt=   1.0078250  12.0000000  12.0000000   1.0078250   1.0078250   1.0078250  14.0030740  12.0000000
 NucSpn=           1           0           0           1           1           1           2           0
 AtZEff=  -0.0000000  -0.0000000  -0.0000000  -0.0000000  -0.0000000  -0.0000000  -0.0000000  -0.0000000
 NQMom=    0.0000000   0.0000000   0.0000000   0.0000000   0.0000000   0.0000000   2.0440000   0.0000000
 NMagM=    2.7928460   0.0000000   0.0000000   2.7928460   2.7928460   2.7928460   0.4037610   0.0000000
 AtZNuc=   1.0000000   6.0000000   6.0000000   1.0000000   1.0000000   1.0000000   7.0000000   6.0000000
 Leave Link  101 at Sun Jul 11 16:01:50 2021, MaxMem=   104857600 cpu:               0.5 elap:               0.1
 (Enter /prod/apps/gaussian/g16b1/l103.exe)

 GradGradGradGradGradGradGradGradGradGradGradGradGradGradGradGradGradGrad
 Berny optimization.
 Initialization pass.
                           ----------------------------
                           !    Initial Parameters    !
                           ! (Angstroms and Degrees)  !
 --------------------------                            --------------------------
 ! Name  Definition              Value          Derivative Info.                !
 --------------------------------------------------------------------------------
 ! R1    R(1,2)                  1.0922         estimate D2E/DX2                !
 ! R2    R(1,3)                  1.0921         estimate D2E/DX2                !
 ! R3    R(1,4)                  1.0922         estimate D2E/DX2                !
 ! R4    R(1,5)                  1.5            estimate D2E/DX2                !
 ! R5    R(5,6)                  1.0933         estimate D2E/DX2                !
 ! R6    R(5,7)                  1.0923         estimate D2E/DX2                !
 ! R7    R(5,8)                  1.473          estimate D2E/DX2                !
 ! R8    R(8,9)                  1.4002         estimate D2E/DX2                !
 ! R9    R(8,28)                 1.3393         estimate D2E/DX2                !
 ! R10   R(9,10)                 1.0829         estimate D2E/DX2                !
 ! R11   R(9,11)                 1.4137         estimate D2E/DX2                !
 ! R12   R(11,12)                1.4777         estimate D2E/DX2                !
 ! R13   R(11,15)                1.4958         estimate D2E/DX2                !
 ! R14   R(12,13)                1.2938         estimate D2E/DX2                !
 ! R15   R(12,14)                1.2041         estimate D2E/DX2                !
 ! R16   R(15,16)                1.1869         estimate D2E/DX2                !
 ! R17   R(15,17)                1.4629         estimate D2E/DX2                !
 ! R18   R(17,18)                1.3923         estimate D2E/DX2                !
 ! R19   R(17,28)                1.3715         estimate D2E/DX2                !
 ! R20   R(18,19)                1.087          estimate D2E/DX2                !
 ! R21   R(18,20)                1.3926         estimate D2E/DX2                !
 ! R22   R(20,21)                1.0872         estimate D2E/DX2                !
 ! R23   R(20,22)                1.3494         estimate D2E/DX2                !
 ! R24   R(22,23)                1.4802         estimate D2E/DX2                !
 ! R25   R(22,27)                1.3519         estimate D2E/DX2                !
 ! R26   R(23,24)                1.0923         estimate D2E/DX2                !
 ! R27   R(23,25)                1.0921         estimate D2E/DX2                !
 ! R28   R(23,26)                1.0914         estimate D2E/DX2                !
 ! R29   R(27,28)                1.3578         estimate D2E/DX2                !
 ! A1    A(2,1,3)              101.8318         estimate D2E/DX2                !
 ! A2    A(2,1,4)              106.3272         estimate D2E/DX2                !
 ! A3    A(2,1,5)              115.8919         estimate D2E/DX2                !
 ! A4    A(3,1,4)              116.3812         estimate D2E/DX2                !
 ! A5    A(3,1,5)              105.9572         estimate D2E/DX2                !
 ! A6    A(4,1,5)              110.5194         estimate D2E/DX2                !
 ! A7    A(1,5,6)              104.4508         estimate D2E/DX2                !
 ! A8    A(1,5,7)              116.739          estimate D2E/DX2                !
 ! A9    A(1,5,8)              116.9883         estimate D2E/DX2                !
 ! A10   A(6,5,7)               99.1007         estimate D2E/DX2                !
 ! A11   A(6,5,8)              109.5162         estimate D2E/DX2                !
 ! A12   A(7,5,8)              108.2527         estimate D2E/DX2                !
 ! A13   A(5,8,9)              116.8244         estimate D2E/DX2                !
 ! A14   A(5,8,28)             121.751          estimate D2E/DX2                !
 ! A15   A(9,8,28)             120.7687         estimate D2E/DX2                !
 ! A16   A(8,9,10)             116.6254         estimate D2E/DX2                !
 ! A17   A(8,9,11)             112.8164         estimate D2E/DX2                !
 ! A18   A(10,9,11)            130.4275         estimate D2E/DX2                !
 ! A19   A(9,11,12)            113.8521         estimate D2E/DX2                !
 ! A20   A(9,11,15)            123.6396         estimate D2E/DX2                !
 ! A21   A(12,11,15)           122.464          estimate D2E/DX2                !
 ! A22   A(11,12,13)           118.2421         estimate D2E/DX2                !
 ! A23   A(11,12,14)           123.2246         estimate D2E/DX2                !
 ! A24   A(13,12,14)           118.3695         estimate D2E/DX2                !
 ! A25   A(11,15,16)           124.6605         estimate D2E/DX2                !
 ! A26   A(11,15,17)           113.8206         estimate D2E/DX2                !
 ! A27   A(16,15,17)           121.021          estimate D2E/DX2                !
 ! A28   A(15,17,18)           118.9654         estimate D2E/DX2                !
 ! A29   A(15,17,28)           118.1884         estimate D2E/DX2                !
 ! A30   A(18,17,28)           122.558          estimate D2E/DX2                !
 ! A31   A(17,18,19)           126.3715         estimate D2E/DX2                !
 ! A32   A(17,18,20)           114.3685         estimate D2E/DX2                !
 ! A33   A(19,18,20)           117.7871         estimate D2E/DX2                !
 ! A34   A(18,20,21)           120.1585         estimate D2E/DX2                !
 ! A35   A(18,20,22)           122.8794         estimate D2E/DX2                !
 ! A36   A(21,20,22)           116.9336         estimate D2E/DX2                !
 ! A37   A(20,22,23)           120.7046         estimate D2E/DX2                !
 ! A38   A(20,22,27)           118.9031         estimate D2E/DX2                !
 ! A39   A(23,22,27)           116.7591         estimate D2E/DX2                !
 ! A40   A(22,23,24)           112.6994         estimate D2E/DX2                !
 ! A41   A(22,23,25)           106.5341         estimate D2E/DX2                !
 ! A42   A(22,23,26)           114.0035         estimate D2E/DX2                !
 ! A43   A(24,23,25)           110.8761         estimate D2E/DX2                !
 ! A44   A(24,23,26)           109.0742         estimate D2E/DX2                !
 ! A45   A(25,23,26)           103.2168         estimate D2E/DX2                !
 ! A46   A(22,27,28)           120.8328         estimate D2E/DX2                !
 ! A47   A(8,28,17)            122.2132         estimate D2E/DX2                !
 ! A48   A(8,28,27)            119.5089         estimate D2E/DX2                !
 ! A49   A(17,28,27)           118.1306         estimate D2E/DX2                !
 ! D1    D(2,1,5,6)            155.3515         estimate D2E/DX2                !
 ! D2    D(2,1,5,7)             47.1279         estimate D2E/DX2                !
 ! D3    D(2,1,5,8)            -83.4244         estimate D2E/DX2                !
 ! D4    D(3,1,5,6)             43.2749         estimate D2E/DX2                !
 ! D5    D(3,1,5,7)            -64.9486         estimate D2E/DX2                !
 ! D6    D(3,1,5,8)            164.4991         estimate D2E/DX2                !
 ! D7    D(4,1,5,6)            -83.629          estimate D2E/DX2                !
 ! D8    D(4,1,5,7)            168.1475         estimate D2E/DX2                !
 ! D9    D(4,1,5,8)             37.5952         estimate D2E/DX2                !
 ! D10   D(1,5,8,9)             99.0752         estimate D2E/DX2                !
 ! D11   D(1,5,8,28)           -90.144          estimate D2E/DX2                !
 ! D12   D(6,5,8,9)           -142.3948         estimate D2E/DX2                !
 ! D13   D(6,5,8,28)            28.386          estimate D2E/DX2                !
 ! D14   D(7,5,8,9)            -35.3214         estimate D2E/DX2                !
 ! D15   D(7,5,8,28)           135.4594         estimate D2E/DX2                !
 ! D16   D(5,8,9,10)            18.9474         estimate D2E/DX2                !
 ! D17   D(5,8,9,11)          -157.3331         estimate D2E/DX2                !
 ! D18   D(28,8,9,10)         -151.9297         estimate D2E/DX2                !
 ! D19   D(28,8,9,11)           31.7898         estimate D2E/DX2                !
 ! D20   D(5,8,28,17)          154.423          estimate D2E/DX2                !
 ! D21   D(5,8,28,27)          -21.0807         estimate D2E/DX2                !
 ! D22   D(9,8,28,17)          -35.1552         estimate D2E/DX2                !
 ! D23   D(9,8,28,27)          149.3411         estimate D2E/DX2                !
 ! D24   D(8,9,11,12)          166.0844         estimate D2E/DX2                !
 ! D25   D(8,9,11,15)          -11.5426         estimate D2E/DX2                !
 ! D26   D(10,9,11,12)          -9.5464         estimate D2E/DX2                !
 ! D27   D(10,9,11,15)         172.8265         estimate D2E/DX2                !
 ! D28   D(9,11,12,13)        -177.6622         estimate D2E/DX2                !
 ! D29   D(9,11,12,14)          -2.3962         estimate D2E/DX2                !
 ! D30   D(15,11,12,13)         -0.0036         estimate D2E/DX2                !
 ! D31   D(15,11,12,14)        175.2624         estimate D2E/DX2                !
 ! D32   D(9,11,15,16)        -177.6203         estimate D2E/DX2                !
 ! D33   D(9,11,15,17)          -5.6777         estimate D2E/DX2                !
 ! D34   D(12,11,15,16)          4.9521         estimate D2E/DX2                !
 ! D35   D(12,11,15,17)        176.8947         estimate D2E/DX2                !
 ! D36   D(11,15,17,18)       -168.9534         estimate D2E/DX2                !
 ! D37   D(11,15,17,28)          5.0407         estimate D2E/DX2                !
 ! D38   D(16,15,17,18)          3.3151         estimate D2E/DX2                !
 ! D39   D(16,15,17,28)        177.3091         estimate D2E/DX2                !
 ! D40   D(15,17,18,19)         -4.0905         estimate D2E/DX2                !
 ! D41   D(15,17,18,20)        161.6539         estimate D2E/DX2                !
 ! D42   D(28,17,18,19)       -177.8087         estimate D2E/DX2                !
 ! D43   D(28,17,18,20)        -12.0644         estimate D2E/DX2                !
 ! D44   D(15,17,28,8)          14.3832         estimate D2E/DX2                !
 ! D45   D(15,17,28,27)       -170.0538         estimate D2E/DX2                !
 ! D46   D(18,17,28,8)        -171.8521         estimate D2E/DX2                !
 ! D47   D(18,17,28,27)          3.7109         estimate D2E/DX2                !
 ! D48   D(17,18,20,21)       -171.0664         estimate D2E/DX2                !
 ! D49   D(17,18,20,22)          6.9336         estimate D2E/DX2                !
 ! D50   D(19,18,20,21)         -4.0176         estimate D2E/DX2                !
 ! D51   D(19,18,20,22)        173.9824         estimate D2E/DX2                !
 ! D52   D(18,20,22,23)        164.3185         estimate D2E/DX2                !
 ! D53   D(18,20,22,27)          6.4942         estimate D2E/DX2                !
 ! D54   D(21,20,22,23)        -17.6211         estimate D2E/DX2                !
 ! D55   D(21,20,22,27)       -175.4454         estimate D2E/DX2                !
 ! D56   D(20,22,23,24)        133.1823         estimate D2E/DX2                !
 ! D57   D(20,22,23,25)         11.3722         estimate D2E/DX2                !
 ! D58   D(20,22,23,26)       -101.7859         estimate D2E/DX2                !
 ! D59   D(27,22,23,24)        -68.5373         estimate D2E/DX2                !
 ! D60   D(27,22,23,25)        169.6526         estimate D2E/DX2                !
 ! D61   D(27,22,23,26)         56.4946         estimate D2E/DX2                !
 ! D62   D(20,22,27,28)        -15.7701         estimate D2E/DX2                !
 ! D63   D(23,22,27,28)       -174.4574         estimate D2E/DX2                !
 ! D64   D(22,27,28,8)        -173.5675         estimate D2E/DX2                !
 ! D65   D(22,27,28,17)         10.7459         estimate D2E/DX2                !
 --------------------------------------------------------------------------------
 Trust Radius=3.00D-01 FncErr=1.00D-07 GrdErr=1.00D-06 EigMax=2.50D+02 EigMin=1.00D-04
 Number of steps in this run=    153 maximum allowed number of steps=    168.
 GradGradGradGradGradGradGradGradGradGradGradGradGradGradGradGradGradGrad

 Leave Link  103 at Sun Jul 11 16:01:50 2021, MaxMem=   104857600 cpu:               0.0 elap:               0.0
 (Enter /prod/apps/gaussian/g16b1/l202.exe)
                          Input orientation:                          
 ---------------------------------------------------------------------
 Center     Atomic      Atomic             Coordinates (Angstroms)
 Number     Number       Type             X           Y           Z
 ---------------------------------------------------------------------
      1          6           0        0.595000    2.170000    2.285000
      2          1           0       -0.223000    2.813000    2.617000
      3          1           0        1.468000    2.702000    2.669000
      4          1           0        0.402000    1.183000    2.711000
      5          6           0        0.791000    2.073000    0.801000
      6          1           0        1.843000    1.800000    0.682000
      7          1           0        0.792000    3.012000    0.243000
      8          7           0       -0.053000    1.107000    0.077000
      9          6           0       -1.183000    1.618000   -0.573000
     10          1           0       -1.190000    2.683000   -0.769000
     11          6           0       -2.179000    0.639000   -0.792000
     12          6           0       -3.493000    1.198000   -1.172000
     13          8           0       -4.479000    0.379000   -1.348000
     14          8           0       -3.711000    2.380000   -1.245000
     15          6           0       -1.954000   -0.828000   -0.606000
     16          8           0       -2.764000   -1.668000   -0.823000
     17          6           0       -0.567000   -1.179000   -0.301000
     18          6           0       -0.187000   -2.518000   -0.336000
     19          1           0       -0.840000   -3.369000   -0.512000
     20          6           0        1.187000   -2.723000   -0.433000
     21          1           0        1.579000   -3.721000   -0.613000
     22          6           0        2.085000   -1.719000   -0.352000
     23          6           0        3.518000   -2.004000   -0.115000
     24          1           0        4.175000   -1.451000   -0.790000
     25          1           0        3.646000   -3.081000   -0.243000
     26          1           0        3.840000   -1.835000    0.914000
     27          7           0        1.651000   -0.478000   -0.037000
     28          6           0        0.333000   -0.161000   -0.115000
 ---------------------------------------------------------------------
                    Distance matrix (angstroms):
                    1          2          3          4          5
     1  C    0.000000
     2  H    1.092152   0.000000
     3  H    1.092066   1.695437   0.000000
     4  H    1.092197   1.748245   1.856201   0.000000
     5  C    1.500027   2.207635   2.084081   2.142783   0.000000
     6  H    2.064949   3.006451   2.214136   2.563983   1.093341
     7  H    2.217552   2.589537   2.537430   3.096509   1.092285
     8  N    2.534785   3.064463   3.402342   2.674090   1.472979
     9  C    3.410887   3.539170   4.325901   3.672343   2.447770
    10  H    3.574396   3.523774   4.345707   4.110336   2.600262
    11  C    4.416669   4.491491   5.434620   4.385032   3.662636
    12  C    5.441266   5.259054   6.451885   5.499904   4.796979
    13  O    6.492445   6.305483   7.543171   6.398911   5.938075
    14  O    5.571951   5.221942   6.499625   5.830910   4.954631
    15  C    4.882959   5.161489   5.907335   4.538430   4.234439
    16  O    5.972670   6.194323   7.014327   5.535423   5.410220
    17  C    4.387874   4.956725   5.293797   3.948436   3.692434
    18  C    5.427569   6.094347   6.246395   4.829962   4.829755
    19  H    6.368905   6.956181   7.232058   5.714105   5.830909
    20  C    5.628449   6.475947   6.255557   5.075214   4.968017
    21  H    6.638565   7.508213   7.213791   6.040159   6.015877
    22  C    4.929319   5.889045   5.390025   4.542693   4.169306
    23  C    5.632602   6.682993   5.839486   5.277566   4.989741
    24  H    5.948417   7.009404   6.044827   5.781910   5.138221
    25  H    6.578175   7.608416   6.831290   6.118116   5.983701
    26  H    5.333825   6.404068   5.412096   4.915015   4.957987
    27  N    3.676782   4.624529   4.179513   3.445348   2.819476
    28  C    3.355921   4.076473   4.151584   3.130076   2.457555
                    6          7          8          9         10
     6  H    0.000000
     7  H    1.663210   0.000000
     8  N    2.107389   2.090599   0.000000
     9  C    3.280979   2.551415   1.400186   0.000000
    10  H    3.476231   2.249602   2.119495   1.082908   0.000000
    11  C    4.438139   3.940710   2.343941   1.413654   2.270812
    12  C    5.680899   4.863543   3.660858   2.423077   2.769737
    13  O    6.790274   6.103066   4.706388   3.605463   4.057238
    14  O    5.907338   4.784410   4.092576   2.724521   2.583375
    15  C    4.794011   4.796553   2.797233   2.564848   3.596858
    16  O    5.959572   5.973600   3.982480   3.655114   4.627266
    17  C    3.955860   4.439290   2.373368   2.876917   3.939822
    18  C    4.878765   5.645758   3.650911   4.260831   5.314499
    19  H    5.944971   6.629526   4.582670   4.999154   6.067557
    20  C    4.704369   5.788197   4.057906   4.947806   5.915054
    21  H    5.676985   6.832671   5.142870   6.011253   6.978747
    22  C    3.675742   4.940469   3.569504   4.675921   5.502465
    23  C    4.232168   5.720096   4.739961   5.952147   6.675399
    24  H    4.263099   5.694747   5.017075   6.178512   6.773007
    25  H    5.284940   6.745825   5.596816   6.746017   7.542365
    26  H    4.153921   5.764890   4.950897   6.274146   6.967475
    27  N    2.396478   3.605049   2.329986   3.565399   4.312659
    28  C    2.600160   3.225953   1.339285   2.381777   3.291744
                   11         12         13         14         15
    11  C    0.000000
    12  C    1.477659   0.000000
    13  O    2.380491   1.293806   0.000000
    14  O    2.362904   1.204150   2.145794   0.000000
    15  C    1.495764   2.606445   2.895348   3.713036   0.000000
    16  O    2.380217   2.977784   2.721591   4.178660   1.186924
    17  C    2.478860   3.869140   4.339046   4.841730   1.462872
    18  C    3.760671   5.043529   5.276174   6.102070   2.459937
    19  H    4.235019   5.322734   5.290437   6.467684   2.776061
    20  C    4.770941   6.150021   6.524047   7.119716   3.672443
    21  H    5.758837   7.087611   7.351843   8.099736   4.566354
    22  C    4.892388   6.347864   6.962738   7.154919   4.143901
    23  C    6.316612   7.779728   8.435104   8.529642   5.618438
    24  H    6.688903   8.121659   8.862955   8.779099   6.163329
    25  H    6.933284   8.374855   8.899902   9.216940   6.047130
    26  H    6.727516   8.205082   8.900798   8.913198   6.074116
    27  N    4.060371   5.527923   6.326932   6.195036   3.666372
    28  C    2.721851   4.195522   4.996722   4.907904   2.432353
                   16         17         18         19         20
    16  O    0.000000
    17  C    2.310501   0.000000
    18  C    2.756918   1.392317   0.000000
    19  H    2.586870   2.217014   1.087008   0.000000
    20  C    4.107983   2.340486   1.392591   2.128917   0.000000
    21  H    4.808384   3.341321   2.154691   2.446562   1.087230
    22  C    4.872088   2.706900   2.408452   3.362101   1.349437
    23  C    6.330694   4.171624   3.747007   4.583994   2.460009
    24  H    6.942471   4.774900   4.513496   5.376452   3.267044
    25  H    6.589467   4.622806   3.875243   4.503277   2.492177
    26  H    6.830657   4.618248   4.271501   5.127283   3.105054
    27  N    4.639625   2.341073   2.762109   3.845593   2.326400
    28  C    3.516208   1.371466   2.423776   3.438721   2.719243
                   21         22         23         24         25
    21  H    0.000000
    22  C    2.081384   0.000000
    23  C    2.637388   1.480163   0.000000
    24  H    3.453034   2.152154   1.092283   0.000000
    25  H    2.195220   2.074523   1.092107   1.798875   0.000000
    26  H    3.316752   2.167080   1.091369   1.778566   1.711374
    27  N    3.294542   1.351910   2.412561   2.807902   3.286042
    28  C    3.804487   2.356488   3.679793   4.108612   4.418003
                   26         27         28
    26  H    0.000000
    27  N    2.745464   0.000000
    28  C    4.019971   1.357828   0.000000
 Stoichiometry    C12H11N2O3(1-)
 Framework group  C1[X(C12H11N2O3)]
 Deg. of freedom    78
 Full point group                 C1      NOp   1
 Largest Abelian subgroup         C1      NOp   1
 Largest concise Abelian subgroup C1      NOp   1
                         Standard orientation:                         
 ---------------------------------------------------------------------
 Center     Atomic      Atomic             Coordinates (Angstroms)
 Number     Number       Type             X           Y           Z
 ---------------------------------------------------------------------
      1          6           0        0.543991    3.279039    1.289449
      2          1           0       -0.396781    3.698395    1.652608
      3          1           0        1.171356    4.169631    1.212846
      4          1           0        0.850598    2.531136    2.023974
      5          6           0        0.507025    2.681115   -0.085761
      6          1           0        1.540927    2.739459   -0.436525
      7          1           0        0.025907    3.274159   -0.866729
      8          7           0        0.026714    1.293221   -0.198532
      9          6           0       -1.305906    1.115616   -0.589816
     10          1           0       -1.784563    1.955656   -1.077576
     11          6           0       -1.831019   -0.136071   -0.194908
     12          6           0       -3.302198   -0.226672   -0.299326
     13          8           0       -3.877009   -1.320384    0.084494
     14          8           0       -3.997026    0.693940   -0.645251
     15          6           0       -0.993213   -1.256257    0.334785
     16          8           0       -1.408811   -2.327137    0.633590
     17          6           0        0.444798   -0.991841    0.287856
     18          6           0        1.330982   -2.037530    0.532313
     19          1           0        1.067415   -3.051177    0.823238
     20          6           0        2.628799   -1.807861    0.082609
     21          1           0        3.360483   -2.611987    0.092062
     22          6           0        3.032421   -0.620011   -0.414464
     23          6           0        4.472831   -0.310263   -0.556447
     24          1           0        4.718102    0.116402   -1.531579
     25          1           0        5.009633   -1.247645   -0.395650
     26          1           0        4.866369    0.340139    0.226618
     27          7           0        2.185926    0.432677   -0.360096
     28          6           0        0.862296    0.249601   -0.118882
 ---------------------------------------------------------------------
 Rotational constants (GHZ):           0.7779145           0.3540132           0.2599876
 Leave Link  202 at Sun Jul 11 16:01:50 2021, MaxMem=   104857600 cpu:               0.0 elap:               0.0
 (Enter /prod/apps/gaussian/g16b1/l301.exe)
 Standard basis: 6-31G(d) (6D, 7F)
 Ernie: Thresh=  0.10000D-02 Tol=  0.10000D-05 Strict=F.
 There are   277 symmetry adapted cartesian basis functions of A   symmetry.
 There are   277 symmetry adapted basis functions of A   symmetry.
   277 basis functions,   520 primitive gaussians,   277 cartesian basis functions
    61 alpha electrons       61 beta electrons
       nuclear repulsion energy      1172.9434699545 Hartrees.
 IExCor=  402 DFT=T Ex+Corr=B3LYP ExCW=0 ScaHFX=  0.200000
 ScaDFX=  0.800000  0.720000  1.000000  0.810000 ScalE2=  1.000000  1.000000
 IRadAn=      5 IRanWt=     -1 IRanGd=            0 ICorTp=0 IEmpDi=  4
 NAtoms=   28 NActive=   28 NUniq=   28 SFac= 1.00D+00 NAtFMM=   60 NAOKFM=F Big=F
 Integral buffers will be    131072 words long.
 Raffenetti 2 integral format.
 Two-electron integral symmetry is turned on.
 Using the following non-standard input for PCM:
 MSTModel=DFT cav MSTCharged
 --- end of non-standard input.
 MST model for solvation energy: B3LYP parametrization.
 MST cavity parameters:
 ISph   IAn     Re0     Alpha   Atom Type   QCorr
 ------------------------------------------------
   1      6     1.50     1.25      CH3        F
   2      1     1.20     1.25      CH3        F
   3      1     1.20     1.25      CH3        F
   4      1     1.20     1.25      CH3        F
   5      6     1.50     1.25      CH2        F
   6      1     1.20     1.25      CH2        F
   7      1     1.20     1.25      CH2        F
   8      7     1.40     1.25      N          F
   9      6     1.50     1.25      CH         F
  10      1     1.20     1.25      CH         F
  11      6     1.50     1.25      C          F
  12      6     1.50     1.15      C          T
  13      8     1.40     1.15      O          T
  14      8     1.40     1.15      O          T
  15      6     1.50     1.25      C          F
  16      8     1.40     1.25      O          F
  17      6     1.50     1.25      C          F
  18      6     1.50     1.25      CH         F
  19      1     1.20     1.25      CH         F
  20      6     1.50     1.25      CH         F
  21      1     1.20     1.25      CH         F
  22      6     1.50     1.25      C          F
  23      6     1.50     1.25      CH3        F
  24      1     1.20     1.25      CH3        F
  25      1     1.20     1.25      CH3        F
  26      1     1.20     1.25      CH3        F
  27      7     1.40     1.25      N          F
  28      6     1.50     1.25      C          F
 ------------------------------------------------------------------------------
 Polarizable Continuum Model (PCM)
 =================================
 Model                : PCM.
 Atomic radii         : MST.
 Polarization charges : Total charges.
 Charge compensation  : None.
 Solution method      : On-the-fly selection.
 Cavity type          : Scaled VdW (van der Waals Surface) (Alpha=1.250).
 Cavity algorithm     : GePol (No added spheres)
                        Default sphere list used, NSphG=   28.
                        Lebedev-Laikov grids with approx.  5.0 points / Ang**2.
                        Smoothing algorithm: York/Karplus (Gamma=1.0000).
                        Polarization charges: spherical gaussians, with
                                              point-specific exponents (IZeta= 3).
                        Self-potential: point-specific (ISelfS= 7).
                        Self-field    : sphere-specific E.n sum rule (ISelfD= 2).
 1st derivatives      : Analytical E(r).r(x)/FMM algorithm (CHGder, D1EAlg=3).
                        Cavity 1st derivative terms included.
 Solvent              : Water, Eps=  78.355300 Eps(inf)=   1.777849
 ------------------------------------------------------------------------------
 GePol: Number of generator spheres                  =      28
 GePol: Total number of spheres                      =      28
 GePol: Number of exposed spheres                    =      28 (100.00%)
 GePol: Number of points                             =    2104
 GePol: Average weight of points                     =       0.13
 GePol: Minimum weight of points                     =   0.93D-11
 GePol: Maximum weight of points                     =    0.22001
 GePol: Number of points with low weight             =     147
 GePol: Fraction of low-weight points (<1% of avg)   =       6.99%
 GePol: Cavity surface area                          =    278.002 Ang**2
 GePol: Cavity volume                                =    257.373 Ang**3
 PCM non-electrostatic energy =         0.0048502108 Hartrees.
 Nuclear repulsion after PCM non-electrostatic terms =     1172.9483201653 Hartrees.
 Leave Link  301 at Sun Jul 11 16:01:50 2021, MaxMem=   104857600 cpu:               0.3 elap:               0.1
 (Enter /prod/apps/gaussian/g16b1/l302.exe)
 NPDir=0 NMtPBC=     1 NCelOv=     1 NCel=       1 NClECP=     1 NCelD=      1
         NCelK=      1 NCelE2=     1 NClLst=     1 CellRange=     0.0.
 One-electron integrals computed using PRISM.
 One-electron integral symmetry used in STVInt
 NBasis=   277 RedAO= T EigKep=  5.93D-04  NBF=   277
 NBsUse=   277 1.00D-06 EigRej= -1.00D+00 NBFU=   277
 Precomputing XC quadrature grid using
 IXCGrd= 4 IRadAn=           5 IRanWt=          -1 IRanGd=           0 AccXCQ= 0.00D+00.
 Generated NRdTot=       0 NPtTot=           0 NUsed=           0 NTot=          32
 NSgBfM=   276   276   276   276   276 MxSgAt=    28 MxSgA2=    28.
 Leave Link  302 at Sun Jul 11 16:01:50 2021, MaxMem=   104857600 cpu:               1.1 elap:               0.3
 (Enter /prod/apps/gaussian/g16b1/l303.exe)
 DipDrv:  MaxL=1.
 Leave Link  303 at Sun Jul 11 16:01:50 2021, MaxMem=   104857600 cpu:               0.1 elap:               0.0
 (Enter /prod/apps/gaussian/g16b1/l401.exe)
 ExpMin= 1.61D-01 ExpMax= 5.48D+03 ExpMxC= 8.25D+02 IAcc=3 IRadAn=         5 AccDes= 0.00D+00
 Harris functional with IExCor=  402 and IRadAn=       5 diagonalized for initial guess.
 HarFok:  IExCor=  402 AccDes= 0.00D+00 IRadAn=         5 IDoV= 1 UseB2=F ITyADJ=14
 ICtDFT=  3500011 ScaDFX=  1.000000  1.000000  1.000000  1.000000
 FoFCou: FMM=F IPFlag=           0 FMFlag=      100000 FMFlg1=           0
         NFxFlg=           0 DoJE=T BraDBF=F KetDBF=T FulRan=T
         wScrn=  0.000000 ICntrl=       500 IOpCl=  0 I1Cent=   200000004 NGrid=           0
         NMat0=    1 NMatS0=      1 NMatT0=    0 NMatD0=    1 NMtDS0=    0 NMtDT0=    0
 Petite list used in FoFCou.
 Harris En= -799.287952158748    
 JPrj=0 DoOrth=F DoCkMO=F.
 Leave Link  401 at Sun Jul 11 16:01:52 2021, MaxMem=   104857600 cpu:               6.2 elap:               1.6
 (Enter /prod/apps/gaussian/g16b1/l502.exe)
 Integral symmetry usage will be decided dynamically.
 Closed shell SCF:
 Using DIIS extrapolation, IDIIS=  1040.
 NGot=   104857600 LenX=   104699417 LenY=   104622247
 Requested convergence on RMS density matrix=1.00D-08 within 128 cycles.
 Requested convergence on MAX density matrix=1.00D-06.
 Requested convergence on             energy=1.00D-06.
 No special actions if energy rises.
 Fock matrices will be formed incrementally for  20 cycles.

 Cycle   1  Pass 1  IDiag  1:
 FoFJK:  IHMeth= 1 ICntrl=       0 DoSepK=F KAlg= 0 I1Cent=           0 FoldK=F
 IRaf= 830000000 NMat=       1 IRICut=       1 DoRegI=T DoRafI=F ISym2E= 0 IDoP0=0 IntGTp=1.
 FoFCou: FMM=F IPFlag=           0 FMFlag=      100000 FMFlg1=           0
         NFxFlg=           0 DoJE=F BraDBF=F KetDBF=F FulRan=T
         wScrn=  0.000000 ICntrl=         0 IOpCl=  0 I1Cent=           0 NGrid=           0
         NMat0=    1 NMatS0=      1 NMatT0=    0 NMatD0=    1 NMtDS0=    0 NMtDT0=    0
 Symmetry not used in FoFCou.
 Inv3:  Mode=1 IEnd=    13280448.
 Iteration    1 A*A^-1 deviation from unit magnitude is 3.44D-15 for    182.
 Iteration    1 A*A^-1 deviation from orthogonality  is 1.78D-15 for   1907   1158.
 Iteration    1 A^-1*A deviation from unit magnitude is 3.00D-15 for    725.
 Iteration    1 A^-1*A deviation from orthogonality  is 1.37D-13 for    544    509.
 E= -798.704997601142    
 DIIS: error= 2.45D-02 at cycle   1 NSaved=   1.
 NSaved= 1 IEnMin= 1 EnMin= -798.704997601142     IErMin= 1 ErrMin= 2.45D-02
 ErrMax= 2.45D-02  0.00D+00 EMaxC= 1.00D-01 BMatC= 5.50D-01 BMatP= 5.50D-01
 IDIUse=3 WtCom= 7.55D-01 WtEn= 2.45D-01
 Coeff-Com:  0.100D+01
 Coeff-En:   0.100D+01
 Coeff:      0.100D+01
 Gap=     0.166 Goal=   None    Shift=    0.000
 GapD=    0.166 DampG=1.000 DampE=0.500 DampFc=0.5000 IDamp=-1.
 Damping current iteration by 5.00D-01
 RMSDP=7.96D-03 MaxDP=3.38D-01              OVMax= 5.80D-01

 Cycle   2  Pass 1  IDiag  1:
 RMSU=  3.95D-03    CP:  9.79D-01
 E= -798.795503923647     Delta-E=       -0.090506322505 Rises=F Damp=T
 DIIS: error= 9.58D-03 at cycle   2 NSaved=   2.
 NSaved= 2 IEnMin= 2 EnMin= -798.795503923647     IErMin= 2 ErrMin= 9.58D-03
 ErrMax= 9.58D-03  0.00D+00 EMaxC= 1.00D-01 BMatC= 9.68D-02 BMatP= 5.50D-01
 IDIUse=3 WtCom= 9.04D-01 WtEn= 9.58D-02
 Coeff-Com:  0.222D+00 0.778D+00
 Coeff-En:   0.396D+00 0.604D+00
 Coeff:      0.239D+00 0.761D+00
 Gap=     0.057 Goal=   None    Shift=    0.000
 RMSDP=2.84D-03 MaxDP=1.18D-01 DE=-9.05D-02 OVMax= 4.06D-01

 Cycle   3  Pass 1  IDiag  1:
 RMSU=  2.33D-03    CP:  9.67D-01  5.94D-01
 E= -799.089415360717     Delta-E=       -0.293911437070 Rises=F Damp=F
 DIIS: error= 1.36D-02 at cycle   3 NSaved=   3.
 NSaved= 3 IEnMin= 3 EnMin= -799.089415360717     IErMin= 2 ErrMin= 9.58D-03
 ErrMax= 1.36D-02  0.00D+00 EMaxC= 1.00D-01 BMatC= 1.02D-01 BMatP= 9.68D-02
 IDIUse=3 WtCom= 8.64D-01 WtEn= 1.36D-01
 Coeff-Com:  0.615D-01 0.499D+00 0.440D+00
 Coeff-En:   0.000D+00 0.000D+00 0.100D+01
 Coeff:      0.531D-01 0.431D+00 0.516D+00
 Gap=     0.153 Goal=   None    Shift=    0.000
 RMSDP=1.63D-03 MaxDP=6.81D-02 DE=-2.94D-01 OVMax= 1.33D-01

 Cycle   4  Pass 1  IDiag  1:
 RMSU=  1.21D-03    CP:  9.74D-01  7.09D-01  5.79D-01
 E= -799.177329868485     Delta-E=       -0.087914507768 Rises=F Damp=F
 DIIS: error= 5.12D-03 at cycle   4 NSaved=   4.
 NSaved= 4 IEnMin= 4 EnMin= -799.177329868485     IErMin= 4 ErrMin= 5.12D-03
 ErrMax= 5.12D-03  0.00D+00 EMaxC= 1.00D-01 BMatC= 1.05D-02 BMatP= 9.68D-02
 IDIUse=3 WtCom= 9.49D-01 WtEn= 5.12D-02
 Coeff-Com:  0.434D-02 0.150D+00 0.263D+00 0.582D+00
 Coeff-En:   0.000D+00 0.000D+00 0.160D-01 0.984D+00
 Coeff:      0.411D-02 0.143D+00 0.250D+00 0.603D+00
 Gap=     0.127 Goal=   None    Shift=    0.000
 RMSDP=5.51D-04 MaxDP=2.51D-02 DE=-8.79D-02 OVMax= 4.87D-02

 Cycle   5  Pass 1  IDiag  1:
 RMSU=  4.21D-04    CP:  9.73D-01  6.86D-01  6.61D-01  7.65D-01
 E= -799.183473677289     Delta-E=       -0.006143808804 Rises=F Damp=F
 DIIS: error= 2.66D-03 at cycle   5 NSaved=   5.
 NSaved= 5 IEnMin= 5 EnMin= -799.183473677289     IErMin= 5 ErrMin= 2.66D-03
 ErrMax= 2.66D-03  0.00D+00 EMaxC= 1.00D-01 BMatC= 2.96D-03 BMatP= 1.05D-02
 IDIUse=3 WtCom= 9.73D-01 WtEn= 2.66D-02
 Coeff-Com: -0.821D-02 0.214D-01 0.699D-01 0.390D+00 0.527D+00
 Coeff-En:   0.000D+00 0.000D+00 0.000D+00 0.240D+00 0.760D+00
 Coeff:     -0.799D-02 0.208D-01 0.680D-01 0.386D+00 0.533D+00
 Gap=     0.126 Goal=   None    Shift=    0.000
 RMSDP=2.33D-04 MaxDP=1.14D-02 DE=-6.14D-03 OVMax= 2.10D-02

 Cycle   6  Pass 1  IDiag  1:
 RMSU=  1.10D-04    CP:  9.73D-01  6.91D-01  6.54D-01  8.67D-01  6.19D-01
 E= -799.185730023048     Delta-E=       -0.002256345759 Rises=F Damp=F
 DIIS: error= 4.19D-04 at cycle   6 NSaved=   6.
 NSaved= 6 IEnMin= 6 EnMin= -799.185730023048     IErMin= 6 ErrMin= 4.19D-04
 ErrMax= 4.19D-04  0.00D+00 EMaxC= 1.00D-01 BMatC= 1.10D-04 BMatP= 2.96D-03
 IDIUse=3 WtCom= 9.96D-01 WtEn= 4.19D-03
 Coeff-Com: -0.389D-02 0.209D-02 0.150D-01 0.139D+00 0.262D+00 0.586D+00
 Coeff-En:   0.000D+00 0.000D+00 0.000D+00 0.000D+00 0.000D+00 0.100D+01
 Coeff:     -0.388D-02 0.208D-02 0.150D-01 0.138D+00 0.261D+00 0.588D+00
 Gap=     0.126 Goal=   None    Shift=    0.000
 RMSDP=4.83D-05 MaxDP=2.18D-03 DE=-2.26D-03 OVMax= 3.44D-03

 Cycle   7  Pass 1  IDiag  1:
 RMSU=  4.10D-05    CP:  9.73D-01  6.93D-01  6.56D-01  8.70D-01  6.57D-01
                    CP:  8.40D-01
 E= -799.185819526877     Delta-E=       -0.000089503829 Rises=F Damp=F
 DIIS: error= 1.57D-04 at cycle   7 NSaved=   7.
 NSaved= 7 IEnMin= 7 EnMin= -799.185819526877     IErMin= 7 ErrMin= 1.57D-04
 ErrMax= 1.57D-04  0.00D+00 EMaxC= 1.00D-01 BMatC= 1.06D-05 BMatP= 1.10D-04
 IDIUse=3 WtCom= 9.98D-01 WtEn= 1.57D-03
 Coeff-Com: -0.540D-03-0.266D-02-0.128D-02 0.162D-01 0.618D-01 0.275D+00
 Coeff-Com:  0.651D+00
 Coeff-En:   0.000D+00 0.000D+00 0.000D+00 0.000D+00 0.000D+00 0.000D+00
 Coeff-En:   0.100D+01
 Coeff:     -0.539D-03-0.266D-02-0.128D-02 0.162D-01 0.617D-01 0.275D+00
 Coeff:      0.652D+00
 Gap=     0.125 Goal=   None    Shift=    0.000
 RMSDP=2.02D-05 MaxDP=7.70D-04 DE=-8.95D-05 OVMax= 1.89D-03

 Cycle   8  Pass 1  IDiag  1:
 RMSU=  1.27D-05    CP:  9.73D-01  6.92D-01  6.57D-01  8.73D-01  6.74D-01
                    CP:  9.22D-01  8.39D-01
 E= -799.185828832782     Delta-E=       -0.000009305905 Rises=F Damp=F
 DIIS: error= 7.43D-05 at cycle   8 NSaved=   8.
 NSaved= 8 IEnMin= 8 EnMin= -799.185828832782     IErMin= 8 ErrMin= 7.43D-05
 ErrMax= 7.43D-05  0.00D+00 EMaxC= 1.00D-01 BMatC= 2.25D-06 BMatP= 1.06D-05
 IDIUse=1 WtCom= 1.00D+00 WtEn= 0.00D+00
 Coeff-Com:  0.108D-03-0.116D-02-0.704D-03-0.171D-02 0.146D-01 0.109D+00
 Coeff-Com:  0.386D+00 0.494D+00
 Coeff:      0.108D-03-0.116D-02-0.704D-03-0.171D-02 0.146D-01 0.109D+00
 Coeff:      0.386D+00 0.494D+00
 Gap=     0.126 Goal=   None    Shift=    0.000
 RMSDP=7.31D-06 MaxDP=3.00D-04 DE=-9.31D-06 OVMax= 6.33D-04

 Cycle   9  Pass 1  IDiag  1:
 RMSU=  5.87D-06    CP:  9.73D-01  6.91D-01  6.57D-01  8.73D-01  6.73D-01
                    CP:  9.18D-01  9.10D-01  7.86D-01
 E= -799.185830612390     Delta-E=       -0.000001779609 Rises=F Damp=F
 DIIS: error= 1.87D-05 at cycle   9 NSaved=   9.
 NSaved= 9 IEnMin= 9 EnMin= -799.185830612390     IErMin= 9 ErrMin= 1.87D-05
 ErrMax= 1.87D-05  0.00D+00 EMaxC= 1.00D-01 BMatC= 1.95D-07 BMatP= 2.25D-06
 IDIUse=1 WtCom= 1.00D+00 WtEn= 0.00D+00
 Coeff-Com:  0.211D-03-0.345D-03-0.105D-04-0.411D-02-0.409D-02 0.126D-02
 Coeff-Com:  0.680D-01 0.239D+00 0.700D+00
 Coeff:      0.211D-03-0.345D-03-0.105D-04-0.411D-02-0.409D-02 0.126D-02
 Coeff:      0.680D-01 0.239D+00 0.700D+00
 Gap=     0.126 Goal=   None    Shift=    0.000
 RMSDP=3.04D-06 MaxDP=8.09D-05 DE=-1.78D-06 OVMax= 4.28D-04

 Cycle  10  Pass 1  IDiag  1:
 RMSU=  1.46D-06    CP:  9.73D-01  6.91D-01  6.58D-01  8.73D-01  6.74D-01
                    CP:  9.29D-01  9.41D-01  8.59D-01  9.45D-01
 E= -799.185830843771     Delta-E=       -0.000000231380 Rises=F Damp=F
 DIIS: error= 4.08D-06 at cycle  10 NSaved=  10.
 NSaved=10 IEnMin=10 EnMin= -799.185830843771     IErMin=10 ErrMin= 4.08D-06
 ErrMax= 4.08D-06  0.00D+00 EMaxC= 1.00D-01 BMatC= 1.18D-08 BMatP= 1.95D-07
 IDIUse=1 WtCom= 1.00D+00 WtEn= 0.00D+00
 Coeff-Com:  0.832D-04-0.103D-03 0.718D-04-0.137D-02-0.239D-02-0.667D-02
 Coeff-Com: -0.186D-02 0.544D-01 0.265D+00 0.692D+00
 Coeff:      0.832D-04-0.103D-03 0.718D-04-0.137D-02-0.239D-02-0.667D-02
 Coeff:     -0.186D-02 0.544D-01 0.265D+00 0.692D+00
 Gap=     0.126 Goal=   None    Shift=    0.000
 RMSDP=8.27D-07 MaxDP=2.36D-05 DE=-2.31D-07 OVMax= 1.23D-04

 Cycle  11  Pass 1  IDiag  1:
 RMSU=  4.99D-07    CP:  9.73D-01  6.91D-01  6.58D-01  8.73D-01  6.75D-01
                    CP:  9.31D-01  9.47D-01  8.83D-01  1.00D+00  9.16D-01
 E= -799.185830858917     Delta-E=       -0.000000015146 Rises=F Damp=F
 DIIS: error= 1.84D-06 at cycle  11 NSaved=  11.
 NSaved=11 IEnMin=11 EnMin= -799.185830858917     IErMin=11 ErrMin= 1.84D-06
 ErrMax= 1.84D-06  0.00D+00 EMaxC= 1.00D-01 BMatC= 3.00D-09 BMatP= 1.18D-08
 IDIUse=1 WtCom= 1.00D+00 WtEn= 0.00D+00
 Coeff-Com:  0.135D-04-0.998D-05 0.313D-04-0.144D-03-0.729D-03-0.414D-02
 Coeff-Com: -0.130D-01-0.852D-02 0.312D-01 0.375D+00 0.620D+00
 Coeff:      0.135D-04-0.998D-05 0.313D-04-0.144D-03-0.729D-03-0.414D-02
 Coeff:     -0.130D-01-0.852D-02 0.312D-01 0.375D+00 0.620D+00
 Gap=     0.126 Goal=   None    Shift=    0.000
 RMSDP=3.55D-07 MaxDP=9.31D-06 DE=-1.51D-08 OVMax= 4.51D-05

 Cycle  12  Pass 1  IDiag  1:
 RMSU=  1.86D-07    CP:  9.73D-01  6.91D-01  6.58D-01  8.73D-01  6.75D-01
                    CP:  9.32D-01  9.50D-01  8.89D-01  1.02D+00  9.85D-01
                    CP:  7.06D-01
 E= -799.185830862125     Delta-E=       -0.000000003208 Rises=F Damp=F
 DIIS: error= 7.55D-07 at cycle  12 NSaved=  12.
 NSaved=12 IEnMin=12 EnMin= -799.185830862125     IErMin=12 ErrMin= 7.55D-07
 ErrMax= 7.55D-07  0.00D+00 EMaxC= 1.00D-01 BMatC= 4.59D-10 BMatP= 3.00D-09
 IDIUse=1 WtCom= 1.00D+00 WtEn= 0.00D+00
 Coeff-Com: -0.126D-05 0.118D-04 0.172D-04 0.742D-04-0.118D-03-0.146D-02
 Coeff-Com: -0.661D-02-0.901D-02-0.796D-02 0.139D+00 0.352D+00 0.533D+00
 Coeff:     -0.126D-05 0.118D-04 0.172D-04 0.742D-04-0.118D-03-0.146D-02
 Coeff:     -0.661D-02-0.901D-02-0.796D-02 0.139D+00 0.352D+00 0.533D+00
 Gap=     0.126 Goal=   None    Shift=    0.000
 RMSDP=1.04D-07 MaxDP=4.14D-06 DE=-3.21D-09 OVMax= 9.10D-06

 Cycle  13  Pass 1  IDiag  1:
 RMSU=  6.57D-08    CP:  9.73D-01  6.91D-01  6.58D-01  8.73D-01  6.75D-01
                    CP:  9.32D-01  9.50D-01  8.91D-01  1.02D+00  1.01D+00
                    CP:  7.99D-01  7.45D-01
 E= -799.185830862570     Delta-E=       -0.000000000445 Rises=F Damp=F
 DIIS: error= 1.93D-07 at cycle  13 NSaved=  13.
 NSaved=13 IEnMin=13 EnMin= -799.185830862570     IErMin=13 ErrMin= 1.93D-07
 ErrMax= 1.93D-07  0.00D+00 EMaxC= 1.00D-01 BMatC= 4.15D-11 BMatP= 4.59D-10
 IDIUse=1 WtCom= 1.00D+00 WtEn= 0.00D+00
 Coeff-Com: -0.272D-05 0.629D-05-0.710D-06 0.430D-04 0.159D-04-0.257D-03
 Coeff-Com: -0.185D-02-0.332D-02-0.831D-02 0.213D-01 0.983D-01 0.268D+00
 Coeff-Com:  0.627D+00
 Coeff:     -0.272D-05 0.629D-05-0.710D-06 0.430D-04 0.159D-04-0.257D-03
 Coeff:     -0.185D-02-0.332D-02-0.831D-02 0.213D-01 0.983D-01 0.268D+00
 Coeff:      0.627D+00
 Gap=     0.126 Goal=   None    Shift=    0.000
 RMSDP=3.39D-08 MaxDP=1.49D-06 DE=-4.45D-10 OVMax= 2.29D-06

 Cycle  14  Pass 1  IDiag  1:
 RMSU=  2.27D-08    CP:  9.73D-01  6.91D-01  6.58D-01  8.73D-01  6.75D-01
                    CP:  9.32D-01  9.50D-01  8.91D-01  1.02D+00  1.01D+00
                    CP:  8.04D-01  8.34D-01  8.03D-01
 E= -799.185830862609     Delta-E=       -0.000000000039 Rises=F Damp=F
 DIIS: error= 7.17D-08 at cycle  14 NSaved=  14.
 NSaved=14 IEnMin=14 EnMin= -799.185830862609     IErMin=14 ErrMin= 7.17D-08
 ErrMax= 7.17D-08  0.00D+00 EMaxC= 1.00D-01 BMatC= 6.28D-12 BMatP= 4.15D-11
 IDIUse=1 WtCom= 1.00D+00 WtEn= 0.00D+00
 Coeff-Com: -0.131D-05 0.162D-05-0.362D-05 0.106D-04 0.236D-04 0.687D-04
 Coeff-Com: -0.534D-04-0.340D-03-0.291D-02-0.716D-02 0.608D-02 0.697D-01
 Coeff-Com:  0.339D+00 0.596D+00
 Coeff:     -0.131D-05 0.162D-05-0.362D-05 0.106D-04 0.236D-04 0.687D-04
 Coeff:     -0.534D-04-0.340D-03-0.291D-02-0.716D-02 0.608D-02 0.697D-01
 Coeff:      0.339D+00 0.596D+00
 Gap=     0.126 Goal=   None    Shift=    0.000
 RMSDP=1.20D-08 MaxDP=4.85D-07 DE=-3.87D-11 OVMax= 8.04D-07

 Cycle  15  Pass 1  IDiag  1:
 RMSU=  7.51D-09    CP:  9.73D-01  6.91D-01  6.58D-01  8.73D-01  6.75D-01
                    CP:  9.32D-01  9.50D-01  8.91D-01  1.02D+00  1.01D+00
                    CP:  8.09D-01  8.53D-01  8.77D-01  7.90D-01
 E= -799.185830862614     Delta-E=       -0.000000000005 Rises=F Damp=F
 DIIS: error= 1.71D-08 at cycle  15 NSaved=  15.
 NSaved=15 IEnMin=15 EnMin= -799.185830862614     IErMin=15 ErrMin= 1.71D-08
 ErrMax= 1.71D-08  0.00D+00 EMaxC= 1.00D-01 BMatC= 3.54D-13 BMatP= 6.28D-12
 IDIUse=1 WtCom= 1.00D+00 WtEn= 0.00D+00
 Coeff-Com: -0.253D-06 0.242D-06-0.140D-05-0.164D-05 0.399D-05 0.435D-04
 Coeff-Com:  0.168D-03 0.234D-03-0.112D-03-0.517D-02-0.820D-02-0.575D-02
 Coeff-Com:  0.607D-01 0.224D+00 0.734D+00
 Coeff:     -0.253D-06 0.242D-06-0.140D-05-0.164D-05 0.399D-05 0.435D-04
 Coeff:      0.168D-03 0.234D-03-0.112D-03-0.517D-02-0.820D-02-0.575D-02
 Coeff:      0.607D-01 0.224D+00 0.734D+00
 Gap=     0.126 Goal=   None    Shift=    0.000
 RMSDP=3.65D-09 MaxDP=1.08D-07 DE=-4.55D-12 OVMax= 3.09D-07

 Error on total polarization charges =  0.02159
 SCF Done:  E(RB3LYP) =  -799.185830863     A.U. after   15 cycles
            NFock= 15  Conv=0.37D-08     -V/T= 2.0082
 KE= 7.926984368448D+02 PE=-4.227258990945D+03 EE= 1.462426403073D+03
 Leave Link  502 at Sun Jul 11 16:02:47 2021, MaxMem=   104857600 cpu:             220.9 elap:              55.3
 (Enter /prod/apps/gaussian/g16b1/l601.exe)
 Copying SCF densities to generalized density rwf, IOpCl= 0 IROHF=0.

 **********************************************************************

            Population analysis using the SCF Density.

 **********************************************************************

 Orbital symmetries:
       Occupied  (A) (A) (A) (A) (A) (A) (A) (A) (A) (A) (A) (A)
                 (A) (A) (A) (A) (A) (A) (A) (A) (A) (A) (A) (A)
                 (A) (A) (A) (A) (A) (A) (A) (A) (A) (A) (A) (A)
                 (A) (A) (A) (A) (A) (A) (A) (A) (A) (A) (A) (A)
                 (A) (A) (A) (A) (A) (A) (A) (A) (A) (A) (A) (A)
                 (A)
       Virtual   (A) (A) (A) (A) (A) (A) (A) (A) (A) (A) (A) (A)
                 (A) (A) (A) (A) (A) (A) (A) (A) (A) (A) (A) (A)
                 (A) (A) (A) (A) (A) (A) (A) (A) (A) (A) (A) (A)
                 (A) (A) (A) (A) (A) (A) (A) (A) (A) (A) (A) (A)
                 (A) (A) (A) (A) (A) (A) (A) (A) (A) (A) (A) (A)
                 (A) (A) (A) (A) (A) (A) (A) (A) (A) (A) (A) (A)
                 (A) (A) (A) (A) (A) (A) (A) (A) (A) (A) (A) (A)
                 (A) (A) (A) (A) (A) (A) (A) (A) (A) (A) (A) (A)
                 (A) (A) (A) (A) (A) (A) (A) (A) (A) (A) (A) (A)
                 (A) (A) (A) (A) (A) (A) (A) (A) (A) (A) (A) (A)
                 (A) (A) (A) (A) (A) (A) (A) (A) (A) (A) (A) (A)
                 (A) (A) (A) (A) (A) (A) (A) (A) (A) (A) (A) (A)
                 (A) (A) (A) (A) (A) (A) (A) (A) (A) (A) (A) (A)
                 (A) (A) (A) (A) (A) (A) (A) (A) (A) (A) (A) (A)
                 (A) (A) (A) (A) (A) (A) (A) (A) (A) (A) (A) (A)
                 (A) (A) (A) (A) (A) (A) (A) (A) (A) (A) (A) (A)
                 (A) (A) (A) (A) (A) (A) (A) (A) (A) (A) (A) (A)
                 (A) (A) (A) (A) (A) (A) (A) (A) (A) (A) (A) (A)
 The electronic state is 1-A.
 Alpha  occ. eigenvalues --  -19.10978 -19.06260 -19.04130 -14.38647 -14.32720
 Alpha  occ. eigenvalues --  -10.26301 -10.25537 -10.24879 -10.24269 -10.22936
 Alpha  occ. eigenvalues --  -10.21900 -10.20848 -10.19076 -10.18635 -10.18027
 Alpha  occ. eigenvalues --  -10.17909 -10.17747  -1.03932  -1.01382  -1.00229
 Alpha  occ. eigenvalues --   -0.93023  -0.89009  -0.81731  -0.79802  -0.78307
 Alpha  occ. eigenvalues --   -0.74377  -0.71756  -0.66349  -0.64125  -0.62844
 Alpha  occ. eigenvalues --   -0.59203  -0.54979  -0.52747  -0.52503  -0.48244
 Alpha  occ. eigenvalues --   -0.48113  -0.46756  -0.44910  -0.44222  -0.43126
 Alpha  occ. eigenvalues --   -0.42530  -0.41595  -0.40981  -0.40586  -0.39706
 Alpha  occ. eigenvalues --   -0.38761  -0.38226  -0.37934  -0.36920  -0.36744
 Alpha  occ. eigenvalues --   -0.36571  -0.33535  -0.33209  -0.28049  -0.26451
 Alpha  occ. eigenvalues --   -0.25601  -0.24578  -0.21929  -0.21810  -0.20928
 Alpha  occ. eigenvalues --   -0.18560
 Alpha virt. eigenvalues --   -0.05989  -0.02273  -0.00483   0.06212   0.10614
 Alpha virt. eigenvalues --    0.10702   0.11804   0.12645   0.13979   0.14913
 Alpha virt. eigenvalues --    0.15757   0.16814   0.17165   0.18386   0.19034
 Alpha virt. eigenvalues --    0.19632   0.20336   0.21144   0.23601   0.25106
 Alpha virt. eigenvalues --    0.25627   0.26122   0.28650   0.29207   0.30849
 Alpha virt. eigenvalues --    0.31801   0.35289   0.36094   0.37330   0.40676
 Alpha virt. eigenvalues --    0.42678   0.45822   0.46275   0.47969   0.49119
 Alpha virt. eigenvalues --    0.49424   0.50633   0.52241   0.52592   0.53495
 Alpha virt. eigenvalues --    0.54384   0.55968   0.56522   0.58043   0.58862
 Alpha virt. eigenvalues --    0.59802   0.61219   0.61769   0.62354   0.62986
 Alpha virt. eigenvalues --    0.63998   0.64283   0.64760   0.66388   0.67440
 Alpha virt. eigenvalues --    0.69942   0.71412   0.72202   0.73810   0.74490
 Alpha virt. eigenvalues --    0.75034   0.76580   0.76830   0.77567   0.80769
 Alpha virt. eigenvalues --    0.81303   0.82671   0.83731   0.83952   0.84603
 Alpha virt. eigenvalues --    0.85974   0.88126   0.88523   0.89143   0.90928
 Alpha virt. eigenvalues --    0.91196   0.91791   0.93335   0.93544   0.95219
 Alpha virt. eigenvalues --    0.95940   0.96665   0.97922   0.99238   0.99722
 Alpha virt. eigenvalues --    1.00695   1.01155   1.02107   1.04364   1.05133
 Alpha virt. eigenvalues --    1.06199   1.08301   1.09823   1.10472   1.14178
 Alpha virt. eigenvalues --    1.15644   1.18222   1.19137   1.22549   1.23743
 Alpha virt. eigenvalues --    1.25878   1.28955   1.29767   1.31000   1.32467
 Alpha virt. eigenvalues --    1.32829   1.35119   1.39127   1.41300   1.42079
 Alpha virt. eigenvalues --    1.44755   1.45566   1.46604   1.49198   1.50099
 Alpha virt. eigenvalues --    1.52896   1.54327   1.59567   1.61571   1.63840
 Alpha virt. eigenvalues --    1.67264   1.69371   1.71600   1.72701   1.73763
 Alpha virt. eigenvalues --    1.75318   1.77214   1.77496   1.78534   1.81748
 Alpha virt. eigenvalues --    1.83767   1.84885   1.86141   1.86756   1.87695
 Alpha virt. eigenvalues --    1.89127   1.89916   1.90502   1.91412   1.93301
 Alpha virt. eigenvalues --    1.95144   1.95362   1.96465   1.98771   1.98972
 Alpha virt. eigenvalues --    2.01323   2.02519   2.05981   2.06298   2.11290
 Alpha virt. eigenvalues --    2.11971   2.12528   2.13967   2.14731   2.16180
 Alpha virt. eigenvalues --    2.18474   2.21011   2.22614   2.24568   2.27986
 Alpha virt. eigenvalues --    2.28300   2.30787   2.32609   2.33901   2.34966
 Alpha virt. eigenvalues --    2.36101   2.36950   2.38381   2.44231   2.44883
 Alpha virt. eigenvalues --    2.46345   2.49681   2.50326   2.54755   2.57444
 Alpha virt. eigenvalues --    2.58859   2.62774   2.63811   2.66891   2.67907
 Alpha virt. eigenvalues --    2.71799   2.72687   2.74007   2.76521   2.77183
 Alpha virt. eigenvalues --    2.80807   2.82347   2.83831   2.90132   2.90373
 Alpha virt. eigenvalues --    2.95808   2.99399   3.01159   3.07174   3.08261
 Alpha virt. eigenvalues --    3.21508   3.26269   3.44259   3.49955   3.88477
 Alpha virt. eigenvalues --    3.99591   4.04863   4.09411   4.14254   4.17280
 Alpha virt. eigenvalues --    4.21575   4.23954   4.28623   4.32354   4.38123
 Alpha virt. eigenvalues --    4.45427   4.46819   4.49285   4.58695   4.68189
 Alpha virt. eigenvalues --    4.82772
          Condensed to atoms (all electrons):
               1          2          3          4          5          6
     1  C    5.097600   0.374657   0.370242   0.379646   0.367911  -0.051553
     2  H    0.374657   0.566917  -0.037923  -0.033369  -0.029379   0.005622
     3  H    0.370242  -0.037923   0.550130  -0.016201  -0.031020  -0.006517
     4  H    0.379646  -0.033369  -0.016201   0.537067  -0.035236  -0.002647
     5  C    0.367911  -0.029379  -0.031020  -0.035236   4.930102   0.371901
     6  H   -0.051553   0.005622  -0.006517  -0.002647   0.371901   0.559109
     7  H   -0.035894  -0.006117   0.002215   0.004424   0.374339  -0.037929
     8  N   -0.056413   0.000137   0.003982  -0.004259   0.291891  -0.037262
     9  C    0.001783   0.001137  -0.000101  -0.000144  -0.040705   0.002662
    10  H   -0.000044   0.000093  -0.000009   0.000013  -0.003238   0.000170
    11  C   -0.000266  -0.000135   0.000006   0.000054   0.005652  -0.000217
    12  C   -0.000001   0.000000   0.000000  -0.000001  -0.000010   0.000002
    13  O   -0.000000  -0.000000   0.000000  -0.000000   0.000001  -0.000000
    14  O   -0.000001  -0.000000   0.000000   0.000000   0.000002  -0.000000
    15  C    0.000123  -0.000002  -0.000001  -0.000030  -0.000414  -0.000077
    16  O   -0.000000   0.000000   0.000000  -0.000000   0.000002   0.000000
    17  C   -0.000297   0.000016  -0.000003  -0.000061   0.007296   0.000952
    18  C   -0.000000  -0.000000   0.000000   0.000015   0.000013   0.000043
    19  H   -0.000000  -0.000000   0.000000  -0.000000   0.000003   0.000000
    20  C   -0.000003  -0.000000   0.000000  -0.000004  -0.000057   0.000073
    21  H    0.000000   0.000000   0.000000  -0.000000  -0.000000  -0.000001
    22  C   -0.000006   0.000000   0.000000  -0.000031   0.000636  -0.000161
    23  C   -0.000001   0.000000   0.000000  -0.000002  -0.000002  -0.000032
    24  H   -0.000000   0.000000   0.000000   0.000000  -0.000011   0.000054
    25  H    0.000000  -0.000000  -0.000000   0.000000   0.000000   0.000001
    26  H    0.000002  -0.000000  -0.000000   0.000002  -0.000007   0.000032
    27  N    0.000730  -0.000008  -0.000085   0.000559  -0.017039   0.021531
    28  C    0.000246  -0.000150  -0.000060   0.003288  -0.035929  -0.004189
               7          8          9         10         11         12
     1  C   -0.035894  -0.056413   0.001783  -0.000044  -0.000266  -0.000001
     2  H   -0.006117   0.000137   0.001137   0.000093  -0.000135   0.000000
     3  H    0.002215   0.003982  -0.000101  -0.000009   0.000006   0.000000
     4  H    0.004424  -0.004259  -0.000144   0.000013   0.000054  -0.000001
     5  C    0.374339   0.291891  -0.040705  -0.003238   0.005652  -0.000010
     6  H   -0.037929  -0.037262   0.002662   0.000170  -0.000217   0.000002
     7  H    0.555233  -0.037473  -0.003250   0.004166   0.000765  -0.000001
     8  N   -0.037473   6.990391   0.295100  -0.040389  -0.039528   0.003000
     9  C   -0.003250   0.295100   5.072562   0.362283   0.394879  -0.029974
    10  H    0.004166  -0.040389   0.362283   0.491082  -0.038902   0.000170
    11  C    0.000765  -0.039528   0.394879  -0.038902   5.837563   0.180242
    12  C   -0.000001   0.003000  -0.029974   0.000170   0.180242   4.316758
    13  O   -0.000000  -0.000030   0.006597   0.000321  -0.141135   0.524440
    14  O   -0.000002   0.000516   0.014920   0.014423  -0.163555   0.584525
    15  C   -0.000042  -0.024314  -0.042734   0.001489   0.247207  -0.013630
    16  O   -0.000000  -0.000010   0.004867  -0.000024  -0.095402  -0.004916
    17  C   -0.000198  -0.072062  -0.032449  -0.000266  -0.052389   0.006558
    18  C    0.000005   0.005692  -0.000584   0.000017   0.018574  -0.000053
    19  H   -0.000000  -0.000046  -0.000041   0.000000   0.000806   0.000009
    20  C    0.000001   0.000492   0.000022  -0.000000  -0.000246   0.000001
    21  H   -0.000000   0.000014   0.000000   0.000000   0.000002  -0.000000
    22  C   -0.000017   0.002695  -0.000027   0.000001  -0.000049   0.000000
    23  C   -0.000001  -0.000233   0.000002  -0.000000   0.000000   0.000000
    24  H    0.000000   0.000001  -0.000000   0.000000   0.000000   0.000000
    25  H    0.000000   0.000002  -0.000000   0.000000   0.000000   0.000000
    26  H   -0.000000  -0.000006   0.000000  -0.000000   0.000000  -0.000000
    27  N    0.000696  -0.088061   0.002055  -0.000101  -0.001244  -0.000007
    28  C    0.002982   0.281815  -0.027813   0.002837  -0.048636   0.000045
              13         14         15         16         17         18
     1  C   -0.000000  -0.000001   0.000123  -0.000000  -0.000297  -0.000000
     2  H   -0.000000  -0.000000  -0.000002   0.000000   0.000016  -0.000000
     3  H    0.000000   0.000000  -0.000001   0.000000  -0.000003   0.000000
     4  H   -0.000000   0.000000  -0.000030  -0.000000  -0.000061   0.000015
     5  C    0.000001   0.000002  -0.000414   0.000002   0.007296   0.000013
     6  H   -0.000000  -0.000000  -0.000077   0.000000   0.000952   0.000043
     7  H   -0.000000  -0.000002  -0.000042  -0.000000  -0.000198   0.000005
     8  N   -0.000030   0.000516  -0.024314  -0.000010  -0.072062   0.005692
     9  C    0.006597   0.014920  -0.042734   0.004867  -0.032449  -0.000584
    10  H    0.000321   0.014423   0.001489  -0.000024  -0.000266   0.000017
    11  C   -0.141135  -0.163555   0.247207  -0.095402  -0.052389   0.018574
    12  C    0.524440   0.584525  -0.013630  -0.004916   0.006558  -0.000053
    13  O    8.501636  -0.146855   0.006854  -0.011326   0.000689   0.000013
    14  O   -0.146855   8.333445   0.001959  -0.000027  -0.000090   0.000000
    15  C    0.006854   0.001959   4.676938   0.606945   0.231648  -0.062427
    16  O   -0.011326  -0.000027   0.606945   8.132285  -0.122514   0.007964
    17  C    0.000689  -0.000090   0.231648  -0.122514   5.290532   0.439211
    18  C    0.000013   0.000000  -0.062427   0.007964   0.439211   5.111056
    19  H    0.000002   0.000000  -0.007511   0.013175  -0.049972   0.365630
    20  C   -0.000000   0.000000   0.007591   0.001251  -0.022546   0.471616
    21  H    0.000000   0.000000  -0.000078   0.000000   0.004702  -0.042551
    22  C    0.000000  -0.000000   0.000404  -0.000016  -0.031223  -0.037353
    23  C    0.000000   0.000000   0.000008  -0.000000   0.001278   0.005545
    24  H    0.000000  -0.000000  -0.000000  -0.000000   0.000011  -0.000166
    25  H    0.000000   0.000000  -0.000001   0.000000  -0.000027   0.000510
    26  H   -0.000000   0.000000  -0.000000   0.000000   0.000006  -0.000173
    27  N   -0.000000   0.000000   0.009783  -0.000079  -0.050037  -0.067379
    28  C   -0.000054   0.000023   0.009946   0.004599   0.413955  -0.085902
              19         20         21         22         23         24
     1  C   -0.000000  -0.000003   0.000000  -0.000006  -0.000001  -0.000000
     2  H   -0.000000  -0.000000   0.000000   0.000000   0.000000   0.000000
     3  H    0.000000   0.000000   0.000000   0.000000   0.000000   0.000000
     4  H   -0.000000  -0.000004  -0.000000  -0.000031  -0.000002   0.000000
     5  C    0.000003  -0.000057  -0.000000   0.000636  -0.000002  -0.000011
     6  H    0.000000   0.000073  -0.000001  -0.000161  -0.000032   0.000054
     7  H   -0.000000   0.000001  -0.000000  -0.000017  -0.000001   0.000000
     8  N   -0.000046   0.000492   0.000014   0.002695  -0.000233   0.000001
     9  C   -0.000041   0.000022   0.000000  -0.000027   0.000002  -0.000000
    10  H    0.000000  -0.000000   0.000000   0.000001  -0.000000   0.000000
    11  C    0.000806  -0.000246   0.000002  -0.000049   0.000000   0.000000
    12  C    0.000009   0.000001  -0.000000   0.000000   0.000000   0.000000
    13  O    0.000002  -0.000000   0.000000   0.000000   0.000000   0.000000
    14  O    0.000000   0.000000   0.000000  -0.000000   0.000000  -0.000000
    15  C   -0.007511   0.007591  -0.000078   0.000404   0.000008  -0.000000
    16  O    0.013175   0.001251   0.000000  -0.000016  -0.000000  -0.000000
    17  C   -0.049972  -0.022546   0.004702  -0.031223   0.001278   0.000011
    18  C    0.365630   0.471616  -0.042551  -0.037353   0.005545  -0.000166
    19  H    0.539787  -0.038710  -0.004724   0.004683  -0.000209   0.000003
    20  C   -0.038710   5.019223   0.351058   0.538404  -0.068026   0.003242
    21  H   -0.004724   0.351058   0.578672  -0.039768  -0.007645   0.000242
    22  C    0.004683   0.538404  -0.039768   4.566596   0.373103  -0.021940
    23  C   -0.000209  -0.068026  -0.007645   0.373103   5.209174   0.354820
    24  H    0.000003   0.003242   0.000242  -0.021940   0.354820   0.537784
    25  H    0.000002   0.002256   0.005302  -0.039065   0.360798  -0.020859
    26  H    0.000003  -0.001583  -0.000162  -0.022917   0.372238  -0.026231
    27  N   -0.000369  -0.034877   0.006352   0.427235  -0.083053   0.000659
    28  C    0.004141  -0.026623   0.000914  -0.053394   0.002361   0.000049
              25         26         27         28
     1  C    0.000000   0.000002   0.000730   0.000246
     2  H   -0.000000  -0.000000  -0.000008  -0.000150
     3  H   -0.000000  -0.000000  -0.000085  -0.000060
     4  H    0.000000   0.000002   0.000559   0.003288
     5  C    0.000000  -0.000007  -0.017039  -0.035929
     6  H    0.000001   0.000032   0.021531  -0.004189
     7  H    0.000000  -0.000000   0.000696   0.002982
     8  N    0.000002  -0.000006  -0.088061   0.281815
     9  C   -0.000000   0.000000   0.002055  -0.027813
    10  H    0.000000  -0.000000  -0.000101   0.002837
    11  C    0.000000   0.000000  -0.001244  -0.048636
    12  C    0.000000  -0.000000  -0.000007   0.000045
    13  O    0.000000  -0.000000  -0.000000  -0.000054
    14  O    0.000000   0.000000   0.000000   0.000023
    15  C   -0.000001  -0.000000   0.009783   0.009946
    16  O    0.000000   0.000000  -0.000079   0.004599
    17  C   -0.000027   0.000006  -0.050037   0.413955
    18  C    0.000510  -0.000173  -0.067379  -0.085902
    19  H    0.000002   0.000003  -0.000369   0.004141
    20  C    0.002256  -0.001583  -0.034877  -0.026623
    21  H    0.005302  -0.000162   0.006352   0.000914
    22  C   -0.039065  -0.022917   0.427235  -0.053394
    23  C    0.360798   0.372238  -0.083053   0.002361
    24  H   -0.020859  -0.026231   0.000659   0.000049
    25  H    0.552756  -0.031827   0.004709  -0.000124
    26  H   -0.031827   0.527288  -0.002295   0.000477
    27  N    0.004709  -0.002295   7.045473   0.427749
    28  C   -0.000124   0.000477   0.427749   4.637434
 Mulliken charges:
               1
     1  C   -0.448461
     2  H    0.158506
     3  H    0.165344
     4  H    0.166919
     5  C   -0.156701
     6  H    0.178433
     7  H    0.176099
     8  N   -0.475642
     9  C    0.018951
    10  H    0.205906
    11  C   -0.104046
    12  C    0.432844
    13  O   -0.741152
    14  O   -0.639284
    15  C    0.350367
    16  O   -0.536777
    17  C    0.037281
    18  C   -0.129315
    19  H    0.173338
    20  C   -0.202555
    21  H    0.147671
    22  C    0.332209
    23  C   -0.520121
    24  H    0.172343
    25  H    0.165567
    26  H    0.185155
    27  N   -0.602896
    28  C    0.490016
 Sum of Mulliken charges =  -1.00000
 Mulliken charges with hydrogens summed into heavy atoms:
               1
     1  C    0.042307
     5  C    0.197831
     8  N   -0.475642
     9  C    0.224857
    11  C   -0.104046
    12  C    0.432844
    13  O   -0.741152
    14  O   -0.639284
    15  C    0.350367
    16  O   -0.536777
    17  C    0.037281
    18  C    0.044023
    20  C   -0.054884
    22  C    0.332209
    23  C    0.002945
    27  N   -0.602896
    28  C    0.490016
 Electronic spatial extent (au):  <R**2>=           4197.4422
 Charge=             -1.0000 electrons
 Dipole moment (field-independent basis, Debye):
    X=             22.8329    Y=              6.8811    Z=              0.0408  Tot=             23.8472
 Quadrupole moment (field-independent basis, Debye-Ang):
   XX=           -176.6011   YY=           -101.6933   ZZ=            -98.4035
   XY=            -21.1723   XZ=             -1.8570   YZ=              3.1540
 Traceless Quadrupole moment (field-independent basis, Debye-Ang):
   XX=            -51.0352   YY=             23.8727   ZZ=             27.1625
   XY=            -21.1723   XZ=             -1.8570   YZ=              3.1540
 Octapole moment (field-independent basis, Debye-Ang**2):
  XXX=            377.2757  YYY=             49.8119  ZZZ=             -0.5237  XYY=             52.4991
  XXY=             27.2325  XXZ=             16.9559  XZZ=             -1.4277  YZZ=              3.5946
  YYZ=             -6.1666  XYZ=            -10.5389
 Hexadecapole moment (field-independent basis, Debye-Ang**3):
 XXXX=          -4781.2828 YYYY=          -1569.3070 ZZZZ=           -280.4629 XXXY=           -179.8369
 XXXZ=            -96.6843 YYYX=            -83.2871 YYYZ=             -3.4770 ZZZX=             -4.6434
 ZZZY=             -7.3895 XXYY=           -980.0477 XXZZ=           -651.2928 YYZZ=           -322.0964
 XXYZ=             36.9698 YYXZ=             22.6526 ZZXY=              5.8248
 N-N= 1.172948320165D+03 E-N=-4.227258991775D+03  KE= 7.926984368448D+02
 No NMR shielding tensors so no spin-rotation constants.
 Leave Link  601 at Sun Jul 11 16:02:47 2021, MaxMem=   104857600 cpu:               0.4 elap:               0.1
 (Enter /prod/apps/gaussian/g16b1/l701.exe)
 ... and contract with generalized density number  0.
 Compute integral first derivatives.
 D1PCM: PCM CHGder 1st derivatives, ID1Alg=3 FixD1E=F DoIter=F DoCFld=F I1PDM=0.
 GePol: Maximum number of non-zero 1st derivatives   =     174
 Leave Link  701 at Sun Jul 11 16:02:49 2021, MaxMem=   104857600 cpu:               6.7 elap:               1.7
 (Enter /prod/apps/gaussian/g16b1/l702.exe)
 L702 exits ... SP integral derivatives will be done elsewhere.
 Leave Link  702 at Sun Jul 11 16:02:49 2021, MaxMem=   104857600 cpu:               0.1 elap:               0.0
 (Enter /prod/apps/gaussian/g16b1/l703.exe)
 Integral derivatives from FoFJK, PRISM(SPDF).
 Compute integral first derivatives, UseDBF=F ICtDFT=           0.
 Calling FoFJK, ICntrl=      2127 FMM=F ISym2X=0 I1Cent= 0 IOpClX= 0 NMat=1 NMatS=1 NMatT=0.
 FoFJK:  IHMeth= 1 ICntrl=    2127 DoSepK=F KAlg= 0 I1Cent=           0 FoldK=F
 IRaf=         0 NMat=       1 IRICut=       1 DoRegI=T DoRafI=F ISym2E= 0 IDoP0=0 IntGTp=1.
 FoFCou: FMM=F IPFlag=           0 FMFlag=      100000 FMFlg1=         800
         NFxFlg=           0 DoJE=F BraDBF=F KetDBF=F FulRan=T
         wScrn=  0.000000 ICntrl=      2127 IOpCl=  0 I1Cent=           0 NGrid=           0
         NMat0=    1 NMatS0=      1 NMatT0=    0 NMatD0=    1 NMtDS0=    0 NMtDT0=    0
 Symmetry not used in FoFCou.
 Leave Link  703 at Sun Jul 11 16:03:01 2021, MaxMem=   104857600 cpu:              45.8 elap:              11.5
 (Enter /prod/apps/gaussian/g16b1/l716.exe)
 Dipole        = 8.98313938D+00 2.70722170D+00 1.60352565D-02
 ***** Axes restored to original set *****
 -------------------------------------------------------------------
 Center     Atomic                   Forces (Hartrees/Bohr)
 Number     Number              X              Y              Z
 -------------------------------------------------------------------
      1        6          -0.016475477    0.016096396    0.008792804
      2        1          -0.008984235   -0.001272352   -0.006423533
      3        1           0.005229193   -0.011192831    0.006988935
      4        1           0.010334436    0.000016204    0.004871678
      5        6           0.033016981   -0.001188006   -0.026175140
      6        1          -0.003463445   -0.011486023   -0.004799796
      7        1          -0.013414046    0.004677360    0.006192511
      8        7          -0.000694701    0.074745277   -0.011242159
      9        6          -0.007069503   -0.080036449    0.028537488
     10        1          -0.008623316   -0.002840130    0.005208524
     11        6           0.016326838    0.038596001   -0.005598972
     12        6          -0.054470694   -0.088608744   -0.009157001
     13        8           0.016652552   -0.009333724    0.001535381
     14        8           0.014826531    0.100436406   -0.003043960
     15        6           0.045149774    0.070289470    0.008029856
     16        8          -0.058763833   -0.060514118   -0.009873360
     17        6          -0.046613559   -0.014268085   -0.006190350
     18        6           0.031928539    0.003190112   -0.021686468
     19        1          -0.006761304    0.009781855    0.005247271
     20        6          -0.027552847   -0.056644961   -0.011799873
     21        1          -0.003455258   -0.002370463    0.002971939
     22        6          -0.004011116    0.052846275    0.049755385
     23        6           0.014501107   -0.014754700   -0.010196498
     24        1           0.002538468   -0.000770436    0.000564393
     25        1           0.007390878   -0.000090935   -0.007072303
     26        1          -0.004483162    0.009129779    0.001920675
     27        7           0.009245166    0.021093620   -0.009078677
     28        6           0.057696031   -0.045526796    0.011721251
 -------------------------------------------------------------------
 Cartesian Forces:  Max     0.100436406 RMS     0.029755860
 Leave Link  716 at Sun Jul 11 16:03:01 2021, MaxMem=   104857600 cpu:               0.1 elap:               0.0
 (Enter /prod/apps/gaussian/g16b1/l103.exe)

 GradGradGradGradGradGradGradGradGradGradGradGradGradGradGradGradGradGrad
 Berny optimization.
 FormGI is forming the generalized inverse of G from B-inverse, IUseBI=4.
 Internal  Forces:  Max     0.096103226 RMS     0.016239198
 Search for a local minimum.
 Step number   1 out of a maximum of  153
 All quantities printed in internal units (Hartrees-Bohrs-Radians)
 RMS Force = .16239D-01 SwitMx=.10000D-02 MixMth= 1
 Mixed Optimization -- RFO/linear search
 Second derivative matrix not updated -- first step.
 ITU=  0
     Eigenvalues ---    0.00726   0.00766   0.01028   0.01049   0.01061
     Eigenvalues ---    0.01100   0.01271   0.01307   0.01649   0.01826
     Eigenvalues ---    0.01966   0.02060   0.02158   0.02245   0.02346
     Eigenvalues ---    0.02410   0.02460   0.02571   0.02608   0.03463
     Eigenvalues ---    0.05454   0.05454   0.06123   0.06843   0.07809
     Eigenvalues ---    0.10404   0.13585   0.15470   0.15944   0.15993
     Eigenvalues ---    0.16000   0.16000   0.16000   0.16000   0.16000
     Eigenvalues ---    0.16000   0.21725   0.22112   0.22564   0.23331
     Eigenvalues ---    0.23748   0.24044   0.24665   0.24735   0.24780
     Eigenvalues ---    0.24940   0.24984   0.25000   0.25000   0.32033
     Eigenvalues ---    0.32374   0.34429   0.34550   0.34550   0.34551
     Eigenvalues ---    0.34560   0.34565   0.34570   0.34575   0.34655
     Eigenvalues ---    0.34839   0.35135   0.35161   0.35386   0.35500
     Eigenvalues ---    0.35645   0.41215   0.44039   0.44307   0.44431
     Eigenvalues ---    0.47787   0.51848   0.52960   0.54489   0.55259
     Eigenvalues ---    0.68943   1.02765   1.11678
 RFO step:  Lambda=-8.14989458D-02 EMin= 7.26404241D-03
 Linear search not attempted -- first point.
 Maximum step size (   0.300) exceeded in Quadratic search.
    -- Step size scaled by   0.738
 Iteration  1 RMS(Cart)=  0.05546276 RMS(Int)=  0.00178967
 Iteration  2 RMS(Cart)=  0.00360122 RMS(Int)=  0.00051070
 Iteration  3 RMS(Cart)=  0.00000748 RMS(Int)=  0.00051067
 Iteration  4 RMS(Cart)=  0.00000000 RMS(Int)=  0.00051067
[...]
 Alpha virt. eigenvalues --    0.76794   0.77132   0.77501   0.77668   0.78936
 Alpha virt. eigenvalues --    0.79123   0.79377   0.79941   0.80267   0.80709
 Alpha virt. eigenvalues --    0.81038   0.82239   0.82442   0.83125   0.83906
 Alpha virt. eigenvalues --    0.84338   0.84516   0.85014   0.85454   0.86202
 Alpha virt. eigenvalues --    0.86614   0.87197   0.87442   0.88501   0.89337
 Alpha virt. eigenvalues --    0.90008   0.90356   0.90877   0.91235   0.91543
 Alpha virt. eigenvalues --    0.92272   0.93584   0.94446   0.94947   0.95733
 Alpha virt. eigenvalues --    0.96385   0.97507   0.97812   0.98617   0.98985
 Alpha virt. eigenvalues --    0.99667   1.00009   1.01045   1.01685   1.01796
 Alpha virt. eigenvalues --    1.02255   1.02559   1.03089   1.04783   1.05079
 Alpha virt. eigenvalues --    1.05527   1.06085   1.06579   1.06887   1.07099
 Alpha virt. eigenvalues --    1.08341   1.08868   1.09664   1.10676   1.11332
 Alpha virt. eigenvalues --    1.12271   1.12827   1.13108   1.13519   1.13983
 Alpha virt. eigenvalues --    1.14717   1.16169   1.17025   1.17883   1.18001
 Alpha virt. eigenvalues --    1.19264   1.20086   1.20622   1.22148   1.22677
 Alpha virt. eigenvalues --    1.22712   1.25220   1.25327   1.25587   1.26618
 Alpha virt. eigenvalues --    1.27076   1.27457   1.28064   1.29891   1.30994
 Alpha virt. eigenvalues --    1.31280   1.31825   1.33458   1.34214   1.35823
 Alpha virt. eigenvalues --    1.37011   1.37702   1.38757   1.39347   1.40387
 Alpha virt. eigenvalues --    1.41253   1.43148   1.43728   1.46143   1.46358
 Alpha virt. eigenvalues --    1.48525   1.49556   1.50522   1.52193   1.52707
 Alpha virt. eigenvalues --    1.52888   1.53751   1.54297   1.55664   1.56560
 Alpha virt. eigenvalues --    1.58033   1.59074   1.59934   1.60473   1.61525
 Alpha virt. eigenvalues --    1.61798   1.64178   1.65484   1.66224   1.66786
 Alpha virt. eigenvalues --    1.67889   1.68474   1.69880   1.71160   1.72289
 Alpha virt. eigenvalues --    1.73339   1.74751   1.75990   1.76430   1.77434
 Alpha virt. eigenvalues --    1.78667   1.79939   1.80388   1.81534   1.82131
 Alpha virt. eigenvalues --    1.82749   1.83002   1.84513   1.85099   1.86090
 Alpha virt. eigenvalues --    1.86357   1.87846   1.88169   1.89025   1.90548
 Alpha virt. eigenvalues --    1.91508   1.92675   1.93220   1.94442   1.95813
 Alpha virt. eigenvalues --    1.96255   1.96781   1.97155   1.97556   1.98523
 Alpha virt. eigenvalues --    1.99136   1.99991   2.00452   2.02007   2.02738
 Alpha virt. eigenvalues --    2.03510   2.04124   2.04512   2.05051   2.06485
 Alpha virt. eigenvalues --    2.07872   2.08396   2.09984   2.10527   2.12489
 Alpha virt. eigenvalues --    2.14048   2.14339   2.15677   2.16601   2.17632
 Alpha virt. eigenvalues --    2.19589   2.20841   2.21018   2.21937   2.23267
 Alpha virt. eigenvalues --    2.24163   2.25102   2.25326   2.26463   2.27464
 Alpha virt. eigenvalues --    2.27874   2.28790   2.30687   2.30933   2.33328
 Alpha virt. eigenvalues --    2.34266   2.34655   2.35395   2.35726   2.36753
 Alpha virt. eigenvalues --    2.37138   2.38236   2.39947   2.40210   2.41058
 Alpha virt. eigenvalues --    2.42618   2.43731   2.45179   2.46300   2.47299
 Alpha virt. eigenvalues --    2.47499   2.49432   2.51005   2.51865   2.52757
 Alpha virt. eigenvalues --    2.53673   2.54567   2.55525   2.56217   2.59248
 Alpha virt. eigenvalues --    2.59414   2.60497   2.62442   2.62670   2.64329
 Alpha virt. eigenvalues --    2.64850   2.66202   2.68643   2.69097   2.70557
 Alpha virt. eigenvalues --    2.71355   2.73481   2.74265   2.75924   2.77526
 Alpha virt. eigenvalues --    2.78964   2.81409   2.81824   2.82590   2.85563
 Alpha virt. eigenvalues --    2.86700   2.88740   2.91102   2.92605   2.94219
 Alpha virt. eigenvalues --    2.95190   2.96688   2.97748   2.98679   2.99589
 Alpha virt. eigenvalues --    3.01228   3.02514   3.03830   3.05578   3.09979
 Alpha virt. eigenvalues --    3.12420   3.13906   3.14792   3.16418   3.20488
 Alpha virt. eigenvalues --    3.21098   3.22415   3.23987   3.26845   3.31167
 Alpha virt. eigenvalues --    3.33495   3.34735   3.36951   3.40042   3.44731
 Alpha virt. eigenvalues --    3.49113   3.52732   3.54096   3.56416   3.63173
 Alpha virt. eigenvalues --    3.70465   3.78548   3.80817   3.89075   3.93939
 Alpha virt. eigenvalues --    3.94460   3.97749   3.98871   4.00758   4.02522
 Alpha virt. eigenvalues --    4.03143   4.05299   4.06915   4.10582   4.13646
 Alpha virt. eigenvalues --    4.17414   4.23383   4.23655   4.28921   4.35212
 Alpha virt. eigenvalues --    4.39985   4.41918   4.50573   4.82821
          Condensed to atoms (all electrons):
               1          2          3          4          5          6
     1  C    4.327928   0.349499   0.326456   0.390171   0.315493  -0.054426
     2  H    0.349499   1.167121  -0.190336  -0.134271  -0.126994   0.089640
     3  H    0.326456  -0.190336   1.199705  -0.160902  -0.011147  -0.061754
     4  H    0.390171  -0.134271  -0.160902   0.992013  -0.020082  -0.061349
     5  C    0.315493  -0.126994  -0.011147  -0.020082   5.352097   0.150866
     6  H   -0.054426   0.089640  -0.061754  -0.061349   0.150866   1.562019
     7  H   -0.154001  -0.064919  -0.083582   0.087955   0.281889  -0.377188
     8  N    0.054842  -0.025655   0.112926  -0.066250   0.196786  -0.348722
     9  C   -0.270491  -0.102788   0.057728   0.034526  -0.451813  -0.371143
    10  H   -0.011073  -0.027524   0.011335   0.002051  -0.002947  -0.003319
    11  C    0.044959   0.010008   0.007914  -0.010123  -0.126965   0.116767
    12  C   -0.009178   0.001184  -0.000654   0.000391  -0.024679  -0.002594
    13  O   -0.000599  -0.000012  -0.000014  -0.000031   0.003640   0.000098
    14  O   -0.005829   0.002830  -0.000461  -0.000602  -0.003484   0.000470
    15  C    0.015148   0.000834  -0.002151   0.012282   0.140963   0.003310
    16  O    0.000683   0.000532   0.000005  -0.000196  -0.004709  -0.000001
    17  C   -0.018668  -0.013343   0.006363  -0.020048  -0.291600  -0.239052
    18  C   -0.007378  -0.004465  -0.001466   0.022777   0.274540  -0.018596
    19  H    0.000245  -0.000246  -0.000034   0.000303  -0.001917  -0.000325
    20  C    0.031436   0.001998   0.006070  -0.018153  -0.161317  -0.000024
    21  H   -0.000794   0.000141   0.000043  -0.000214   0.007024   0.001500
    22  C    0.030945  -0.009148  -0.027894   0.077393   0.021157   0.102498
    23  C   -0.011080  -0.002340  -0.003177   0.006756  -0.009277  -0.014928
    24  H    0.000842  -0.000248  -0.000167   0.001915  -0.002823  -0.003056
    25  H   -0.000770   0.000021  -0.000218   0.000212   0.000532   0.000159
    26  H    0.001094  -0.000192  -0.000291  -0.000659  -0.002713   0.001480
    27  N    0.076685   0.002506  -0.030943   0.061753  -0.145146   0.040200
    28  C    0.036132   0.163398  -0.059411  -0.125980   0.027485   0.682353
               7          8          9         10         11         12
     1  C   -0.154001   0.054842  -0.270491  -0.011073   0.044959  -0.009178
     2  H   -0.064919  -0.025655  -0.102788  -0.027524   0.010008   0.001184
     3  H   -0.083582   0.112926   0.057728   0.011335   0.007914  -0.000654
     4  H    0.087955  -0.066250   0.034526   0.002051  -0.010123   0.000391
     5  C    0.281889   0.196786  -0.451813  -0.002947  -0.126965  -0.024679
     6  H   -0.377188  -0.348722  -0.371143  -0.003319   0.116767  -0.002594
     7  H    1.791997  -0.426586   0.677742  -0.033283  -0.210389   0.005157
     8  N   -0.426586  10.434287  -0.105282  -0.254475   0.065288  -0.124663
     9  C    0.677742  -0.105282  23.694240  -0.770572  -4.214028  -0.500857
    10  H   -0.033283  -0.254475  -0.770572   2.366010   0.365968   0.138244
    11  C   -0.210389   0.065288  -4.214028   0.365968  12.251117  -0.828463
    12  C    0.005157  -0.124663  -0.500857   0.138244  -0.828463   7.112400
    13  O    0.000564  -0.002665  -0.106026   0.005207  -0.034574   0.264345
    14  O    0.004030  -0.130845   0.286451  -0.009343  -0.015376   0.145920
    15  C    0.028776  -0.493004  -2.239294   0.154870  -2.807972  -0.762261
    16  O   -0.000455   0.013121   0.066235  -0.005957   0.050874  -0.097181
    17  C    0.126013   0.191533   4.906516   0.034494  -1.426744   0.218645
    18  C    0.040801  -0.041157  -0.617733  -0.053547  -1.066604  -0.055817
    19  H    0.000444  -0.020062   0.010998   0.001477  -0.051276   0.000981
    20  C   -0.024934   0.529357   1.274101   0.035607  -0.795950   0.016465
    21  H    0.000261  -0.024767  -0.023892  -0.000774   0.012468  -0.000253
    22  C    0.012183  -1.412371  -2.358613  -0.032635   0.668404  -0.019355
    23  C    0.004198  -0.010989  -0.025524   0.002148   0.037374   0.000964
    24  H    0.000371  -0.017856  -0.011621   0.000081   0.002168   0.000040
    25  H    0.000270   0.014716   0.007471   0.000202  -0.000097   0.000065
    26  H   -0.000438  -0.011872  -0.008135   0.000142   0.000784  -0.000020
    27  N    0.067332  -0.379941  -0.787355  -0.060265   0.051388  -0.036078
    28  C   -0.484306  -0.389233 -12.734937  -0.099923   3.531890  -0.302435
              13         14         15         16         17         18
     1  C   -0.000599  -0.005829   0.015148   0.000683  -0.018668  -0.007378
     2  H   -0.000012   0.002830   0.000834   0.000532  -0.013343  -0.004465
     3  H   -0.000014  -0.000461  -0.002151   0.000005   0.006363  -0.001466
     4  H   -0.000031  -0.000602   0.012282  -0.000196  -0.020048   0.022777
     5  C    0.003640  -0.003484   0.140963  -0.004709  -0.291600   0.274540
     6  H    0.000098   0.000470   0.003310  -0.000001  -0.239052  -0.018596
     7  H    0.000564   0.004030   0.028776  -0.000455   0.126013   0.040801
     8  N   -0.002665  -0.130845  -0.493004   0.013121   0.191533  -0.041157
     9  C   -0.106026   0.286451  -2.239294   0.066235   4.906516  -0.617733
    10  H    0.005207  -0.009343   0.154870  -0.005957   0.034494  -0.053547
    11  C   -0.034574  -0.015376  -2.807972   0.050874  -1.426744  -1.066604
    12  C    0.264345   0.145920  -0.762261  -0.097181   0.218645  -0.055817
    13  O    8.911587  -0.124803   0.147982  -0.063353  -0.079432   0.001183
    14  O   -0.124803   9.063031  -0.045267  -0.004828   0.029598  -0.002689
    15  C    0.147982  -0.045267  17.685694   0.029957  -3.120744  -3.106119
    16  O   -0.063353  -0.004828   0.029957   9.230688   0.056887   0.007977
    17  C   -0.079432   0.029598  -3.120744   0.056887  22.948064  -8.347190
    18  C    0.001183  -0.002689  -3.106119   0.007977  -8.347190  26.319162
    19  H    0.004430   0.000420   0.048521  -0.083539   1.155820  -1.802251
    20  C   -0.010361   0.000661  -0.100759  -0.197352  -0.542450  -4.980900
    21  H   -0.000268  -0.000026  -0.038702  -0.002855  -0.054006   1.241435
    22  C    0.005014  -0.004599   0.028929   0.065480  -2.048332   1.379632
    23  C    0.000028   0.000091  -0.102686   0.008556   0.457210  -0.194501
    24  H    0.000010  -0.000015  -0.000090   0.000148   0.031249  -0.026200
    25  H    0.000001   0.000008  -0.001668   0.000805  -0.037913  -0.036358
    26  H    0.000009  -0.000009   0.001725   0.000246   0.056705  -0.038267
    27  N    0.001701  -0.005531   0.311644  -0.006031   0.229357  -0.507998
    28  C    0.057906  -0.144195   0.040421  -0.080296  -9.802398  -2.037815
              19         20         21         22         23         24
     1  C    0.000245   0.031436  -0.000794   0.030945  -0.011080   0.000842
     2  H   -0.000246   0.001998   0.000141  -0.009148  -0.002340  -0.000248
     3  H   -0.000034   0.006070   0.000043  -0.027894  -0.003177  -0.000167
     4  H    0.000303  -0.018153  -0.000214   0.077393   0.006756   0.001915
     5  C   -0.001917  -0.161317   0.007024   0.021157  -0.009277  -0.002823
     6  H   -0.000325  -0.000024   0.001500   0.102498  -0.014928  -0.003056
     7  H    0.000444  -0.024934   0.000261   0.012183   0.004198   0.000371
     8  N   -0.020062   0.529357  -0.024767  -1.412371  -0.010989  -0.017856
     9  C    0.010998   1.274101  -0.023892  -2.358613  -0.025524  -0.011621
    10  H    0.001477   0.035607  -0.000774  -0.032635   0.002148   0.000081
    11  C   -0.051276  -0.795950   0.012468   0.668404   0.037374   0.002168
    12  C    0.000981   0.016465  -0.000253  -0.019355   0.000964   0.000040
    13  O    0.004430  -0.010361  -0.000268   0.005014   0.000028   0.000010
    14  O    0.000420   0.000661  -0.000026  -0.004599   0.000091  -0.000015
    15  C    0.048521  -0.100759  -0.038702   0.028929  -0.102686  -0.000090
    16  O   -0.083539  -0.197352  -0.002855   0.065480   0.008556   0.000148
    17  C    1.155820  -0.542450  -0.054006  -2.048332   0.457210   0.031249
    18  C   -1.802251  -4.980900   1.241435   1.379632  -0.194501  -0.026200
    19  H    2.108928   0.813687  -0.124888  -0.223527   0.043389   0.001516
    20  C    0.813687  17.296424  -1.532936  -3.625700  -0.465818   0.053682
    21  H   -0.124888  -1.532936   2.114721   0.214061  -0.030551  -0.005309
    22  C   -0.223527  -3.625700   0.214061  12.480290   0.060909   0.119972
    23  C    0.043389  -0.465818  -0.030551   0.060909   5.588865   0.344650
    24  H    0.001516   0.053682  -0.005309   0.119972   0.344650   0.780927
    25  H    0.001708  -0.188535  -0.046412   0.135064   0.010263  -0.109181
    26  H    0.001401   0.062112  -0.004427   0.056229   0.360929  -0.090658
    27  N    0.021062  -0.056768  -0.082318   0.442410  -0.150878  -0.083992
    28  C   -0.225582  -2.102272  -0.028366   0.096149  -0.581055  -0.077984
              25         26         27         28
     1  C   -0.000770   0.001094   0.076685   0.036132
     2  H    0.000021  -0.000192   0.002506   0.163398
     3  H   -0.000218  -0.000291  -0.030943  -0.059411
     4  H    0.000212  -0.000659   0.061753  -0.125980
     5  C    0.000532  -0.002713  -0.145146   0.027485
     6  H    0.000159   0.001480   0.040200   0.682353
     7  H    0.000270  -0.000438   0.067332  -0.484306
     8  N    0.014716  -0.011872  -0.379941  -0.389233
     9  C    0.007471  -0.008135  -0.787355 -12.734937
    10  H    0.000202   0.000142  -0.060265  -0.099923
    11  C   -0.000097   0.000784   0.051388   3.531890
    12  C    0.000065  -0.000020  -0.036078  -0.302435
    13  O    0.000001   0.000009   0.001701   0.057906
    14  O    0.000008  -0.000009  -0.005531  -0.144195
    15  C   -0.001668   0.001725   0.311644   0.040421
    16  O    0.000805   0.000246  -0.006031  -0.080296
    17  C   -0.037913   0.056705   0.229357  -9.802398
    18  C   -0.036358  -0.038267  -0.507998  -2.037815
    19  H    0.001708   0.001401   0.021062  -0.225582
    20  C   -0.188535   0.062112  -0.056768  -2.102272
    21  H   -0.046412  -0.004427  -0.082318  -0.028366
    22  C    0.135064   0.056229   0.442410   0.096149
    23  C    0.010263   0.360929  -0.150878  -0.581055
    24  H   -0.109181  -0.090658  -0.083992  -0.077984
    25  H    1.106955  -0.108068   0.204251   0.175899
    26  H   -0.108068   0.769693  -0.035015  -0.095417
    27  N    0.204251  -0.035015   8.801804  -0.226536
    28  C    0.175899  -0.095417  -0.226536  30.663721
 Mulliken charges:
               1
     1  C    0.541727
     2  H   -0.087230
     3  H   -0.093940
     4  H   -0.071638
     5  C    0.615143
     6  H   -0.194881
     7  H   -0.269900
     8  N   -0.326460
     9  C    0.684097
    10  H   -0.752202
    11  C    0.371192
    12  C    0.859688
    13  O   -0.981567
    14  O   -1.035608
    15  C    0.169660
    16  O   -0.985441
    17  C    1.593466
    18  C   -0.340456
    19  H   -0.681685
    20  C    0.682630
    21  H   -0.589895
    22  C   -0.234545
    23  C    0.676475
    24  H    0.091630
    25  H   -0.129381
    26  H    0.083632
    27  N   -0.717300
    28  C    0.122789
 Sum of Mulliken charges =  -1.00000
 Mulliken charges with hydrogens summed into heavy atoms:
               1
     1  C    0.288919
     5  C    0.150361
     8  N   -0.326460
     9  C   -0.068105
    11  C    0.371192
    12  C    0.859688
    13  O   -0.981567
    14  O   -1.035608
    15  C    0.169660
    16  O   -0.985441
    17  C    1.593466
    18  C   -1.022141
    20  C    0.092735
    22  C   -0.234545
    23  C    0.722356
    27  N   -0.717300
    28  C    0.122789
 Electronic spatial extent (au):  <R**2>=           4312.8444
 Charge=             -1.0000 electrons
 Dipole moment (field-independent basis, Debye):
    X=             19.6438    Y=              4.5273    Z=             -0.3282  Tot=             20.1614
 Quadrupole moment (field-independent basis, Debye-Ang):
   XX=           -183.3456   YY=           -113.6404   ZZ=           -103.3216
   XY=            -12.1317   XZ=              0.2079   YZ=              0.5826
 Traceless Quadrupole moment (field-independent basis, Debye-Ang):
   XX=            -49.9098   YY=             19.7955   ZZ=             30.1143
   XY=            -12.1317   XZ=              0.2079   YZ=              0.5826
 Octapole moment (field-independent basis, Debye-Ang**2):
  XXX=            354.6345  YYY=             35.7453  ZZZ=             -0.8314  XYY=             53.2878
  XXY=              6.6658  XXZ=              3.7535  XZZ=             -6.6661  YZZ=              3.8272
  YYZ=             -5.7232  XYZ=             -5.8316
 Hexadecapole moment (field-independent basis, Debye-Ang**3):
 XXXX=          -5314.7323 YYYY=          -1815.0651 ZZZZ=           -199.6301 XXXY=            -54.3069
 XXXZ=            -20.1323 YYYX=            -78.7477 YYYZ=            -16.9046 ZZZX=             -6.0068
 ZZZY=             -3.9085 XXYY=          -1112.4078 XXZZ=           -688.4329 YYZZ=           -343.5374
 XXYZ=             11.9833 YYXZ=              8.2726 ZZXY=             14.5029
 N-N= 1.162838350018D+03 E-N=-4.203191890351D+03  KE= 7.934505164842D+02
 Leave Link  601 at Sun Jul 11 16:58:47 2021, MaxMem=   262144000 cpu:               0.8 elap:               0.3
 (Enter /prod/apps/gaussian/g16b1/l9999.exe)
 1\1\GINC-PIRINEUS26\SP\RMP2-FC\Aug-CC-pVDZ\C12H11N2O3(1-)\UBATOR02\11-
 Jul-2021\0\\#p mp2/aug-cc-pVDZ scf=tight maxdisk=180GB geom=allcheck\\
 SET_328_BBB282_conf1.geo_000_270 geometry\\-1,1\C,0,0.9390738141,2.163
 8322159,2.050838111\H,0,-0.0433574974,2.3615201875,2.4885591395\H,0,1.
 6214673655,2.9575956451,2.3681957155\H,0,1.3119245089,1.2133852203,2.4
 417810212\C,0,0.8636332068,2.1360083573,0.5271645752\H,0,1.8412469149,
 1.9303797746,0.0955039005\H,0,0.5069594884,3.0910494996,0.1396032249\N
 ,0,-0.0641821004,1.1095735953,0.0202635287\C,0,-1.3483998664,1.4420362
 908,-0.2633599561\H,0,-1.6019649231,2.4841771078,-0.1226891215\C,0,-2.
 331893229,0.5939391208,-0.7100047017\C,0,-3.6956582833,1.235337422,-0.
 9750138408\O,0,-4.6156953221,0.5175814498,-1.4493177086\O,0,-3.7919301
 409,2.4675536375,-0.6966060125\C,0,-2.0024461439,-0.8127074969,-0.9009
 507186\O,0,-2.7772590652,-1.7089839275,-1.2839174724\C,0,-0.5935763736
 ,-1.1548234368,-0.592938282\C,0,-0.1298566308,-2.4676113997,-0.7447843
 836\H,0,-0.8345668059,-3.2148886606,-1.0921994712\C,0,1.1872427345,-2.
 7757617427,-0.4547147457\H,0,1.5661842212,-3.7855378894,-0.564700389\C
 ,0,2.0433694066,-1.7528255194,-0.0074613733\C,0,3.4855731147,-2.031823
 6585,0.3207772002\H,0,4.1463809785,-1.4355609075,-0.3166888397\H,0,3.7
 260405972,-3.0871828031,0.1805941976\H,0,3.7031860658,-1.7572244856,1.
 3577200571\N,0,1.6247932097,-0.4918992712,0.1477479353\C,0,0.345710755
 2,-0.2051383251,-0.1394015901\\Version=ES64L-G16RevB.01\State=1-A\HF=-
 794.4674791\MP2=-797.0452788\RMSD=4.108e-09\PG=C01 [X(C12H11N2O3)]\\@


 FIREWORKS ENDED
 AND SPECTATORS GONE AWAY....
 AH, HOW VAST AND DARK
                     SHIKI
 Job cpu time:       0 days  1 hours 42 minutes 32.5 seconds.
 Elapsed time:       0 days  0 hours 29 minutes 12.0 seconds.
 File lengths (MBytes):  RWF=  55790 Int=      0 D2E=      0 Chk=     20 Scr=      1
 Normal termination of Gaussian 16 at Sun Jul 11 16:58:48 2021.
