 Entering Gaussian System, Link 0=g16
 Initial command:
 /prod/apps/gaussian/g16b1/l1.exe "/tmp/ubator02/1834517/Gau-37074.inp" -scrdir="/tmp/ubator02/1834517/"
 Entering Link 1 = /prod/apps/gaussian/g16b1/l1.exe PID=     37077.
  
 Copyright (c) 1988-2017, Gaussian, Inc.  All Rights Reserved.
  
 This is part of the Gaussian(R) 16 program.  It is based on
 the Gaussian(R) 09 system (copyright 2009, Gaussian, Inc.),
 the Gaussian(R) 03 system (copyright 2003, Gaussian, Inc.),
 the Gaussian(R) 98 system (copyright 1998, Gaussian, Inc.),
 the Gaussian(R) 94 system (copyright 1995, Gaussian, Inc.),
 the Gaussian 92(TM) system (copyright 1992, Gaussian, Inc.),
 the Gaussian 90(TM) system (copyright 1990, Gaussian, Inc.),
 the Gaussian 88(TM) system (copyright 1988, Gaussian, Inc.),
 the Gaussian 86(TM) system (copyright 1986, Carnegie Mellon
 University), and the Gaussian 82(TM) system (copyright 1983,
 Carnegie Mellon University). Gaussian is a federally registered
 trademark of Gaussian, Inc.
  
 This software contains proprietary and confidential information,
 including trade secrets, belonging to Gaussian, Inc.
  
 This software is provided under written license and may be
 used, copied, transmitted, or stored only in accord with that
 written license.
  
 The following legend is applicable only to US Government
 contracts under FAR:
  
                    RESTRICTED RIGHTS LEGEND
  
 Use, reproduction and disclosure by the US Government is
 subject to restrictions as set forth in subparagraphs (a)
 and (c) of the Commercial Computer Software - Restricted
 Rights clause in FAR 52.227-19.
  
 Gaussian, Inc.
 340 Quinnipiac St., Bldg. 40, Wallingford CT 06492
  
  
 ---------------------------------------------------------------
 Warning -- This program may not be used in any manner that
 competes with the business of Gaussian, Inc. or will provide
 assistance to any competitor of Gaussian, Inc.  The licensee
 of this program is prohibited from giving any competitor of
 Gaussian, Inc. access to this program.  By using this program,
 the user acknowledges that Gaussian, Inc. is engaged in the
 business of creating and licensing software in the field of
 computational chemistry and represents and warrants to the
 licensee that it is not a competitor of Gaussian, Inc. and that
 it will not use this program in any manner prohibited above.
 ---------------------------------------------------------------
  

 Cite this work as:
 Gaussian 16, Revision B.01,
 M. J. Frisch, G. W. Trucks, H. B. Schlegel, G. E. Scuseria, 
 M. A. Robb, J. R. Cheeseman, G. Scalmani, V. Barone, 
 G. A. Petersson, H. Nakatsuji, X. Li, M. Caricato, A. V. Marenich, 
 J. Bloino, B. G. Janesko, R. Gomperts, B. Mennucci, H. P. Hratchian, 
 J. V. Ortiz, A. F. Izmaylov, J. L. Sonnenberg, D. Williams-Young, 
 F. Ding, F. Lipparini, F. Egidi, J. Goings, B. Peng, A. Petrone, 
 T. Henderson, D. Ranasinghe, V. G. Zakrzewski, J. Gao, N. Rega, 
 G. Zheng, W. Liang, M. Hada, M. Ehara, K. Toyota, R. Fukuda, 
 J. Hasegawa, M. Ishida, T. Nakajima, Y. Honda, O. Kitao, H. Nakai, 
 T. Vreven, K. Throssell, J. A. Montgomery, Jr., J. E. Peralta, 
 F. Ogliaro, M. J. Bearpark, J. J. Heyd, E. N. Brothers, K. N. Kudin, 
 V. N. Staroverov, T. A. Keith, R. Kobayashi, J. Normand, 
 K. Raghavachari, A. P. Rendell, J. C. Burant, S. S. Iyengar, 
 J. Tomasi, M. Cossi, J. M. Millam, M. Klene, C. Adamo, R. Cammi, 
 J. W. Ochterski, R. L. Martin, K. Morokuma, O. Farkas, 
 J. B. Foresman, and D. J. Fox, Gaussian, Inc., Wallingford CT, 2016.
 
 ******************************************
 Gaussian 16:  ES64L-G16RevB.01 20-Dec-2017
                11-Jul-2021 
 ******************************************
 %mem=800MB
 %nproc=4
 Will use up to    4 processors via shared memory.
 %chk=SET_328_BBB2_conf1.geo_240_060.chk
 -----------------------------------------------------------
 #p b3lyp/6-31G(d) opt freq scrf=(iefpcm,read,solvent=water)
 -----------------------------------------------------------
 1/18=20,19=15,26=3,38=1,40=2/1,3;
 2/9=110,12=2,17=6,18=5,40=1/2;
 3/5=1,6=6,7=1,11=2,25=1,30=1,70=2203,71=1,72=1,74=-5/1,2,3;
 4//1;
 5/5=2,38=5,53=1/2;
 6/7=2,8=2,9=2,10=2,28=1/1;
 7//1,2,3,16;
 1/18=20,19=15,26=3/3(2);
 2/9=110/2;
 99//99;
 2/9=110/2;
 3/5=1,6=6,7=1,11=2,25=1,30=1,70=2205,71=1,72=1,74=-5/1,2,3;
 4/5=5,16=3,69=1/1;
 5/5=2,38=5,53=1/2;
 7//1,2,3,16;
 1/18=20,19=15,26=3/3(-5);
 2/9=110/2;
 6/7=2,8=2,9=2,10=2,19=2,28=1/1;
 99/9=1/99;
 Leave Link    1 at Sun Jul 11 15:54:11 2021, MaxMem=   104857600 cpu:               0.1 elap:               0.0
 (Enter /prod/apps/gaussian/g16b1/l101.exe)
 ---------------------------------------
 SET_328_BBB2_conf1.geo_240_060 geometry
 ---------------------------------------
 Symbolic Z-matrix:
 Charge =  1 Multiplicity = 1
 C                    -3.331    -0.556    -2.039 
 H                    -3.213    -1.546    -1.591 
 H                    -2.527    -0.211    -2.694 
 H                    -4.244    -0.508    -2.637 
 N                    -3.566     0.294    -0.858 
 H                    -4.34     -0.081    -0.348 
 C                    -2.422     0.405     0.054 
 C                    -1.254     1.016    -0.762 
 C                    -0.012     0.33     -0.702 
 C                     1.033     0.823    -1.5 
 C                     0.869     1.991    -2.235 
 C                    -0.357     2.661    -2.328 
 C                    -1.399     2.128    -1.56 
 H                    -2.386     2.581    -1.6 
 H                    -0.422     3.545    -2.957 
 H                     1.674     2.387    -2.848 
 H                     1.966     0.281    -1.631 
 H                    -2.646     1.111     0.857 
 C                    -2.206    -0.969     0.732 
 H                    -2.143    -1.851     0.091 
 H                    -2.947    -1.097     1.524 
 C                    -0.84     -0.903     1.363 
 H                    -0.637    -1.719     2.06 
 H                    -0.648    -0.041     2.006 
 C                     0.327    -0.867     0.271 
 H                     0.223    -1.826    -0.242 
 C                     1.702    -0.773     1.019 
 C                     2.067     0.347     1.727 
 H                     1.398     1.19      1.879 
 C                     3.261     0.317     2.424 
 Cl                    3.652     1.702     3.365 
 C                     4.18     -0.764     2.357 
 Cl                    5.83     -0.613     2.891 
 C                     3.858    -1.83      1.508 
 H                     4.538    -2.66      1.336 
 C                     2.631    -1.757     0.83 
 H                     2.36     -2.603     0.204 
 H                    -3.809     1.212    -1.173 
 
 ITRead=  0  0  0  0  0  0  0  0  0  0  0  0  0  0  0  0  0  0  0  0
 ITRead=  0  0  0  0  0  0  0  0  0  0  0  0  0  0  0  0  0  0
 MicOpt= -1 -1 -1 -1 -1 -1 -1 -1 -1 -1 -1 -1 -1 -1 -1 -1 -1 -1 -1 -1
 MicOpt= -1 -1 -1 -1 -1 -1 -1 -1 -1 -1 -1 -1 -1 -1 -1 -1 -1 -1
 NAtoms=     38 NQM=       38 NQMF=       0 NMMI=      0 NMMIF=      0
                NMic=       0 NMicF=      0.
                    Isotopes and Nuclear Properties:
 (Nuclear quadrupole moments (NQMom) in fm**2, nuclear magnetic moments (NMagM)
  in nuclear magnetons)

  Atom         1           2           3           4           5           6           7           8           9          10
 IAtWgt=          12           1           1           1          14           1          12          12          12          12
 AtmWgt=  12.0000000   1.0078250   1.0078250   1.0078250  14.0030740   1.0078250  12.0000000  12.0000000  12.0000000  12.0000000
 NucSpn=           0           1           1           1           2           1           0           0           0           0
 AtZEff=  -0.0000000  -0.0000000  -0.0000000  -0.0000000  -0.0000000  -0.0000000  -0.0000000  -0.0000000  -0.0000000  -0.0000000
 NQMom=    0.0000000   0.0000000   0.0000000   0.0000000   2.0440000   0.0000000   0.0000000   0.0000000   0.0000000   0.0000000
 NMagM=    0.0000000   2.7928460   2.7928460   2.7928460   0.4037610   2.7928460   0.0000000   0.0000000   0.0000000   0.0000000
 AtZNuc=   6.0000000   1.0000000   1.0000000   1.0000000   7.0000000   1.0000000   6.0000000   6.0000000   6.0000000   6.0000000

  Atom        11          12          13          14          15          16          17          18          19          20
 IAtWgt=          12          12          12           1           1           1           1           1          12           1
 AtmWgt=  12.0000000  12.0000000  12.0000000   1.0078250   1.0078250   1.0078250   1.0078250   1.0078250  12.0000000   1.0078250
 NucSpn=           0           0           0           1           1           1           1           1           0           1
 AtZEff=  -0.0000000  -0.0000000  -0.0000000  -0.0000000  -0.0000000  -0.0000000  -0.0000000  -0.0000000  -0.0000000  -0.0000000
 NQMom=    0.0000000   0.0000000   0.0000000   0.0000000   0.0000000   0.0000000   0.0000000   0.0000000   0.0000000   0.0000000
 NMagM=    0.0000000   0.0000000   0.0000000   2.7928460   2.7928460   2.7928460   2.7928460   2.7928460   0.0000000   2.7928460
 AtZNuc=   6.0000000   6.0000000   6.0000000   1.0000000   1.0000000   1.0000000   1.0000000   1.0000000   6.0000000   1.0000000

  Atom        21          22          23          24          25          26          27          28          29          30
 IAtWgt=           1          12           1           1          12           1          12          12           1          12
 AtmWgt=   1.0078250  12.0000000   1.0078250   1.0078250  12.0000000   1.0078250  12.0000000  12.0000000   1.0078250  12.0000000
 NucSpn=           1           0           1           1           0           1           0           0           1           0
 AtZEff=  -0.0000000  -0.0000000  -0.0000000  -0.0000000  -0.0000000  -0.0000000  -0.0000000  -0.0000000  -0.0000000  -0.0000000
 NQMom=    0.0000000   0.0000000   0.0000000   0.0000000   0.0000000   0.0000000   0.0000000   0.0000000   0.0000000   0.0000000
 NMagM=    2.7928460   0.0000000   2.7928460   2.7928460   0.0000000   2.7928460   0.0000000   0.0000000   2.7928460   0.0000000
 AtZNuc=   1.0000000   6.0000000   1.0000000   1.0000000   6.0000000   1.0000000   6.0000000   6.0000000   1.0000000   6.0000000

  Atom        31          32          33          34          35          36          37          38
 IAtWgt=          35          12          35          12           1          12           1           1
 AtmWgt=  34.9688527  12.0000000  34.9688527  12.0000000   1.0078250  12.0000000   1.0078250   1.0078250
 NucSpn=           3           0           3           0           1           0           1           1
 AtZEff=  -0.0000000  -0.0000000  -0.0000000  -0.0000000  -0.0000000  -0.0000000  -0.0000000  -0.0000000
 NQMom=   -8.1650000   0.0000000  -8.1650000   0.0000000   0.0000000   0.0000000   0.0000000   0.0000000
 NMagM=    0.8218740   0.0000000   0.8218740   0.0000000   2.7928460   0.0000000   2.7928460   2.7928460
 AtZNuc=  17.0000000   6.0000000  17.0000000   6.0000000   1.0000000   6.0000000   1.0000000   1.0000000
 Leave Link  101 at Sun Jul 11 15:54:11 2021, MaxMem=   104857600 cpu:               0.5 elap:               0.1
 (Enter /prod/apps/gaussian/g16b1/l103.exe)

 GradGradGradGradGradGradGradGradGradGradGradGradGradGradGradGradGradGrad
 Berny optimization.
 Initialization pass.
                           ----------------------------
                           !    Initial Parameters    !
                           ! (Angstroms and Degrees)  !
 --------------------------                            --------------------------
 ! Name  Definition              Value          Derivative Info.                !
 --------------------------------------------------------------------------------
 ! R1    R(1,2)                  1.093          estimate D2E/DX2                !
 ! R2    R(1,3)                  1.0929         estimate D2E/DX2                !
 ! R3    R(1,4)                  1.0925         estimate D2E/DX2                !
 ! R4    R(1,5)                  1.4739         estimate D2E/DX2                !
 ! R5    R(5,6)                  0.9999         estimate D2E/DX2                !
 ! R6    R(5,7)                  1.4672         estimate D2E/DX2                !
 ! R7    R(5,38)                 1.0005         estimate D2E/DX2                !
 ! R8    R(7,8)                  1.5503         estimate D2E/DX2                !
 ! R9    R(7,18)                 1.0924         estimate D2E/DX2                !
 ! R10   R(7,19)                 1.5473         estimate D2E/DX2                !
 ! R11   R(8,9)                  1.4201         estimate D2E/DX2                !
 ! R12   R(8,13)                 1.3764         estimate D2E/DX2                !
 ! R13   R(9,10)                 1.4042         estimate D2E/DX2                !
 ! R14   R(9,25)                 1.5794         estimate D2E/DX2                !
 ! R15   R(10,11)                1.3897         estimate D2E/DX2                !
 ! R16   R(10,17)                1.0869         estimate D2E/DX2                !
 ! R17   R(11,12)                1.4002         estimate D2E/DX2                !
 ! R18   R(11,16)                1.0866         estimate D2E/DX2                !
 ! R19   R(12,13)                1.3999         estimate D2E/DX2                !
 ! R20   R(12,15)                1.0869         estimate D2E/DX2                !
 ! R21   R(13,14)                1.0867         estimate D2E/DX2                !
 ! R22   R(19,20)                1.0921         estimate D2E/DX2                !
 ! R23   R(19,21)                1.0921         estimate D2E/DX2                !
 ! R24   R(19,22)                1.5061         estimate D2E/DX2                !
 ! R25   R(22,23)                1.0922         estimate D2E/DX2                !
 ! R26   R(22,24)                1.0924         estimate D2E/DX2                !
 ! R27   R(22,25)                1.5986         estimate D2E/DX2                !
 ! R28   R(25,26)                1.0926         estimate D2E/DX2                !
 ! R29   R(25,27)                1.5681         estimate D2E/DX2                !
 ! R30   R(27,28)                1.3744         estimate D2E/DX2                !
 ! R31   R(27,36)                1.3664         estimate D2E/DX2                !
 ! R32   R(28,29)                1.0869         estimate D2E/DX2                !
 ! R33   R(28,30)                1.3829         estimate D2E/DX2                !
 ! R34   R(30,31)                1.7195         estimate D2E/DX2                !
 ! R35   R(30,32)                1.4204         estimate D2E/DX2                !
 ! R36   R(32,33)                1.7408         estimate D2E/DX2                !
 ! R37   R(32,34)                1.4003         estimate D2E/DX2                !
 ! R38   R(34,35)                1.0867         estimate D2E/DX2                !
 ! R39   R(34,36)                1.4038         estimate D2E/DX2                !
 ! R40   R(36,37)                1.0868         estimate D2E/DX2                !
 ! A1    A(2,1,3)              116.8807         estimate D2E/DX2                !
 ! A2    A(2,1,4)              110.755          estimate D2E/DX2                !
 ! A3    A(2,1,5)              102.1885         estimate D2E/DX2                !
 ! A4    A(3,1,4)              105.8353         estimate D2E/DX2                !
 ! A5    A(3,1,5)              114.5477         estimate D2E/DX2                !
 ! A6    A(4,1,5)              106.261          estimate D2E/DX2                !
 ! A7    A(1,5,6)              108.4102         estimate D2E/DX2                !
 ! A8    A(1,5,7)              114.6677         estimate D2E/DX2                !
 ! A9    A(1,5,38)             108.3964         estimate D2E/DX2                !
 ! A10   A(6,5,7)              108.3536         estimate D2E/DX2                !
 ! A11   A(6,5,38)             108.463          estimate D2E/DX2                !
 ! A12   A(7,5,38)             108.4004         estimate D2E/DX2                !
 ! A13   A(5,7,8)              106.8625         estimate D2E/DX2                !
 ! A14   A(5,7,18)             110.2372         estimate D2E/DX2                !
 ! A15   A(5,7,19)             108.3018         estimate D2E/DX2                !
 ! A16   A(8,7,18)             106.6591         estimate D2E/DX2                !
 ! A17   A(8,7,19)             118.3876         estimate D2E/DX2                !
 ! A18   A(18,7,19)            106.2847         estimate D2E/DX2                !
 ! A19   A(7,8,9)              116.5057         estimate D2E/DX2                !
 ! A20   A(7,8,13)             122.9715         estimate D2E/DX2                !
 ! A21   A(9,8,13)             120.4579         estimate D2E/DX2                !
 ! A22   A(8,9,10)             117.2087         estimate D2E/DX2                !
 ! A23   A(8,9,25)             125.4399         estimate D2E/DX2                !
 ! A24   A(10,9,25)            117.158          estimate D2E/DX2                !
 ! A25   A(9,10,11)            120.5174         estimate D2E/DX2                !
 ! A26   A(9,10,17)            122.155          estimate D2E/DX2                !
 ! A27   A(11,10,17)           117.171          estimate D2E/DX2                !
 ! A28   A(10,11,12)           122.7248         estimate D2E/DX2                !
 ! A29   A(10,11,16)           121.1482         estimate D2E/DX2                !
 ! A30   A(12,11,16)           115.9017         estimate D2E/DX2                !
 ! A31   A(11,12,13)           115.665          estimate D2E/DX2                !
 ! A32   A(11,12,15)           118.6838         estimate D2E/DX2                !
 ! A33   A(13,12,15)           125.6373         estimate D2E/DX2                !
 ! A34   A(8,13,12)            123.1806         estimate D2E/DX2                !
 ! A35   A(8,13,14)            116.9881         estimate D2E/DX2                !
 ! A36   A(12,13,14)           119.8105         estimate D2E/DX2                !
 ! A37   A(7,19,20)            117.9048         estimate D2E/DX2                !
 ! A38   A(7,19,21)            109.0942         estimate D2E/DX2                !
 ! A39   A(7,19,22)            105.7398         estimate D2E/DX2                !
 ! A40   A(20,19,21)           111.7229         estimate D2E/DX2                !
 ! A41   A(20,19,22)           103.236          estimate D2E/DX2                !
 ! A42   A(21,19,22)           108.4622         estimate D2E/DX2                !
 ! A43   A(19,22,23)           113.7779         estimate D2E/DX2                !
 ! A44   A(19,22,24)           116.1409         estimate D2E/DX2                !
 ! A45   A(19,22,25)           112.1406         estimate D2E/DX2                !
 ! A46   A(23,22,24)           100.4422         estimate D2E/DX2                !
 ! A47   A(23,22,25)           108.4855         estimate D2E/DX2                !
 ! A48   A(24,22,25)           104.8325         estimate D2E/DX2                !
 ! A49   A(9,25,22)            106.3319         estimate D2E/DX2                !
 ! A50   A(9,25,26)            110.827          estimate D2E/DX2                !
 ! A51   A(9,25,27)            115.8899         estimate D2E/DX2                !
 ! A52   A(22,25,26)           103.3843         estimate D2E/DX2                !
 ! A53   A(22,25,27)           108.3979         estimate D2E/DX2                !
 ! A54   A(26,25,27)           111.1039         estimate D2E/DX2                !
 ! A55   A(25,27,28)           121.8333         estimate D2E/DX2                !
 ! A56   A(25,27,36)           119.1448         estimate D2E/DX2                !
 ! A57   A(28,27,36)           118.5257         estimate D2E/DX2                !
 ! A58   A(27,28,29)           122.727          estimate D2E/DX2                !
 ! A59   A(27,28,30)           118.1167         estimate D2E/DX2                !
 ! A60   A(29,28,30)           118.5413         estimate D2E/DX2                !
 ! A61   A(28,30,31)           117.0453         estimate D2E/DX2                !
 ! A62   A(28,30,32)           123.4602         estimate D2E/DX2                !
 ! A63   A(31,30,32)           119.4519         estimate D2E/DX2                !
 ! A64   A(30,32,33)           122.1916         estimate D2E/DX2                !
 ! A65   A(30,32,34)           117.3339         estimate D2E/DX2                !
 ! A66   A(33,32,34)           118.0323         estimate D2E/DX2                !
 ! A67   A(32,34,35)           122.2435         estimate D2E/DX2                !
 ! A68   A(32,34,36)           117.0162         estimate D2E/DX2                !
 ! A69   A(35,34,36)           120.6794         estimate D2E/DX2                !
 ! A70   A(27,36,34)           124.3971         estimate D2E/DX2                !
 ! A71   A(27,36,37)           118.0825         estimate D2E/DX2                !
 ! A72   A(34,36,37)           117.1099         estimate D2E/DX2                !
 ! D1    D(2,1,5,6)            -55.0078         estimate D2E/DX2                !
 ! D2    D(2,1,5,7)             66.1945         estimate D2E/DX2                !
 ! D3    D(2,1,5,38)          -172.5533         estimate D2E/DX2                !
 ! D4    D(3,1,5,6)            177.6065         estimate D2E/DX2                !
 ! D5    D(3,1,5,7)            -61.1912         estimate D2E/DX2                !
 ! D6    D(3,1,5,38)            60.0611         estimate D2E/DX2                !
 ! D7    D(4,1,5,6)             61.1379         estimate D2E/DX2                !
 ! D8    D(4,1,5,7)           -177.6598         estimate D2E/DX2                !
 ! D9    D(4,1,5,38)           -56.4076         estimate D2E/DX2                !
 ! D10   D(1,5,7,8)             59.9384         estimate D2E/DX2                !
 ! D11   D(1,5,7,18)           175.4701         estimate D2E/DX2                !
 ! D12   D(1,5,7,19)           -68.6351         estimate D2E/DX2                !
 ! D13   D(6,5,7,8)           -178.8283         estimate D2E/DX2                !
 ! D14   D(6,5,7,18)           -63.2966         estimate D2E/DX2                !
 ! D15   D(6,5,7,19)            52.5982         estimate D2E/DX2                !
 ! D16   D(38,5,7,8)           -61.3117         estimate D2E/DX2                !
 ! D17   D(38,5,7,18)           54.22           estimate D2E/DX2                !
 ! D18   D(38,5,7,19)          170.1149         estimate D2E/DX2                !
 ! D19   D(5,7,8,9)           -129.2759         estimate D2E/DX2                !
 ! D20   D(5,7,8,13)            47.8036         estimate D2E/DX2                !
 ! D21   D(18,7,8,9)           112.8205         estimate D2E/DX2                !
 ! D22   D(18,7,8,13)          -70.1            estimate D2E/DX2                !
 ! D23   D(19,7,8,9)            -6.8107         estimate D2E/DX2                !
 ! D24   D(19,7,8,13)          170.2688         estimate D2E/DX2                !
 ! D25   D(5,7,19,20)           51.0104         estimate D2E/DX2                !
 ! D26   D(5,7,19,21)          -77.7836         estimate D2E/DX2                !
 ! D27   D(5,7,19,22)          165.7461         estimate D2E/DX2                !
 ! D28   D(8,7,19,20)          -70.7278         estimate D2E/DX2                !
 ! D29   D(8,7,19,21)          160.4783         estimate D2E/DX2                !
 ! D30   D(8,7,19,22)           44.008          estimate D2E/DX2                !
 ! D31   D(18,7,19,20)         169.4472         estimate D2E/DX2                !
 ! D32   D(18,7,19,21)          40.6532         estimate D2E/DX2                !
 ! D33   D(18,7,19,22)         -75.8171         estimate D2E/DX2                !
 ! D34   D(7,8,9,10)           176.1754         estimate D2E/DX2                !
 ! D35   D(7,8,9,25)            -9.0394         estimate D2E/DX2                !
 ! D36   D(13,8,9,10)           -0.9823         estimate D2E/DX2                !
 ! D37   D(13,8,9,25)          173.8029         estimate D2E/DX2                !
 ! D38   D(7,8,13,12)         -178.1357         estimate D2E/DX2                !
 ! D39   D(7,8,13,14)            0.1974         estimate D2E/DX2                !
 ! D40   D(9,8,13,12)           -1.1677         estimate D2E/DX2                !
 ! D41   D(9,8,13,14)          177.1653         estimate D2E/DX2                !
 ! D42   D(8,9,10,11)            4.5648         estimate D2E/DX2                !
 ! D43   D(8,9,10,17)         -170.757          estimate D2E/DX2                !
 ! D44   D(25,9,10,11)        -170.6612         estimate D2E/DX2                !
 ! D45   D(25,9,10,17)          14.017          estimate D2E/DX2                !
 ! D46   D(8,9,25,22)          -13.0201         estimate D2E/DX2                !
 ! D47   D(8,9,25,26)           98.6674         estimate D2E/DX2                !
 ! D48   D(8,9,25,27)         -133.5373         estimate D2E/DX2                !
 ! D49   D(10,9,25,22)         161.7674         estimate D2E/DX2                !
 ! D50   D(10,9,25,26)         -86.545          estimate D2E/DX2                !
 ! D51   D(10,9,25,27)          41.2502         estimate D2E/DX2                !
 ! D52   D(9,10,11,12)          -6.2966         estimate D2E/DX2                !
 ! D53   D(9,10,11,16)         179.3831         estimate D2E/DX2                !
 ! D54   D(17,10,11,12)        169.2519         estimate D2E/DX2                !
 ! D55   D(17,10,11,16)         -5.0684         estimate D2E/DX2                !
 ! D56   D(10,11,12,13)          3.9768         estimate D2E/DX2                !
 ! D57   D(10,11,12,15)       -177.3032         estimate D2E/DX2                !
 ! D58   D(16,11,12,13)        178.5739         estimate D2E/DX2                !
 ! D59   D(16,11,12,15)         -2.7061         estimate D2E/DX2                !
 ! D60   D(11,12,13,8)          -0.2473         estimate D2E/DX2                !
 ! D61   D(11,12,13,14)       -178.5354         estimate D2E/DX2                !
 ! D62   D(15,12,13,8)        -178.8656         estimate D2E/DX2                !
 ! D63   D(15,12,13,14)          2.8463         estimate D2E/DX2                !
 ! D64   D(7,19,22,23)         167.4142         estimate D2E/DX2                !
 ! D65   D(7,19,22,24)          51.5107         estimate D2E/DX2                !
 ! D66   D(7,19,22,25)         -68.9903         estimate D2E/DX2                !
 ! D67   D(20,19,22,23)        -68.1283         estimate D2E/DX2                !
 ! D68   D(20,19,22,24)        175.9682         estimate D2E/DX2                !
 ! D69   D(20,19,22,25)         55.4672         estimate D2E/DX2                !
 ! D70   D(21,19,22,23)         50.5164         estimate D2E/DX2                !
 ! D71   D(21,19,22,24)        -65.3871         estimate D2E/DX2                !
 ! D72   D(21,19,22,25)        174.1119         estimate D2E/DX2                !
 ! D73   D(19,22,25,9)          53.7557         estimate D2E/DX2                !
 ! D74   D(19,22,25,26)        -63.0242         estimate D2E/DX2                !
 ! D75   D(19,22,25,27)        178.9938         estimate D2E/DX2                !
 ! D76   D(23,22,25,9)        -179.7318         estimate D2E/DX2                !
 ! D77   D(23,22,25,26)         63.4882         estimate D2E/DX2                !
 ! D78   D(23,22,25,27)        -54.4937         estimate D2E/DX2                !
 ! D79   D(24,22,25,9)         -73.0998         estimate D2E/DX2                !
 ! D80   D(24,22,25,26)        170.1202         estimate D2E/DX2                !
 ! D81   D(24,22,25,27)         52.1383         estimate D2E/DX2                !
 ! D82   D(9,25,27,28)          51.714          estimate D2E/DX2                !
 ! D83   D(9,25,27,36)        -120.0834         estimate D2E/DX2                !
 ! D84   D(22,25,27,28)        -67.6821         estimate D2E/DX2                !
 ! D85   D(22,25,27,36)        120.5204         estimate D2E/DX2                !
 ! D86   D(26,25,27,28)        179.3721         estimate D2E/DX2                !
 ! D87   D(26,25,27,36)          7.5747         estimate D2E/DX2                !
 ! D88   D(25,27,28,29)          5.2881         estimate D2E/DX2                !
 ! D89   D(25,27,28,30)        176.1575         estimate D2E/DX2                !
 ! D90   D(36,27,28,29)        177.1345         estimate D2E/DX2                !
 ! D91   D(36,27,28,30)        -11.9961         estimate D2E/DX2                !
 ! D92   D(25,27,36,34)       -175.6363         estimate D2E/DX2                !
 ! D93   D(25,27,36,37)         -3.2185         estimate D2E/DX2                !
 ! D94   D(28,27,36,34)         12.2936         estimate D2E/DX2                !
 ! D95   D(28,27,36,37)       -175.2886         estimate D2E/DX2                !
 ! D96   D(27,28,30,31)       -176.9478         estimate D2E/DX2                !
 ! D97   D(27,28,30,32)          5.4436         estimate D2E/DX2                !
 ! D98   D(29,28,30,31)         -5.6886         estimate D2E/DX2                !
 ! D99   D(29,28,30,32)        176.7029         estimate D2E/DX2                !
 ! D100  D(28,30,32,33)        163.6204         estimate D2E/DX2                !
 ! D101  D(28,30,32,34)          1.7162         estimate D2E/DX2                !
 ! D102  D(31,30,32,33)        -13.9336         estimate D2E/DX2                !
 ! D103  D(31,30,32,34)       -175.8377         estimate D2E/DX2                !
 ! D104  D(30,32,34,35)        175.1116         estimate D2E/DX2                !
 ! D105  D(30,32,34,36)         -2.0678         estimate D2E/DX2                !
 ! D106  D(33,32,34,35)         12.4369         estimate D2E/DX2                !
 ! D107  D(33,32,34,36)       -164.7426         estimate D2E/DX2                !
 ! D108  D(32,34,36,27)         -4.9519         estimate D2E/DX2                !
 ! D109  D(32,34,36,37)       -177.4371         estimate D2E/DX2                !
 ! D110  D(35,34,36,27)        177.8219         estimate D2E/DX2                !
 ! D111  D(35,34,36,37)          5.3367         estimate D2E/DX2                !
 --------------------------------------------------------------------------------
 Trust Radius=3.00D-01 FncErr=1.00D-07 GrdErr=1.00D-06 EigMax=2.50D+02 EigMin=1.00D-04
 Number of steps in this run=    228 maximum allowed number of steps=    228.
 GradGradGradGradGradGradGradGradGradGradGradGradGradGradGradGradGradGrad

 Leave Link  103 at Sun Jul 11 15:54:11 2021, MaxMem=   104857600 cpu:               0.1 elap:               0.0
 (Enter /prod/apps/gaussian/g16b1/l202.exe)
                          Input orientation:                          
 ---------------------------------------------------------------------
 Center     Atomic      Atomic             Coordinates (Angstroms)
 Number     Number       Type             X           Y           Z
 ---------------------------------------------------------------------
      1          6           0       -3.331000   -0.556000   -2.039000
      2          1           0       -3.213000   -1.546000   -1.591000
      3          1           0       -2.527000   -0.211000   -2.694000
      4          1           0       -4.244000   -0.508000   -2.637000
      5          7           0       -3.566000    0.294000   -0.858000
      6          1           0       -4.340000   -0.081000   -0.348000
      7          6           0       -2.422000    0.405000    0.054000
      8          6           0       -1.254000    1.016000   -0.762000
      9          6           0       -0.012000    0.330000   -0.702000
     10          6           0        1.033000    0.823000   -1.500000
     11          6           0        0.869000    1.991000   -2.235000
     12          6           0       -0.357000    2.661000   -2.328000
     13          6           0       -1.399000    2.128000   -1.560000
     14          1           0       -2.386000    2.581000   -1.600000
     15          1           0       -0.422000    3.545000   -2.957000
     16          1           0        1.674000    2.387000   -2.848000
     17          1           0        1.966000    0.281000   -1.631000
     18          1           0       -2.646000    1.111000    0.857000
     19          6           0       -2.206000   -0.969000    0.732000
     20          1           0       -2.143000   -1.851000    0.091000
     21          1           0       -2.947000   -1.097000    1.524000
     22          6           0       -0.840000   -0.903000    1.363000
     23          1           0       -0.637000   -1.719000    2.060000
     24          1           0       -0.648000   -0.041000    2.006000
     25          6           0        0.327000   -0.867000    0.271000
     26          1           0        0.223000   -1.826000   -0.242000
     27          6           0        1.702000   -0.773000    1.019000
     28          6           0        2.067000    0.347000    1.727000
     29          1           0        1.398000    1.190000    1.879000
     30          6           0        3.261000    0.317000    2.424000
     31         17           0        3.652000    1.702000    3.365000
     32          6           0        4.180000   -0.764000    2.357000
     33         17           0        5.830000   -0.613000    2.891000
     34          6           0        3.858000   -1.830000    1.508000
     35          1           0        4.538000   -2.660000    1.336000
     36          6           0        2.631000   -1.757000    0.830000
     37          1           0        2.360000   -2.603000    0.204000
     38          1           0       -3.809000    1.212000   -1.173000
 ---------------------------------------------------------------------
                    Distance matrix (angstroms):
                    1          2          3          4          5
     1  C    0.000000
     2  H    1.093036   0.000000
     3  H    1.092916   1.862641   0.000000
     4  H    1.092464   1.798477   1.743430   0.000000
     5  N    1.473936   2.011839   2.169203   2.065848   0.000000
     6  H    2.025632   2.227421   2.967758   2.330465   0.999900
     7  C    2.475975   2.671724   2.818153   3.375609   1.467243
     8  C    2.901007   3.329980   2.618909   3.844256   2.424014
     9  C    3.686235   3.815245   3.253609   4.728244   3.557604
    10  C    4.608325   4.863019   3.894662   5.559771   4.673629
    11  C    4.915854   5.439470   4.073365   5.705206   4.944205
    12  C    4.390591   5.137972   3.618182   5.024620   4.249855
    13  C    3.341545   4.097540   2.833595   4.025227   2.924423
    14  H    3.305528   4.209054   3.001996   3.750927   2.678308
    15  H    5.111087   5.964387   4.313668   5.580044   4.985934
    16  H    5.862231   6.397758   4.941834   6.591530   5.983172
    17  H    5.378219   5.491955   4.643176   6.340241   5.585761
    18  H    3.411001   3.657026   3.790969   4.169269   2.110714
    19  C    3.019045   2.596788   3.523504   3.964357   2.443945
    20  H    2.761389   2.016693   3.254732   3.695921   2.743457
    21  H    3.624239   3.158414   4.330464   4.398074   2.827007
    22  C    4.230732   3.843266   4.447930   5.267185   3.714394
    23  H    5.041032   4.471633   5.333543   6.044732   4.598471
    24  H    4.881162   4.667190   5.064538   5.891244   4.102371
    25  C    4.337486   4.057054   4.167359   5.429492   4.216398
    26  H    4.180075   3.701932   4.022814   5.237102   4.385245
    27  C    5.893178   5.618439   5.655674   6.985090   5.693280
    28  C    6.643536   6.516976   6.400113   7.720378   6.198042
    29  H    6.384566   6.386542   6.187144   7.423586   5.738927
    30  C    8.008431   7.842428   7.744266   9.089520   7.574958
    31  Cl   9.113949   9.068609   8.862905  10.161443   8.480313
    32  C    8.705355   8.417522   8.414408   9.796395   8.453171
    33  Cl  10.403464  10.135811  10.059487  11.491531  10.156893
    34  C    8.117020   7.725510   7.813206   9.196255   8.076206
    35  H    8.816950   8.359804   8.494276   9.876202   8.900257
    36  C    6.724508   6.329147   6.435344   7.800366   6.742311
    37  H    6.450484   5.949588   6.164644   7.488199   6.681162
    38  H    2.025898   2.852456   2.445791   2.300200   1.000499
                    6          7          8          9         10
     6  H    0.000000
     7  C    2.019040   0.000000
     8  C    3.301242   1.550291   0.000000
     9  C    4.361860   2.526907   1.420127   0.000000
    10  C    5.568972   3.811386   2.410863   1.404236   0.000000
    11  C    5.915035   4.311102   2.761790   2.425937   1.389728
    12  C    5.225251   3.876556   2.441923   2.862946   2.448658
    13  C    3.872739   2.572985   1.376362   2.427496   2.760661
    14  H    3.531553   2.733494   2.105444   3.392533   3.845793
    15  H    5.941842   4.788081   3.450520   3.948335   3.413086
    16  H    6.964856   5.396957   3.847625   3.417479   2.161962
    17  H    6.445368   4.702036   3.415229   2.185847   1.086929
    18  H    2.396357   1.092438   2.137253   3.158860   4.378748
    19  C    2.551255   1.547325   2.660557   2.925302   4.322523
    20  H    2.855246   2.273488   3.120516   3.150678   4.446182
    21  H    2.545013   2.166225   3.543560   3.950396   5.354566
    22  C    3.981608   2.434557   2.893023   2.543639   3.831967
    23  H    4.711021   3.423688   3.978014   3.495378   4.682335
    24  H    4.378788   2.675125   3.024287   2.806314   3.983001
    25  C    4.773033   3.036787   2.666897   1.579386   2.547740
    26  H    4.886433   3.472895   3.244826   2.217016   3.042345
    27  C    6.233243   4.396167   3.887212   2.667629   3.056164
    28  C    6.748219   4.790972   4.203775   3.197276   3.421880
    29  H    6.284872   4.305723   3.746767   3.064190   3.418414
    30  C    8.100468   6.158014   5.569957   4.525989   4.540682
    31  Cl   8.990969   7.038353   6.447601   5.643383   5.594643
    32  C    8.965150   7.089201   6.513441   5.303506   5.224809
    33  Cl  10.686582   8.785237   8.135177   6.922995   6.659894
    34  C    8.585508   6.822590   6.275760   4.952434   4.905823
    35  H    9.397126   7.712286   7.173691   5.813437   5.697298
    36  C    7.265776   5.550606   5.031622   3.699735   3.826082
    37  H    7.180194   5.651379   5.204932   3.879395   4.049941
    38  H    1.623094   2.020036   2.595258   3.926445   4.868595
                   11         12         13         14         15
    11  C    0.000000
    12  C    1.400223   0.000000
    13  C    2.370278   1.399885   0.000000
    14  H    3.368434   2.157134   1.086728   0.000000
    15  H    2.145433   1.086886   2.216760   2.574498   0.000000
    16  H    1.086559   2.114341   3.342058   4.251910   2.397094
    17  H    2.119511   3.398020   3.839228   4.922486   4.256115
    18  H    4.763411   4.217374   2.903651   2.874952   5.041540
    19  C    5.198107   5.095027   3.936486   4.251250   6.096521
    20  H    5.407715   5.422131   4.371702   4.749858   6.431871
    21  H    6.182854   5.972317   4.723133   4.858166   6.928431
    22  C    4.923568   5.153529   4.247749   4.827809   6.214646
    23  H    5.871896   6.206234   5.337083   5.911396   7.275040
    24  H    4.941295   5.115568   4.240863   4.785265   6.127140
    25  C    3.839527   4.435024   3.911734   4.769666   5.517855
    26  H    4.354177   4.982064   4.472373   5.298367   6.052676
    27  C    4.349954   5.218644   4.968223   5.900866   6.242201
    28  C    4.453693   5.260551   5.097988   5.990734   6.193721
    29  H    4.224504   4.789855   4.530979   5.325127   5.678496
    30  C    5.498202   6.416055   6.392775   7.294305   7.275963
    31  Cl   6.260081   7.028656   7.067510   7.866467   7.743501
    32  C    6.295968   7.366425   7.404849   8.364163   8.245270
    33  Cl   7.593959   8.731323   8.920926   9.893097   9.517120
    34  C    6.127333   7.256046   7.260471   8.252522   8.194221
    35  H    6.917037   8.105490   8.158415   9.166785   9.029589
    36  C    5.152317   6.198373   6.086561   7.063528   7.195372
    37  H    5.410789   6.442267   6.294771   7.256224   7.451802
    38  H    4.859873   3.917899   2.607091   2.020252   4.483003
                   16         17         18         19         20
    16  H    0.000000
    17  H    2.449814   0.000000
    18  H    5.832461   5.305619   0.000000
    19  C    6.255680   4.954983   2.129701   0.000000
    20  H    6.416218   4.939088   3.100518   1.092142   0.000000
    21  H    7.253019   5.999206   2.326103   1.092121   1.807877
    22  C    5.905660   4.270776   2.752066   1.506145   2.052924
    23  H    6.803559   4.939544   3.673172   2.188114   2.482422
    24  H    5.903235   4.490484   2.576686   2.216218   3.029579
    25  C    4.704369   2.760766   3.618647   2.576628   2.664874
    26  H    5.161977   3.067054   4.250286   2.753755   2.389450
    27  C    4.994004   2.864108   4.741393   3.923423   4.099670
    28  C    5.024607   3.360167   4.853140   4.580438   5.023127
    29  H    4.884006   3.670014   4.171889   4.354963   4.998330
    30  C    5.881960   4.256917   6.162676   5.865556   6.272665
    31  Cl   6.556148   5.460939   6.804715   6.955796   7.544860
    32  C    6.580339   4.679526   7.236014   6.592696   6.804164
    33  Cl   7.694703   6.014833   8.885489   8.328584   8.540572
    34  C    6.444197   4.229575   7.167656   6.173783   6.166063
    35  H    7.154059   4.905890   8.127714   6.978956   6.843995
    36  C    5.622835   3.263769   6.006070   4.901746   4.831773
    37  H    5.889431   3.440918   6.267395   4.878227   4.566758
    38  H    5.852311   5.867465   2.341724   3.309894   3.708803
                   21         22         23         24         25
    21  H    0.000000
    22  C    2.122029   0.000000
    23  H    2.451587   1.092188   0.000000
    24  H    2.575434   1.092409   1.678905   0.000000
    25  C    3.513116   1.598640   2.203570   2.154791   0.000000
    26  H    3.701229   2.134929   2.459726   2.999728   1.092550
    27  C    4.687558   2.568463   2.729381   2.651885   1.568109
    28  C    5.221737   3.185223   3.419190   2.756739   2.573195
    29  H    4.922948   3.107338   3.554753   2.391152   2.822048
    30  C    6.430292   4.408211   4.412731   3.947552   3.826960
    31  Cl   7.400708   5.565258   5.639307   4.834763   5.218067
    32  C    7.183238   5.119351   4.919728   4.894437   4.382649
    33  Cl   8.895992   6.848926   6.613311   6.563147   6.100158
    34  C    6.844382   4.790778   4.530127   4.873660   3.863353
    35  H    7.648761   5.657797   5.309452   5.848304   4.699106
    36  C    5.659622   3.614035   3.492015   3.883230   2.532390
    37  H    5.672273   3.804377   3.634309   4.342708   2.674187
    38  H    3.653537   4.440662   5.394871   4.654887   4.849111
                   26         27         28         29         30
    26  H    0.000000
    27  C    2.210514   0.000000
    28  C    3.463990   1.374369   0.000000
    29  H    3.869822   2.164575   1.086883   0.000000
    30  C    4.574871   2.364869   1.382876   2.128362   0.000000
    31  Cl   6.100432   3.928338   2.651659   2.747882   1.719473
    32  C    4.851855   2.816169   2.469006   3.433092   1.420426
    33  Cl   6.536475   4.535457   4.054216   4.890560   2.771777
    34  C    4.034320   2.450450   2.827538   3.912754   2.409372
    35  H    4.669568   3.421133   3.911620   4.997694   3.417163
    36  C    2.636742   1.366389   2.355742   3.362365   2.690578
    37  H    2.317200   2.108575   3.332848   4.256515   3.777115
    38  H    5.133540   6.254295   6.609508   6.035564   7.982752
                   31         32         33         34         35
    31  Cl   0.000000
    32  C    2.715880   0.000000
    33  Cl   3.213656   1.740821   0.000000
    34  C    3.995736   1.400300   2.698622   0.000000
    35  H    4.891716   2.182984   2.877064   1.086685   0.000000
    36  C    4.408327   2.391062   3.973671   1.403760   2.169814
    37  H    5.494926   3.365966   4.818814   2.131185   2.455271
    38  H    8.746432   8.954864  10.618712   8.673201   9.537289
                   36         37         38
    36  C    0.000000
    37  H    1.086753   0.000000
    38  H    7.368892   7.382880   0.000000
 Stoichiometry    C17H18Cl2N(1+)
 Framework group  C1[X(C17H18Cl2N)]
 Deg. of freedom   108
 Full point group                 C1      NOp   1
 Largest Abelian subgroup         C1      NOp   1
 Largest concise Abelian subgroup C1      NOp   1
                         Standard orientation:                         
 ---------------------------------------------------------------------
 Center     Atomic      Atomic             Coordinates (Angstroms)
 Number     Number       Type             X           Y           Z
 ---------------------------------------------------------------------
      1          6           0       -5.027326   -0.923933   -0.744722
      2          1           0       -4.616609   -1.910068   -0.976187
      3          1           0       -4.686514   -0.089270   -1.362501
      4          1           0       -6.116756   -0.929512   -0.825894
      5          7           0       -4.721099   -0.788381    0.690665
      6          1           0       -5.105059   -1.576655    1.171289
      7          6           0       -3.290606   -0.706513    1.006558
      8          6           0       -2.738107    0.540799    0.270107
      9          6           0       -1.574216    0.346453   -0.520051
     10          6           0       -1.108783    1.446147   -1.258916
     11          6           0       -1.716897    2.689385   -1.132815
     12          6           0       -2.881870    2.889583   -0.382226
     13          6           0       -3.356030    1.769956    0.311522
     14          1           0       -4.269052    1.843482    0.896299
     15          1           0       -3.326970    3.880989   -0.364293
     16          1           0       -1.358931    3.549453   -1.692059
     17          1           0       -0.319208    1.352701   -2.000032
     18          1           0       -3.149179   -0.527608    2.074927
     19          6           0       -2.647605   -2.081898    0.708094
     20          1           0       -2.832620   -2.531163   -0.270018
     21          1           0       -2.885267   -2.771341    1.521061
     22          6           0       -1.160204   -1.845074    0.703019
     23          1           0       -0.568130   -2.762691    0.720386
     24          1           0       -0.751960   -1.329495    1.575300
     25          6           0       -0.694514   -0.964966   -0.547657
     26          1           0       -0.953833   -1.588669   -1.406386
     27          6           0        0.856080   -0.751436   -0.452642
     28          6           0        1.423362    0.010828    0.540351
     29          1           0        0.845958    0.435919    1.357184
     30          6           0        2.803139    0.081975    0.599497
     31         17           0        3.484844    0.976808    1.899935
     32          6           0        3.659681   -0.497491   -0.374241
     33         17           0        5.337177   -0.054149   -0.515345
     34          6           0        3.055082   -1.140013   -1.461655
     35          1           0        3.630959   -1.542005   -2.290902
     36          6           0        1.652388   -1.193898   -1.471042
     37          1           0        1.182840   -1.729268   -2.291979
     38          1           0       -5.167772    0.039238    1.032028
 ---------------------------------------------------------------------
 Rotational constants (GHZ):           0.5938328           0.1391865           0.1314833
 Leave Link  202 at Sun Jul 11 15:54:11 2021, MaxMem=   104857600 cpu:               0.0 elap:               0.0
 (Enter /prod/apps/gaussian/g16b1/l301.exe)
 Standard basis: 6-31G(d) (6D, 7F)
 Ernie: Thresh=  0.10000D-02 Tol=  0.10000D-05 Strict=F.
 There are   344 symmetry adapted cartesian basis functions of A   symmetry.
 There are   344 symmetry adapted basis functions of A   symmetry.
   344 basis functions,   680 primitive gaussians,   344 cartesian basis functions
    80 alpha electrons       80 beta electrons
       nuclear repulsion energy      1753.7479129550 Hartrees.
 IExCor=  402 DFT=T Ex+Corr=B3LYP ExCW=0 ScaHFX=  0.200000
 ScaDFX=  0.800000  0.720000  1.000000  0.810000 ScalE2=  1.000000  1.000000
 IRadAn=      5 IRanWt=     -1 IRanGd=            0 ICorTp=0 IEmpDi=  4
 NAtoms=   38 NActive=   38 NUniq=   38 SFac= 1.00D+00 NAtFMM=   60 NAOKFM=F Big=F
 Integral buffers will be    131072 words long.
 Raffenetti 2 integral format.
 Two-electron integral symmetry is turned on.
 Using the following non-standard input for PCM:
 MSTModel=DFT cav MSTCharged
 --- end of non-standard input.
 MST model for solvation energy: B3LYP parametrization.
 MST cavity parameters:
 ISph   IAn     Re0     Alpha   Atom Type   QCorr
 ------------------------------------------------
   1      6     1.50     1.25      CH3        F
   2      1     1.20     1.25      CH3        F
   3      1     1.20     1.25      CH3        F
   4      1     1.20     1.25      CH3        F
   5      7     1.55     1.15      NH         T
   6      1     0.90     1.15      NH         T
   7      6     1.50     1.25      CH         F
   8      6     1.50     1.25      C          F
   9      6     1.50     1.25      C          F
  10      6     1.50     1.25      CH         F
  11      6     1.50     1.25      CH         F
  12      6     1.50     1.25      CH         F
  13      6     1.50     1.25      CH         F
  14      1     1.20     1.25      CH         F
  15      1     1.20     1.25      CH         F
  16      1     1.20     1.25      CH         F
  17      1     1.20     1.25      CH         F
  18      1     1.20     1.25      CH         F
  19      6     1.50     1.25      CH2        F
  20      1     1.20     1.25      CH2        F
  21      1     1.20     1.25      CH2        F
  22      6     1.50     1.25      CH2        F
  23      1     1.20     1.25      CH2        F
  24      1     1.20     1.25      CH2        F
  25      6     1.50     1.25      CH         F
  26      1     1.20     1.25      CH         F
  27      6     1.50     1.25      C          F
  28      6     1.50     1.25      CH         F
  29      1     1.20     1.25      CH         F
  30      6     1.50     1.25      C          F
  31     17     1.80     1.25      Cl         F
  32      6     1.50     1.25      C          F
  33     17     1.80     1.25      Cl         F
  34      6     1.50     1.25      CH         F
  35      1     1.20     1.25      CH         F
  36      6     1.50     1.25      CH         F
  37      1     1.20     1.25      CH         F
  38      1     0.90     1.15      NH         T
 ------------------------------------------------------------------------------
 Polarizable Continuum Model (PCM)
 =================================
 Model                : PCM.
 Atomic radii         : MST.
 Polarization charges : Total charges.
 Charge compensation  : None.
 Solution method      : On-the-fly selection.
 Cavity type          : Scaled VdW (van der Waals Surface) (Alpha=1.250).
 Cavity algorithm     : GePol (No added spheres)
                        Default sphere list used, NSphG=   38.
                        Lebedev-Laikov grids with approx.  5.0 points / Ang**2.
                        Smoothing algorithm: York/Karplus (Gamma=1.0000).
                        Polarization charges: spherical gaussians, with
                                              point-specific exponents (IZeta= 3).
                        Self-potential: point-specific (ISelfS= 7).
                        Self-field    : sphere-specific E.n sum rule (ISelfD= 2).
 1st derivatives      : Analytical E(r).r(x)/FMM algorithm (CHGder, D1EAlg=3).
                        Cavity 1st derivative terms included.
 Solvent              : Water, Eps=  78.355300 Eps(inf)=   1.777849
 ------------------------------------------------------------------------------
 GePol: Number of generator spheres                  =      38
 GePol: Total number of spheres                      =      38
 GePol: Number of exposed spheres                    =      38 (100.00%)
 GePol: Number of points                             =    2910
 GePol: Average weight of points                     =       0.13
 GePol: Minimum weight of points                     =   0.12D-09
 GePol: Maximum weight of points                     =    0.21416
 GePol: Number of points with low weight             =     199
 GePol: Fraction of low-weight points (<1% of avg)   =       6.84%
 GePol: Cavity surface area                          =    364.966 Ang**2
 GePol: Cavity volume                                =    367.687 Ang**3
 PCM non-electrostatic energy =         0.0031256591 Hartrees.
 Nuclear repulsion after PCM non-electrostatic terms =     1753.7510386141 Hartrees.
 Leave Link  301 at Sun Jul 11 15:54:11 2021, MaxMem=   104857600 cpu:               0.4 elap:               0.1
 (Enter /prod/apps/gaussian/g16b1/l302.exe)
 NPDir=0 NMtPBC=     1 NCelOv=     1 NCel=       1 NClECP=     1 NCelD=      1
         NCelK=      1 NCelE2=     1 NClLst=     1 CellRange=     0.0.
 One-electron integrals computed using PRISM.
 One-electron integral symmetry used in STVInt
 NBasis=   344 RedAO= T EigKep=  4.23D-04  NBF=   344
 NBsUse=   344 1.00D-06 EigRej= -1.00D+00 NBFU=   344
 Precomputing XC quadrature grid using
 IXCGrd= 4 IRadAn=           5 IRanWt=          -1 IRanGd=           0 AccXCQ= 0.00D+00.
 Generated NRdTot=       0 NPtTot=           0 NUsed=           0 NTot=          32
 NSgBfM=   340   340   340   340   340 MxSgAt=    38 MxSgA2=    38.
 Leave Link  302 at Sun Jul 11 15:54:12 2021, MaxMem=   104857600 cpu:               2.0 elap:               0.5
 (Enter /prod/apps/gaussian/g16b1/l303.exe)
 DipDrv:  MaxL=1.
 Leave Link  303 at Sun Jul 11 15:54:12 2021, MaxMem=   104857600 cpu:               0.2 elap:               0.1
 (Enter /prod/apps/gaussian/g16b1/l401.exe)
 ExpMin= 1.43D-01 ExpMax= 2.52D+04 ExpMxC= 3.78D+03 IAcc=3 IRadAn=         5 AccDes= 0.00D+00
 Harris functional with IExCor=  402 and IRadAn=       5 diagonalized for initial guess.
 HarFok:  IExCor=  402 AccDes= 0.00D+00 IRadAn=         5 IDoV= 1 UseB2=F ITyADJ=14
 ICtDFT=  3500011 ScaDFX=  1.000000  1.000000  1.000000  1.000000
 FoFCou: FMM=F IPFlag=           0 FMFlag=      100000 FMFlg1=           0
         NFxFlg=           0 DoJE=T BraDBF=F KetDBF=T FulRan=T
         wScrn=  0.000000 ICntrl=       500 IOpCl=  0 I1Cent=   200000004 NGrid=           0
         NMat0=    1 NMatS0=      1 NMatT0=    0 NMatD0=    1 NMtDS0=    0 NMtDT0=    0
 Petite list used in FoFCou.
 Harris En= -1633.41094131340    
 JPrj=0 DoOrth=F DoCkMO=F.
 Leave Link  401 at Sun Jul 11 15:54:15 2021, MaxMem=   104857600 cpu:              10.8 elap:               2.7
 (Enter /prod/apps/gaussian/g16b1/l502.exe)
 Integral symmetry usage will be decided dynamically.
 Closed shell SCF:
 Using DIIS extrapolation, IDIIS=  1040.
 NGot=   104857600 LenX=   104614994 LenY=   104496217
 Requested convergence on RMS density matrix=1.00D-08 within 128 cycles.
 Requested convergence on MAX density matrix=1.00D-06.
 Requested convergence on             energy=1.00D-06.
 No special actions if energy rises.
 Fock matrices will be formed incrementally for  20 cycles.

 Cycle   1  Pass 1  IDiag  1:
 FoFJK:  IHMeth= 1 ICntrl=       0 DoSepK=F KAlg= 0 I1Cent=           0 FoldK=F
 IRaf= 810000000 NMat=       1 IRICut=       1 DoRegI=T DoRafI=F ISym2E= 0 IDoP0=0 IntGTp=1.
 FoFCou: FMM=F IPFlag=           0 FMFlag=      100000 FMFlg1=           0
         NFxFlg=           0 DoJE=F BraDBF=F KetDBF=F FulRan=T
         wScrn=  0.000000 ICntrl=         0 IOpCl=  0 I1Cent=           0 NGrid=           0
         NMat0=    1 NMatS0=      1 NMatT0=    0 NMatD0=    1 NMtDS0=    0 NMtDT0=    0
 Symmetry not used in FoFCou.
 Inv3:  Mode=1 IEnd=    25404300.
 Iteration    1 A*A^-1 deviation from unit magnitude is 3.66D-15 for   2583.
 Iteration    1 A*A^-1 deviation from orthogonality  is 3.22D-15 for   2204    414.
 Iteration    1 A^-1*A deviation from unit magnitude is 3.66D-15 for   2583.
 Iteration    1 A^-1*A deviation from orthogonality  is 2.45D-15 for   2581   2342.
 E= -1633.20253862839    
 DIIS: error= 2.92D-02 at cycle   1 NSaved=   1.
 NSaved= 1 IEnMin= 1 EnMin= -1633.20253862839     IErMin= 1 ErrMin= 2.92D-02
 ErrMax= 2.92D-02  0.00D+00 EMaxC= 1.00D-01 BMatC= 3.99D-01 BMatP= 3.99D-01
 IDIUse=3 WtCom= 7.08D-01 WtEn= 2.92D-01
 Coeff-Com:  0.100D+01
 Coeff-En:   0.100D+01
 Coeff:      0.100D+01
 Gap=     0.350 Goal=   None    Shift=    0.000
 GapD=    0.350 DampG=1.000 DampE=0.500 DampFc=0.5000 IDamp=-1.
 Damping current iteration by 5.00D-01
 RMSDP=4.43D-03 MaxDP=1.24D-01              OVMax= 2.65D-01

 Cycle   2  Pass 1  IDiag  1:
 RMSU=  2.19D-03    CP:  9.84D-01
 E= -1633.39593945795     Delta-E=       -0.193400829557 Rises=F Damp=T
 DIIS: error= 9.26D-03 at cycle   2 NSaved=   2.
 NSaved= 2 IEnMin= 2 EnMin= -1633.39593945795     IErMin= 2 ErrMin= 9.26D-03
 ErrMax= 9.26D-03  0.00D+00 EMaxC= 1.00D-01 BMatC= 2.73D-02 BMatP= 3.99D-01
 IDIUse=3 WtCom= 9.07D-01 WtEn= 9.26D-02
 Coeff-Com:  0.304D-01 0.970D+00
 Coeff-En:   0.819D-01 0.918D+00
 Coeff:      0.352D-01 0.965D+00
 Gap=     0.269 Goal=   None    Shift=    0.000
 RMSDP=1.22D-03 MaxDP=5.26D-02 DE=-1.93D-01 OVMax= 2.03D-01

 Cycle   3  Pass 1  IDiag  1:
 RMSU=  1.18D-03    CP:  9.75D-01  8.88D-01
 E= -1633.61603051432     Delta-E=       -0.220091056369 Rises=F Damp=F
 DIIS: error= 4.13D-03 at cycle   3 NSaved=   3.
 NSaved= 3 IEnMin= 3 EnMin= -1633.61603051432     IErMin= 3 ErrMin= 4.13D-03
 ErrMax= 4.13D-03  0.00D+00 EMaxC= 1.00D-01 BMatC= 1.28D-02 BMatP= 2.73D-02
 IDIUse=3 WtCom= 9.59D-01 WtEn= 4.13D-02
 Coeff-Com: -0.366D-01 0.391D+00 0.646D+00
 Coeff-En:   0.000D+00 0.000D+00 0.100D+01
 Coeff:     -0.351D-01 0.375D+00 0.660D+00
 Gap=     0.215 Goal=   None    Shift=    0.000
 RMSDP=6.01D-04 MaxDP=2.79D-02 DE=-2.20D-01 OVMax= 6.43D-02

 Cycle   4  Pass 1  IDiag  1:
 RMSU=  5.12D-04    CP:  9.77D-01  9.66D-01  7.77D-01
 E= -1633.62360744155     Delta-E=       -0.007576927238 Rises=F Damp=F
 DIIS: error= 2.81D-03 at cycle   4 NSaved=   4.
 NSaved= 4 IEnMin= 4 EnMin= -1633.62360744155     IErMin= 4 ErrMin= 2.81D-03
 ErrMax= 2.81D-03  0.00D+00 EMaxC= 1.00D-01 BMatC= 6.10D-03 BMatP= 1.28D-02
 IDIUse=3 WtCom= 9.72D-01 WtEn= 2.81D-02
 Coeff-Com: -0.255D-01 0.103D+00 0.425D+00 0.498D+00
 Coeff-En:   0.000D+00 0.000D+00 0.337D+00 0.663D+00
 Coeff:     -0.248D-01 0.100D+00 0.423D+00 0.502D+00
 Gap=     0.213 Goal=   None    Shift=    0.000
 RMSDP=2.97D-04 MaxDP=1.33D-02 DE=-7.58D-03 OVMax= 2.50D-02

 Cycle   5  Pass 1  IDiag  1:
 RMSU=  1.31D-04    CP:  9.76D-01  9.57D-01  8.50D-01  5.10D-01
 E= -1633.62992220841     Delta-E=       -0.006314766853 Rises=F Damp=F
 DIIS: error= 4.48D-04 at cycle   5 NSaved=   5.
 NSaved= 5 IEnMin= 5 EnMin= -1633.62992220841     IErMin= 5 ErrMin= 4.48D-04
 ErrMax= 4.48D-04  0.00D+00 EMaxC= 1.00D-01 BMatC= 2.05D-04 BMatP= 6.10D-03
 IDIUse=3 WtCom= 9.96D-01 WtEn= 4.48D-03
 Coeff-Com: -0.895D-02 0.211D-01 0.159D+00 0.243D+00 0.586D+00
 Coeff-En:   0.000D+00 0.000D+00 0.000D+00 0.000D+00 0.100D+01
 Coeff:     -0.891D-02 0.210D-01 0.158D+00 0.242D+00 0.588D+00
 Gap=     0.212 Goal=   None    Shift=    0.000
 RMSDP=6.20D-05 MaxDP=3.34D-03 DE=-6.31D-03 OVMax= 3.94D-03

 Cycle   6  Pass 1  IDiag  1:
 RMSU=  3.84D-05    CP:  9.76D-01  9.56D-01  8.55D-01  5.58D-01  6.83D-01
 E= -1633.63012088872     Delta-E=       -0.000198680312 Rises=F Damp=F
 DIIS: error= 1.12D-04 at cycle   6 NSaved=   6.
 NSaved= 6 IEnMin= 6 EnMin= -1633.63012088872     IErMin= 6 ErrMin= 1.12D-04
 ErrMax= 1.12D-04  0.00D+00 EMaxC= 1.00D-01 BMatC= 1.57D-05 BMatP= 2.05D-04
 IDIUse=3 WtCom= 9.99D-01 WtEn= 1.12D-03
 Coeff-Com: -0.263D-02 0.356D-02 0.484D-01 0.818D-01 0.289D+00 0.579D+00
 Coeff-En:   0.000D+00 0.000D+00 0.000D+00 0.000D+00 0.000D+00 0.100D+01
 Coeff:     -0.263D-02 0.356D-02 0.483D-01 0.818D-01 0.289D+00 0.580D+00
 Gap=     0.212 Goal=   None    Shift=    0.000
 RMSDP=1.67D-05 MaxDP=5.93D-04 DE=-1.99D-04 OVMax= 9.55D-04

 Cycle   7  Pass 1  IDiag  1:
 RMSU=  9.11D-06    CP:  9.76D-01  9.56D-01  8.58D-01  5.59D-01  7.18D-01
                    CP:  6.75D-01
 E= -1633.63013656021     Delta-E=       -0.000015671496 Rises=F Damp=F
 DIIS: error= 4.17D-05 at cycle   7 NSaved=   7.
 NSaved= 7 IEnMin= 7 EnMin= -1633.63013656021     IErMin= 7 ErrMin= 4.17D-05
 ErrMax= 4.17D-05  0.00D+00 EMaxC= 1.00D-01 BMatC= 1.18D-06 BMatP= 1.57D-05
 IDIUse=1 WtCom= 1.00D+00 WtEn= 0.00D+00
 Coeff-Com: -0.726D-03 0.278D-03 0.143D-01 0.250D-01 0.106D+00 0.285D+00
 Coeff-Com:  0.570D+00
 Coeff:     -0.726D-03 0.278D-03 0.143D-01 0.250D-01 0.106D+00 0.285D+00
 Coeff:      0.570D+00
 Gap=     0.212 Goal=   None    Shift=    0.000
 RMSDP=5.03D-06 MaxDP=1.87D-04 DE=-1.57D-05 OVMax= 5.26D-04

 Cycle   8  Pass 1  IDiag  1:
 RMSU=  3.51D-06    CP:  9.76D-01  9.56D-01  8.58D-01  5.59D-01  7.25D-01
                    CP:  7.29D-01  6.98D-01
 E= -1633.63013767502     Delta-E=       -0.000001114801 Rises=F Damp=F
 DIIS: error= 1.89D-05 at cycle   8 NSaved=   8.
 NSaved= 8 IEnMin= 8 EnMin= -1633.63013767502     IErMin= 8 ErrMin= 1.89D-05
 ErrMax= 1.89D-05  0.00D+00 EMaxC= 1.00D-01 BMatC= 2.25D-07 BMatP= 1.18D-06
 IDIUse=1 WtCom= 1.00D+00 WtEn= 0.00D+00
 Coeff-Com:  0.127D-03-0.561D-03-0.151D-02-0.268D-02 0.227D-02 0.467D-01
 Coeff-Com:  0.324D+00 0.631D+00
 Coeff:      0.127D-03-0.561D-03-0.151D-02-0.268D-02 0.227D-02 0.467D-01
 Coeff:      0.324D+00 0.631D+00
 Gap=     0.212 Goal=   None    Shift=    0.000
 RMSDP=1.80D-06 MaxDP=7.24D-05 DE=-1.11D-06 OVMax= 1.76D-04

 Cycle   9  Pass 1  IDiag  1:
 RMSU=  1.06D-06    CP:  9.76D-01  9.56D-01  8.58D-01  5.59D-01  7.27D-01
                    CP:  7.29D-01  8.04D-01  7.42D-01
 E= -1633.63013793117     Delta-E=       -0.000000256154 Rises=F Damp=F
 DIIS: error= 3.63D-06 at cycle   9 NSaved=   9.
 NSaved= 9 IEnMin= 9 EnMin= -1633.63013793117     IErMin= 9 ErrMin= 3.63D-06
 ErrMax= 3.63D-06  0.00D+00 EMaxC= 1.00D-01 BMatC= 1.15D-08 BMatP= 2.25D-07
 IDIUse=1 WtCom= 1.00D+00 WtEn= 0.00D+00
 Coeff-Com:  0.111D-03-0.276D-03-0.160D-02-0.298D-02-0.590D-02 0.216D-02
 Coeff-Com:  0.105D+00 0.284D+00 0.620D+00
 Coeff:      0.111D-03-0.276D-03-0.160D-02-0.298D-02-0.590D-02 0.216D-02
 Coeff:      0.105D+00 0.284D+00 0.620D+00
 Gap=     0.212 Goal=   None    Shift=    0.000
 RMSDP=4.59D-07 MaxDP=1.95D-05 DE=-2.56D-07 OVMax= 3.70D-05

 Cycle  10  Pass 1  IDiag  1:
 RMSU=  3.10D-07    CP:  9.76D-01  9.56D-01  8.58D-01  5.59D-01  7.27D-01
                    CP:  7.33D-01  8.16D-01  7.80D-01  8.34D-01
 E= -1633.63013794343     Delta-E=       -0.000000012265 Rises=F Damp=F
 DIIS: error= 8.10D-07 at cycle  10 NSaved=  10.
 NSaved=10 IEnMin=10 EnMin= -1633.63013794343     IErMin=10 ErrMin= 8.10D-07
 ErrMax= 8.10D-07  0.00D+00 EMaxC= 1.00D-01 BMatC= 1.07D-09 BMatP= 1.15D-08
 IDIUse=1 WtCom= 1.00D+00 WtEn= 0.00D+00
 Coeff-Com:  0.328D-04-0.519D-04-0.488D-03-0.974D-03-0.260D-02-0.401D-02
 Coeff-Com:  0.764D-02 0.509D-01 0.270D+00 0.680D+00
 Coeff:      0.328D-04-0.519D-04-0.488D-03-0.974D-03-0.260D-02-0.401D-02
 Coeff:      0.764D-02 0.509D-01 0.270D+00 0.680D+00
 Gap=     0.212 Goal=   None    Shift=    0.000
 RMSDP=1.37D-07 MaxDP=5.04D-06 DE=-1.23D-08 OVMax= 1.44D-05

 Cycle  11  Pass 1  IDiag  1:
 RMSU=  9.38D-08    CP:  9.76D-01  9.56D-01  8.58D-01  5.59D-01  7.27D-01
                    CP:  7.33D-01  8.21D-01  7.95D-01  8.77D-01  8.22D-01
 E= -1633.63013794464     Delta-E=       -0.000000001205 Rises=F Damp=F
 DIIS: error= 2.14D-07 at cycle  11 NSaved=  11.
 NSaved=11 IEnMin=11 EnMin= -1633.63013794464     IErMin=11 ErrMin= 2.14D-07
 ErrMax= 2.14D-07  0.00D+00 EMaxC= 1.00D-01 BMatC= 7.78D-11 BMatP= 1.07D-09
 IDIUse=1 WtCom= 1.00D+00 WtEn= 0.00D+00
 Coeff-Com:  0.243D-05 0.547D-05-0.414D-04-0.104D-03-0.399D-03-0.165D-02
 Coeff-Com: -0.664D-02-0.611D-02 0.492D-01 0.265D+00 0.701D+00
 Coeff:      0.243D-05 0.547D-05-0.414D-04-0.104D-03-0.399D-03-0.165D-02
 Coeff:     -0.664D-02-0.611D-02 0.492D-01 0.265D+00 0.701D+00
 Gap=     0.212 Goal=   None    Shift=    0.000
 RMSDP=4.57D-08 MaxDP=1.86D-06 DE=-1.21D-09 OVMax= 4.03D-06

 Cycle  12  Pass 1  IDiag  1:
 RMSU=  2.91D-08    CP:  9.76D-01  9.56D-01  8.58D-01  5.59D-01  7.27D-01
                    CP:  7.33D-01  8.21D-01  7.97D-01  8.99D-01  8.76D-01
                    CP:  8.33D-01
 E= -1633.63013794474     Delta-E=       -0.000000000097 Rises=F Damp=F
 DIIS: error= 9.65D-08 at cycle  12 NSaved=  12.
 NSaved=12 IEnMin=12 EnMin= -1633.63013794474     IErMin=12 ErrMin= 9.65D-08
 ErrMax= 9.65D-08  0.00D+00 EMaxC= 1.00D-01 BMatC= 9.02D-12 BMatP= 7.78D-11
 IDIUse=1 WtCom= 1.00D+00 WtEn= 0.00D+00
 Coeff-Com: -0.227D-05 0.760D-05 0.305D-04 0.547D-04 0.970D-04-0.363D-03
 Coeff-Com: -0.392D-02-0.849D-02-0.674D-02 0.460D-01 0.297D+00 0.676D+00
 Coeff:     -0.227D-05 0.760D-05 0.305D-04 0.547D-04 0.970D-04-0.363D-03
 Coeff:     -0.392D-02-0.849D-02-0.674D-02 0.460D-01 0.297D+00 0.676D+00
 Gap=     0.212 Goal=   None    Shift=    0.000
 RMSDP=1.39D-08 MaxDP=5.18D-07 DE=-9.69D-11 OVMax= 1.42D-06

 Cycle  13  Pass 1  IDiag  1:
 RMSU=  8.62D-09    CP:  9.76D-01  9.56D-01  8.58D-01  5.59D-01  7.27D-01
                    CP:  7.33D-01  8.21D-01  7.98D-01  9.01D-01  8.89D-01
                    CP:  9.00D-01  8.60D-01
 E= -1633.63013794473     Delta-E=        0.000000000008 Rises=F Damp=F
 DIIS: error= 3.07D-08 at cycle  13 NSaved=  13.
 NSaved=13 IEnMin=12 EnMin= -1633.63013794474     IErMin=13 ErrMin= 3.07D-08
 ErrMax= 3.07D-08  0.00D+00 EMaxC= 1.00D-01 BMatC= 1.28D-12 BMatP= 9.02D-12
 IDIUse=1 WtCom= 1.00D+00 WtEn= 0.00D+00
 Coeff-Com: -0.124D-05 0.309D-05 0.169D-04 0.340D-04 0.781D-04-0.335D-04
 Coeff-Com: -0.124D-02-0.346D-02-0.753D-02-0.152D-02 0.799D-01 0.335D+00
 Coeff-Com:  0.599D+00
 Coeff:     -0.124D-05 0.309D-05 0.169D-04 0.340D-04 0.781D-04-0.335D-04
 Coeff:     -0.124D-02-0.346D-02-0.753D-02-0.152D-02 0.799D-01 0.335D+00
 Coeff:      0.599D+00
 Gap=     0.212 Goal=   None    Shift=    0.000
 RMSDP=4.26D-09 MaxDP=1.96D-07 DE= 7.73D-12 OVMax= 3.85D-07

 Error on total polarization charges =  0.01835
 SCF Done:  E(RB3LYP) =  -1633.63013794     A.U. after   13 cycles
            NFock= 13  Conv=0.43D-08     -V/T= 2.0060
 KE= 1.623958369857D+03 PE=-7.325528687726D+03 EE= 2.314189141310D+03
 Leave Link  502 at Sun Jul 11 15:55:42 2021, MaxMem=   104857600 cpu:             349.2 elap:              87.3
 (Enter /prod/apps/gaussian/g16b1/l601.exe)
 Copying SCF densities to generalized density rwf, IOpCl= 0 IROHF=0.

 **********************************************************************

            Population analysis using the SCF Density.

 **********************************************************************

 Orbital symmetries:
       Occupied  (A) (A) (A) (A) (A) (A) (A) (A) (A) (A) (A) (A)
                 (A) (A) (A) (A) (A) (A) (A) (A) (A) (A) (A) (A)
                 (A) (A) (A) (A) (A) (A) (A) (A) (A) (A) (A) (A)
                 (A) (A) (A) (A) (A) (A) (A) (A) (A) (A) (A) (A)
                 (A) (A) (A) (A) (A) (A) (A) (A) (A) (A) (A) (A)
                 (A) (A) (A) (A) (A) (A) (A) (A) (A) (A) (A) (A)
                 (A) (A) (A) (A) (A) (A) (A) (A)
       Virtual   (A) (A) (A) (A) (A) (A) (A) (A) (A) (A) (A) (A)
                 (A) (A) (A) (A) (A) (A) (A) (A) (A) (A) (A) (A)
                 (A) (A) (A) (A) (A) (A) (A) (A) (A) (A) (A) (A)
                 (A) (A) (A) (A) (A) (A) (A) (A) (A) (A) (A) (A)
                 (A) (A) (A) (A) (A) (A) (A) (A) (A) (A) (A) (A)
                 (A) (A) (A) (A) (A) (A) (A) (A) (A) (A) (A) (A)
                 (A) (A) (A) (A) (A) (A) (A) (A) (A) (A) (A) (A)
                 (A) (A) (A) (A) (A) (A) (A) (A) (A) (A) (A) (A)
                 (A) (A) (A) (A) (A) (A) (A) (A) (A) (A) (A) (A)
                 (A) (A) (A) (A) (A) (A) (A) (A) (A) (A) (A) (A)
                 (A) (A) (A) (A) (A) (A) (A) (A) (A) (A) (A) (A)
                 (A) (A) (A) (A) (A) (A) (A) (A) (A) (A) (A) (A)
                 (A) (A) (A) (A) (A) (A) (A) (A) (A) (A) (A) (A)
                 (A) (A) (A) (A) (A) (A) (A) (A) (A) (A) (A) (A)
                 (A) (A) (A) (A) (A) (A) (A) (A) (A) (A) (A) (A)
                 (A) (A) (A) (A) (A) (A) (A) (A) (A) (A) (A) (A)
                 (A) (A) (A) (A) (A) (A) (A) (A) (A) (A) (A) (A)
                 (A) (A) (A) (A) (A) (A) (A) (A) (A) (A) (A) (A)
                 (A) (A) (A) (A) (A) (A) (A) (A) (A) (A) (A) (A)
                 (A) (A) (A) (A) (A) (A) (A) (A) (A) (A) (A) (A)
                 (A) (A) (A) (A) (A) (A) (A) (A) (A) (A) (A) (A)
                 (A) (A) (A) (A) (A) (A) (A) (A) (A) (A) (A) (A)
 The electronic state is 1-A.
 Alpha  occ. eigenvalues -- -101.56277-101.55922 -14.44736 -10.26789 -10.26662
 Alpha  occ. eigenvalues --  -10.25970 -10.23885 -10.21736 -10.21487 -10.21463
 Alpha  occ. eigenvalues --  -10.21374 -10.21360 -10.20941 -10.20317 -10.20261
 Alpha  occ. eigenvalues --  -10.20076 -10.20033 -10.19495 -10.19420 -10.19123
 Alpha  occ. eigenvalues --   -9.47909  -9.47627  -7.24317  -7.24011  -7.23336
 Alpha  occ. eigenvalues --   -7.23289  -7.23062  -7.23008  -1.02486  -0.92373
 Alpha  occ. eigenvalues --   -0.87555  -0.86934  -0.85281  -0.82323  -0.78502
 Alpha  occ. eigenvalues --   -0.75808  -0.75258  -0.74266  -0.73570  -0.70559
 Alpha  occ. eigenvalues --   -0.65366  -0.63455  -0.62865  -0.61043  -0.59246
 Alpha  occ. eigenvalues --   -0.58328  -0.56530  -0.55248  -0.52318  -0.51306
 Alpha  occ. eigenvalues --   -0.49713  -0.48917  -0.47791  -0.46983  -0.46308
 Alpha  occ. eigenvalues --   -0.44673  -0.44348  -0.43739  -0.42805  -0.42525
 Alpha  occ. eigenvalues --   -0.41905  -0.40974  -0.40224  -0.39920  -0.39530
 Alpha  occ. eigenvalues --   -0.38413  -0.37701  -0.36186  -0.35647  -0.35549
 Alpha  occ. eigenvalues --   -0.34996  -0.34213  -0.33168  -0.32710  -0.31715
 Alpha  occ. eigenvalues --   -0.31059  -0.26607  -0.25809  -0.25257  -0.24504
 Alpha virt. eigenvalues --   -0.03262  -0.02498  -0.01759  -0.01064   0.01019
 Alpha virt. eigenvalues --    0.06247   0.06379   0.08569   0.09171   0.10090
 Alpha virt. eigenvalues --    0.10986   0.11502   0.12467   0.13096   0.13439
 Alpha virt. eigenvalues --    0.13823   0.14527   0.15107   0.15545   0.16128
 Alpha virt. eigenvalues --    0.16422   0.17236   0.17625   0.18679   0.19357
 Alpha virt. eigenvalues --    0.20519   0.20921   0.21797   0.22215   0.23089
 Alpha virt. eigenvalues --    0.23408   0.24517   0.24916   0.26310   0.27441
 Alpha virt. eigenvalues --    0.28964   0.29583   0.31612   0.32254   0.33040
 Alpha virt. eigenvalues --    0.34276   0.34994   0.36595   0.37817   0.40289
 Alpha virt. eigenvalues --    0.41166   0.41562   0.44329   0.45262   0.45902
 Alpha virt. eigenvalues --    0.46893   0.47157   0.48531   0.49628   0.50211
 Alpha virt. eigenvalues --    0.50348   0.51038   0.51949   0.52490   0.54094
 Alpha virt. eigenvalues --    0.54210   0.55295   0.56271   0.56756   0.57179
 Alpha virt. eigenvalues --    0.57767   0.58429   0.58993   0.59850   0.60286
 Alpha virt. eigenvalues --    0.61203   0.61297   0.61831   0.62347   0.63139
 Alpha virt. eigenvalues --    0.64236   0.64685   0.65051   0.66542   0.66588
 Alpha virt. eigenvalues --    0.68245   0.68694   0.70000   0.72357   0.72609
 Alpha virt. eigenvalues --    0.74010   0.75035   0.76972   0.77850   0.78262
 Alpha virt. eigenvalues --    0.79712   0.80595   0.81106   0.81761   0.82052
 Alpha virt. eigenvalues --    0.82960   0.83990   0.84088   0.84777   0.84959
 Alpha virt. eigenvalues --    0.85628   0.85990   0.86456   0.86967   0.87363
 Alpha virt. eigenvalues --    0.88298   0.88479   0.89270   0.90431   0.91697
 Alpha virt. eigenvalues --    0.91933   0.92184   0.93381   0.94408   0.95507
 Alpha virt. eigenvalues --    0.96043   0.97205   0.97413   0.98819   0.99493
 Alpha virt. eigenvalues --    0.99625   1.01496   1.02487   1.03680   1.04189
 Alpha virt. eigenvalues --    1.05019   1.05717   1.07118   1.07825   1.09449
 Alpha virt. eigenvalues --    1.12570   1.13137   1.14008   1.14410   1.15572
 Alpha virt. eigenvalues --    1.17982   1.18997   1.19397   1.24561   1.25167
 Alpha virt. eigenvalues --    1.27955   1.28645   1.29936   1.32668   1.35451
 Alpha virt. eigenvalues --    1.36095   1.39191   1.39613   1.41038   1.41491
 Alpha virt. eigenvalues --    1.43081   1.44022   1.45046   1.48307   1.49740
 Alpha virt. eigenvalues --    1.50312   1.53296   1.55385   1.55989   1.57806
 Alpha virt. eigenvalues --    1.60282   1.62767   1.64576   1.67360   1.69194
 Alpha virt. eigenvalues --    1.69783   1.72141   1.74798   1.76004   1.77205
 Alpha virt. eigenvalues --    1.78538   1.80332   1.81023   1.82241   1.83550
 Alpha virt. eigenvalues --    1.86745   1.87703   1.88335   1.90349   1.92000
 Alpha virt. eigenvalues --    1.92921   1.94286   1.96168   1.97173   1.98237
 Alpha virt. eigenvalues --    2.00795   2.01866   2.03890   2.04328   2.06180
 Alpha virt. eigenvalues --    2.06312   2.08301   2.09863   2.11996   2.12999
 Alpha virt. eigenvalues --    2.13680   2.14634   2.16047   2.17264   2.18017
 Alpha virt. eigenvalues --    2.19455   2.21010   2.21815   2.24182   2.25371
 Alpha virt. eigenvalues --    2.26242   2.27425   2.29149   2.30202   2.30895
 Alpha virt. eigenvalues --    2.32913   2.34739   2.35341   2.37524   2.41668
 Alpha virt. eigenvalues --    2.43303   2.43644   2.50951   2.53471   2.54184
 Alpha virt. eigenvalues --    2.56763   2.58635   2.59517   2.60770   2.62003
 Alpha virt. eigenvalues --    2.62770   2.64302   2.65629   2.68939   2.69746
 Alpha virt. eigenvalues --    2.74164   2.75169   2.76271   2.77284   2.79839
 Alpha virt. eigenvalues --    2.80473   2.82469   2.84340   2.89683   2.93807
 Alpha virt. eigenvalues --    3.05421   3.11664   3.33753   3.38224   3.92412
 Alpha virt. eigenvalues --    4.00706   4.08410   4.09146   4.13043   4.15119
 Alpha virt. eigenvalues --    4.16168   4.22917   4.23940   4.25129   4.27283
 Alpha virt. eigenvalues --    4.32628   4.33975   4.35606   4.40010   4.42008
 Alpha virt. eigenvalues --    4.55708   4.57807   4.67633   4.73567
          Condensed to atoms (all electrons):
               1          2          3          4          5          6
     1  C    5.049331   0.384294   0.381827   0.376847   0.248522  -0.019480
     2  H    0.384294   0.481105  -0.017925  -0.020786  -0.044033  -0.003315
     3  H    0.381827  -0.017925   0.459080  -0.028091  -0.026701   0.002782
     4  H    0.376847  -0.020786  -0.028091   0.488412  -0.028849  -0.002227
     5  N    0.248522  -0.044033  -0.026701  -0.028849   6.761610   0.301772
     6  H   -0.019480  -0.003315   0.002782  -0.002227   0.301772   0.279898
     7  C   -0.047884  -0.004264  -0.006799   0.004911   0.222266  -0.020009
     8  C   -0.004307  -0.001110   0.009192   0.000258  -0.062947   0.005134
     9  C    0.000225  -0.000036  -0.000005   0.000033   0.000196  -0.000036
    10  C    0.000024  -0.000012  -0.000085   0.000000  -0.000153   0.000004
    11  C    0.000023  -0.000001   0.000037  -0.000001   0.000022  -0.000000
    12  C   -0.000391   0.000013   0.000242  -0.000006   0.000100   0.000005
    13  C   -0.004408   0.000248   0.002774   0.000099  -0.000783  -0.000034
    14  H    0.000360  -0.000007  -0.000002  -0.000008   0.001257  -0.000127
    15  H   -0.000003   0.000000   0.000002  -0.000000  -0.000000  -0.000000
    16  H    0.000000  -0.000000  -0.000000  -0.000000   0.000000  -0.000000
    17  H   -0.000000   0.000000  -0.000004  -0.000000   0.000001  -0.000000
    18  H    0.004289  -0.000047   0.000118  -0.000134  -0.031763  -0.001799
    19  C   -0.008179   0.006612  -0.000337   0.000144  -0.054991  -0.003352
    20  H   -0.000632   0.005267   0.000161   0.000034  -0.003013  -0.000284
    21  H    0.000200   0.000068   0.000013  -0.000024  -0.001473   0.003287
    22  C    0.000066  -0.000383  -0.000015  -0.000005   0.004404  -0.000021
    23  H   -0.000004   0.000014  -0.000000  -0.000000  -0.000106  -0.000009
    24  H   -0.000008   0.000006   0.000001   0.000000   0.000202  -0.000002
    25  C    0.000040  -0.000069   0.000040   0.000001   0.000109   0.000005
    26  H   -0.000016   0.000046   0.000012  -0.000000   0.000068  -0.000003
    27  C    0.000002  -0.000001   0.000001   0.000000  -0.000004   0.000000
    28  C   -0.000000   0.000000   0.000000  -0.000000   0.000000  -0.000000
    29  H    0.000000   0.000000   0.000000  -0.000000   0.000000  -0.000000
    30  C   -0.000000   0.000000   0.000000  -0.000000   0.000000  -0.000000
    31  Cl  -0.000000  -0.000000   0.000000   0.000000  -0.000000   0.000000
    32  C    0.000000  -0.000000   0.000000  -0.000000   0.000000  -0.000000
    33  Cl  -0.000000  -0.000000  -0.000000  -0.000000   0.000000  -0.000000
    34  C   -0.000000  -0.000000  -0.000000   0.000000   0.000000  -0.000000
    35  H   -0.000000   0.000000   0.000000  -0.000000   0.000000   0.000000
    36  C   -0.000000   0.000000  -0.000000   0.000000   0.000000   0.000000
    37  H   -0.000000   0.000000   0.000000  -0.000000   0.000000   0.000000
    38  H   -0.022635   0.004220  -0.001940  -0.002925   0.295436  -0.011721
               7          8          9         10         11         12
     1  C   -0.047884  -0.004307   0.000225   0.000024   0.000023  -0.000391
     2  H   -0.004264  -0.001110  -0.000036  -0.000012  -0.000001   0.000013
     3  H   -0.006799   0.009192  -0.000005  -0.000085   0.000037   0.000242
     4  H    0.004911   0.000258   0.000033   0.000000  -0.000001  -0.000006
     5  N    0.222266  -0.062947   0.000196  -0.000153   0.000022   0.000100
     6  H   -0.020009   0.005134  -0.000036   0.000004  -0.000000   0.000005
     7  C    5.122063   0.326900  -0.038346   0.009116  -0.000040   0.005170
     8  C    0.326900   4.844862   0.552004  -0.042681  -0.038523  -0.025313
     9  C   -0.038346   0.552004   4.792753   0.507495  -0.021823  -0.037192
    10  C    0.009116  -0.042681   0.507495   5.028514   0.519172  -0.030197
    11  C   -0.000040  -0.038523  -0.021823   0.519172   4.893728   0.540077
    12  C    0.005170  -0.025313  -0.037192  -0.030197   0.540077   4.872648
    13  C   -0.078345   0.502815  -0.025216  -0.060582  -0.031361   0.517654
    14  H   -0.008765  -0.052704   0.004595   0.000716   0.004685  -0.034130
    15  H   -0.000111   0.002424   0.000697   0.004284  -0.038318   0.364171
    16  H    0.000009   0.001125   0.003662  -0.038308   0.358656  -0.043658
    17  H   -0.000168   0.004395  -0.040066   0.360777  -0.042639   0.004393
    18  H    0.373151  -0.033260   0.000336  -0.000258   0.000027  -0.000044
    19  C    0.361871  -0.032808  -0.012443  -0.000258   0.000001  -0.000092
    20  H   -0.032512  -0.001768  -0.000855  -0.000122  -0.000001   0.000001
    21  H   -0.027059   0.003006   0.000378   0.000010  -0.000000   0.000001
    22  C   -0.039179  -0.010986  -0.034294   0.004718  -0.000192   0.000006
    23  H    0.004522   0.000456   0.004427  -0.000106   0.000002  -0.000000
    24  H   -0.004191  -0.000519  -0.004780   0.000007   0.000009  -0.000008
    25  C   -0.028695  -0.033138   0.316439  -0.068073   0.005653   0.000118
    26  H    0.000633   0.000602  -0.032218  -0.002596  -0.000038   0.000003
    27  C    0.000108   0.000699  -0.035215  -0.004870   0.000186   0.000022
    28  C   -0.000053   0.000692  -0.002574  -0.000624  -0.000121  -0.000015
    29  H   -0.000011   0.000229   0.003256   0.000786  -0.000033  -0.000013
    30  C    0.000001   0.000003   0.000225   0.000033  -0.000011  -0.000000
    31  Cl  -0.000000  -0.000000  -0.000004   0.000009   0.000001  -0.000000
    32  C   -0.000000   0.000000   0.000031  -0.000009  -0.000000   0.000000
    33  Cl   0.000000   0.000000  -0.000000   0.000000   0.000000  -0.000000
    34  C    0.000000   0.000002  -0.000098  -0.000054   0.000001  -0.000000
[...]
 Rotational constants (GHZ):           0.5988694           0.1366642           0.1292537
 Leave Link  202 at Sun Jul 11 16:40:12 2021, MaxMem=   262144000 cpu:               0.0 elap:               0.0
 (Enter /prod/apps/gaussian/g16b1/l301.exe)
 Standard basis: Aug-CC-pVDZ (5D, 7F)
 Ernie: Thresh=  0.10000D-02 Tol=  0.10000D-05 Strict=F.
 Ernie:  56 primitive shells out of 682 were deleted.
 There are   670 symmetry adapted cartesian basis functions of A   symmetry.
 There are   630 symmetry adapted basis functions of A   symmetry.
   630 basis functions,  1134 primitive gaussians,   670 cartesian basis functions
    80 alpha electrons       80 beta electrons
       nuclear repulsion energy      1746.9928459903 Hartrees.
 IExCor=    0 DFT=F Ex=HF Corr=None ExCW=0 ScaHFX=  1.000000
 ScaDFX=  1.000000  1.000000  1.000000  1.000000 ScalE2=  1.000000  1.000000
 IRadAn=      5 IRanWt=     -1 IRanGd=            0 ICorTp=0 IEmpDi=  4
 NAtoms=   38 NActive=   38 NUniq=   38 SFac= 1.00D+00 NAtFMM=   60 NAOKFM=F Big=F
 Integral buffers will be    131072 words long.
 Raffenetti 1 integral format.
 Two-electron integral symmetry is turned on.
 Leave Link  301 at Sun Jul 11 16:40:13 2021, MaxMem=   262144000 cpu:               0.2 elap:               0.1
 (Enter /prod/apps/gaussian/g16b1/l302.exe)
 NPDir=0 NMtPBC=     1 NCelOv=     1 NCel=       1 NClECP=     1 NCelD=      1
         NCelK=      1 NCelE2=     1 NClLst=     1 CellRange=     0.0.
 One-electron integrals computed using PRISM.
 One-electron integral symmetry used in STVInt
 NBasis=   630 RedAO= T EigKep=  1.32D-06  NBF=   630
 NBsUse=   627 1.00D-06 EigRej=  9.45D-07 NBFU=   627
 Leave Link  302 at Sun Jul 11 16:40:13 2021, MaxMem=   262144000 cpu:               2.1 elap:               0.5
 (Enter /prod/apps/gaussian/g16b1/l303.exe)
 DipDrv:  MaxL=1.
 Leave Link  303 at Sun Jul 11 16:40:13 2021, MaxMem=   262144000 cpu:               0.5 elap:               0.1
 (Enter /prod/apps/gaussian/g16b1/l401.exe)
 ExpMin= 2.97D-02 ExpMax= 1.28D+05 ExpMxC= 1.24D+03 IAcc=3 IRadAn=         5 AccDes= 0.00D+00
 Harris functional with IExCor=  205 and IRadAn=       5 diagonalized for initial guess.
 HarFok:  IExCor=  205 AccDes= 0.00D+00 IRadAn=         5 IDoV= 1 UseB2=F ITyADJ=14
 ICtDFT=  3500011 ScaDFX=  1.000000  1.000000  1.000000  1.000000
 FoFCou: FMM=F IPFlag=           0 FMFlag=      100000 FMFlg1=           0
         NFxFlg=           0 DoJE=T BraDBF=F KetDBF=T FulRan=T
         wScrn=  0.000000 ICntrl=       500 IOpCl=  0 I1Cent=   200000004 NGrid=           0
         NMat0=    1 NMatS0=      1 NMatT0=    0 NMatD0=    1 NMtDS0=    0 NMtDT0=    0
 Petite list used in FoFCou.
 Harris En= -1627.73891929686    
 JPrj=0 DoOrth=F DoCkMO=F.
 Leave Link  401 at Sun Jul 11 16:40:18 2021, MaxMem=   262144000 cpu:              19.2 elap:               4.8
 (Enter /prod/apps/gaussian/g16b1/l502.exe)
 Integral symmetry usage will be decided dynamically.
 Closed shell SCF:
 Using DIIS extrapolation, IDIIS=  1040.
 NGot=   262144000 LenX=   261235912 LenY=   260786342
 Requested convergence on RMS density matrix=1.00D-08 within 128 cycles.
 Requested convergence on MAX density matrix=1.00D-06.
 Requested convergence on             energy=1.00D-06.
 No special actions if energy rises.
 Fock matrices will be formed incrementally for  20 cycles.

 Cycle   1  Pass 1  IDiag  1:
 FoFJK:  IHMeth= 1 ICntrl=       0 DoSepK=F KAlg= 0 I1Cent=           0 FoldK=F
 IRaf= 930000000 NMat=       1 IRICut=       1 DoRegI=T DoRafI=F ISym2E= 0 IDoP0=0 IntGTp=1.
 FoFCou: FMM=F IPFlag=           0 FMFlag=      100000 FMFlg1=           0
         NFxFlg=           0 DoJE=F BraDBF=F KetDBF=F FulRan=T
         wScrn=  0.000000 ICntrl=         0 IOpCl=  0 I1Cent=           0 NGrid=           0
         NMat0=    1 NMatS0=      1 NMatT0=    0 NMatD0=    1 NMtDS0=    0 NMtDT0=    0
 Symmetry not used in FoFCou.
 E= -1626.81766527356    
 DIIS: error= 1.45D-02 at cycle   1 NSaved=   1.
 NSaved= 1 IEnMin= 1 EnMin= -1626.81766527356     IErMin= 1 ErrMin= 1.45D-02
 ErrMax= 1.45D-02  0.00D+00 EMaxC= 1.00D-01 BMatC= 9.45D-01 BMatP= 9.45D-01
 IDIUse=3 WtCom= 8.55D-01 WtEn= 1.45D-01
 Coeff-Com:  0.100D+01
 Coeff-En:   0.100D+01
 Coeff:      0.100D+01
 Gap=     0.564 Goal=   None    Shift=    0.000
 GapD=    0.564 DampG=2.000 DampE=0.500 DampFc=1.0000 IDamp=-1.
 RMSDP=6.97D-02 MaxDP=7.70D+00              OVMax= 1.89D-01

 Cycle   2  Pass 1  IDiag  1:
 RMSU=  3.50D-02    CP:  5.19D-01
 E= -1627.41907786080     Delta-E=       -0.601412587243 Rises=F Damp=F
 DIIS: error= 8.69D-03 at cycle   2 NSaved=   2.
 NSaved= 2 IEnMin= 2 EnMin= -1627.41907786080     IErMin= 2 ErrMin= 8.69D-03
 ErrMax= 8.69D-03  0.00D+00 EMaxC= 1.00D-01 BMatC= 1.38D-01 BMatP= 9.45D-01
 IDIUse=3 WtCom= 9.13D-01 WtEn= 8.69D-02
 Coeff-Com:  0.216D+00 0.784D+00
 Coeff-En:   0.000D+00 0.100D+01
 Coeff:      0.197D+00 0.803D+00
 Gap=     0.382 Goal=   None    Shift=    0.000
 RMSDP=9.40D-03 MaxDP=6.99D-01 DE=-6.01D-01 OVMax= 9.28D-02

 Cycle   3  Pass 1  IDiag  1:
 RMSU=  9.30D-03    CP:  5.19D-01  9.61D-01
 E= -1627.55571236955     Delta-E=       -0.136634508748 Rises=F Damp=F
 DIIS: error= 2.31D-03 at cycle   3 NSaved=   3.
 NSaved= 3 IEnMin= 3 EnMin= -1627.55571236955     IErMin= 3 ErrMin= 2.31D-03
 ErrMax= 2.31D-03  0.00D+00 EMaxC= 1.00D-01 BMatC= 1.18D-02 BMatP= 1.38D-01
 IDIUse=3 WtCom= 9.77D-01 WtEn= 2.31D-02
 Coeff-Com: -0.217D-01 0.181D+00 0.841D+00
 Coeff-En:   0.000D+00 0.000D+00 0.100D+01
 Coeff:     -0.212D-01 0.177D+00 0.844D+00
 Gap=     0.329 Goal=   None    Shift=    0.000
 RMSDP=3.15D-03 MaxDP=2.59D-01 DE=-1.37D-01 OVMax= 3.65D-02

 Cycle   4  Pass 1  IDiag  1:
 RMSU=  1.89D-03    CP:  5.09D-01  1.00D+00  8.24D-01
 E= -1627.56889705840     Delta-E=       -0.013184688844 Rises=F Damp=F
 DIIS: error= 6.34D-04 at cycle   4 NSaved=   4.
 NSaved= 4 IEnMin= 4 EnMin= -1627.56889705840     IErMin= 4 ErrMin= 6.34D-04
 ErrMax= 6.34D-04  0.00D+00 EMaxC= 1.00D-01 BMatC= 9.12D-04 BMatP= 1.18D-02
 IDIUse=3 WtCom= 9.94D-01 WtEn= 6.34D-03
 Coeff-Com: -0.140D-01 0.249D-01 0.257D+00 0.732D+00
 Coeff-En:   0.000D+00 0.000D+00 0.000D+00 0.100D+01
 Coeff:     -0.139D-01 0.248D-01 0.255D+00 0.734D+00
 Gap=     0.323 Goal=   None    Shift=    0.000
 RMSDP=5.78D-04 MaxDP=6.29D-02 DE=-1.32D-02 OVMax= 7.96D-03

 Cycle   5  Pass 1  IDiag  1:
 RMSU=  4.82D-04    CP:  5.07D-01  1.00D+00  8.34D-01  9.59D-01
 E= -1627.56994645028     Delta-E=       -0.001049391883 Rises=F Damp=F
 DIIS: error= 3.32D-04 at cycle   5 NSaved=   5.
 NSaved= 5 IEnMin= 5 EnMin= -1627.56994645028     IErMin= 5 ErrMin= 3.32D-04
 ErrMax= 3.32D-04  0.00D+00 EMaxC= 1.00D-01 BMatC= 8.97D-05 BMatP= 9.12D-04
 IDIUse=3 WtCom= 9.97D-01 WtEn= 3.32D-03
 Coeff-Com: -0.223D-03-0.185D-01-0.507D-01 0.151D+00 0.918D+00
 Coeff-En:   0.000D+00 0.000D+00 0.000D+00 0.000D+00 0.100D+01
 Coeff:     -0.223D-03-0.184D-01-0.505D-01 0.151D+00 0.919D+00
 Gap=     0.325 Goal=   None    Shift=    0.000
 RMSDP=2.33D-04 MaxDP=2.10D-02 DE=-1.05D-03 OVMax= 4.43D-03

 Cycle   6  Pass 1  IDiag  1:
 RMSU=  1.40D-04    CP:  5.07D-01  1.01D+00  8.41D-01  1.03D+00  9.50D-01
 E= -1627.57009462075     Delta-E=       -0.000148170469 Rises=F Damp=F
 DIIS: error= 7.01D-05 at cycle   6 NSaved=   6.
 NSaved= 6 IEnMin= 6 EnMin= -1627.57009462075     IErMin= 6 ErrMin= 7.01D-05
 ErrMax= 7.01D-05  0.00D+00 EMaxC= 1.00D-01 BMatC= 9.27D-06 BMatP= 8.97D-05
 IDIUse=1 WtCom= 1.00D+00 WtEn= 0.00D+00
 Coeff-Com:  0.127D-02-0.712D-02-0.351D-01-0.437D-01 0.197D+00 0.888D+00
 Coeff:      0.127D-02-0.712D-02-0.351D-01-0.437D-01 0.197D+00 0.888D+00
 Gap=     0.324 Goal=   None    Shift=    0.000
 RMSDP=7.44D-05 MaxDP=5.42D-03 DE=-1.48D-04 OVMax= 1.38D-03

 Cycle   7  Pass 1  IDiag  1:
 RMSU=  5.91D-05    CP:  5.07D-01  1.01D+00  8.44D-01  1.04D+00  1.00D+00
                    CP:  1.15D+00
 E= -1627.57011276620     Delta-E=       -0.000018145453 Rises=F Damp=F
 DIIS: error= 3.77D-05 at cycle   7 NSaved=   7.
 NSaved= 7 IEnMin= 7 EnMin= -1627.57011276620     IErMin= 7 ErrMin= 3.77D-05
 ErrMax= 3.77D-05  0.00D+00 EMaxC= 1.00D-01 BMatC= 1.00D-06 BMatP= 9.27D-06
 IDIUse=1 WtCom= 1.00D+00 WtEn= 0.00D+00
 Coeff-Com:  0.221D-03 0.369D-03-0.430D-03-0.231D-01-0.558D-01 0.128D+00
 Coeff-Com:  0.951D+00
 Coeff:      0.221D-03 0.369D-03-0.430D-03-0.231D-01-0.558D-01 0.128D+00
 Coeff:      0.951D+00
 Gap=     0.325 Goal=   None    Shift=    0.000
 RMSDP=2.54D-05 MaxDP=2.27D-03 DE=-1.81D-05 OVMax= 8.43D-04

 Cycle   8  Pass 1  IDiag  1:
 RMSU=  1.81D-05    CP:  5.07D-01  1.01D+00  8.44D-01  1.04D+00  1.02D+00
                    CP:  1.23D+00  1.10D+00
 E= -1627.57011576595     Delta-E=       -0.000002999750 Rises=F Damp=F
 DIIS: error= 1.01D-05 at cycle   8 NSaved=   8.
 NSaved= 8 IEnMin= 8 EnMin= -1627.57011576595     IErMin= 8 ErrMin= 1.01D-05
 ErrMax= 1.01D-05  0.00D+00 EMaxC= 1.00D-01 BMatC= 1.99D-07 BMatP= 1.00D-06
 IDIUse=1 WtCom= 1.00D+00 WtEn= 0.00D+00
 Coeff-Com: -0.174D-03 0.104D-02 0.540D-02 0.604D-02-0.251D-01-0.138D+00
 Coeff-Com:  0.144D-01 0.114D+01
 Coeff:     -0.174D-03 0.104D-02 0.540D-02 0.604D-02-0.251D-01-0.138D+00
 Coeff:      0.144D-01 0.114D+01
 Gap=     0.325 Goal=   None    Shift=    0.000
 RMSDP=1.48D-05 MaxDP=1.07D-03 DE=-3.00D-06 OVMax= 4.86D-04

 Cycle   9  Pass 1  IDiag  1:
 RMSU=  9.37D-06    CP:  5.07D-01  1.01D+00  8.45D-01  1.04D+00  1.02D+00
                    CP:  1.26D+00  1.23D+00  1.26D+00
 E= -1627.57011664298     Delta-E=       -0.000000877027 Rises=F Damp=F
 DIIS: error= 5.93D-06 at cycle   9 NSaved=   9.
 NSaved= 9 IEnMin= 9 EnMin= -1627.57011664298     IErMin= 9 ErrMin= 5.93D-06
 ErrMax= 5.93D-06  0.00D+00 EMaxC= 1.00D-01 BMatC= 4.77D-08 BMatP= 1.99D-07
 IDIUse=1 WtCom= 1.00D+00 WtEn= 0.00D+00
 Coeff-Com: -0.852D-04 0.187D-03 0.141D-02 0.576D-02 0.563D-02-0.601D-01
 Coeff-Com: -0.185D+00 0.273D+00 0.959D+00
 Coeff:     -0.852D-04 0.187D-03 0.141D-02 0.576D-02 0.563D-02-0.601D-01
 Coeff:     -0.185D+00 0.273D+00 0.959D+00
 Gap=     0.325 Goal=   None    Shift=    0.000
 RMSDP=5.71D-06 MaxDP=3.09D-04 DE=-8.77D-07 OVMax= 2.87D-04

 Cycle  10  Pass 1  IDiag  1:
 RMSU=  3.69D-06    CP:  5.07D-01  1.01D+00  8.45D-01  1.04D+00  1.02D+00
                    CP:  1.27D+00  1.26D+00  1.40D+00  1.18D+00
 E= -1627.57011686379     Delta-E=       -0.000000220814 Rises=F Damp=F
 DIIS: error= 2.86D-06 at cycle  10 NSaved=  10.
 NSaved=10 IEnMin=10 EnMin= -1627.57011686379     IErMin=10 ErrMin= 2.86D-06
 ErrMax= 2.86D-06  0.00D+00 EMaxC= 1.00D-01 BMatC= 8.34D-09 BMatP= 4.77D-08
 IDIUse=1 WtCom= 1.00D+00 WtEn= 0.00D+00
 Coeff-Com:  0.430D-04-0.227D-03-0.128D-02-0.201D-02 0.466D-02 0.366D-01
 Coeff-Com:  0.171D-01-0.266D+00-0.127D+00 0.134D+01
 Coeff:      0.430D-04-0.227D-03-0.128D-02-0.201D-02 0.466D-02 0.366D-01
 Coeff:      0.171D-01-0.266D+00-0.127D+00 0.134D+01
 Gap=     0.325 Goal=   None    Shift=    0.000
 RMSDP=3.61D-06 MaxDP=1.61D-04 DE=-2.21D-07 OVMax= 1.59D-04

 Cycle  11  Pass 1  IDiag  1:
 RMSU=  1.91D-06    CP:  5.07D-01  1.01D+00  8.45D-01  1.04D+00  1.02D+00
                    CP:  1.27D+00  1.26D+00  1.46D+00  1.42D+00  1.37D+00
 E= -1627.57011692232     Delta-E=       -0.000000058530 Rises=F Damp=F
 DIIS: error= 9.77D-07 at cycle  11 NSaved=  11.
 NSaved=11 IEnMin=11 EnMin= -1627.57011692232     IErMin=11 ErrMin= 9.77D-07
 ErrMax= 9.77D-07  0.00D+00 EMaxC= 1.00D-01 BMatC= 1.35D-09 BMatP= 8.34D-09
 IDIUse=1 WtCom= 1.00D+00 WtEn= 0.00D+00
 Coeff-Com:  0.195D-04-0.555D-04-0.386D-03-0.121D-02-0.615D-03 0.141D-01
 Coeff-Com:  0.338D-01-0.682D-01-0.193D+00 0.965D-01 0.112D+01
 Coeff:      0.195D-04-0.555D-04-0.386D-03-0.121D-02-0.615D-03 0.141D-01
 Coeff:      0.338D-01-0.682D-01-0.193D+00 0.965D-01 0.112D+01
 Gap=     0.325 Goal=   None    Shift=    0.000
 RMSDP=1.37D-06 MaxDP=6.83D-05 DE=-5.85D-08 OVMax= 5.76D-05

 Cycle  12  Pass 1  IDiag  1:
 RMSU=  6.76D-07    CP:  5.07D-01  1.01D+00  8.45D-01  1.04D+00  1.02D+00
                    CP:  1.27D+00  1.26D+00  1.48D+00  1.48D+00  1.53D+00
                    CP:  1.35D+00
 E= -1627.57011693000     Delta-E=       -0.000000007675 Rises=F Damp=F
 DIIS: error= 2.43D-07 at cycle  12 NSaved=  12.
 NSaved=12 IEnMin=12 EnMin= -1627.57011693000     IErMin=12 ErrMin= 2.43D-07
 ErrMax= 2.43D-07  0.00D+00 EMaxC= 1.00D-01 BMatC= 1.69D-10 BMatP= 1.35D-09
 IDIUse=1 WtCom= 1.00D+00 WtEn= 0.00D+00
 Coeff-Com: -0.336D-05 0.259D-04 0.130D-03 0.163D-03-0.746D-03-0.377D-02
 Coeff-Com:  0.125D-02 0.348D-01-0.450D-02-0.198D+00 0.139D+00 0.103D+01
 Coeff:     -0.336D-05 0.259D-04 0.130D-03 0.163D-03-0.746D-03-0.377D-02
 Coeff:      0.125D-02 0.348D-01-0.450D-02-0.198D+00 0.139D+00 0.103D+01
 Gap=     0.325 Goal=   None    Shift=    0.000
 RMSDP=4.51D-07 MaxDP=2.53D-05 DE=-7.68D-09 OVMax= 1.65D-05

 Cycle  13  Pass 1  IDiag  1:
 RMSU=  2.43D-07    CP:  5.07D-01  1.01D+00  8.45D-01  1.04D+00  1.02D+00
                    CP:  1.27D+00  1.26D+00  1.49D+00  1.49D+00  1.56D+00
                    CP:  1.49D+00  1.19D+00
 E= -1627.57011693062     Delta-E=       -0.000000000627 Rises=F Damp=F
 DIIS: error= 9.92D-08 at cycle  13 NSaved=  13.
 NSaved=13 IEnMin=13 EnMin= -1627.57011693062     IErMin=13 ErrMin= 9.92D-08
 ErrMax= 9.92D-08  0.00D+00 EMaxC= 1.00D-01 BMatC= 1.58D-11 BMatP= 1.69D-10
 IDIUse=1 WtCom= 1.00D+00 WtEn= 0.00D+00
 Coeff-Com: -0.242D-05 0.929D-05 0.552D-04 0.157D-03-0.247D-04-0.203D-02
 Coeff-Com: -0.375D-02 0.122D-01 0.193D-01-0.367D-01-0.938D-01 0.135D+00
 Coeff-Com:  0.970D+00
 Coeff:     -0.242D-05 0.929D-05 0.552D-04 0.157D-03-0.247D-04-0.203D-02
 Coeff:     -0.375D-02 0.122D-01 0.193D-01-0.367D-01-0.938D-01 0.135D+00
 Coeff:      0.970D+00
 Gap=     0.325 Goal=   None    Shift=    0.000
 RMSDP=1.30D-07 MaxDP=6.02D-06 DE=-6.27D-10 OVMax= 3.83D-06

 Cycle  14  Pass 1  IDiag  1:
 RMSU=  8.21D-08    CP:  5.07D-01  1.01D+00  8.45D-01  1.04D+00  1.02D+00
                    CP:  1.27D+00  1.26D+00  1.49D+00  1.49D+00  1.56D+00
                    CP:  1.50D+00  1.28D+00  1.14D+00
 E= -1627.57011693066     Delta-E=       -0.000000000036 Rises=F Damp=F
 DIIS: error= 3.34D-08 at cycle  14 NSaved=  14.
 NSaved=14 IEnMin=14 EnMin= -1627.57011693066     IErMin=14 ErrMin= 3.34D-08
 ErrMax= 3.34D-08  0.00D+00 EMaxC= 1.00D-01 BMatC= 2.53D-12 BMatP= 1.58D-11
 IDIUse=1 WtCom= 1.00D+00 WtEn= 0.00D+00
 Coeff-Com:  0.139D-06-0.197D-05-0.987D-05-0.273D-05 0.856D-04 0.253D-03
 Coeff-Com: -0.545D-03-0.281D-02 0.214D-02 0.201D-01-0.270D-01-0.115D+00
 Coeff-Com:  0.117D+00 0.101D+01
 Coeff:      0.139D-06-0.197D-05-0.987D-05-0.273D-05 0.856D-04 0.253D-03
 Coeff:     -0.545D-03-0.281D-02 0.214D-02 0.201D-01-0.270D-01-0.115D+00
 Coeff:      0.117D+00 0.101D+01
 Gap=     0.325 Goal=   None    Shift=    0.000
 RMSDP=4.52D-08 MaxDP=3.44D-06 DE=-3.64D-11 OVMax= 1.36D-06

 Cycle  15  Pass 1  IDiag  1:
 RMSU=  3.16D-08    CP:  5.07D-01  1.01D+00  8.45D-01  1.04D+00  1.02D+00
                    CP:  1.27D+00  1.26D+00  1.49D+00  1.49D+00  1.56D+00
                    CP:  1.50D+00  1.29D+00  1.21D+00  1.15D+00
 E= -1627.57011693067     Delta-E=       -0.000000000010 Rises=F Damp=F
 DIIS: error= 2.55D-08 at cycle  15 NSaved=  15.
 NSaved=15 IEnMin=15 EnMin= -1627.57011693067     IErMin=15 ErrMin= 2.55D-08
 ErrMax= 2.55D-08  0.00D+00 EMaxC= 1.00D-01 BMatC= 4.72D-13 BMatP= 2.53D-12
 IDIUse=1 WtCom= 1.00D+00 WtEn= 0.00D+00
 Coeff-Com:  0.364D-06-0.152D-05-0.900D-05-0.245D-04 0.619D-05 0.334D-03
 Coeff-Com:  0.557D-03-0.200D-02-0.300D-02 0.734D-02 0.127D-01-0.295D-01
 Coeff-Com: -0.135D+00 0.718D-01 0.108D+01
 Coeff:      0.364D-06-0.152D-05-0.900D-05-0.245D-04 0.619D-05 0.334D-03
 Coeff:      0.557D-03-0.200D-02-0.300D-02 0.734D-02 0.127D-01-0.295D-01
 Coeff:     -0.135D+00 0.718D-01 0.108D+01
 Gap=     0.325 Goal=   None    Shift=    0.000
 RMSDP=2.44D-08 MaxDP=1.38D-06 DE=-1.00D-11 OVMax= 7.25D-07

 Cycle  16  Pass 1  IDiag  1:
 RMSU=  1.43D-08    CP:  5.07D-01  1.01D+00  8.45D-01  1.04D+00  1.02D+00
                    CP:  1.27D+00  1.26D+00  1.49D+00  1.49D+00  1.56D+00
                    CP:  1.50D+00  1.30D+00  1.23D+00  1.31D+00  1.31D+00
 E= -1627.57011693071     Delta-E=       -0.000000000037 Rises=F Damp=F
 DIIS: error= 9.19D-09 at cycle  16 NSaved=  16.
 NSaved=16 IEnMin=16 EnMin= -1627.57011693071     IErMin=16 ErrMin= 9.19D-09
 ErrMax= 9.19D-09  0.00D+00 EMaxC= 1.00D-01 BMatC= 1.18D-13 BMatP= 4.72D-13
 IDIUse=1 WtCom= 1.00D+00 WtEn= 0.00D+00
 Coeff-Com: -0.469D-07 0.519D-06 0.268D-05 0.112D-05-0.219D-04-0.679D-04
 Coeff-Com:  0.119D-03 0.687D-03-0.549D-03-0.458D-02 0.611D-02 0.264D-01
 Coeff-Com: -0.249D-01-0.225D+00-0.233D-01 0.124D+01
 Coeff:     -0.469D-07 0.519D-06 0.268D-05 0.112D-05-0.219D-04-0.679D-04
 Coeff:      0.119D-03 0.687D-03-0.549D-03-0.458D-02 0.611D-02 0.264D-01
 Coeff:     -0.249D-01-0.225D+00-0.233D-01 0.124D+01
 Gap=     0.325 Goal=   None    Shift=    0.000
 RMSDP=1.30D-08 MaxDP=5.29D-07 DE=-3.73D-11 OVMax= 4.68D-07

 Cycle  17  Pass 1  IDiag  1:
 RMSU=  6.01D-09    CP:  5.07D-01  1.01D+00  8.45D-01  1.04D+00  1.02D+00
                    CP:  1.27D+00  1.26D+00  1.49D+00  1.49D+00  1.56D+00
                    CP:  1.50D+00  1.30D+00  1.23D+00  1.37D+00  1.49D+00
                    CP:  1.47D+00
 E= -1627.57011693068     Delta-E=        0.000000000028 Rises=F Damp=F
 DIIS: error= 4.72D-09 at cycle  17 NSaved=  17.
 NSaved=17 IEnMin=16 EnMin= -1627.57011693071     IErMin=17 ErrMin= 4.72D-09
 ErrMax= 4.72D-09  0.00D+00 EMaxC= 1.00D-01 BMatC= 2.06D-14 BMatP= 1.18D-13
 IDIUse=1 WtCom= 1.00D+00 WtEn= 0.00D+00
 Coeff-Com: -0.773D-07 0.348D-06 0.203D-05 0.547D-05-0.863D-06-0.763D-04
 Coeff-Com: -0.119D-03 0.449D-03 0.674D-03-0.162D-02-0.311D-02 0.643D-02
 Coeff-Com:  0.302D-01-0.120D-01-0.252D+00-0.168D-01 0.125D+01
 Coeff:     -0.773D-07 0.348D-06 0.203D-05 0.547D-05-0.863D-06-0.763D-04
 Coeff:     -0.119D-03 0.449D-03 0.674D-03-0.162D-02-0.311D-02 0.643D-02
 Coeff:      0.302D-01-0.120D-01-0.252D+00-0.168D-01 0.125D+01
 Gap=     0.325 Goal=   None    Shift=    0.000
 RMSDP=7.35D-09 MaxDP=3.71D-07 DE= 2.82D-11 OVMax= 2.34D-07

 SCF Done:  E(RHF) =  -1627.57011693     A.U. after   17 cycles
            NFock= 17  Conv=0.74D-08     -V/T= 2.0004
 KE= 1.626845224746D+03 PE=-7.312182054165D+03 EE= 2.310773866498D+03
 Leave Link  502 at Sun Jul 11 17:03:23 2021, MaxMem=   262144000 cpu:            5535.6 elap:            1384.6
 (Enter /prod/apps/gaussian/g16b1/l801.exe)
 ExpMin= 2.97D-02 ExpMax= 1.28D+05 ExpMxC= 1.24D+03 IAcc=3 IRadAn=         5 AccDes= 0.00D+00
 HarFok:  IExCor=  205 AccDes= 0.00D+00 IRadAn=         5 IDoV=-2 UseB2=F ITyADJ=14
 ICtDFT= 12500011 ScaDFX=  1.000000  1.000000  1.000000  1.000000
 GSVD:  LWork=       -1008 too small for GESVD, short by        4340 words or        4340 for optimal perf.
 Largest valence mixing into a core orbital is  2.86D-04
 Largest core mixing into a valence orbital is  9.87D-05
 Range of M.O.s used for correlation:    29   627
 NBasis=   630 NAE=    80 NBE=    80 NFC=    28 NFV=     0
 NROrb=    599 NOA=    52 NOB=    52 NVA=   547 NVB=   547

 **** Warning!!: The largest alpha MO coefficient is  0.15413015D+03

 Leave Link  801 at Sun Jul 11 17:03:23 2021, MaxMem=   262144000 cpu:               1.2 elap:               0.3
 (Enter /prod/apps/gaussian/g16b1/l906.exe)
 FulOut=F Deriv=F AODrv=F NAtomX=    38
   MMem=           3  MDisk=          52 MDiskD=          52
  W3Min=    19057480 MinDsk=    19424853 NBas6D=         670
 NBas2D=      225679    NTT=      224785    LW2=     2000000
    MDV=   259330146 MDiskM=        5334 NBas2p=      205163
 Disk-based method using OVN memory for 52 occupieds at a time.
 Estimated scratch disk usage= 17765246132 words.
 IMap=   1   2   3   4   5   6   7   8   9  10  11  12  13  14  15  16  17  18  19  20
 IMap=  21  22  23  24  25  26  27  28  29  30  31  32  33  34  35  36  37  38  39  40
 IMap=  41  42  43  44  45  46  47  48  49  50  51  52
 Actual    scratch disk usage= 17552750260 words.
 JobTyp=1 Pass  1:  I=   1 to  52 NPSUse=  4 ParTrn=T ParDer=T DoDerP=F.
Erroneous write. Write -1 instead of 4258224.
fd = 4
orig len = 8384512 left = 4258224
