 Entering Gaussian System, Link 0=g16
 Initial command:
 /prod/apps/gaussian/g16b1/l1.exe "/tmp/ubator02/1834554/Gau-213575.inp" -scrdir="/tmp/ubator02/1834554/"
 Entering Link 1 = /prod/apps/gaussian/g16b1/l1.exe PID=    213576.
  
 Copyright (c) 1988-2017, Gaussian, Inc.  All Rights Reserved.
  
 This is part of the Gaussian(R) 16 program.  It is based on
 the Gaussian(R) 09 system (copyright 2009, Gaussian, Inc.),
 the Gaussian(R) 03 system (copyright 2003, Gaussian, Inc.),
 the Gaussian(R) 98 system (copyright 1998, Gaussian, Inc.),
 the Gaussian(R) 94 system (copyright 1995, Gaussian, Inc.),
 the Gaussian 92(TM) system (copyright 1992, Gaussian, Inc.),
 the Gaussian 90(TM) system (copyright 1990, Gaussian, Inc.),
 the Gaussian 88(TM) system (copyright 1988, Gaussian, Inc.),
 the Gaussian 86(TM) system (copyright 1986, Carnegie Mellon
 University), and the Gaussian 82(TM) system (copyright 1983,
 Carnegie Mellon University). Gaussian is a federally registered
 trademark of Gaussian, Inc.
  
 This software contains proprietary and confidential information,
 including trade secrets, belonging to Gaussian, Inc.
  
 This software is provided under written license and may be
 used, copied, transmitted, or stored only in accord with that
 written license.
  
 The following legend is applicable only to US Government
 contracts under FAR:
  
                    RESTRICTED RIGHTS LEGEND
  
 Use, reproduction and disclosure by the US Government is
 subject to restrictions as set forth in subparagraphs (a)
 and (c) of the Commercial Computer Software - Restricted
 Rights clause in FAR 52.227-19.
  
 Gaussian, Inc.
 340 Quinnipiac St., Bldg. 40, Wallingford CT 06492
  
  
 ---------------------------------------------------------------
 Warning -- This program may not be used in any manner that
 competes with the business of Gaussian, Inc. or will provide
 assistance to any competitor of Gaussian, Inc.  The licensee
 of this program is prohibited from giving any competitor of
 Gaussian, Inc. access to this program.  By using this program,
 the user acknowledges that Gaussian, Inc. is engaged in the
 business of creating and licensing software in the field of
 computational chemistry and represents and warrants to the
 licensee that it is not a competitor of Gaussian, Inc. and that
 it will not use this program in any manner prohibited above.
 ---------------------------------------------------------------
  

 Cite this work as:
 Gaussian 16, Revision B.01,
 M. J. Frisch, G. W. Trucks, H. B. Schlegel, G. E. Scuseria, 
 M. A. Robb, J. R. Cheeseman, G. Scalmani, V. Barone, 
 G. A. Petersson, H. Nakatsuji, X. Li, M. Caricato, A. V. Marenich, 
 J. Bloino, B. G. Janesko, R. Gomperts, B. Mennucci, H. P. Hratchian, 
 J. V. Ortiz, A. F. Izmaylov, J. L. Sonnenberg, D. Williams-Young, 
 F. Ding, F. Lipparini, F. Egidi, J. Goings, B. Peng, A. Petrone, 
 T. Henderson, D. Ranasinghe, V. G. Zakrzewski, J. Gao, N. Rega, 
 G. Zheng, W. Liang, M. Hada, M. Ehara, K. Toyota, R. Fukuda, 
 J. Hasegawa, M. Ishida, T. Nakajima, Y. Honda, O. Kitao, H. Nakai, 
 T. Vreven, K. Throssell, J. A. Montgomery, Jr., J. E. Peralta, 
 F. Ogliaro, M. J. Bearpark, J. J. Heyd, E. N. Brothers, K. N. Kudin, 
 V. N. Staroverov, T. A. Keith, R. Kobayashi, J. Normand, 
 K. Raghavachari, A. P. Rendell, J. C. Burant, S. S. Iyengar, 
 J. Tomasi, M. Cossi, J. M. Millam, M. Klene, C. Adamo, R. Cammi, 
 J. W. Ochterski, R. L. Martin, K. Morokuma, O. Farkas, 
 J. B. Foresman, and D. J. Fox, Gaussian, Inc., Wallingford CT, 2016.
 
 ******************************************
 Gaussian 16:  ES64L-G16RevB.01 20-Dec-2017
                11-Jul-2021 
 ******************************************
 %mem=800MB
 %nproc=4
 Will use up to    4 processors via shared memory.
 %chk=SET_328_BBB285_conf1.geo_120_075.chk
 -----------------------------------------------------------
 #p b3lyp/6-31G(d) opt freq scrf=(iefpcm,read,solvent=water)
 -----------------------------------------------------------
 1/18=20,19=15,26=3,38=1,40=2/1,3;
 2/9=110,12=2,17=6,18=5,40=1/2;
 3/5=1,6=6,7=1,11=2,25=1,30=1,70=2203,71=1,72=1,74=-5/1,2,3;
 4//1;
 5/5=2,38=5,53=1/2;
 6/7=2,8=2,9=2,10=2,28=1/1;
 7//1,2,3,16;
 1/18=20,19=15,26=3/3(2);
 2/9=110/2;
 99//99;
 2/9=110/2;
 3/5=1,6=6,7=1,11=2,25=1,30=1,70=2205,71=1,72=1,74=-5/1,2,3;
 4/5=5,16=3,69=1/1;
 5/5=2,38=5,53=1/2;
 7//1,2,3,16;
 1/18=20,19=15,26=3/3(-5);
 2/9=110/2;
 6/7=2,8=2,9=2,10=2,19=2,28=1/1;
 99/9=1/99;
 Leave Link    1 at Sun Jul 11 16:05:14 2021, MaxMem=   104857600 cpu:               0.1 elap:               0.0
 (Enter /prod/apps/gaussian/g16b1/l101.exe)
 -----------------------------------------
 SET_328_BBB285_conf1.geo_120_075 geometry
 -----------------------------------------
 Symbolic Z-matrix:
 Charge = -1 Multiplicity = 1
 N                     5.122     1.269     0.694 
 H                     4.761     1.729    -0.128 
 C                     4.352     0.538     1.498 
 O                     4.938     0.17      2.491 
 C                     2.911     0.37      1.139 
 C                     1.999    -0.224     2.041 
 N                     0.828    -0.368     1.464 
 H                     2.092    -0.578     3.061 
 N                     2.225     0.632    -0.007 
 N                     0.972     0.232     0.243 
 C                    -0.092     0.145    -0.732 
 H                     0.423     0.476    -1.646 
 O                    -0.608    -1.222    -0.853 
 C                    -1.975    -1.243    -0.424 
 C                    -2.874    -1.553    -1.668 
 O                    -2.765    -2.94     -2. 
 H                    -1.799    -2.973    -2.118 
 H                    -2.51     -1.01     -2.545 
 H                    -3.878    -1.198    -1.424 
 H                    -2.037    -2.022     0.34 
 C                    -2.249     0.032     0.35 
 O                    -3.594     0.427     0.251 
 H                    -3.612     1.355     0.545 
 H                    -1.943    -0.11      1.389 
 C                    -1.329     1.015    -0.405 
 H                    -1.045     1.807     0.293 
 O                    -1.892     1.532    -1.57 
 H                    -2.474     2.274    -1.328 
 
 ITRead=  0  0  0  0  0  0  0  0  0  0  0  0  0  0  0  0  0  0  0  0
 ITRead=  0  0  0  0  0  0  0  0
 MicOpt= -1 -1 -1 -1 -1 -1 -1 -1 -1 -1 -1 -1 -1 -1 -1 -1 -1 -1 -1 -1
 MicOpt= -1 -1 -1 -1 -1 -1 -1 -1
 NAtoms=     28 NQM=       28 NQMF=       0 NMMI=      0 NMMIF=      0
                NMic=       0 NMicF=      0.
                    Isotopes and Nuclear Properties:
 (Nuclear quadrupole moments (NQMom) in fm**2, nuclear magnetic moments (NMagM)
  in nuclear magnetons)

  Atom         1           2           3           4           5           6           7           8           9          10
 IAtWgt=          14           1          12          16          12          12          14           1          14          14
 AtmWgt=  14.0030740   1.0078250  12.0000000  15.9949146  12.0000000  12.0000000  14.0030740   1.0078250  14.0030740  14.0030740
 NucSpn=           2           1           0           0           0           0           2           1           2           2
 AtZEff=  -0.0000000  -0.0000000  -0.0000000  -0.0000000  -0.0000000  -0.0000000  -0.0000000  -0.0000000  -0.0000000  -0.0000000
 NQMom=    2.0440000   0.0000000   0.0000000   0.0000000   0.0000000   0.0000000   2.0440000   0.0000000   2.0440000   2.0440000
 NMagM=    0.4037610   2.7928460   0.0000000   0.0000000   0.0000000   0.0000000   0.4037610   2.7928460   0.4037610   0.4037610
 AtZNuc=   7.0000000   1.0000000   6.0000000   8.0000000   6.0000000   6.0000000   7.0000000   1.0000000   7.0000000   7.0000000

  Atom        11          12          13          14          15          16          17          18          19          20
 IAtWgt=          12           1          16          12          12          16           1           1           1           1
 AtmWgt=  12.0000000   1.0078250  15.9949146  12.0000000  12.0000000  15.9949146   1.0078250   1.0078250   1.0078250   1.0078250
 NucSpn=           0           1           0           0           0           0           1           1           1           1
 AtZEff=  -0.0000000  -0.0000000  -0.0000000  -0.0000000  -0.0000000  -0.0000000  -0.0000000  -0.0000000  -0.0000000  -0.0000000
 NQMom=    0.0000000   0.0000000   0.0000000   0.0000000   0.0000000   0.0000000   0.0000000   0.0000000   0.0000000   0.0000000
 NMagM=    0.0000000   2.7928460   0.0000000   0.0000000   0.0000000   0.0000000   2.7928460   2.7928460   2.7928460   2.7928460
 AtZNuc=   6.0000000   1.0000000   8.0000000   6.0000000   6.0000000   8.0000000   1.0000000   1.0000000   1.0000000   1.0000000

  Atom        21          22          23          24          25          26          27          28
 IAtWgt=          12          16           1           1          12           1          16           1
 AtmWgt=  12.0000000  15.9949146   1.0078250   1.0078250  12.0000000   1.0078250  15.9949146   1.0078250
 NucSpn=           0           0           1           1           0           1           0           1
 AtZEff=  -0.0000000  -0.0000000  -0.0000000  -0.0000000  -0.0000000  -0.0000000  -0.0000000  -0.0000000
 NQMom=    0.0000000   0.0000000   0.0000000   0.0000000   0.0000000   0.0000000   0.0000000   0.0000000
 NMagM=    0.0000000   0.0000000   2.7928460   2.7928460   0.0000000   2.7928460   0.0000000   2.7928460
 AtZNuc=   6.0000000   8.0000000   1.0000000   1.0000000   6.0000000   1.0000000   8.0000000   1.0000000
 Leave Link  101 at Sun Jul 11 16:05:14 2021, MaxMem=   104857600 cpu:               0.5 elap:               0.1
 (Enter /prod/apps/gaussian/g16b1/l103.exe)

 GradGradGradGradGradGradGradGradGradGradGradGradGradGradGradGradGradGrad
 Berny optimization.
 Initialization pass.
                           ----------------------------
                           !    Initial Parameters    !
                           ! (Angstroms and Degrees)  !
 --------------------------                            --------------------------
 ! Name  Definition              Value          Derivative Info.                !
 --------------------------------------------------------------------------------
 ! R1    R(1,2)                  1.0088         estimate D2E/DX2                !
 ! R2    R(1,3)                  1.3318         estimate D2E/DX2                !
 ! R3    R(3,4)                  1.2103         estimate D2E/DX2                !
 ! R4    R(3,5)                  1.4945         estimate D2E/DX2                !
 ! R5    R(5,6)                  1.4136         estimate D2E/DX2                !
 ! R6    R(5,9)                  1.3611         estimate D2E/DX2                !
 ! R7    R(6,7)                  1.3134         estimate D2E/DX2                !
 ! R8    R(6,8)                  1.0837         estimate D2E/DX2                !
 ! R9    R(7,10)                 1.3681         estimate D2E/DX2                !
 ! R10   R(9,10)                 1.3388         estimate D2E/DX2                !
 ! R11   R(10,11)                1.4458         estimate D2E/DX2                !
 ! R12   R(11,12)                1.1001         estimate D2E/DX2                !
 ! R13   R(11,13)                1.4661         estimate D2E/DX2                !
 ! R14   R(11,25)                1.5473         estimate D2E/DX2                !
 ! R15   R(13,14)                1.4329         estimate D2E/DX2                !
 ! R16   R(14,15)                1.5658         estimate D2E/DX2                !
 ! R17   R(14,20)                1.0929         estimate D2E/DX2                !
 ! R18   R(14,21)                1.5165         estimate D2E/DX2                !
 ! R19   R(15,16)                1.4303         estimate D2E/DX2                !
 ! R20   R(15,18)                1.0938         estimate D2E/DX2                !
 ! R21   R(15,19)                1.0925         estimate D2E/DX2                !
 ! R22   R(16,17)                0.9737         estimate D2E/DX2                !
 ! R23   R(21,22)                1.4053         estimate D2E/DX2                !
 ! R24   R(21,24)                1.0924         estimate D2E/DX2                !
 ! R25   R(21,25)                1.5436         estimate D2E/DX2                !
 ! R26   R(22,23)                0.9736         estimate D2E/DX2                !
 ! R27   R(25,26)                1.0932         estimate D2E/DX2                !
 ! R28   R(25,27)                1.3934         estimate D2E/DX2                !
 ! R29   R(27,28)                0.9736         estimate D2E/DX2                !
 ! A1    A(2,1,3)              122.3653         estimate D2E/DX2                !
 ! A2    A(1,3,4)              112.4736         estimate D2E/DX2                !
 ! A3    A(1,3,5)              118.3039         estimate D2E/DX2                !
 ! A4    A(4,3,5)              129.0305         estimate D2E/DX2                !
 ! A5    A(3,5,6)              121.0662         estimate D2E/DX2                !
 ! A6    A(3,5,9)              131.8032         estimate D2E/DX2                !
 ! A7    A(6,5,9)              107.0363         estimate D2E/DX2                !
 ! A8    A(5,6,7)              109.9365         estimate D2E/DX2                !
 ! A9    A(5,6,8)              133.0396         estimate D2E/DX2                !
 ! A10   A(7,6,8)              117.0145         estimate D2E/DX2                !
 ! A11   A(6,7,10)             104.4876         estimate D2E/DX2                !
 ! A12   A(5,9,10)             104.8899         estimate D2E/DX2                !
 ! A13   A(7,10,9)             113.3407         estimate D2E/DX2                !
 ! A14   A(7,10,11)            119.8697         estimate D2E/DX2                !
 ! A15   A(9,10,11)            125.5068         estimate D2E/DX2                !
 ! A16   A(10,11,12)           101.4008         estimate D2E/DX2                !
 ! A17   A(10,11,13)           111.763          estimate D2E/DX2                !
 ! A18   A(10,11,25)           114.3308         estimate D2E/DX2                !
 ! A19   A(12,11,13)           112.1313         estimate D2E/DX2                !
 ! A20   A(12,11,25)           112.376          estimate D2E/DX2                !
 ! A21   A(13,11,25)           105.0898         estimate D2E/DX2                !
 ! A22   A(11,13,14)           108.9483         estimate D2E/DX2                !
 ! A23   A(13,14,15)           108.2267         estimate D2E/DX2                !
 ! A24   A(13,14,20)           105.8945         estimate D2E/DX2                !
 ! A25   A(13,14,21)           108.2314         estimate D2E/DX2                !
 ! A26   A(15,14,20)           112.439          estimate D2E/DX2                !
 ! A27   A(15,14,21)           117.9174         estimate D2E/DX2                !
 ! A28   A(20,14,21)           103.4289         estimate D2E/DX2                !
 ! A29   A(14,15,16)           109.4286         estimate D2E/DX2                !
 ! A30   A(14,15,18)           110.3429         estimate D2E/DX2                !
 ! A31   A(14,15,19)           106.61           estimate D2E/DX2                !
 ! A32   A(16,15,18)           105.6594         estimate D2E/DX2                !
 ! A33   A(16,15,19)           115.9104         estimate D2E/DX2                !
 ! A34   A(18,15,19)           108.8792         estimate D2E/DX2                !
 ! A35   A(15,16,17)            97.8506         estimate D2E/DX2                !
 ! A36   A(14,21,22)           111.9186         estimate D2E/DX2                !
 ! A37   A(14,21,24)           108.9982         estimate D2E/DX2                !
 ! A38   A(14,21,25)           100.2582         estimate D2E/DX2                !
 ! A39   A(22,21,24)           111.817          estimate D2E/DX2                !
 ! A40   A(22,21,25)           110.9149         estimate D2E/DX2                !
 ! A41   A(24,21,25)           112.3979         estimate D2E/DX2                !
 ! A42   A(21,22,23)           105.3272         estimate D2E/DX2                !
 ! A43   A(11,25,21)           102.8143         estimate D2E/DX2                !
 ! A44   A(11,25,26)           109.5485         estimate D2E/DX2                !
 ! A45   A(11,25,27)           110.7912         estimate D2E/DX2                !
 ! A46   A(21,25,26)           107.6919         estimate D2E/DX2                !
 ! A47   A(21,25,27)           113.8546         estimate D2E/DX2                !
 ! A48   A(26,25,27)           111.7153         estimate D2E/DX2                !
 ! A49   A(25,27,28)           108.4514         estimate D2E/DX2                !
 ! D1    D(2,1,3,4)           -173.7283         estimate D2E/DX2                !
 ! D2    D(2,1,3,5)              1.6908         estimate D2E/DX2                !
 ! D3    D(1,3,5,6)           -170.6812         estimate D2E/DX2                !
 ! D4    D(1,3,5,9)             13.3407         estimate D2E/DX2                !
 ! D5    D(4,3,5,6)              3.8673         estimate D2E/DX2                !
 ! D6    D(4,3,5,9)           -172.1109         estimate D2E/DX2                !
 ! D7    D(3,5,6,7)           -174.5388         estimate D2E/DX2                !
 ! D8    D(3,5,6,8)              4.275          estimate D2E/DX2                !
 ! D9    D(9,5,6,7)              2.3266         estimate D2E/DX2                !
 ! D10   D(9,5,6,8)           -178.8596         estimate D2E/DX2                !
 ! D11   D(3,5,9,10)           177.6703         estimate D2E/DX2                !
 ! D12   D(6,5,9,10)             1.2728         estimate D2E/DX2                !
 ! D13   D(5,6,7,10)            -4.7761         estimate D2E/DX2                !
 ! D14   D(8,6,7,10)           176.197          estimate D2E/DX2                !
 ! D15   D(6,7,10,9)             5.889          estimate D2E/DX2                !
 ! D16   D(6,7,10,11)          173.6557         estimate D2E/DX2                !
 ! D17   D(5,9,10,7)            -4.4596         estimate D2E/DX2                !
 ! D18   D(5,9,10,11)         -171.4146         estimate D2E/DX2                !
 ! D19   D(7,10,11,12)        -165.8696         estimate D2E/DX2                !
 ! D20   D(7,10,11,13)         -46.2453         estimate D2E/DX2                !
 ! D21   D(7,10,11,25)          72.9738         estimate D2E/DX2                !
 ! D22   D(9,10,11,12)           0.3032         estimate D2E/DX2                !
 ! D23   D(9,10,11,13)         119.9276         estimate D2E/DX2                !
 ! D24   D(9,10,11,25)        -120.8534         estimate D2E/DX2                !
 ! D25   D(10,11,13,14)        115.6819         estimate D2E/DX2                !
 ! D26   D(12,11,13,14)       -131.2309         estimate D2E/DX2                !
 ! D27   D(25,11,13,14)         -8.867          estimate D2E/DX2                !
 ! D28   D(10,11,25,21)        -93.5953         estimate D2E/DX2                !
 ! D29   D(10,11,25,26)         20.7029         estimate D2E/DX2                !
 ! D30   D(10,11,25,27)        144.3993         estimate D2E/DX2                !
 ! D31   D(12,11,25,21)        151.5226         estimate D2E/DX2                !
 ! D32   D(12,11,25,26)        -94.1791         estimate D2E/DX2                !
 ! D33   D(12,11,25,27)         29.5172         estimate D2E/DX2                !
 ! D34   D(13,11,25,21)         29.3172         estimate D2E/DX2                !
 ! D35   D(13,11,25,26)        143.6154         estimate D2E/DX2                !
 ! D36   D(13,11,25,27)        -92.6882         estimate D2E/DX2                !
 ! D37   D(11,13,14,15)        112.975          estimate D2E/DX2                !
 ! D38   D(11,13,14,20)       -126.2541         estimate D2E/DX2                !
 ! D39   D(11,13,14,21)        -15.8873         estimate D2E/DX2                !
 ! D40   D(13,14,15,16)         74.9876         estimate D2E/DX2                !
 ! D41   D(13,14,15,18)        -40.8632         estimate D2E/DX2                !
 ! D42   D(13,14,15,19)       -158.9446         estimate D2E/DX2                !
 ! D43   D(20,14,15,16)        -41.6242         estimate D2E/DX2                !
 ! D44   D(20,14,15,18)       -157.475          estimate D2E/DX2                !
 ! D45   D(20,14,15,19)         84.4436         estimate D2E/DX2                !
 ! D46   D(21,14,15,16)       -161.8342         estimate D2E/DX2                !
 ! D47   D(21,14,15,18)         82.3151         estimate D2E/DX2                !
 ! D48   D(21,14,15,19)        -35.7663         estimate D2E/DX2                !
 ! D49   D(13,14,21,22)        151.0566         estimate D2E/DX2                !
 ! D50   D(13,14,21,24)        -84.7344         estimate D2E/DX2                !
 ! D51   D(13,14,21,25)         33.4196         estimate D2E/DX2                !
 ! D52   D(15,14,21,22)         27.8807         estimate D2E/DX2                !
 ! D53   D(15,14,21,24)        152.0897         estimate D2E/DX2                !
 ! D54   D(15,14,21,25)        -89.7563         estimate D2E/DX2                !
 ! D55   D(20,14,21,22)        -96.9132         estimate D2E/DX2                !
 ! D56   D(20,14,21,24)         27.2958         estimate D2E/DX2                !
 ! D57   D(20,14,21,25)        145.4498         estimate D2E/DX2                !
 ! D58   D(14,15,16,17)        -56.765          estimate D2E/DX2                !
 ! D59   D(18,15,16,17)         62.0324         estimate D2E/DX2                !
 ! D60   D(19,15,16,17)       -177.3183         estimate D2E/DX2                !
 ! D61   D(14,21,22,23)       -164.019          estimate D2E/DX2                !
 ! D62   D(24,21,22,23)         73.3618         estimate D2E/DX2                !
 ! D63   D(25,21,22,23)        -52.9634         estimate D2E/DX2                !
 ! D64   D(14,21,25,11)        -37.1724         estimate D2E/DX2                !
 ! D65   D(14,21,25,26)       -152.814          estimate D2E/DX2                !
 ! D66   D(14,21,25,27)         82.7357         estimate D2E/DX2                !
 ! D67   D(22,21,25,11)       -155.5496         estimate D2E/DX2                !
 ! D68   D(22,21,25,26)         88.8087         estimate D2E/DX2                !
 ! D69   D(22,21,25,27)        -35.6415         estimate D2E/DX2                !
 ! D70   D(24,21,25,11)         78.4479         estimate D2E/DX2                !
 ! D71   D(24,21,25,26)        -37.1937         estimate D2E/DX2                !
 ! D72   D(24,21,25,27)       -161.6439         estimate D2E/DX2                !
 ! D73   D(11,25,27,28)       -162.6894         estimate D2E/DX2                !
 ! D74   D(21,25,27,28)         82.0146         estimate D2E/DX2                !
 ! D75   D(26,25,27,28)        -40.246          estimate D2E/DX2                !
 --------------------------------------------------------------------------------
 Trust Radius=3.00D-01 FncErr=1.00D-07 GrdErr=1.00D-06 EigMax=2.50D+02 EigMin=1.00D-04
 Number of steps in this run=    163 maximum allowed number of steps=    168.
 GradGradGradGradGradGradGradGradGradGradGradGradGradGradGradGradGradGrad

 Leave Link  103 at Sun Jul 11 16:05:14 2021, MaxMem=   104857600 cpu:               0.0 elap:               0.0
 (Enter /prod/apps/gaussian/g16b1/l202.exe)
                          Input orientation:                          
 ---------------------------------------------------------------------
 Center     Atomic      Atomic             Coordinates (Angstroms)
 Number     Number       Type             X           Y           Z
 ---------------------------------------------------------------------
      1          7           0        5.122000    1.269000    0.694000
      2          1           0        4.761000    1.729000   -0.128000
      3          6           0        4.352000    0.538000    1.498000
      4          8           0        4.938000    0.170000    2.491000
      5          6           0        2.911000    0.370000    1.139000
      6          6           0        1.999000   -0.224000    2.041000
      7          7           0        0.828000   -0.368000    1.464000
      8          1           0        2.092000   -0.578000    3.061000
      9          7           0        2.225000    0.632000   -0.007000
     10          7           0        0.972000    0.232000    0.243000
     11          6           0       -0.092000    0.145000   -0.732000
     12          1           0        0.423000    0.476000   -1.646000
     13          8           0       -0.608000   -1.222000   -0.853000
     14          6           0       -1.975000   -1.243000   -0.424000
     15          6           0       -2.874000   -1.553000   -1.668000
     16          8           0       -2.765000   -2.940000   -2.000000
     17          1           0       -1.799000   -2.973000   -2.118000
     18          1           0       -2.510000   -1.010000   -2.545000
     19          1           0       -3.878000   -1.198000   -1.424000
     20          1           0       -2.037000   -2.022000    0.340000
     21          6           0       -2.249000    0.032000    0.350000
     22          8           0       -3.594000    0.427000    0.251000
     23          1           0       -3.612000    1.355000    0.545000
     24          1           0       -1.943000   -0.110000    1.389000
     25          6           0       -1.329000    1.015000   -0.405000
     26          1           0       -1.045000    1.807000    0.293000
     27          8           0       -1.892000    1.532000   -1.570000
     28          1           0       -2.474000    2.274000   -1.328000
 ---------------------------------------------------------------------
                    Distance matrix (angstroms):
                    1          2          3          4          5
     1  N    0.000000
     2  H    1.008764   0.000000
     3  C    1.331795   2.056608   0.000000
     4  O    2.114442   3.053027   1.210318   0.000000
     5  C    2.427910   2.621959   1.494519   2.444715   0.000000
     6  C    3.714376   4.018385   2.532213   2.999243   1.413571
     7  N    4.659518   4.732902   3.638759   4.270395   2.233642
     8  H    4.265560   4.755579   2.965809   2.997352   2.294243
     9  N    3.047914   2.765745   2.607296   3.716694   1.361086
    10  N    4.301310   4.090864   3.618434   4.559222   2.140463
    11  C    5.521109   5.140572   4.987633   5.974048   3.545317
    12  H    5.308959   4.763673   5.032457   6.131364   3.735988
    13  O    6.436706   6.169294   5.764235   6.624056   4.345790
    14  C    7.611010   7.368453   6.848137   7.634354   5.377521
    15  C    8.802201   8.452003   8.161551   9.016283   6.711438
    16  O    9.336921   9.052327   8.659340   9.443378   7.281923
    17  H    8.590818   8.312792   7.952193   8.746914   6.630822
    18  H    8.598394   8.137042   8.113519   9.067877   6.698022
    19  H    9.569327   9.212994   8.904195   9.742715   7.424157
    20  H    7.887159   7.778292   6.979533   7.621174   5.553627
    21  C    7.481988   7.228305   6.719162   7.500393   5.230905
    22  O    8.767774   8.464329   8.044019   8.824889   6.565578
    23  H    8.735694   8.408325   8.062319   8.848369   6.623639
    24  H    7.231797   7.115253   6.329203   6.974307   4.884078
    25  C    6.548872   6.137966   6.010216   6.955295   4.558241
    26  H    6.203397   5.821766   5.673623   6.580825   4.293090
    27  O    7.375030   6.810329   7.027674   8.061989   5.635400
    28  H    7.924502   7.354064   7.589087   8.599379   6.221698
                    6          7          8          9         10
     6  C    0.000000
     7  N    1.313357   0.000000
     8  H    1.083681   2.047487   0.000000
     9  N    2.231169   2.261736   3.300669   0.000000
    10  N    2.120252   1.368056   3.138730   1.338846   0.000000
    11  C    3.492559   2.435567   4.436151   2.476143   1.445784
    12  H    4.070349   3.247839   5.104148   2.440873   1.982236
    13  O    4.020906   2.856554   4.798347   3.489831   2.410753
    14  C    4.786153   3.490985   5.397031   4.618389   3.362339
    15  C    6.266502   4.991839   6.926415   5.790764   4.650792
    16  O    6.811904   5.614635   7.401568   6.452235   5.390529
    17  H    6.267303   5.149551   6.906370   5.800424   4.850236
    18  H    6.479219   5.256091   7.265829   5.617636   4.630317
    19  H    6.891591   5.583537   7.492698   6.527128   5.324123
    20  H    4.734501   3.493897   5.151468   5.032770   3.760852
    21  C    4.579358   3.296805   5.154212   4.528148   3.228977
    22  O    5.908430   4.653760   6.421582   5.828323   4.570169
    23  H    6.017855   4.850453   6.527048   5.907453   4.729206
    24  H    3.997182   2.783995   4.392702   4.457758   3.150794
    25  C    4.312032   3.171514   5.123870   3.596666   2.515471
    26  H    4.055416   3.099999   4.815685   3.487625   2.559573
    27  O    5.591309   4.495949   6.463011   4.494737   3.630353
    28  H    6.131712   5.067409   6.945904   5.149933   4.302641
                   11         12         13         14         15
    11  C    0.000000
    12  H    1.100083   0.000000
    13  O    1.466147   2.138928   0.000000
    14  C    2.359470   3.193532   1.432889   0.000000
    15  C    3.390992   3.871374   2.430749   1.565834   0.000000
    16  O    4.274339   4.685906   2.986600   2.446975   1.430341
    17  H    3.815333   4.129851   2.466720   2.427656   1.836988
    18  H    3.235385   3.408649   2.554489   2.199808   1.093835
    19  H    4.076311   4.620623   3.319566   2.150217   1.092509
    20  H    3.102918   4.029367   2.026152   1.092877   2.225442
    21  C    2.415811   3.364630   2.390106   1.516502   2.641055
    22  O    3.648262   4.442668   3.585277   2.421918   2.849800
    23  H    3.935128   4.674863   4.197541   3.219990   3.728066
    24  H    2.826635   3.892631   2.836430   2.138149   3.506317
    25  C    1.547255   2.213618   2.392637   2.348668   3.252202
    26  H    2.172804   2.772419   3.267893   3.268255   4.298879
    27  O    2.421985   2.545611   3.122060   3.003470   3.239005
    28  H    3.249889   3.424403   3.991190   3.665448   3.862839
                   16         17         18         19         20
    16  O    0.000000
    17  H    0.973740   0.000000
    18  H    2.021621   2.131014   0.000000
    19  H    2.145952   2.820373   1.778597   0.000000
    20  H    2.616927   2.646282   3.093719   2.679543   0.000000
    21  C    3.823812   3.914530   3.087865   2.704370   2.064936
    22  O    4.134118   4.515992   3.325303   2.350937   2.903407
    23  H    5.063740   5.395380   4.044222   3.235047   3.731860
    24  H    4.491092   4.529520   4.075272   3.583425   2.182884
    25  C    4.499794   4.365709   3.174112   3.526065   3.206191
    26  H    5.545292   5.406463   4.258633   4.472583   3.955694
    27  O    4.576660   4.539160   2.791830   3.379114   4.037331
    28  H    5.265174   5.348900   3.502434   3.746360   4.629126
                   21         22         23         24         25
    21  C    0.000000
    22  O    1.405294   0.000000
    23  H    1.909482   0.973624   0.000000
    24  H    1.092392   2.075865   2.375736   0.000000
    25  C    1.543604   2.430289   2.496035   2.204780   0.000000
    26  H    2.145575   2.898890   2.618644   2.383801   1.093217
    27  O    2.462488   2.726512   2.731841   3.384442   1.393371
    28  H    2.809426   2.675640   2.376496   3.653424   1.935984
                   26         27         28
    26  H    0.000000
    27  O    2.064898   0.000000
    28  H    2.210830   0.973577   0.000000
 Stoichiometry    C8H11N4O5(1-)
 Framework group  C1[X(C8H11N4O5)]
 Deg. of freedom    78
 Full point group                 C1      NOp   1
 Largest Abelian subgroup         C1      NOp   1
 Largest concise Abelian subgroup C1      NOp   1
                         Standard orientation:                         
 ---------------------------------------------------------------------
 Center     Atomic      Atomic             Coordinates (Angstroms)
 Number     Number       Type             X           Y           Z
 ---------------------------------------------------------------------
      1          7           0       -4.991624   -0.239762   -1.207759
      2          1           0       -4.458824   -0.668551   -1.949291
      3          6           0       -4.426564    0.192775   -0.082017
      4          8           0       -5.241805    0.563972    0.731902
      5          6           0       -2.944239    0.066608    0.060744
      6          6           0       -2.305968    0.322428    1.295795
      7          7           0       -1.002458    0.261307    1.147362
      8          1           0       -2.678005    0.563475    2.284658
      9          7           0       -1.965579   -0.206882   -0.844785
     10          7           0       -0.823964   -0.138725   -0.148667
     11          6           0        0.506876   -0.182590   -0.711898
     12          1           0        0.285682   -0.274283   -1.785606
     13          8           0        1.266804    1.033452   -0.406388
     14          6           0        2.385171    0.687907    0.420066
     15          6           0        3.695331    0.929597   -0.402675
     16          8           0        3.954268    2.333994   -0.483270
     17          1           0        3.109100    2.602191   -0.885674
     18          1           0        3.563226    0.593993   -1.435338
     19          1           0        4.475362    0.326579    0.067961
     20          1           0        2.319108    1.334438    1.298708
     21          6           0        2.147121   -0.699240    0.984808
     22          8           0        3.352078   -1.378219    1.233639
     23          1           0        3.103555   -2.313837    1.337559
     24          1           0        1.534444   -0.616224    1.885395
     25          6           0        1.382200   -1.346525   -0.189343
     26          1           0        0.740889   -2.129747    0.223460
     27          8           0        2.208647   -1.835722   -1.198875
     28          1           0        2.531335   -2.715196   -0.933830
 ---------------------------------------------------------------------
 Rotational constants (GHZ):           1.1310720           0.2117343           0.2038274
 Leave Link  202 at Sun Jul 11 16:05:14 2021, MaxMem=   104857600 cpu:               0.0 elap:               0.0
 (Enter /prod/apps/gaussian/g16b1/l301.exe)
 Standard basis: 6-31G(d) (6D, 7F)
 Ernie: Thresh=  0.10000D-02 Tol=  0.10000D-05 Strict=F.
 There are   277 symmetry adapted cartesian basis functions of A   symmetry.
 There are   277 symmetry adapted basis functions of A   symmetry.
   277 basis functions,   520 primitive gaussians,   277 cartesian basis functions
    64 alpha electrons       64 beta electrons
       nuclear repulsion energy      1253.9170633854 Hartrees.
 IExCor=  402 DFT=T Ex+Corr=B3LYP ExCW=0 ScaHFX=  0.200000
 ScaDFX=  0.800000  0.720000  1.000000  0.810000 ScalE2=  1.000000  1.000000
 IRadAn=      5 IRanWt=     -1 IRanGd=            0 ICorTp=0 IEmpDi=  4
 NAtoms=   28 NActive=   28 NUniq=   28 SFac= 1.00D+00 NAtFMM=   60 NAOKFM=F Big=F
 Integral buffers will be    131072 words long.
 Raffenetti 2 integral format.
 Two-electron integral symmetry is turned on.
 Using the following non-standard input for PCM:
 MSTModel=DFT cav MSTCharged
 --- end of non-standard input.
 MST model for solvation energy: B3LYP parametrization.
 MST cavity parameters:
 ISph   IAn     Re0     Alpha   Atom Type   QCorr
 ------------------------------------------------
   1      7     1.50     1.15      NH         T
   2      1     0.90     1.15      NH         T
   3      6     1.50     1.25      C          F
   4      8     1.40     1.25      O          F
   5      6     1.50     1.25      C          F
   6      6     1.50     1.25      CH         F
   7      7     1.40     1.25      N          F
   8      1     1.20     1.25      CH         F
   9      7     1.40     1.25      N          F
  10      7     1.40     1.25      N          F
  11      6     1.50     1.25      CH         F
  12      1     1.20     1.25      CH         F
  13      8     1.40     1.25      O          F
  14      6     1.50     1.25      CH         F
  15      6     1.50     1.25      CH2        F
  16      8     1.45     1.25      OH         F
  17      1     0.90     1.25      OH         F
  18      1     1.20     1.25      CH2        F
  19      1     1.20     1.25      CH2        F
  20      1     1.20     1.25      CH         F
  21      6     1.50     1.25      CH         F
  22      8     1.45     1.25      OH         F
  23      1     0.90     1.25      OH         F
  24      1     1.20     1.25      CH         F
  25      6     1.50     1.25      CH         F
  26      1     1.20     1.25      CH         F
  27      8     1.45     1.25      OH         F
  28      1     0.90     1.25      OH         F
 ------------------------------------------------------------------------------
 Polarizable Continuum Model (PCM)
 =================================
 Model                : PCM.
 Atomic radii         : MST.
 Polarization charges : Total charges.
 Charge compensation  : None.
 Solution method      : On-the-fly selection.
 Cavity type          : Scaled VdW (van der Waals Surface) (Alpha=1.250).
 Cavity algorithm     : GePol (No added spheres)
                        Default sphere list used, NSphG=   28.
                        Lebedev-Laikov grids with approx.  5.0 points / Ang**2.
                        Smoothing algorithm: York/Karplus (Gamma=1.0000).
                        Polarization charges: spherical gaussians, with
                                              point-specific exponents (IZeta= 3).
                        Self-potential: point-specific (ISelfS= 7).
                        Self-field    : sphere-specific E.n sum rule (ISelfD= 2).
 1st derivatives      : Analytical E(r).r(x)/FMM algorithm (CHGder, D1EAlg=3).
                        Cavity 1st derivative terms included.
 Solvent              : Water, Eps=  78.355300 Eps(inf)=   1.777849
 ------------------------------------------------------------------------------
 GePol: Number of generator spheres                  =      28
 GePol: Total number of spheres                      =      28
 GePol: Number of exposed spheres                    =      28 (100.00%)
 GePol: Number of points                             =    2050
 GePol: Average weight of points                     =       0.13
 GePol: Minimum weight of points                     =   0.16D-10
 GePol: Maximum weight of points                     =    0.22001
 GePol: Number of points with low weight             =     130
 GePol: Fraction of low-weight points (<1% of avg)   =       6.34%
 GePol: Cavity surface area                          =    268.722 Ang**2
 GePol: Cavity volume                                =    249.852 Ang**3
 PCM non-electrostatic energy =         0.0015067224 Hartrees.
 Nuclear repulsion after PCM non-electrostatic terms =     1253.9185701078 Hartrees.
 Leave Link  301 at Sun Jul 11 16:05:14 2021, MaxMem=   104857600 cpu:               0.3 elap:               0.1
 (Enter /prod/apps/gaussian/g16b1/l302.exe)
 NPDir=0 NMtPBC=     1 NCelOv=     1 NCel=       1 NClECP=     1 NCelD=      1
         NCelK=      1 NCelE2=     1 NClLst=     1 CellRange=     0.0.
 One-electron integrals computed using PRISM.
 One-electron integral symmetry used in STVInt
 NBasis=   277 RedAO= T EigKep=  1.06D-03  NBF=   277
 NBsUse=   277 1.00D-06 EigRej= -1.00D+00 NBFU=   277
 Precomputing XC quadrature grid using
 IXCGrd= 4 IRadAn=           5 IRanWt=          -1 IRanGd=           0 AccXCQ= 0.00D+00.
 Generated NRdTot=       0 NPtTot=           0 NUsed=           0 NTot=          32
 NSgBfM=   274   274   274   274   274 MxSgAt=    28 MxSgA2=    28.
 Leave Link  302 at Sun Jul 11 16:05:15 2021, MaxMem=   104857600 cpu:               1.2 elap:               0.3
 (Enter /prod/apps/gaussian/g16b1/l303.exe)
 DipDrv:  MaxL=1.
 Leave Link  303 at Sun Jul 11 16:05:15 2021, MaxMem=   104857600 cpu:               0.1 elap:               0.1
 (Enter /prod/apps/gaussian/g16b1/l401.exe)
 ExpMin= 1.61D-01 ExpMax= 5.48D+03 ExpMxC= 8.25D+02 IAcc=3 IRadAn=         5 AccDes= 0.00D+00
 Harris functional with IExCor=  402 and IRadAn=       5 diagonalized for initial guess.
 HarFok:  IExCor=  402 AccDes= 0.00D+00 IRadAn=         5 IDoV= 1 UseB2=F ITyADJ=14
 ICtDFT=  3500011 ScaDFX=  1.000000  1.000000  1.000000  1.000000
 FoFCou: FMM=F IPFlag=           0 FMFlag=      100000 FMFlg1=           0
         NFxFlg=           0 DoJE=T BraDBF=F KetDBF=T FulRan=T
         wScrn=  0.000000 ICntrl=       500 IOpCl=  0 I1Cent=   200000004 NGrid=           0
         NMat0=    1 NMatS0=      1 NMatT0=    0 NMatD0=    1 NMtDS0=    0 NMtDT0=    0
 Petite list used in FoFCou.
 Harris En= -906.629524935216    
 JPrj=0 DoOrth=F DoCkMO=F.
 Leave Link  401 at Sun Jul 11 16:05:16 2021, MaxMem=   104857600 cpu:               6.2 elap:               1.6
 (Enter /prod/apps/gaussian/g16b1/l502.exe)
 Integral symmetry usage will be decided dynamically.
 Closed shell SCF:
 Using DIIS extrapolation, IDIIS=  1040.
 NGot=   104857600 LenX=   104699417 LenY=   104622247
 Requested convergence on RMS density matrix=1.00D-08 within 128 cycles.
 Requested convergence on MAX density matrix=1.00D-06.
 Requested convergence on             energy=1.00D-06.
 No special actions if energy rises.
 Fock matrices will be formed incrementally for  20 cycles.

 Cycle   1  Pass 1  IDiag  1:
 FoFJK:  IHMeth= 1 ICntrl=       0 DoSepK=F KAlg= 0 I1Cent=           0 FoldK=F
 IRaf= 800000000 NMat=       1 IRICut=       1 DoRegI=T DoRafI=F ISym2E= 0 IDoP0=0 IntGTp=1.
 FoFCou: FMM=F IPFlag=           0 FMFlag=      100000 FMFlg1=           0
         NFxFlg=           0 DoJE=F BraDBF=F KetDBF=F FulRan=T
         wScrn=  0.000000 ICntrl=         0 IOpCl=  0 I1Cent=           0 NGrid=           0
         NMat0=    1 NMatS0=      1 NMatT0=    0 NMatD0=    1 NMtDS0=    0 NMtDT0=    0
 Symmetry not used in FoFCou.
 Inv3:  Mode=1 IEnd=    12607500.
 Iteration    1 A*A^-1 deviation from unit magnitude is 4.00D-15 for    379.
 Iteration    1 A*A^-1 deviation from orthogonality  is 2.15D-15 for   1716    258.
 Iteration    1 A^-1*A deviation from unit magnitude is 4.00D-15 for    379.
 Iteration    1 A^-1*A deviation from orthogonality  is 2.21D-14 for   1723   1261.
 E= -906.179109730452    
 DIIS: error= 3.07D-02 at cycle   1 NSaved=   1.
 NSaved= 1 IEnMin= 1 EnMin= -906.179109730452     IErMin= 1 ErrMin= 3.07D-02
 ErrMax= 3.07D-02  0.00D+00 EMaxC= 1.00D-01 BMatC= 5.25D-01 BMatP= 5.25D-01
 IDIUse=3 WtCom= 6.93D-01 WtEn= 3.07D-01
 Coeff-Com:  0.100D+01
 Coeff-En:   0.100D+01
 Coeff:      0.100D+01
 Gap=     0.212 Goal=   None    Shift=    0.000
 GapD=    0.212 DampG=1.000 DampE=0.500 DampFc=0.5000 IDamp=-1.
 Damping current iteration by 5.00D-01
 RMSDP=7.93D-03 MaxDP=2.88D-01              OVMax= 8.24D-01

 Cycle   2  Pass 1  IDiag  1:
 RMSU=  3.96D-03    CP:  9.87D-01
 E= -906.111148133221     Delta-E=        0.067961597231 Rises=F Damp=T
 DIIS: error= 1.36D-02 at cycle   2 NSaved=   2.
 NSaved= 2 IEnMin= 1 EnMin= -906.179109730452     IErMin= 2 ErrMin= 1.36D-02
 ErrMax= 1.36D-02  0.00D+00 EMaxC= 1.00D-01 BMatC= 1.39D-01 BMatP= 5.25D-01
 IDIUse=3 WtCom= 8.64D-01 WtEn= 1.36D-01
 Coeff-Com:  0.286D+00 0.714D+00
 Coeff-En:   0.560D+00 0.440D+00
 Coeff:      0.323D+00 0.677D+00
 Gap=    -0.118 Goal=   None    Shift=    0.000
 RMSDP=3.43D-03 MaxDP=1.58D-01 DE= 6.80D-02 OVMax= 6.37D-01

 Cycle   3  Pass 1  IDiag  1:
 RMSU=  2.60D-03    CP:  9.78D-01  4.38D-01
 E= -906.498536610408     Delta-E=       -0.387388477188 Rises=F Damp=F
 DIIS: error= 1.58D-02 at cycle   3 NSaved=   3.
 NSaved= 3 IEnMin= 3 EnMin= -906.498536610408     IErMin= 2 ErrMin= 1.36D-02
 ErrMax= 1.58D-02  0.00D+00 EMaxC= 1.00D-01 BMatC= 1.12D-01 BMatP= 1.39D-01
 IDIUse=3 WtCom= 8.42D-01 WtEn= 1.58D-01
 Coeff-Com:  0.106D+00 0.454D+00 0.440D+00
 Coeff-En:   0.000D+00 0.000D+00 0.100D+01
 Coeff:      0.891D-01 0.382D+00 0.529D+00
 Gap=     0.212 Goal=   None    Shift=    0.000
 RMSDP=1.72D-03 MaxDP=8.92D-02 DE=-3.87D-01 OVMax= 8.94D-02

 Cycle   4  Pass 1  IDiag  1:
 RMSU=  1.17D-03    CP:  9.86D-01  5.10D-01  5.30D-01
 E= -906.603898090437     Delta-E=       -0.105361480028 Rises=F Damp=F
 DIIS: error= 3.45D-03 at cycle   4 NSaved=   4.
 NSaved= 4 IEnMin= 4 EnMin= -906.603898090437     IErMin= 4 ErrMin= 3.45D-03
 ErrMax= 3.45D-03  0.00D+00 EMaxC= 1.00D-01 BMatC= 7.77D-03 BMatP= 1.12D-01
 IDIUse=3 WtCom= 9.66D-01 WtEn= 3.45D-02
 Coeff-Com: -0.270D-02 0.153D+00 0.206D+00 0.644D+00
 Coeff-En:   0.000D+00 0.000D+00 0.000D+00 0.100D+01
 Coeff:     -0.261D-02 0.148D+00 0.198D+00 0.657D+00
 Gap=     0.152 Goal=   None    Shift=    0.000
 RMSDP=4.89D-04 MaxDP=2.73D-02 DE=-1.05D-01 OVMax= 4.26D-02

 Cycle   5  Pass 1  IDiag  1:
 RMSU=  4.36D-04    CP:  9.86D-01  5.21D-01  5.84D-01  8.57D-01
 E= -906.605973004367     Delta-E=       -0.002074913930 Rises=F Damp=F
 DIIS: error= 3.44D-03 at cycle   5 NSaved=   5.
 NSaved= 5 IEnMin= 5 EnMin= -906.605973004367     IErMin= 5 ErrMin= 3.44D-03
 ErrMax= 3.44D-03  0.00D+00 EMaxC= 1.00D-01 BMatC= 4.56D-03 BMatP= 7.77D-03
 IDIUse=3 WtCom= 9.66D-01 WtEn= 3.44D-02
 Coeff-Com: -0.203D-01 0.484D-01 0.370D-01 0.441D+00 0.494D+00
 Coeff-En:   0.000D+00 0.000D+00 0.000D+00 0.405D+00 0.595D+00
 Coeff:     -0.196D-01 0.467D-01 0.358D-01 0.440D+00 0.497D+00
 Gap=     0.148 Goal=   None    Shift=    0.000
 RMSDP=2.51D-04 MaxDP=1.36D-02 DE=-2.07D-03 OVMax= 2.38D-02

 Cycle   6  Pass 1  IDiag  1:
 RMSU=  1.21D-04    CP:  9.86D-01  5.35D-01  5.65D-01  9.59D-01  6.10D-01
 E= -906.609928027403     Delta-E=       -0.003955023037 Rises=F Damp=F
 DIIS: error= 8.77D-04 at cycle   6 NSaved=   6.
 NSaved= 6 IEnMin= 6 EnMin= -906.609928027403     IErMin= 6 ErrMin= 8.77D-04
 ErrMax= 8.77D-04  0.00D+00 EMaxC= 1.00D-01 BMatC= 2.52D-04 BMatP= 4.56D-03
 IDIUse=3 WtCom= 9.91D-01 WtEn= 8.77D-03
 Coeff-Com: -0.107D-01 0.839D-02-0.147D-01 0.161D+00 0.265D+00 0.591D+00
 Coeff-En:   0.000D+00 0.000D+00 0.000D+00 0.000D+00 0.000D+00 0.100D+01
 Coeff:     -0.106D-01 0.832D-02-0.145D-01 0.160D+00 0.262D+00 0.595D+00
 Gap=     0.148 Goal=   None    Shift=    0.000
 RMSDP=7.96D-05 MaxDP=3.30D-03 DE=-3.96D-03 OVMax= 4.73D-03

 Cycle   7  Pass 1  IDiag  1:
 RMSU=  5.10D-05    CP:  9.86D-01  5.39D-01  5.61D-01  9.84D-01  6.94D-01
                    CP:  7.29D-01
 E= -906.610113203470     Delta-E=       -0.000185176066 Rises=F Damp=F
 DIIS: error= 2.48D-04 at cycle   7 NSaved=   7.
 NSaved= 7 IEnMin= 7 EnMin= -906.610113203470     IErMin= 7 ErrMin= 2.48D-04
 ErrMax= 2.48D-04  0.00D+00 EMaxC= 1.00D-01 BMatC= 3.40D-05 BMatP= 2.52D-04
 IDIUse=3 WtCom= 9.98D-01 WtEn= 2.48D-03
 Coeff-Com: -0.311D-02 0.266D-04-0.120D-01 0.322D-01 0.801D-01 0.335D+00
 Coeff-Com:  0.568D+00
 Coeff-En:   0.000D+00 0.000D+00 0.000D+00 0.000D+00 0.000D+00 0.277D-01
 Coeff-En:   0.972D+00
 Coeff:     -0.310D-02 0.265D-04-0.119D-01 0.321D-01 0.799D-01 0.334D+00
 Coeff:      0.569D+00
 Gap=     0.148 Goal=   None    Shift=    0.000
 RMSDP=2.31D-05 MaxDP=8.99D-04 DE=-1.85D-04 OVMax= 1.45D-03

 Cycle   8  Pass 1  IDiag  1:
 RMSU=  1.46D-05    CP:  9.86D-01  5.39D-01  5.58D-01  9.88D-01  6.94D-01
                    CP:  8.11D-01  7.54D-01
 E= -906.610140062448     Delta-E=       -0.000026858979 Rises=F Damp=F
 DIIS: error= 5.20D-05 at cycle   8 NSaved=   8.
 NSaved= 8 IEnMin= 8 EnMin= -906.610140062448     IErMin= 8 ErrMin= 5.20D-05
 ErrMax= 5.20D-05  0.00D+00 EMaxC= 1.00D-01 BMatC= 1.70D-06 BMatP= 3.40D-05
 IDIUse=1 WtCom= 1.00D+00 WtEn= 0.00D+00
 Coeff-Com: -0.116D-03-0.415D-03-0.261D-02 0.176D-03 0.109D-01 0.841D-01
 Coeff-Com:  0.231D+00 0.677D+00
 Coeff:     -0.116D-03-0.415D-03-0.261D-02 0.176D-03 0.109D-01 0.841D-01
 Coeff:      0.231D+00 0.677D+00
 Gap=     0.148 Goal=   None    Shift=    0.000
 RMSDP=6.08D-06 MaxDP=2.34D-04 DE=-2.69D-05 OVMax= 5.38D-04

 Cycle   9  Pass 1  IDiag  1:
 RMSU=  4.79D-06    CP:  9.86D-01  5.39D-01  5.58D-01  9.88D-01  6.96D-01
                    CP:  8.18D-01  7.77D-01  7.82D-01
 E= -906.610141283303     Delta-E=       -0.000001220855 Rises=F Damp=F
 DIIS: error= 2.45D-05 at cycle   9 NSaved=   9.
 NSaved= 9 IEnMin= 9 EnMin= -906.610141283303     IErMin= 9 ErrMin= 2.45D-05
 ErrMax= 2.45D-05  0.00D+00 EMaxC= 1.00D-01 BMatC= 3.82D-07 BMatP= 1.70D-06
 IDIUse=1 WtCom= 1.00D+00 WtEn= 0.00D+00
 Coeff-Com:  0.235D-03-0.469D-03-0.472D-03-0.269D-02-0.112D-03 0.208D-01
 Coeff-Com:  0.828D-01 0.382D+00 0.518D+00
 Coeff:      0.235D-03-0.469D-03-0.472D-03-0.269D-02-0.112D-03 0.208D-01
 Coeff:      0.828D-01 0.382D+00 0.518D+00
 Gap=     0.148 Goal=   None    Shift=    0.000
 RMSDP=2.62D-06 MaxDP=1.06D-04 DE=-1.22D-06 OVMax= 2.13D-04

 Cycle  10  Pass 1  IDiag  1:
 RMSU=  1.68D-06    CP:  9.86D-01  5.39D-01  5.58D-01  9.87D-01  6.96D-01
                    CP:  8.22D-01  7.87D-01  8.56D-01  7.02D-01
 E= -906.610141588568     Delta-E=       -0.000000305265 Rises=F Damp=F
 DIIS: error= 1.12D-05 at cycle  10 NSaved=  10.
 NSaved=10 IEnMin=10 EnMin= -906.610141588568     IErMin=10 ErrMin= 1.12D-05
 ErrMax= 1.12D-05  0.00D+00 EMaxC= 1.00D-01 BMatC= 5.23D-08 BMatP= 3.82D-07
 IDIUse=1 WtCom= 1.00D+00 WtEn= 0.00D+00
 Coeff-Com:  0.153D-03-0.223D-03 0.872D-04-0.109D-02-0.298D-03 0.517D-02
 Coeff-Com:  0.252D-01 0.146D+00 0.289D+00 0.536D+00
 Coeff:      0.153D-03-0.223D-03 0.872D-04-0.109D-02-0.298D-03 0.517D-02
 Coeff:      0.252D-01 0.146D+00 0.289D+00 0.536D+00
 Gap=     0.148 Goal=   None    Shift=    0.000
 RMSDP=9.46D-07 MaxDP=5.03D-05 DE=-3.05D-07 OVMax= 1.10D-04

 Cycle  11  Pass 1  IDiag  1:
 RMSU=  6.12D-07    CP:  9.86D-01  5.39D-01  5.59D-01  9.87D-01  6.96D-01
                    CP:  8.21D-01  7.89D-01  8.58D-01  7.72D-01  7.02D-01
 E= -906.610141631263     Delta-E=       -0.000000042695 Rises=F Damp=F
 DIIS: error= 4.63D-06 at cycle  11 NSaved=  11.
 NSaved=11 IEnMin=11 EnMin= -906.610141631263     IErMin=11 ErrMin= 4.63D-06
 ErrMax= 4.63D-06  0.00D+00 EMaxC= 1.00D-01 BMatC= 9.33D-09 BMatP= 5.23D-08
 IDIUse=1 WtCom= 1.00D+00 WtEn= 0.00D+00
 Coeff-Com:  0.508D-04-0.705D-04 0.189D-03-0.482D-05-0.131D-05-0.144D-02
 Coeff-Com: -0.429D-02-0.512D-02 0.396D-01 0.302D+00 0.669D+00
 Coeff:      0.508D-04-0.705D-04 0.189D-03-0.482D-05-0.131D-05-0.144D-02
 Coeff:     -0.429D-02-0.512D-02 0.396D-01 0.302D+00 0.669D+00
 Gap=     0.148 Goal=   None    Shift=    0.000
 RMSDP=3.92D-07 MaxDP=1.36D-05 DE=-4.27D-08 OVMax= 2.64D-05

 Cycle  12  Pass 1  IDiag  1:
 RMSU=  1.65D-07    CP:  9.86D-01  5.39D-01  5.59D-01  9.87D-01  6.96D-01
                    CP:  8.22D-01  7.89D-01  8.64D-01  7.89D-01  8.10D-01
                    CP:  8.14D-01
 E= -906.610141639012     Delta-E=       -0.000000007748 Rises=F Damp=F
 DIIS: error= 1.13D-06 at cycle  12 NSaved=  12.
 NSaved=12 IEnMin=12 EnMin= -906.610141639012     IErMin=12 ErrMin= 1.13D-06
 ErrMax= 1.13D-06  0.00D+00 EMaxC= 1.00D-01 BMatC= 7.09D-10 BMatP= 9.33D-09
 IDIUse=1 WtCom= 1.00D+00 WtEn= 0.00D+00
 Coeff-Com:  0.153D-04-0.192D-04 0.100D-03 0.136D-03 0.135D-03-0.865D-03
 Coeff-Com: -0.374D-02-0.140D-01-0.416D-02 0.120D+00 0.332D+00 0.570D+00
 Coeff:      0.153D-04-0.192D-04 0.100D-03 0.136D-03 0.135D-03-0.865D-03
 Coeff:     -0.374D-02-0.140D-01-0.416D-02 0.120D+00 0.332D+00 0.570D+00
 Gap=     0.148 Goal=   None    Shift=    0.000
 RMSDP=1.15D-07 MaxDP=4.80D-06 DE=-7.75D-09 OVMax= 7.65D-06

 Cycle  13  Pass 1  IDiag  1:
 RMSU=  6.41D-08    CP:  9.86D-01  5.39D-01  5.59D-01  9.87D-01  6.96D-01
                    CP:  8.22D-01  7.89D-01  8.64D-01  7.94D-01  8.28D-01
                    CP:  8.47D-01  6.87D-01
 E= -906.610141639628     Delta-E=       -0.000000000616 Rises=F Damp=F
 DIIS: error= 3.67D-07 at cycle  13 NSaved=  13.
 NSaved=13 IEnMin=13 EnMin= -906.610141639628     IErMin=13 ErrMin= 3.67D-07
 ErrMax= 3.67D-07  0.00D+00 EMaxC= 1.00D-01 BMatC= 8.88D-11 BMatP= 7.09D-10
 IDIUse=1 WtCom= 1.00D+00 WtEn= 0.00D+00
 Coeff-Com:  0.200D-05-0.387D-05 0.254D-04 0.696D-04 0.846D-04-0.179D-03
 Coeff-Com: -0.120D-02-0.634D-02-0.776D-02 0.213D-01 0.661D-01 0.298D+00
 Coeff-Com:  0.630D+00
 Coeff:      0.200D-05-0.387D-05 0.254D-04 0.696D-04 0.846D-04-0.179D-03
 Coeff:     -0.120D-02-0.634D-02-0.776D-02 0.213D-01 0.661D-01 0.298D+00
 Coeff:      0.630D+00
 Gap=     0.148 Goal=   None    Shift=    0.000
 RMSDP=3.99D-08 MaxDP=1.68D-06 DE=-6.16D-10 OVMax= 2.35D-06

 Cycle  14  Pass 1  IDiag  1:
 RMSU=  2.17D-08    CP:  9.86D-01  5.39D-01  5.59D-01  9.87D-01  6.96D-01
                    CP:  8.22D-01  7.89D-01  8.65D-01  7.95D-01  8.34D-01
                    CP:  8.52D-01  7.83D-01  7.22D-01
 E= -906.610141639692     Delta-E=       -0.000000000064 Rises=F Damp=F
 DIIS: error= 1.83D-07 at cycle  14 NSaved=  14.
 NSaved=14 IEnMin=14 EnMin= -906.610141639692     IErMin=14 ErrMin= 1.83D-07
 ErrMax= 1.83D-07  0.00D+00 EMaxC= 1.00D-01 BMatC= 9.91D-12 BMatP= 8.88D-11
 IDIUse=1 WtCom= 1.00D+00 WtEn= 0.00D+00
 Coeff-Com:  0.134D-06-0.161D-05 0.612D-05 0.259D-04 0.352D-04-0.311D-04
 Coeff-Com: -0.375D-03-0.250D-02-0.430D-02 0.230D-02 0.749D-02 0.124D+00
 Coeff-Com:  0.360D+00 0.513D+00
 Coeff:      0.134D-06-0.161D-05 0.612D-05 0.259D-04 0.352D-04-0.311D-04
 Coeff:     -0.375D-03-0.250D-02-0.430D-02 0.230D-02 0.749D-02 0.124D+00
 Coeff:      0.360D+00 0.513D+00
 Gap=     0.148 Goal=   None    Shift=    0.000
 RMSDP=1.16D-08 MaxDP=5.87D-07 DE=-6.41D-11 OVMax= 1.02D-06

 Cycle  15  Pass 1  IDiag  1:
 RMSU=  7.22D-09    CP:  9.86D-01  5.39D-01  5.59D-01  9.87D-01  6.96D-01
                    CP:  8.22D-01  7.89D-01  8.65D-01  7.95D-01  8.34D-01
                    CP:  8.53D-01  7.81D-01  7.81D-01  6.49D-01
 E= -906.610141639696     Delta-E=       -0.000000000004 Rises=F Damp=F
 DIIS: error= 5.02D-08 at cycle  15 NSaved=  15.
 NSaved=15 IEnMin=15 EnMin= -906.610141639696     IErMin=15 ErrMin= 5.02D-08
 ErrMax= 5.02D-08  0.00D+00 EMaxC= 1.00D-01 BMatC= 8.92D-13 BMatP= 9.91D-12
 IDIUse=1 WtCom= 1.00D+00 WtEn= 0.00D+00
 Coeff-Com: -0.870D-07-0.309D-06 0.244D-06 0.515D-05 0.102D-04 0.193D-04
 Coeff-Com: -0.123D-04-0.393D-03-0.117D-02-0.117D-02-0.535D-02 0.270D-01
 Coeff-Com:  0.108D+00 0.270D+00 0.603D+00
 Coeff:     -0.870D-07-0.309D-06 0.244D-06 0.515D-05 0.102D-04 0.193D-04
 Coeff:     -0.123D-04-0.393D-03-0.117D-02-0.117D-02-0.535D-02 0.270D-01
 Coeff:      0.108D+00 0.270D+00 0.603D+00
 Gap=     0.148 Goal=   None    Shift=    0.000
 RMSDP=4.25D-09 MaxDP=2.02D-07 DE=-3.64D-12 OVMax= 3.04D-07

 Error on total polarization charges =  0.02121
 SCF Done:  E(RB3LYP) =  -906.610141640     A.U. after   15 cycles
            NFock= 15  Conv=0.43D-08     -V/T= 2.0085
 KE= 8.989465756491D+02 PE=-4.645138262588D+03 EE= 1.585662975191D+03
 Leave Link  502 at Sun Jul 11 16:06:11 2021, MaxMem=   104857600 cpu:             220.4 elap:              55.1
 (Enter /prod/apps/gaussian/g16b1/l601.exe)
 Copying SCF densities to generalized density rwf, IOpCl= 0 IROHF=0.

 **********************************************************************

            Population analysis using the SCF Density.

 **********************************************************************

 Orbital symmetries:
       Occupied  (A) (A) (A) (A) (A) (A) (A) (A) (A) (A) (A) (A)
                 (A) (A) (A) (A) (A) (A) (A) (A) (A) (A) (A) (A)
                 (A) (A) (A) (A) (A) (A) (A) (A) (A) (A) (A) (A)
                 (A) (A) (A) (A) (A) (A) (A) (A) (A) (A) (A) (A)
                 (A) (A) (A) (A) (A) (A) (A) (A) (A) (A) (A) (A)
                 (A) (A) (A) (A)
       Virtual   (A) (A) (A) (A) (A) (A) (A) (A) (A) (A) (A) (A)
                 (A) (A) (A) (A) (A) (A) (A) (A) (A) (A) (A) (A)
                 (A) (A) (A) (A) (A) (A) (A) (A) (A) (A) (A) (A)
                 (A) (A) (A) (A) (A) (A) (A) (A) (A) (A) (A) (A)
                 (A) (A) (A) (A) (A) (A) (A) (A) (A) (A) (A) (A)
                 (A) (A) (A) (A) (A) (A) (A) (A) (A) (A) (A) (A)
                 (A) (A) (A) (A) (A) (A) (A) (A) (A) (A) (A) (A)
                 (A) (A) (A) (A) (A) (A) (A) (A) (A) (A) (A) (A)
                 (A) (A) (A) (A) (A) (A) (A) (A) (A) (A) (A) (A)
                 (A) (A) (A) (A) (A) (A) (A) (A) (A) (A) (A) (A)
                 (A) (A) (A) (A) (A) (A) (A) (A) (A) (A) (A) (A)
                 (A) (A) (A) (A) (A) (A) (A) (A) (A) (A) (A) (A)
                 (A) (A) (A) (A) (A) (A) (A) (A) (A) (A) (A) (A)
                 (A) (A) (A) (A) (A) (A) (A) (A) (A) (A) (A) (A)
                 (A) (A) (A) (A) (A) (A) (A) (A) (A) (A) (A) (A)
                 (A) (A) (A) (A) (A) (A) (A) (A) (A) (A) (A) (A)
                 (A) (A) (A) (A) (A) (A) (A) (A) (A) (A) (A) (A)
                 (A) (A) (A) (A) (A) (A) (A) (A) (A)
 The electronic state is 1-A.
 Alpha  occ. eigenvalues --  -19.16997 -19.15662 -19.15178 -19.14100 -19.05573
 Alpha  occ. eigenvalues --  -14.44670 -14.37843 -14.36872 -14.22687 -10.29210
 Alpha  occ. eigenvalues --  -10.24525 -10.23519 -10.23335 -10.23073 -10.22447
 Alpha  occ. eigenvalues --  -10.21819 -10.21374  -1.10174  -1.05807  -1.03436
 Alpha  occ. eigenvalues --   -1.01974  -1.01154  -0.99055  -0.88866  -0.85662
 Alpha  occ. eigenvalues --   -0.78356  -0.77143  -0.74217  -0.67794  -0.64266
 Alpha  occ. eigenvalues --   -0.63100  -0.59634  -0.57045  -0.55094  -0.52491
 Alpha  occ. eigenvalues --   -0.51216  -0.50485  -0.49834  -0.48734  -0.48074
 Alpha  occ. eigenvalues --   -0.46154  -0.45628  -0.44708  -0.43574  -0.41548
 Alpha  occ. eigenvalues --   -0.40950  -0.38817  -0.37768  -0.37355  -0.36640
 Alpha  occ. eigenvalues --   -0.35653  -0.33579  -0.33295  -0.32755  -0.30388
 Alpha  occ. eigenvalues --   -0.29389  -0.28978  -0.28413  -0.27194  -0.25760
 Alpha  occ. eigenvalues --   -0.25083  -0.21409  -0.20310  -0.17588
 Alpha virt. eigenvalues --   -0.02764   0.02755   0.05380   0.09043   0.09955
 Alpha virt. eigenvalues --    0.11838   0.12396   0.13976   0.14313   0.15290
 Alpha virt. eigenvalues --    0.16091   0.16640   0.16886   0.17244   0.19376
 Alpha virt. eigenvalues --    0.19637   0.19833   0.20591   0.21571   0.22193
 Alpha virt. eigenvalues --    0.23961   0.24471   0.26432   0.28230   0.30030
 Alpha virt. eigenvalues --    0.31716   0.33540   0.33733   0.37595   0.40764
 Alpha virt. eigenvalues --    0.43147   0.46895   0.51638   0.53218   0.53458
 Alpha virt. eigenvalues --    0.54540   0.55422   0.55846   0.57862   0.58638
 Alpha virt. eigenvalues --    0.60614   0.61278   0.61771   0.62268   0.63009
 Alpha virt. eigenvalues --    0.63503   0.65621   0.66941   0.67837   0.68219
 Alpha virt. eigenvalues --    0.69496   0.70424   0.72358   0.74351   0.74950
 Alpha virt. eigenvalues --    0.75564   0.77078   0.78539   0.79583   0.79888
 Alpha virt. eigenvalues --    0.79954   0.81642   0.82462   0.82876   0.83546
 Alpha virt. eigenvalues --    0.84941   0.85610   0.86647   0.87263   0.87736
 Alpha virt. eigenvalues --    0.89359   0.91226   0.92825   0.93101   0.93683
 Alpha virt. eigenvalues --    0.93830   0.95750   0.96632   0.98715   0.99439
 Alpha virt. eigenvalues --    1.00468   1.01803   1.02874   1.03367   1.05440
 Alpha virt. eigenvalues --    1.06577   1.09211   1.09450   1.11161   1.13403
 Alpha virt. eigenvalues --    1.14061   1.16626   1.19794   1.20670   1.22784
 Alpha virt. eigenvalues --    1.26191   1.28352   1.28906   1.31873   1.33854
 Alpha virt. eigenvalues --    1.34240   1.36245   1.37782   1.41022   1.42198
 Alpha virt. eigenvalues --    1.44728   1.47990   1.49626   1.51293   1.51500
 Alpha virt. eigenvalues --    1.53110   1.53530   1.55251   1.57262   1.59147
 Alpha virt. eigenvalues --    1.59439   1.62688   1.68725   1.69733   1.71728
 Alpha virt. eigenvalues --    1.73219   1.73575   1.74565   1.76682   1.77841
 Alpha virt. eigenvalues --    1.79038   1.82432   1.82732   1.83993   1.84353
 Alpha virt. eigenvalues --    1.86473   1.87444   1.88262   1.90433   1.91249
 Alpha virt. eigenvalues --    1.92976   1.94135   1.95970   1.96163   1.98615
 Alpha virt. eigenvalues --    2.00164   2.02648   2.02940   2.04862   2.07330
 Alpha virt. eigenvalues --    2.08284   2.09066   2.11354   2.13968   2.18918
 Alpha virt. eigenvalues --    2.19163   2.20918   2.22260   2.24134   2.24399
 Alpha virt. eigenvalues --    2.27504   2.28976   2.30227   2.32194   2.35379
 Alpha virt. eigenvalues --    2.36471   2.36827   2.40306   2.40404   2.42136
 Alpha virt. eigenvalues --    2.44192   2.48506   2.49664   2.50489   2.51071
 Alpha virt. eigenvalues --    2.52607   2.54511   2.58016   2.58392   2.61376
 Alpha virt. eigenvalues --    2.62500   2.67230   2.69015   2.71487   2.74055
 Alpha virt. eigenvalues --    2.74440   2.78355   2.80368   2.80854   2.82818
 Alpha virt. eigenvalues --    2.85599   2.87786   2.89816   2.95183   2.97747
 Alpha virt. eigenvalues --    2.98812   3.05112   3.06139   3.09342   3.20323
 Alpha virt. eigenvalues --    3.26025   3.70200   3.73009   3.80855   3.84625
 Alpha virt. eigenvalues --    3.90724   4.00626   4.03802   4.06947   4.14585
 Alpha virt. eigenvalues --    4.23139   4.29348   4.38777   4.44002   4.55061
 Alpha virt. eigenvalues --    4.64838   4.65922   4.66787
          Condensed to atoms (all electrons):
               1          2          3          4          5          6
     1  N    7.439665   0.235179   0.513582  -0.176750  -0.151541   0.012042
     2  H    0.235179   0.551720  -0.041070   0.010887  -0.004651  -0.000251
     3  C    0.513582  -0.041070   4.354534   0.593869   0.232102  -0.019127
     4  O   -0.176750   0.010887   0.593869   8.316478  -0.105394   0.010153
     5  C   -0.151541  -0.004651   0.232102  -0.105394   5.205174   0.384689
     6  C    0.012042  -0.000251  -0.019127   0.010153   0.384689   5.037882
     7  N   -0.000223  -0.000016   0.004810   0.000293  -0.022410   0.394733
     8  H    0.000145  -0.000028  -0.000860   0.003876  -0.040496   0.374651
     9  N   -0.012123   0.003615  -0.036127   0.001557   0.384179  -0.080650
    10  N    0.000136   0.000238   0.003580  -0.000035  -0.104435  -0.111712
    11  C    0.000001  -0.000009  -0.000056   0.000000   0.005506   0.005333
    12  H    0.000002   0.000007  -0.000003  -0.000000   0.000790  -0.000352
    13  O   -0.000000   0.000000   0.000000  -0.000000  -0.000188   0.000758
    14  C    0.000000  -0.000000  -0.000000   0.000000   0.000011  -0.000071
    15  C    0.000000  -0.000000  -0.000000  -0.000000  -0.000000   0.000002
    16  O   -0.000000  -0.000000   0.000000  -0.000000   0.000000  -0.000000
    17  H    0.000000  -0.000000  -0.000000   0.000000  -0.000000  -0.000000
    18  H   -0.000000   0.000000   0.000000  -0.000000   0.000000   0.000000
    19  H   -0.000000  -0.000000   0.000000   0.000000   0.000000  -0.000000
    20  H    0.000000   0.000000   0.000000  -0.000000  -0.000000  -0.000004
    21  C    0.000000  -0.000000  -0.000000   0.000000  -0.000006  -0.000036
    22  O    0.000000  -0.000000  -0.000000   0.000000  -0.000000  -0.000000
    23  H   -0.000000  -0.000000  -0.000000  -0.000000   0.000000  -0.000000
    24  H    0.000000  -0.000000  -0.000000   0.000000  -0.000034   0.000278
    25  C   -0.000000   0.000000   0.000001  -0.000000  -0.000316   0.000319
    26  H    0.000000   0.000000   0.000001  -0.000000  -0.000005   0.000025
    27  O    0.000000  -0.000000  -0.000000   0.000000  -0.000000   0.000001
    28  H   -0.000000   0.000000  -0.000000  -0.000000  -0.000000  -0.000000
               7          8          9         10         11         12
     1  N   -0.000223   0.000145  -0.012123   0.000136   0.000001   0.000002
     2  H   -0.000016  -0.000028   0.003615   0.000238  -0.000009   0.000007
     3  C    0.004810  -0.000860  -0.036127   0.003580  -0.000056  -0.000003
     4  O    0.000293   0.003876   0.001557  -0.000035   0.000000  -0.000000
     5  C   -0.022410  -0.040496   0.384179  -0.104435   0.005506   0.000790
     6  C    0.394733   0.374651  -0.080650  -0.111712   0.005333  -0.000352
     7  N    6.846246  -0.046549  -0.099724   0.257551  -0.048552   0.005198
     8  H   -0.046549   0.523279   0.005019   0.006269  -0.000208   0.000003
     9  N   -0.099724   0.005019   7.024763   0.245899  -0.048147   0.007747
    10  N    0.257551   0.006269   0.245899   6.731423   0.188706  -0.061133
    11  C   -0.048552  -0.000208  -0.048147   0.188706   4.891113   0.368661
    12  H    0.005198   0.000003   0.007747  -0.061133   0.368661   0.545877
    13  O    0.002138   0.000005   0.001033  -0.052399   0.240356  -0.029386
    14  C    0.002426   0.000001  -0.000070  -0.001194  -0.055736   0.003895
    15  C    0.000058   0.000000   0.000002  -0.000214   0.000339   0.000161
    16  O   -0.000000  -0.000000  -0.000000  -0.000001   0.000005   0.000011
    17  H    0.000000  -0.000000  -0.000000   0.000019  -0.000017  -0.000057
    18  H   -0.000001   0.000000   0.000000   0.000058   0.000542  -0.000121
    19  H   -0.000000  -0.000000  -0.000000   0.000007   0.000147  -0.000009
    20  H    0.000351  -0.000001   0.000006   0.000751   0.004856  -0.000258
    21  C   -0.003054   0.000003  -0.000062  -0.001391  -0.051575   0.005346
    22  O    0.000031  -0.000000   0.000000   0.000012   0.002915  -0.000078
    23  H    0.000000  -0.000000  -0.000000  -0.000008   0.000061  -0.000009
    24  H    0.010185   0.000008   0.000127  -0.000310   0.003300  -0.000214
    25  C   -0.001143  -0.000000   0.002291  -0.032668   0.308830  -0.037103
    26  H    0.001008   0.000002   0.000392   0.002536  -0.050005   0.001884
    27  O    0.000010  -0.000000  -0.000035   0.001620  -0.036341   0.004138
    28  H   -0.000000   0.000000   0.000002  -0.000190   0.005519  -0.000243
              13         14         15         16         17         18
     1  N   -0.000000   0.000000   0.000000  -0.000000   0.000000  -0.000000
     2  H    0.000000  -0.000000  -0.000000  -0.000000  -0.000000   0.000000
     3  C    0.000000  -0.000000  -0.000000   0.000000  -0.000000   0.000000
     4  O   -0.000000   0.000000  -0.000000  -0.000000   0.000000  -0.000000
     5  C   -0.000188   0.000011  -0.000000   0.000000  -0.000000   0.000000
     6  C    0.000758  -0.000071   0.000002  -0.000000  -0.000000   0.000000
     7  N    0.002138   0.002426   0.000058  -0.000000   0.000000  -0.000001
     8  H    0.000005   0.000001   0.000000  -0.000000  -0.000000   0.000000
     9  N    0.001033  -0.000070   0.000002  -0.000000  -0.000000   0.000000
    10  N   -0.052399  -0.001194  -0.000214  -0.000001   0.000019   0.000058
    11  C    0.240356  -0.055736   0.000339   0.000005  -0.000017   0.000542
    12  H   -0.029386   0.003895   0.000161   0.000011  -0.000057  -0.000121
    13  O    8.304545   0.217170  -0.049427  -0.001848   0.012770  -0.001158
    14  C    0.217170   5.000729   0.347846  -0.035996  -0.010638  -0.035300
    15  C   -0.049427   0.347846   4.938351   0.229178  -0.034651   0.354086
    16  O   -0.001848  -0.035996   0.229178   8.293158   0.241603  -0.041567
    17  H    0.012770  -0.010638  -0.034651   0.241603   0.355685  -0.004633
    18  H   -0.001158  -0.035300   0.354086  -0.041567  -0.004633   0.608400
    19  H    0.003574  -0.038713   0.353951  -0.027132   0.006341  -0.036749
    20  H   -0.044731   0.362966  -0.050650   0.001711   0.000714   0.005250
    21  C   -0.030108   0.271572  -0.023102   0.003504   0.000417   0.001193
    22  O    0.001122  -0.047466  -0.003726   0.000052  -0.000020   0.000156
    23  H   -0.000081   0.006677   0.000479   0.000001   0.000001  -0.000059
    24  H    0.002886  -0.047393   0.004998  -0.000050  -0.000016  -0.000206
    25  C   -0.049309  -0.044828  -0.012124  -0.000102   0.000101   0.001085
    26  H    0.003405   0.007541   0.000142   0.000001  -0.000002   0.000082
    27  O    0.001034  -0.002359   0.004107   0.000029  -0.000006   0.005687
    28  H   -0.000109  -0.000387   0.000141  -0.000001   0.000001  -0.000127
              19         20         21         22         23         24
     1  N   -0.000000   0.000000   0.000000   0.000000  -0.000000   0.000000
     2  H   -0.000000   0.000000  -0.000000  -0.000000  -0.000000  -0.000000
     3  C    0.000000   0.000000  -0.000000  -0.000000  -0.000000  -0.000000
     4  O    0.000000  -0.000000   0.000000   0.000000  -0.000000   0.000000
     5  C    0.000000  -0.000000  -0.000006  -0.000000   0.000000  -0.000034
     6  C   -0.000000  -0.000004  -0.000036  -0.000000  -0.000000   0.000278
     7  N   -0.000000   0.000351  -0.003054   0.000031   0.000000   0.010185
     8  H   -0.000000  -0.000001   0.000003  -0.000000  -0.000000   0.000008
     9  N   -0.000000   0.000006  -0.000062   0.000000  -0.000000   0.000127
    10  N    0.000007   0.000751  -0.001391   0.000012  -0.000008  -0.000310
    11  C    0.000147   0.004856  -0.051575   0.002915   0.000061   0.003300
    12  H   -0.000009  -0.000258   0.005346  -0.000078  -0.000009  -0.000214
    13  O    0.003574  -0.044731  -0.030108   0.001122  -0.000081   0.002886
    14  C   -0.038713   0.362966   0.271572  -0.047466   0.006677  -0.047393
    15  C    0.353951  -0.050650  -0.023102  -0.003726   0.000479   0.004998
    16  O   -0.027132   0.001711   0.003504   0.000052   0.000001  -0.000050
    17  H    0.006341   0.000714   0.000417  -0.000020   0.000001  -0.000016
    18  H   -0.036749   0.005250   0.001193   0.000156  -0.000059  -0.000206
    19  H    0.562961   0.001724  -0.004897   0.014131  -0.000386   0.000238
    20  H    0.001724   0.606706  -0.039945   0.002896  -0.000337  -0.011689
    21  C   -0.004897  -0.039945   5.024371   0.239942  -0.029474   0.360472
    22  O    0.014131   0.002896   0.239942   8.289932   0.241619  -0.036802
    23  H   -0.000386  -0.000337  -0.029474   0.241619   0.333676  -0.000702
    24  H    0.000238  -0.011689   0.360472  -0.036802  -0.000702   0.603991
    25  C    0.000585   0.007966   0.270613  -0.040196  -0.004307  -0.044399
    26  H   -0.000029  -0.000320  -0.055459   0.000462   0.002480  -0.002967
    27  O   -0.000204  -0.000055  -0.055145  -0.002219   0.002916   0.003067
    28  H   -0.000017  -0.000002  -0.002793   0.005838   0.001448   0.000147
              25         26         27         28
     1  N   -0.000000   0.000000   0.000000  -0.000000
     2  H    0.000000   0.000000  -0.000000   0.000000
     3  C    0.000001   0.000001  -0.000000  -0.000000
     4  O   -0.000000  -0.000000   0.000000  -0.000000
     5  C   -0.000316  -0.000005  -0.000000  -0.000000
     6  C    0.000319   0.000025   0.000001  -0.000000
     7  N   -0.001143   0.001008   0.000010  -0.000000
     8  H   -0.000000   0.000002  -0.000000   0.000000
     9  N    0.002291   0.000392  -0.000035   0.000002
    10  N   -0.032668   0.002536   0.001620  -0.000190
    11  C    0.308830  -0.050005  -0.036341   0.005519
    12  H   -0.037103   0.001884   0.004138  -0.000243
    13  O   -0.049309   0.003405   0.001034  -0.000109
    14  C   -0.044828   0.007541  -0.002359  -0.000387
    15  C   -0.012124   0.000142   0.004107   0.000141
    16  O   -0.000102   0.000001   0.000029  -0.000001
    17  H    0.000101  -0.000002  -0.000006   0.000001
    18  H    0.001085   0.000082   0.005687  -0.000127
    19  H    0.000585  -0.000029  -0.000204  -0.000017
    20  H    0.007966  -0.000320  -0.000055  -0.000002
    21  C    0.270613  -0.055459  -0.055145  -0.002793
    22  O   -0.040196   0.000462  -0.002219   0.005838
    23  H   -0.004307   0.002480   0.002916   0.001448
    24  H   -0.044399  -0.002967   0.003067   0.000147
    25  C    5.015539   0.372564   0.236303  -0.018165
    26  H    0.372564   0.597398  -0.034873  -0.007082
    27  O    0.236303  -0.034873   8.282886   0.243628
    28  H   -0.018165  -0.007082   0.243628   0.317569
 Mulliken charges:
               1
     1  N   -0.860114
     2  H    0.244381
     3  C    0.394765
     4  O   -0.654934
     5  C    0.217026
     6  C   -0.008661
     7  N   -0.303367
     8  H    0.174883
     9  N   -0.399695
    10  N   -0.073114
    11  C    0.264456
    12  H    0.185248
    13  O   -0.532051
    14  C    0.099316
    15  C   -0.059947
    16  O   -0.662555
    17  H    0.432387
    18  H    0.143383
    19  H    0.164476
    20  H    0.152095
    21  C    0.119615
    22  O   -0.668599
    23  H    0.446005
    24  H    0.155083
    25  C    0.068464
    26  H    0.160819
    27  O   -0.654187
    28  H    0.454822
 Sum of Mulliken charges =  -1.00000
 Mulliken charges with hydrogens summed into heavy atoms:
               1
     1  N   -0.615734
     3  C    0.394765
     4  O   -0.654934
     5  C    0.217026
     6  C    0.166222
     7  N   -0.303367
     9  N   -0.399695
    10  N   -0.073114
    11  C    0.449703
    13  O   -0.532051
    14  C    0.251411
    15  C    0.247913
    16  O   -0.230167
    21  C    0.274698
    22  O   -0.222594
    25  C    0.229283
    27  O   -0.199365
 Electronic spatial extent (au):  <R**2>=           5332.5114
 Charge=             -1.0000 electrons
 Dipole moment (field-independent basis, Debye):
    X=             23.1827    Y=             -6.8908    Z=              2.2572  Tot=             24.2902
 Quadrupole moment (field-independent basis, Debye-Ang):
   XX=           -252.4174   YY=            -89.6878   ZZ=           -103.4921
   XY=            -12.1436   XZ=             -7.0968   YZ=             -4.7166
 Traceless Quadrupole moment (field-independent basis, Debye-Ang):
   XX=           -103.8850   YY=             58.8447   ZZ=             45.0403
   XY=            -12.1436   XZ=             -7.0968   YZ=             -4.7166
 Octapole moment (field-independent basis, Debye-Ang**2):
  XXX=            706.8010  YYY=            -58.4334  ZZZ=              7.0913  XYY=             34.7723
  XXY=            -93.7515  XXZ=             39.8646  XZZ=             35.1252  YZZ=              0.4439
  YYZ=              2.2707  XYZ=              1.8844
 Hexadecapole moment (field-independent basis, Debye-Ang**3):
 XXXX=         -10107.1012 YYYY=           -560.1493 ZZZZ=           -529.9534 XXXY=           -122.9514
 XXXZ=           -224.1597 YYYX=           -192.6043 YYYZ=            -26.8848 ZZZX=            -41.8189
 ZZZY=             -9.2392 XXYY=          -1090.6022 XXZZ=          -1158.3088 YYZZ=           -191.4058
 XXYZ=            -34.9074 YYXZ=              7.3468 ZZXY=              8.9848
 N-N= 1.253918570108D+03 E-N=-4.645138264907D+03  KE= 8.989465756491D+02
 No NMR shielding tensors so no spin-rotation constants.
 Leave Link  601 at Sun Jul 11 16:06:12 2021, MaxMem=   104857600 cpu:               0.4 elap:               0.1
 (Enter /prod/apps/gaussian/g16b1/l701.exe)
 ... and contract with generalized density number  0.
 Compute integral first derivatives.
 D1PCM: PCM CHGder 1st derivatives, ID1Alg=3 FixD1E=F DoIter=F DoCFld=F I1PDM=0.
 GePol: Maximum number of non-zero 1st derivatives   =     237
 Leave Link  701 at Sun Jul 11 16:06:13 2021, MaxMem=   104857600 cpu:               6.5 elap:               1.7
 (Enter /prod/apps/gaussian/g16b1/l702.exe)
 L702 exits ... SP integral derivatives will be done elsewhere.
 Leave Link  702 at Sun Jul 11 16:06:13 2021, MaxMem=   104857600 cpu:               0.1 elap:               0.0
 (Enter /prod/apps/gaussian/g16b1/l703.exe)
 Integral derivatives from FoFJK, PRISM(SPDF).
 Compute integral first derivatives, UseDBF=F ICtDFT=           0.
 Calling FoFJK, ICntrl=      2127 FMM=F ISym2X=0 I1Cent= 0 IOpClX= 0 NMat=1 NMatS=1 NMatT=0.
 FoFJK:  IHMeth= 1 ICntrl=    2127 DoSepK=F KAlg= 0 I1Cent=           0 FoldK=F
 IRaf=         0 NMat=       1 IRICut=       1 DoRegI=T DoRafI=F ISym2E= 0 IDoP0=0 IntGTp=1.
 FoFCou: FMM=F IPFlag=           0 FMFlag=      100000 FMFlg1=         800
         NFxFlg=           0 DoJE=F BraDBF=F KetDBF=F FulRan=T
         wScrn=  0.000000 ICntrl=      2127 IOpCl=  0 I1Cent=           0 NGrid=           0
         NMat0=    1 NMatS0=      1 NMatT0=    0 NMatD0=    1 NMtDS0=    0 NMtDT0=    0
 Symmetry not used in FoFCou.
 Leave Link  703 at Sun Jul 11 16:06:24 2021, MaxMem=   104857600 cpu:              44.2 elap:              11.1
 (Enter /prod/apps/gaussian/g16b1/l716.exe)
 Dipole        = 9.12076664D+00-2.71103441D+00 8.88063543D-01
 ***** Axes restored to original set *****
 -------------------------------------------------------------------
 Center     Atomic                   Forces (Hartrees/Bohr)
 Number     Number              X              Y              Z
 -------------------------------------------------------------------
      1        7           0.016756455    0.011122530   -0.015835331
      2        1          -0.022762618   -0.004330733   -0.008926560
      3        6           0.021016903    0.075098772   -0.094406955
      4        8          -0.008440717   -0.061276497    0.092431764
      5        6          -0.019189764   -0.015686144    0.014116745
      6        6          -0.002582733   -0.007173970    0.001391736
      7        7          -0.021614230    0.016780501   -0.015600347
      8        1           0.008504898    0.001406881   -0.003236155
      9        7           0.013687789    0.001780565    0.007362483
     10        7           0.008871753   -0.028313936    0.037841198
     11        6          -0.005952977   -0.003850393   -0.022411248
     12        1          -0.010747732   -0.004770914   -0.000478499
     13        8           0.019914822    0.030034936    0.004664978
     14        6          -0.013484692   -0.020284257   -0.002156240
     15        6           0.011696072    0.008378033    0.016484989
     16        8          -0.001794360    0.007888832    0.006483032
     17        1          -0.000554443   -0.014475317   -0.004580743
     18        1          -0.000853519    0.010939328    0.005255343
     19        1          -0.004155047   -0.013361579   -0.004508756
     20        1          -0.004983063   -0.012704173   -0.010647080
     21        6           0.002323749    0.010473260   -0.025220080
     22        8          -0.005948273    0.001052246    0.004336734
     23        1          -0.005460364   -0.000671700    0.001552695
     24        1           0.002978317    0.003825455   -0.000322289
     25        6           0.019324299    0.006266251    0.030363606
     26        1           0.003717470    0.005299225   -0.002696545
     27        8          -0.000266191   -0.000852861   -0.011735320
     28        1          -0.000001802   -0.002594340    0.000476846
 -------------------------------------------------------------------
 Cartesian Forces:  Max     0.094406955 RMS     0.021719420
 Leave Link  716 at Sun Jul 11 16:06:24 2021, MaxMem=   104857600 cpu:               0.1 elap:               0.0
 (Enter /prod/apps/gaussian/g16b1/l103.exe)

 GradGradGradGradGradGradGradGradGradGradGradGradGradGradGradGradGradGrad
 Berny optimization.
 FormGI is forming the generalized inverse of G from B-inverse, IUseBI=4.
 Internal  Forces:  Max     0.090379524 RMS     0.013769589
 Search for a local minimum.
 Step number   1 out of a maximum of  163
 All quantities printed in internal units (Hartrees-Bohrs-Radians)
 RMS Force = .13770D-01 SwitMx=.10000D-02 MixMth= 1
 Mixed Optimization -- RFO/linear search
 Second derivative matrix not updated -- first step.
 ITU=  0
     Eigenvalues ---    0.00230   0.00450   0.00787   0.00838   0.01086
     Eigenvalues ---    0.01290   0.01325   0.01479   0.01610   0.01622
     Eigenvalues ---    0.01779   0.02000   0.02138   0.02213   0.02594
     Eigenvalues ---    0.03041   0.03873   0.04046   0.04964   0.05111
     Eigenvalues ---    0.05195   0.05484   0.05743   0.05931   0.05982
     Eigenvalues ---    0.06135   0.06744   0.07679   0.08207   0.09530
     Eigenvalues ---    0.11065   0.13011   0.13675   0.15997   0.16000
     Eigenvalues ---    0.16000   0.16000   0.16000   0.16301   0.17323
     Eigenvalues ---    0.18520   0.19202   0.22019   0.23588   0.24560
     Eigenvalues ---    0.24861   0.24945   0.24958   0.25000   0.26027
     Eigenvalues ---    0.26348   0.27282   0.29205   0.32959   0.33673
[...]
 Alpha virt. eigenvalues --    0.84000   0.84473   0.85227   0.85435   0.86215
 Alpha virt. eigenvalues --    0.86643   0.87077   0.87482   0.87703   0.88452
 Alpha virt. eigenvalues --    0.88733   0.89295   0.90573   0.90635   0.91118
 Alpha virt. eigenvalues --    0.91555   0.92251   0.92811   0.93185   0.94247
 Alpha virt. eigenvalues --    0.94847   0.95127   0.95353   0.96024   0.98002
 Alpha virt. eigenvalues --    0.98646   0.99884   1.00328   1.00513   1.00953
 Alpha virt. eigenvalues --    1.01964   1.02426   1.02676   1.03690   1.04220
 Alpha virt. eigenvalues --    1.04737   1.05739   1.06809   1.07454   1.07914
 Alpha virt. eigenvalues --    1.08825   1.09127   1.09570   1.10250   1.11535
 Alpha virt. eigenvalues --    1.12479   1.12567   1.13695   1.14257   1.15118
 Alpha virt. eigenvalues --    1.15512   1.16689   1.17250   1.18764   1.19735
 Alpha virt. eigenvalues --    1.20513   1.21302   1.22165   1.22557   1.24107
 Alpha virt. eigenvalues --    1.25172   1.25309   1.26436   1.27253   1.27965
 Alpha virt. eigenvalues --    1.28710   1.29323   1.29711   1.31247   1.32974
 Alpha virt. eigenvalues --    1.34075   1.34474   1.35366   1.36287   1.37199
 Alpha virt. eigenvalues --    1.38427   1.39124   1.39855   1.41001   1.41635
 Alpha virt. eigenvalues --    1.41703   1.43036   1.43919   1.45238   1.45936
 Alpha virt. eigenvalues --    1.46114   1.47522   1.48261   1.49249   1.50985
 Alpha virt. eigenvalues --    1.51632   1.52466   1.52807   1.53290   1.54876
 Alpha virt. eigenvalues --    1.56712   1.58442   1.59155   1.59665   1.60804
 Alpha virt. eigenvalues --    1.62740   1.63160   1.66368   1.66989   1.67935
 Alpha virt. eigenvalues --    1.69818   1.70215   1.70935   1.72306   1.72867
 Alpha virt. eigenvalues --    1.73164   1.75090   1.76936   1.77277   1.77940
 Alpha virt. eigenvalues --    1.78761   1.79502   1.80352   1.81684   1.81768
 Alpha virt. eigenvalues --    1.83174   1.84225   1.85784   1.86249   1.88185
 Alpha virt. eigenvalues --    1.88789   1.89966   1.90703   1.91177   1.92581
 Alpha virt. eigenvalues --    1.93124   1.94402   1.95372   1.96359   1.97659
 Alpha virt. eigenvalues --    1.98359   1.99356   2.00454   2.00695   2.01876
 Alpha virt. eigenvalues --    2.03009   2.05766   2.07226   2.07730   2.08304
 Alpha virt. eigenvalues --    2.11917   2.12350   2.13843   2.15107   2.15659
 Alpha virt. eigenvalues --    2.16461   2.16893   2.18987   2.19682   2.20112
 Alpha virt. eigenvalues --    2.21786   2.22258   2.23945   2.24628   2.24866
 Alpha virt. eigenvalues --    2.26590   2.27734   2.28893   2.29481   2.30735
 Alpha virt. eigenvalues --    2.31365   2.31723   2.32954   2.34638   2.35865
 Alpha virt. eigenvalues --    2.37127   2.37746   2.39163   2.39625   2.41146
 Alpha virt. eigenvalues --    2.42984   2.43546   2.44667   2.45577   2.46740
 Alpha virt. eigenvalues --    2.47333   2.47757   2.48907   2.51815   2.53256
 Alpha virt. eigenvalues --    2.54494   2.55802   2.56775   2.58041   2.59420
 Alpha virt. eigenvalues --    2.60580   2.61528   2.62604   2.63518   2.64971
 Alpha virt. eigenvalues --    2.66185   2.66498   2.67988   2.68853   2.68868
 Alpha virt. eigenvalues --    2.70890   2.72599   2.73811   2.75389   2.76997
 Alpha virt. eigenvalues --    2.77272   2.79233   2.80160   2.81591   2.82761
 Alpha virt. eigenvalues --    2.83775   2.86531   2.88961   2.89380   2.91749
 Alpha virt. eigenvalues --    2.92977   2.95938   2.97906   2.98227   3.00028
 Alpha virt. eigenvalues --    3.00309   3.01831   3.02993   3.04593   3.05343
 Alpha virt. eigenvalues --    3.06981   3.08501   3.09323   3.10635   3.12893
 Alpha virt. eigenvalues --    3.14689   3.15886   3.17430   3.19432   3.20957
 Alpha virt. eigenvalues --    3.22832   3.25516   3.27624   3.31102   3.34228
 Alpha virt. eigenvalues --    3.36209   3.37884   3.38715   3.39487   3.43287
 Alpha virt. eigenvalues --    3.51825   3.55419   3.60994   3.63072   3.67443
 Alpha virt. eigenvalues --    3.73435   3.74938   3.77559   3.78638   3.81897
 Alpha virt. eigenvalues --    3.84898   3.87612   3.88780   3.91202   3.92092
 Alpha virt. eigenvalues --    3.94533   3.96580   3.97075   3.97726   3.98128
 Alpha virt. eigenvalues --    4.01248   4.02382   4.04089   4.05976   4.06650
 Alpha virt. eigenvalues --    4.09343   4.10335   4.13703   4.15856   4.19410
 Alpha virt. eigenvalues --    4.21931   4.23719   4.25569   4.34355   4.41068
 Alpha virt. eigenvalues --    4.43264   4.45941   4.50109   4.58122   4.72919
 Alpha virt. eigenvalues --    4.95639
          Condensed to atoms (all electrons):
               1          2          3          4          5          6
     1  N    7.643070   0.209837  -0.320934  -0.135782   0.505464  -0.024388
     2  H    0.209837   0.806845   0.157157   0.010090  -0.262756  -0.038877
     3  C   -0.320934   0.157157   6.418114   0.042811  -1.533002   0.043773
     4  O   -0.135782   0.010090   0.042811   9.040862   0.098565   0.021635
     5  C    0.505464  -0.262756  -1.533002   0.098565   7.264438  -0.416826
     6  C   -0.024388  -0.038877   0.043773   0.021635  -0.416826   6.032028
     7  N   -0.012104   0.020143   0.052376  -0.014721  -0.012854  -0.129140
     8  H   -0.001086   0.000197   0.046334  -0.016371  -0.084737   0.349881
     9  N   -0.095053  -0.018784  -0.015126   0.004607   0.674006   0.689052
    10  N   -0.065325   0.139100   0.204416  -0.019828  -0.738805  -0.904589
    11  C   -0.007326  -0.005475  -0.084277  -0.004707  -0.403821  -0.021415
    12  H   -0.002169   0.000196   0.000759   0.000511   0.004713  -0.004247
    13  O    0.000181   0.000124   0.001800  -0.000173  -0.014743   0.031393
    14  C    0.001200   0.000117  -0.002760   0.000133   0.044328  -0.000977
    15  C   -0.000086  -0.000000   0.000175  -0.000023   0.006535  -0.006528
    16  O    0.000003   0.000012  -0.000050   0.000000   0.000763  -0.000800
    17  H    0.000009   0.000021   0.000002  -0.000001   0.000197   0.000149
    18  H    0.000009   0.000019  -0.000047  -0.000006   0.001083  -0.000098
    19  H   -0.000009  -0.000018   0.000046  -0.000003  -0.000974   0.000320
    20  H    0.000140  -0.000037   0.000692   0.000012   0.010890  -0.007367
    21  C   -0.001247   0.000726   0.015925  -0.000294   0.008510   0.005174
    22  O   -0.000005   0.000006   0.000040  -0.000000  -0.000059   0.002745
    23  H   -0.000004   0.000011   0.000053  -0.000002  -0.000590   0.001996
    24  H   -0.000575   0.000088   0.004592  -0.000273   0.003737  -0.024221
    25  C    0.003096  -0.000357  -0.021627   0.000191   0.032894  -0.068105
    26  H    0.001020  -0.000729  -0.009025   0.000183  -0.050382   0.039777
    27  O   -0.000004  -0.000044   0.000581   0.000004   0.012960   0.000729
    28  H    0.000017   0.000036   0.000040   0.000004   0.001617   0.000763
               7          8          9         10         11         12
     1  N   -0.012104  -0.001086  -0.095053  -0.065325  -0.007326  -0.002169
     2  H    0.020143   0.000197  -0.018784   0.139100  -0.005475   0.000196
     3  C    0.052376   0.046334  -0.015126   0.204416  -0.084277   0.000759
     4  O   -0.014721  -0.016371   0.004607  -0.019828  -0.004707   0.000511
     5  C   -0.012854  -0.084737   0.674006  -0.738805  -0.403821   0.004713
     6  C   -0.129140   0.349881   0.689052  -0.904589  -0.021415  -0.004247
     7  N   10.943916  -0.376171  -2.448179  -0.964927   0.276608  -0.090417
     8  H   -0.376171   1.425257  -0.127695   0.200491  -0.009007  -0.001789
     9  N   -2.448179  -0.127695  13.210261  -3.234645  -1.056081   0.161311
    10  N   -0.964927   0.200491  -3.234645  13.471099  -0.594776  -0.210282
    11  C    0.276608  -0.009007  -1.056081  -0.594776   8.303328  -0.082725
    12  H   -0.090417  -0.001789   0.161311  -0.210282  -0.082725   1.621067
    13  O    0.189550   0.000111  -0.115240  -0.048185  -0.090340  -0.165696
    14  C   -0.084360   0.001986   0.231170   0.104541  -1.389683  -0.115103
    15  C   -0.041626  -0.000327  -0.006114   0.086419   0.088515   0.022613
    16  O   -0.002145  -0.000044   0.001375   0.002678   0.023284  -0.002763
    17  H   -0.000251   0.000055  -0.001276   0.003430  -0.009652   0.000189
    18  H   -0.001863  -0.000049  -0.000400   0.009658  -0.012042   0.002932
    19  H    0.000453  -0.000019  -0.000634  -0.010217  -0.015046   0.005025
    20  H   -0.036154   0.000599   0.017646   0.098098  -0.039524   0.014135
    21  C    0.145406  -0.007435  -0.170995  -0.081816   0.585722   0.138372
    22  O   -0.001645   0.000187  -0.000587   0.016055   0.039003  -0.001202
    23  H    0.012466   0.000008  -0.001742  -0.022180   0.018201   0.001533
    24  H   -0.045865  -0.007759   0.002555   0.120540  -0.195456  -0.004926
    25  C   -0.136889  -0.003430   0.296785  -0.006434  -1.134469   0.033676
    26  H    0.189532  -0.000290  -0.103392  -0.268515   0.270939   0.026870
    27  O    0.004309   0.000256   0.009828   0.100276   0.002425  -0.050134
    28  H    0.001290   0.000034   0.003378   0.011094  -0.089384  -0.015679
              13         14         15         16         17         18
     1  N    0.000181   0.001200  -0.000086   0.000003   0.000009   0.000009
     2  H    0.000124   0.000117  -0.000000   0.000012   0.000021   0.000019
     3  C    0.001800  -0.002760   0.000175  -0.000050   0.000002  -0.000047
     4  O   -0.000173   0.000133  -0.000023   0.000000  -0.000001  -0.000006
     5  C   -0.014743   0.044328   0.006535   0.000763   0.000197   0.001083
     6  C    0.031393  -0.000977  -0.006528  -0.000800   0.000149  -0.000098
     7  N    0.189550  -0.084360  -0.041626  -0.002145  -0.000251  -0.001863
     8  H    0.000111   0.001986  -0.000327  -0.000044   0.000055  -0.000049
     9  N   -0.115240   0.231170  -0.006114   0.001375  -0.001276  -0.000400
    10  N   -0.048185   0.104541   0.086419   0.002678   0.003430   0.009658
    11  C   -0.090340  -1.389683   0.088515   0.023284  -0.009652  -0.012042
    12  H   -0.165696  -0.115103   0.022613  -0.002763   0.000189   0.002932
    13  O    9.646543  -0.211442   0.038571  -0.032436   0.028533   0.023581
    14  C   -0.211442   8.416908  -0.165467   0.116277  -0.027517  -0.174437
    15  C    0.038571  -0.165467   4.515600  -0.100517  -0.019741   0.290019
    16  O   -0.032436   0.116277  -0.100517   8.687592   0.306432  -0.047360
    17  H    0.028533  -0.027517  -0.019741   0.306432   0.560424  -0.033942
    18  H    0.023581  -0.174437   0.290019  -0.047360  -0.033942   1.166305
    19  H    0.051164  -0.013945   0.172551  -0.193034   0.017408  -0.204374
    20  H   -0.140279  -0.563368   0.049040   0.015140  -0.004211   0.089892
    21  C    0.041452  -1.497977  -0.127670  -0.008230  -0.002007   0.003567
    22  O    0.002084  -0.149201   0.055886   0.008884   0.000752   0.007254
    23  H    0.004103  -0.052673   0.002693   0.001040  -0.000060   0.002496
    24  H    0.001951   0.359887  -0.022241  -0.006691   0.000132  -0.009595
    25  C   -0.009285   0.441216   0.027741  -0.008910  -0.001001   0.006621
    26  H    0.048521  -0.101054   0.002205  -0.000014  -0.000245   0.004091
    27  O    0.006404   0.074608   0.001386  -0.001593   0.001068   0.008494
    28  H   -0.001568   0.121304  -0.013454  -0.000268   0.000621  -0.002477
              19         20         21         22         23         24
     1  N   -0.000009   0.000140  -0.001247  -0.000005  -0.000004  -0.000575
     2  H   -0.000018  -0.000037   0.000726   0.000006   0.000011   0.000088
     3  C    0.000046   0.000692   0.015925   0.000040   0.000053   0.004592
     4  O   -0.000003   0.000012  -0.000294  -0.000000  -0.000002  -0.000273
     5  C   -0.000974   0.010890   0.008510  -0.000059  -0.000590   0.003737
     6  C    0.000320  -0.007367   0.005174   0.002745   0.001996  -0.024221
     7  N    0.000453  -0.036154   0.145406  -0.001645   0.012466  -0.045865
     8  H   -0.000019   0.000599  -0.007435   0.000187   0.000008  -0.007759
     9  N   -0.000634   0.017646  -0.170995  -0.000587  -0.001742   0.002555
    10  N   -0.010217   0.098098  -0.081816   0.016055  -0.022180   0.120540
    11  C   -0.015046  -0.039524   0.585722   0.039003   0.018201  -0.195456
    12  H    0.005025   0.014135   0.138372  -0.001202   0.001533  -0.004926
    13  O    0.051164  -0.140279   0.041452   0.002084   0.004103   0.001951
    14  C   -0.013945  -0.563368  -1.497977  -0.149201  -0.052673   0.359887
    15  C    0.172551   0.049040  -0.127670   0.055886   0.002693  -0.022241
    16  O   -0.193034   0.015140  -0.008230   0.008884   0.001040  -0.006691
    17  H    0.017408  -0.004211  -0.002007   0.000752  -0.000060   0.000132
    18  H   -0.204374   0.089892   0.003567   0.007254   0.002496  -0.009595
    19  H    1.371258  -0.089991  -0.004422  -0.011809  -0.002826   0.019201
    20  H   -0.089991   1.800197   0.112308   0.043660   0.002622  -0.112896
    21  C   -0.004422   0.112308   8.400293  -0.359001   0.111271  -0.420649
    22  O   -0.011809   0.043660  -0.359001   8.782228   0.362423  -0.163092
    23  H   -0.002826   0.002622   0.111271   0.362423   0.580775  -0.067606
    24  H    0.019201  -0.112896  -0.420649  -0.163092  -0.067606   1.560001
    25  C    0.021744   0.051760  -1.853529   0.220674  -0.107816   0.212483
    26  H    0.002315  -0.000291   0.257371  -0.009683   0.019610  -0.071199
    27  O   -0.003687   0.001389   0.077852   0.002862   0.006000   0.006934
    28  H   -0.000927  -0.002935  -0.172933   0.018048  -0.003748   0.022938
              25         26         27         28
     1  N    0.003096   0.001020  -0.000004   0.000017
     2  H   -0.000357  -0.000729  -0.000044   0.000036
     3  C   -0.021627  -0.009025   0.000581   0.000040
     4  O    0.000191   0.000183   0.000004   0.000004
     5  C    0.032894  -0.050382   0.012960   0.001617
     6  C   -0.068105   0.039777   0.000729   0.000763
     7  N   -0.136889   0.189532   0.004309   0.001290
     8  H   -0.003430  -0.000290   0.000256   0.000034
     9  N    0.296785  -0.103392   0.009828   0.003378
    10  N   -0.006434  -0.268515   0.100276   0.011094
    11  C   -1.134469   0.270939   0.002425  -0.089384
    12  H    0.033676   0.026870  -0.050134  -0.015679
    13  O   -0.009285   0.048521   0.006404  -0.001568
    14  C    0.441216  -0.101054   0.074608   0.121304
    15  C    0.027741   0.002205   0.001386  -0.013454
    16  O   -0.008910  -0.000014  -0.001593  -0.000268
    17  H   -0.001001  -0.000245   0.001068   0.000621
    18  H    0.006621   0.004091   0.008494  -0.002477
    19  H    0.021744   0.002315  -0.003687  -0.000927
    20  H    0.051760  -0.000291   0.001389  -0.002935
    21  C   -1.853529   0.257371   0.077852  -0.172933
    22  O    0.220674  -0.009683   0.002862   0.018048
    23  H   -0.107816   0.019610   0.006000  -0.003748
    24  H    0.212483  -0.071199   0.006934   0.022938
    25  C    7.904399  -0.434334  -0.406274   0.080244
    26  H   -0.434334   1.574687  -0.165267  -0.016832
    27  O   -0.406274  -0.165267   8.900451   0.296516
    28  H    0.080244  -0.016832   0.296516   0.552211
 Mulliken charges:
               1
     1  N   -0.697950
     2  H   -0.017648
     3  C    0.997163
     4  O   -1.027425
     5  C    0.848850
     6  C    0.428164
     7  N   -0.436735
     8  H   -0.389184
     9  N   -0.906032
    10  N   -0.397371
    11  C    1.637178
    12  H   -0.286767
    13  O   -1.286680
    14  C    0.636291
    15  C    1.143850
    16  O   -0.758622
    17  H    0.180481
    18  H   -0.129329
    19  H   -0.109550
    20  H   -0.311168
    21  C    0.804255
    22  O   -0.866507
    23  H    0.131945
    24  H   -0.161996
    25  C    0.858936
    26  H   -0.205867
    27  O   -0.888330
    28  H    0.210049
 Sum of Mulliken charges =  -1.00000
 Mulliken charges with hydrogens summed into heavy atoms:
               1
     1  N   -0.715598
     3  C    0.997163
     4  O   -1.027425
     5  C    0.848850
     6  C    0.038980
     7  N   -0.436735
     9  N   -0.906032
    10  N   -0.397371
    11  C    1.350411
    13  O   -1.286680
    14  C    0.325123
    15  C    0.904972
    16  O   -0.578142
    21  C    0.642259
    22  O   -0.734562
    25  C    0.653069
    27  O   -0.678281
 Electronic spatial extent (au):  <R**2>=           5199.3011
 Charge=             -1.0000 electrons
 Dipole moment (field-independent basis, Debye):
    X=             21.2836    Y=             -5.7549    Z=              0.8826  Tot=             22.0656
 Quadrupole moment (field-independent basis, Debye-Ang):
   XX=           -234.7325   YY=           -102.9257   ZZ=           -110.4734
   XY=             -2.4066   XZ=             -3.0239   YZ=             -1.8330
 Traceless Quadrupole moment (field-independent basis, Debye-Ang):
   XX=            -85.3553   YY=             46.4515   ZZ=             38.9038
   XY=             -2.4066   XZ=             -3.0239   YZ=             -1.8330
 Octapole moment (field-independent basis, Debye-Ang**2):
  XXX=            671.5741  YYY=            -39.9890  ZZZ=             15.6212  XYY=             36.4151
  XXY=           -110.6218  XXZ=              4.6459  XZZ=             40.4430  YZZ=             -2.0482
  YYZ=             -2.7123  XYZ=            -28.5823
 Hexadecapole moment (field-independent basis, Debye-Ang**3):
 XXXX=          -9390.0167 YYYY=           -736.4322 ZZZZ=           -579.8629 XXXY=             97.1885
 XXXZ=           -127.9622 YYYX=            -97.3342 YYYZ=            -21.2245 ZZZX=            -15.2912
 ZZZY=            -10.3208 XXYY=          -1205.4864 XXZZ=          -1178.6276 YYZZ=           -228.5345
 XXYZ=             52.3416 YYXZ=            -49.8716 ZZXY=             20.0347
 N-N= 1.260926076437D+03 E-N=-4.656739633143D+03  KE= 9.001292318828D+02
 Leave Link  601 at Sun Jul 11 17:04:00 2021, MaxMem=   262144000 cpu:               2.2 elap:               0.9
 (Enter /prod/apps/gaussian/g16b1/l9999.exe)
 1\1\GINC-PIRINEUS28\SP\RMP2-FC\Aug-CC-pVDZ\C8H11N4O5(1-)\UBATOR02\11-J
 ul-2021\0\\#p mp2/aug-cc-pVDZ scf=tight maxdisk=180GB geom=allcheck\\S
 ET_328_BBB285_conf1.geo_120_075 geometry\\-1,1\N,0,5.1864685338,0.6507
 179859,0.34660576\H,0,4.6024476365,0.7303779488,-0.4887173246\C,0,4.40
 54849629,0.4293188518,1.3861402161\O,0,4.7876689525,0.2805234923,2.588
 0002137\C,0,2.9058712716,0.333780863,1.1993938118\C,0,1.934907259,0.12
 78288197,2.2012108605\N,0,0.7236166632,0.1051871617,1.6454198261\H,0,2
 .0688922,0.0047599002,3.2641944205\N,0,2.2619729185,0.4332170381,0.028
 9184571\N,0,0.9717602131,0.2998685943,0.3458037131\C,0,-0.0732649776,0
 .2739493075,-0.6742138233\H,0,0.4063598985,0.6456714889,-1.5781510097\
 O,0,-0.5293367047,-1.052650802,-0.8831143202\C,0,-1.8954968245,-1.2254
 961637,-0.4346766174\C,0,-2.7708361397,-1.5146989576,-1.6496419418\O,0
 ,-2.3622631225,-2.709954131,-2.3015606792\H,0,-1.4429007485,-2.5686157
 626,-2.5866730196\H,0,-2.7418906342,-0.6545556071,-2.329327783\H,0,-3.
 8019172608,-1.6630574137,-1.3250181912\H,0,-1.9064805101,-2.0984635191
 ,0.2244932087\C,0,-2.2502119929,0.0657788204,0.3243449237\O,0,-3.61344
 03443,0.4070359742,0.1261158091\H,0,-3.8767967293,1.0104888545,0.84443
 97491\H,0,-2.0245991468,-0.0521731976,1.3850671619\C,0,-1.2976629044,1
 .1129462342,-0.2935116518\H,0,-1.0411817335,1.9140774671,0.4069273211\
 O,0,-1.8567364296,1.6335387619,-1.4872489857\H,0,-2.8234343062,1.64259
 799,-1.334220105\\Version=ES64L-G16RevB.01\State=1-A\HF=-901.5391778\M
 P2=-904.3569466\RMSD=6.846e-09\PG=C01 [X(C8H11N4O5)]\\@


 THE REAL VOYAGE OF DISCOVERY CONSISTS NOT IN SEEKING NEW LANDSCAPES 
 BUT IN HAVING NEW EYES.
                                                    -- MARCEL PROUST
 Job cpu time:       0 days  1 hours 45 minutes 34.4 seconds.
 Elapsed time:       0 days  0 hours 30 minutes 31.9 seconds.
 File lengths (MBytes):  RWF=  57237 Int=      0 D2E=      0 Chk=     21 Scr=      1
 Normal termination of Gaussian 16 at Sun Jul 11 17:04:02 2021.
