 Entering Gaussian System, Link 0=g16
 Initial command:
 /prod/apps/gaussian/g16b1/l1.exe "/tmp/ubator02/1834622/Gau-209338.inp" -scrdir="/tmp/ubator02/1834622/"
 Entering Link 1 = /prod/apps/gaussian/g16b1/l1.exe PID=    209342.
  
 Copyright (c) 1988-2017, Gaussian, Inc.  All Rights Reserved.
  
 This is part of the Gaussian(R) 16 program.  It is based on
 the Gaussian(R) 09 system (copyright 2009, Gaussian, Inc.),
 the Gaussian(R) 03 system (copyright 2003, Gaussian, Inc.),
 the Gaussian(R) 98 system (copyright 1998, Gaussian, Inc.),
 the Gaussian(R) 94 system (copyright 1995, Gaussian, Inc.),
 the Gaussian 92(TM) system (copyright 1992, Gaussian, Inc.),
 the Gaussian 90(TM) system (copyright 1990, Gaussian, Inc.),
 the Gaussian 88(TM) system (copyright 1988, Gaussian, Inc.),
 the Gaussian 86(TM) system (copyright 1986, Carnegie Mellon
 University), and the Gaussian 82(TM) system (copyright 1983,
 Carnegie Mellon University). Gaussian is a federally registered
 trademark of Gaussian, Inc.
  
 This software contains proprietary and confidential information,
 including trade secrets, belonging to Gaussian, Inc.
  
 This software is provided under written license and may be
 used, copied, transmitted, or stored only in accord with that
 written license.
  
 The following legend is applicable only to US Government
 contracts under FAR:
  
                    RESTRICTED RIGHTS LEGEND
  
 Use, reproduction and disclosure by the US Government is
 subject to restrictions as set forth in subparagraphs (a)
 and (c) of the Commercial Computer Software - Restricted
 Rights clause in FAR 52.227-19.
  
 Gaussian, Inc.
 340 Quinnipiac St., Bldg. 40, Wallingford CT 06492
  
  
 ---------------------------------------------------------------
 Warning -- This program may not be used in any manner that
 competes with the business of Gaussian, Inc. or will provide
 assistance to any competitor of Gaussian, Inc.  The licensee
 of this program is prohibited from giving any competitor of
 Gaussian, Inc. access to this program.  By using this program,
 the user acknowledges that Gaussian, Inc. is engaged in the
 business of creating and licensing software in the field of
 computational chemistry and represents and warrants to the
 licensee that it is not a competitor of Gaussian, Inc. and that
 it will not use this program in any manner prohibited above.
 ---------------------------------------------------------------
  

 Cite this work as:
 Gaussian 16, Revision B.01,
 M. J. Frisch, G. W. Trucks, H. B. Schlegel, G. E. Scuseria, 
 M. A. Robb, J. R. Cheeseman, G. Scalmani, V. Barone, 
 G. A. Petersson, H. Nakatsuji, X. Li, M. Caricato, A. V. Marenich, 
 J. Bloino, B. G. Janesko, R. Gomperts, B. Mennucci, H. P. Hratchian, 
 J. V. Ortiz, A. F. Izmaylov, J. L. Sonnenberg, D. Williams-Young, 
 F. Ding, F. Lipparini, F. Egidi, J. Goings, B. Peng, A. Petrone, 
 T. Henderson, D. Ranasinghe, V. G. Zakrzewski, J. Gao, N. Rega, 
 G. Zheng, W. Liang, M. Hada, M. Ehara, K. Toyota, R. Fukuda, 
 J. Hasegawa, M. Ishida, T. Nakajima, Y. Honda, O. Kitao, H. Nakai, 
 T. Vreven, K. Throssell, J. A. Montgomery, Jr., J. E. Peralta, 
 F. Ogliaro, M. J. Bearpark, J. J. Heyd, E. N. Brothers, K. N. Kudin, 
 V. N. Staroverov, T. A. Keith, R. Kobayashi, J. Normand, 
 K. Raghavachari, A. P. Rendell, J. C. Burant, S. S. Iyengar, 
 J. Tomasi, M. Cossi, J. M. Millam, M. Klene, C. Adamo, R. Cammi, 
 J. W. Ochterski, R. L. Martin, K. Morokuma, O. Farkas, 
 J. B. Foresman, and D. J. Fox, Gaussian, Inc., Wallingford CT, 2016.
 
 ******************************************
 Gaussian 16:  ES64L-G16RevB.01 20-Dec-2017
                11-Jul-2021 
 ******************************************
 %mem=800MB
 %nproc=4
 Will use up to    4 processors via shared memory.
 %chk=SET_328_BBB315_conf1.geo_180_270.chk
 -----------------------------------------------------------
 #p b3lyp/6-31G(d) opt freq scrf=(iefpcm,read,solvent=water)
 -----------------------------------------------------------
 1/18=20,19=15,26=3,38=1,40=2/1,3;
 2/9=110,12=2,17=6,18=5,40=1/2;
 3/5=1,6=6,7=1,11=2,25=1,30=1,70=2203,71=1,72=1,74=-5/1,2,3;
 4//1;
 5/5=2,38=5,53=1/2;
 6/7=2,8=2,9=2,10=2,28=1/1;
 7//1,2,3,16;
 1/18=20,19=15,26=3/3(2);
 2/9=110/2;
 99//99;
 2/9=110/2;
 3/5=1,6=6,7=1,11=2,25=1,30=1,70=2205,71=1,72=1,74=-5/1,2,3;
 4/5=5,16=3,69=1/1;
 5/5=2,38=5,53=1/2;
 7//1,2,3,16;
 1/18=20,19=15,26=3/3(-5);
 2/9=110/2;
 6/7=2,8=2,9=2,10=2,19=2,28=1/1;
 99/9=1/99;
 Leave Link    1 at Sun Jul 11 16:24:54 2021, MaxMem=   104857600 cpu:               0.1 elap:               0.0
 (Enter /prod/apps/gaussian/g16b1/l101.exe)
 -----------------------------------------
 SET_328_BBB315_conf1.geo_180_270 geometry
 -----------------------------------------
 Symbolic Z-matrix:
 Charge =  1 Multiplicity = 1
 N                    -3.973     1.786     0.243 
 H                    -3.848     2.708     0.611 
 H                    -4.226     1.163     0.983 
 C                    -2.749     1.341    -0.359 
 H                    -2.265     2.146    -0.918 
 H                    -3.046     0.585    -1.091 
 C                    -1.974     0.622     0.726 
 H                    -2.678    -0.071     1.191 
 H                    -1.925     1.358     1.532 
 C                    -0.661     0.084     0.278 
 C                     0.509     0.76      0.413 
 H                     0.708     1.768     0.757 
 N                     1.533    -0.075    -0.034 
 C                     2.923     0.056     0.088 
 H                     3.247     1.015     0.474 
 C                     3.684    -1.054    -0.307 
 H                     4.761    -1.       -0.431 
 C                     3.039    -2.246    -0.696 
 H                     3.569    -3.071    -1.161 
 C                     1.694    -2.301    -0.659 
 H                     1.158    -3.153    -1.063 
 C                     0.876    -1.248    -0.374 
 N                    -0.51     -1.163    -0.231 
 H                    -4.698     1.797    -0.445 
 
 ITRead=  0  0  0  0  0  0  0  0  0  0  0  0  0  0  0  0  0  0  0  0
 ITRead=  0  0  0  0
 MicOpt= -1 -1 -1 -1 -1 -1 -1 -1 -1 -1 -1 -1 -1 -1 -1 -1 -1 -1 -1 -1
 MicOpt= -1 -1 -1 -1
 NAtoms=     24 NQM=       24 NQMF=       0 NMMI=      0 NMMIF=      0
                NMic=       0 NMicF=      0.
                    Isotopes and Nuclear Properties:
 (Nuclear quadrupole moments (NQMom) in fm**2, nuclear magnetic moments (NMagM)
  in nuclear magnetons)

  Atom         1           2           3           4           5           6           7           8           9          10
 IAtWgt=          14           1           1          12           1           1          12           1           1          12
 AtmWgt=  14.0030740   1.0078250   1.0078250  12.0000000   1.0078250   1.0078250  12.0000000   1.0078250   1.0078250  12.0000000
 NucSpn=           2           1           1           0           1           1           0           1           1           0
 AtZEff=  -0.0000000  -0.0000000  -0.0000000  -0.0000000  -0.0000000  -0.0000000  -0.0000000  -0.0000000  -0.0000000  -0.0000000
 NQMom=    2.0440000   0.0000000   0.0000000   0.0000000   0.0000000   0.0000000   0.0000000   0.0000000   0.0000000   0.0000000
 NMagM=    0.4037610   2.7928460   2.7928460   0.0000000   2.7928460   2.7928460   0.0000000   2.7928460   2.7928460   0.0000000
 AtZNuc=   7.0000000   1.0000000   1.0000000   6.0000000   1.0000000   1.0000000   6.0000000   1.0000000   1.0000000   6.0000000

  Atom        11          12          13          14          15          16          17          18          19          20
 IAtWgt=          12           1          14          12           1          12           1          12           1          12
 AtmWgt=  12.0000000   1.0078250  14.0030740  12.0000000   1.0078250  12.0000000   1.0078250  12.0000000   1.0078250  12.0000000
 NucSpn=           0           1           2           0           1           0           1           0           1           0
 AtZEff=  -0.0000000  -0.0000000  -0.0000000  -0.0000000  -0.0000000  -0.0000000  -0.0000000  -0.0000000  -0.0000000  -0.0000000
 NQMom=    0.0000000   0.0000000   2.0440000   0.0000000   0.0000000   0.0000000   0.0000000   0.0000000   0.0000000   0.0000000
 NMagM=    0.0000000   2.7928460   0.4037610   0.0000000   2.7928460   0.0000000   2.7928460   0.0000000   2.7928460   0.0000000
 AtZNuc=   6.0000000   1.0000000   7.0000000   6.0000000   1.0000000   6.0000000   1.0000000   6.0000000   1.0000000   6.0000000

  Atom        21          22          23          24
 IAtWgt=           1          12          14           1
 AtmWgt=   1.0078250  12.0000000  14.0030740   1.0078250
 NucSpn=           1           0           2           1
 AtZEff=  -0.0000000  -0.0000000  -0.0000000  -0.0000000
 NQMom=    0.0000000   0.0000000   2.0440000   0.0000000
 NMagM=    2.7928460   0.0000000   0.4037610   2.7928460
 AtZNuc=   1.0000000   6.0000000   7.0000000   1.0000000
 Leave Link  101 at Sun Jul 11 16:24:54 2021, MaxMem=   104857600 cpu:               0.5 elap:               0.1
 (Enter /prod/apps/gaussian/g16b1/l103.exe)

 GradGradGradGradGradGradGradGradGradGradGradGradGradGradGradGradGradGrad
 Berny optimization.
 Initialization pass.
                           ----------------------------
                           !    Initial Parameters    !
                           ! (Angstroms and Degrees)  !
 --------------------------                            --------------------------
 ! Name  Definition              Value          Derivative Info.                !
 --------------------------------------------------------------------------------
 ! R1    R(1,2)                  1.0006         estimate D2E/DX2                !
 ! R2    R(1,3)                  0.9999         estimate D2E/DX2                !
 ! R3    R(1,4)                  1.4348         estimate D2E/DX2                !
 ! R4    R(1,24)                 0.9995         estimate D2E/DX2                !
 ! R5    R(4,5)                  1.0931         estimate D2E/DX2                !
 ! R6    R(4,6)                  1.0934         estimate D2E/DX2                !
 ! R7    R(4,7)                  1.5149         estimate D2E/DX2                !
 ! R8    R(7,8)                  1.0918         estimate D2E/DX2                !
 ! R9    R(7,9)                  1.0926         estimate D2E/DX2                !
 ! R10   R(7,10)                 1.488          estimate D2E/DX2                !
 ! R11   R(10,11)                1.358          estimate D2E/DX2                !
 ! R12   R(10,23)                1.3553         estimate D2E/DX2                !
 ! R13   R(11,12)                1.0835         estimate D2E/DX2                !
 ! R14   R(11,13)                1.3949         estimate D2E/DX2                !
 ! R15   R(13,14)                1.4015         estimate D2E/DX2                !
 ! R16   R(13,22)                1.3868         estimate D2E/DX2                !
 ! R17   R(14,15)                1.0834         estimate D2E/DX2                !
 ! R18   R(14,16)                1.4026         estimate D2E/DX2                !
 ! R19   R(16,17)                1.0855         estimate D2E/DX2                !
 ! R20   R(16,18)                1.41           estimate D2E/DX2                !
 ! R21   R(18,19)                1.0852         estimate D2E/DX2                !
 ! R22   R(18,20)                1.3466         estimate D2E/DX2                !
 ! R23   R(20,21)                1.0846         estimate D2E/DX2                !
 ! R24   R(20,22)                1.3635         estimate D2E/DX2                !
 ! R25   R(22,23)                1.3959         estimate D2E/DX2                !
 ! A1    A(2,1,3)              109.4853         estimate D2E/DX2                !
 ! A2    A(2,1,4)              109.4837         estimate D2E/DX2                !
 ! A3    A(2,1,24)             109.4892         estimate D2E/DX2                !
 ! A4    A(3,1,4)              109.4593         estimate D2E/DX2                !
 ! A5    A(3,1,24)             109.4353         estimate D2E/DX2                !
 ! A6    A(4,1,24)             109.4744         estimate D2E/DX2                !
 ! A7    A(1,4,5)              111.3402         estimate D2E/DX2                !
 ! A8    A(1,4,6)              105.2843         estimate D2E/DX2                !
 ! A9    A(1,4,7)              106.4471         estimate D2E/DX2                !
 ! A10   A(5,4,6)              106.6848         estimate D2E/DX2                !
 ! A11   A(5,4,7)              119.2952         estimate D2E/DX2                !
 ! A12   A(6,4,7)              106.8753         estimate D2E/DX2                !
 ! A13   A(4,7,8)              106.0467         estimate D2E/DX2                !
 ! A14   A(4,7,9)              103.3905         estimate D2E/DX2                !
 ! A15   A(4,7,10)             114.0415         estimate D2E/DX2                !
 ! A16   A(8,7,9)               98.1811         estimate D2E/DX2                !
 ! A17   A(8,7,10)             117.885          estimate D2E/DX2                !
 ! A18   A(9,7,10)             115.2198         estimate D2E/DX2                !
 ! A19   A(7,10,11)            123.3901         estimate D2E/DX2                !
 ! A20   A(7,10,23)            122.9596         estimate D2E/DX2                !
 ! A21   A(11,10,23)           113.5381         estimate D2E/DX2                !
 ! A22   A(10,11,12)           130.7611         estimate D2E/DX2                !
 ! A23   A(10,11,13)           107.6169         estimate D2E/DX2                !
 ! A24   A(12,11,13)           121.5889         estimate D2E/DX2                !
 ! A25   A(11,13,14)           130.1104         estimate D2E/DX2                !
 ! A26   A(11,13,22)           103.7164         estimate D2E/DX2                !
 ! A27   A(14,13,22)           124.7699         estimate D2E/DX2                !
 ! A28   A(13,14,15)           114.2288         estimate D2E/DX2                !
 ! A29   A(13,14,16)           116.0807         estimate D2E/DX2                !
 ! A30   A(15,14,16)           129.6898         estimate D2E/DX2                !
 ! A31   A(14,16,17)           122.0827         estimate D2E/DX2                !
 ! A32   A(14,16,18)           119.9024         estimate D2E/DX2                !
 ! A33   A(17,16,18)           117.672          estimate D2E/DX2                !
 ! A34   A(16,18,19)           122.5107         estimate D2E/DX2                !
 ! A35   A(16,18,20)           118.9356         estimate D2E/DX2                !
 ! A36   A(19,18,20)           117.9371         estimate D2E/DX2                !
 ! A37   A(18,20,21)           121.0261         estimate D2E/DX2                !
 ! A38   A(18,20,22)           124.9874         estimate D2E/DX2                !
 ! A39   A(21,20,22)           112.8316         estimate D2E/DX2                !
 ! A40   A(13,22,20)           114.8502         estimate D2E/DX2                !
 ! A41   A(13,22,23)           113.1888         estimate D2E/DX2                !
 ! A42   A(20,22,23)           131.612          estimate D2E/DX2                !
 ! A43   A(10,23,22)           101.8362         estimate D2E/DX2                !
 ! D1    D(2,1,4,5)            -40.5471         estimate D2E/DX2                !
 ! D2    D(2,1,4,6)           -155.7807         estimate D2E/DX2                !
 ! D3    D(2,1,4,7)             90.9878         estimate D2E/DX2                !
 ! D4    D(3,1,4,5)           -160.5648         estimate D2E/DX2                !
 ! D5    D(3,1,4,6)             84.2017         estimate D2E/DX2                !
 ! D6    D(3,1,4,7)            -29.0298         estimate D2E/DX2                !
 ! D7    D(24,1,4,5)            79.4845         estimate D2E/DX2                !
 ! D8    D(24,1,4,6)           -35.7491         estimate D2E/DX2                !
 ! D9    D(24,1,4,7)          -148.9805         estimate D2E/DX2                !
 ! D10   D(1,4,7,8)             48.5483         estimate D2E/DX2                !
 ! D11   D(1,4,7,9)            -54.2008         estimate D2E/DX2                !
 ! D12   D(1,4,7,10)           179.9396         estimate D2E/DX2                !
 ! D13   D(5,4,7,8)            175.4686         estimate D2E/DX2                !
 ! D14   D(5,4,7,9)             72.7195         estimate D2E/DX2                !
 ! D15   D(5,4,7,10)           -53.1401         estimate D2E/DX2                !
 ! D16   D(6,4,7,8)            -63.5859         estimate D2E/DX2                !
 ! D17   D(6,4,7,9)           -166.3349         estimate D2E/DX2                !
 ! D18   D(6,4,7,10)            67.8054         estimate D2E/DX2                !
 ! D19   D(4,7,10,11)           93.8732         estimate D2E/DX2                !
 ! D20   D(4,7,10,23)          -90.2291         estimate D2E/DX2                !
 ! D21   D(8,7,10,11)         -140.7827         estimate D2E/DX2                !
 ! D22   D(8,7,10,23)           35.115          estimate D2E/DX2                !
 ! D23   D(9,7,10,11)          -25.4943         estimate D2E/DX2                !
 ! D24   D(9,7,10,23)          150.4034         estimate D2E/DX2                !
 ! D25   D(7,10,11,12)          -5.776          estimate D2E/DX2                !
 ! D26   D(7,10,11,13)         176.3368         estimate D2E/DX2                !
 ! D27   D(23,10,11,12)        177.9779         estimate D2E/DX2                !
 ! D28   D(23,10,11,13)          0.0907         estimate D2E/DX2                !
 ! D29   D(7,10,23,22)        -174.4575         estimate D2E/DX2                !
 ! D30   D(11,10,23,22)          1.807          estimate D2E/DX2                !
 ! D31   D(10,11,13,14)       -168.6644         estimate D2E/DX2                !
 ! D32   D(10,11,13,22)         -1.9706         estimate D2E/DX2                !
 ! D33   D(12,11,13,14)         13.2143         estimate D2E/DX2                !
 ! D34   D(12,11,13,22)        179.908          estimate D2E/DX2                !
 ! D35   D(11,13,14,15)         -8.9547         estimate D2E/DX2                !
 ! D36   D(11,13,14,16)        171.3293         estimate D2E/DX2                !
 ! D37   D(22,13,14,15)       -173.1599         estimate D2E/DX2                !
 ! D38   D(22,13,14,16)          7.1241         estimate D2E/DX2                !
 ! D39   D(11,13,22,20)       -170.7471         estimate D2E/DX2                !
 ! D40   D(11,13,22,23)          3.2708         estimate D2E/DX2                !
 ! D41   D(14,13,22,20)         -3.1207         estimate D2E/DX2                !
 ! D42   D(14,13,22,23)        170.8972         estimate D2E/DX2                !
 ! D43   D(13,14,16,17)        168.3293         estimate D2E/DX2                !
 ! D44   D(13,14,16,18)         -4.7881         estimate D2E/DX2                !
 ! D45   D(15,14,16,17)        -11.3341         estimate D2E/DX2                !
 ! D46   D(15,14,16,18)        175.5484         estimate D2E/DX2                !
 ! D47   D(14,16,18,19)        169.7344         estimate D2E/DX2                !
 ! D48   D(14,16,18,20)         -1.0727         estimate D2E/DX2                !
 ! D49   D(17,16,18,19)         -3.6824         estimate D2E/DX2                !
 ! D50   D(17,16,18,20)       -174.4895         estimate D2E/DX2                !
 ! D51   D(16,18,20,21)        172.4708         estimate D2E/DX2                !
 ! D52   D(16,18,20,22)          5.6522         estimate D2E/DX2                !
 ! D53   D(19,18,20,21)          1.2424         estimate D2E/DX2                !
 ! D54   D(19,18,20,22)       -165.5763         estimate D2E/DX2                !
 ! D55   D(18,20,22,13)         -3.5918         estimate D2E/DX2                !
 ! D56   D(18,20,22,23)       -176.2302         estimate D2E/DX2                !
 ! D57   D(21,20,22,13)       -171.3509         estimate D2E/DX2                !
 ! D58   D(21,20,22,23)         16.0106         estimate D2E/DX2                !
 ! D59   D(13,22,23,10)         -3.1616         estimate D2E/DX2                !
 ! D60   D(20,22,23,10)        169.5718         estimate D2E/DX2                !
 --------------------------------------------------------------------------------
 Trust Radius=3.00D-01 FncErr=1.00D-07 GrdErr=1.00D-06 EigMax=2.50D+02 EigMin=1.00D-04
 Number of steps in this run=    138 maximum allowed number of steps=    144.
 GradGradGradGradGradGradGradGradGradGradGradGradGradGradGradGradGradGrad

 Leave Link  103 at Sun Jul 11 16:24:54 2021, MaxMem=   104857600 cpu:               0.0 elap:               0.0
 (Enter /prod/apps/gaussian/g16b1/l202.exe)
                          Input orientation:                          
 ---------------------------------------------------------------------
 Center     Atomic      Atomic             Coordinates (Angstroms)
 Number     Number       Type             X           Y           Z
 ---------------------------------------------------------------------
      1          7           0       -3.973000    1.786000    0.243000
      2          1           0       -3.848000    2.708000    0.611000
      3          1           0       -4.226000    1.163000    0.983000
      4          6           0       -2.749000    1.341000   -0.359000
      5          1           0       -2.265000    2.146000   -0.918000
      6          1           0       -3.046000    0.585000   -1.091000
      7          6           0       -1.974000    0.622000    0.726000
      8          1           0       -2.678000   -0.071000    1.191000
      9          1           0       -1.925000    1.358000    1.532000
     10          6           0       -0.661000    0.084000    0.278000
     11          6           0        0.509000    0.760000    0.413000
     12          1           0        0.708000    1.768000    0.757000
     13          7           0        1.533000   -0.075000   -0.034000
     14          6           0        2.923000    0.056000    0.088000
     15          1           0        3.247000    1.015000    0.474000
     16          6           0        3.684000   -1.054000   -0.307000
     17          1           0        4.761000   -1.000000   -0.431000
     18          6           0        3.039000   -2.246000   -0.696000
     19          1           0        3.569000   -3.071000   -1.161000
     20          6           0        1.694000   -2.301000   -0.659000
     21          1           0        1.158000   -3.153000   -1.063000
     22          6           0        0.876000   -1.248000   -0.374000
     23          7           0       -0.510000   -1.163000   -0.231000
     24          1           0       -4.698000    1.797000   -0.445000
 ---------------------------------------------------------------------
                    Distance matrix (angstroms):
                    1          2          3          4          5
     1  N    0.000000
     2  H    1.000566   0.000000
     3  H    0.999869   1.633491   0.000000
     4  C    1.434784   2.004343   2.003541   0.000000
     5  H    2.096374   2.271470   2.902690   1.093052   0.000000
     6  H    2.020219   2.836748   2.455190   1.093421   1.754027
     7  C    2.363088   2.806510   2.330286   1.514863   2.260529
     8  H    2.454420   3.070528   1.990559   2.097924   3.087643
     9  H    2.457440   2.523622   2.373611   2.062801   2.595967
    10  C    3.723892   4.141646   3.790843   2.519040   2.873165
    11  C    4.601076   4.776752   4.786182   3.398251   3.374557
    12  H    4.709170   4.654251   4.976089   3.657682   3.433255
    13  N    5.818598   6.092313   5.977710   4.521748   4.487661
    14  C    7.111381   7.290615   7.289354   5.832891   5.682911
    15  H    7.264723   7.295481   7.491776   6.062358   5.796462
    16  C    8.185215   8.469144   8.315485   6.864562   6.782619
    17  H    9.192324   9.431326   9.351157   7.866738   7.713570
    18  C    8.142904   8.583772   8.198814   6.817704   6.889947
    19  H    9.079836   9.568109   9.126090   7.747649   7.830178
    20  C    7.045003   7.577384   7.052791   5.752774   5.959578
    21  H    7.240616   7.887562   7.197321   5.996357   6.310099
    22  C    5.753142   6.239899   5.803859   4.454635   4.656292
    23  N    4.573144   5.180333   4.548926   3.361476   3.808080
    24  H    0.999545   1.633266   1.632153   2.003480   2.503002
                    6          7          8          9         10
     6  H    0.000000
     7  C    2.109986   0.000000
     8  H    2.402766   1.091829   0.000000
     9  H    2.955385   1.092581   1.650858   0.000000
    10  C    2.795244   1.487991   2.219433   2.189358   0.000000
    11  C    3.864022   2.506452   3.384201   2.744835   1.357977
    12  H    4.348231   2.916745   3.877534   2.775142   2.222489
    13  N    4.745534   3.655470   4.385563   4.057537   2.221770
    14  C    6.107278   4.970715   5.709986   5.223356   3.589142
    15  H    6.498921   5.241831   6.066227   5.290236   4.022144
    16  C    6.970931   5.990745   6.609488   6.376562   4.529492
    17  H    7.993565   7.023515   7.670244   7.356367   5.574569
    18  C    6.722932   5.947914   6.401209   6.526415   4.479685
    19  H    7.558403   6.922707   7.318259   7.553299   5.469703
    20  C    5.566257   4.890437   5.244977   5.593382   3.480261
    21  H    5.625571   5.221166   5.412406   6.048804   3.947811
    22  C    4.388173   3.581815   4.057767   4.274304   2.135813
    23  N    3.197874   2.499074   2.813320   3.386124   1.355320
    24  H    2.148340   3.189364   3.200987   3.433770   4.444600
                   11         12         13         14         15
    11  C    0.000000
    12  H    1.083513   0.000000
    13  N    1.394851   2.168630   0.000000
    14  C    2.535476   2.878321   1.401480   0.000000
    15  H    2.750525   2.663385   2.093791   1.083353   0.000000
    16  C    3.726878   4.237022   2.379027   1.402585   2.254261
    17  H    4.678615   5.049750   3.381304   2.182371   2.677956
    18  C    4.082501   4.863843   2.723880   2.434608   3.470776
    19  H    5.149528   5.939694   3.793605   3.428622   4.412743
    20  C    3.452989   4.419730   2.317676   2.761141   3.832930
    21  H    4.232180   5.266037   3.267040   3.838972   4.909024
    22  C    2.187721   3.225468   1.386787   2.470641   3.385545
    23  N    2.269587   3.324219   2.323016   3.656940   4.399518
    24  H    5.378139   5.538094   6.519100   7.835484   8.036113
                   16         17         18         19         20
    16  C    0.000000
    17  H    1.085459   0.000000
    18  C    1.410039   2.141968   0.000000
    19  H    2.193360   2.498561   1.085242   0.000000
    20  C    2.374661   3.339322   1.346632   2.088188   0.000000
    21  H    3.370165   4.244578   2.120259   2.414384   1.084627
    22  C    2.815491   3.893325   2.403801   3.345885   1.363509
    23  N    4.196105   5.277311   3.739588   4.598218   2.517110
    24  H    8.854669   9.863878   8.733271   9.620466   7.595858
                   21         22         23         24
    21  H    0.000000
    22  C    2.045304   0.000000
    23  N    2.726637   1.395948   0.000000
    24  H    7.692669   6.351893   5.132908   0.000000
 Stoichiometry    C9H12N3(1+)
 Framework group  C1[X(C9H12N3)]
 Deg. of freedom    66
 Full point group                 C1      NOp   1
 Largest Abelian subgroup         C1      NOp   1
 Largest concise Abelian subgroup C1      NOp   1
                         Standard orientation:                         
 ---------------------------------------------------------------------
 Center     Atomic      Atomic             Coordinates (Angstroms)
 Number     Number       Type             X           Y           Z
 ---------------------------------------------------------------------
      1          7           0        4.582965    0.015784    0.136530
      2          1           0        4.886743    0.966601    0.067247
      3          1           0        4.622281   -0.413488   -0.765644
      4          6           0        3.234468   -0.021369    0.625182
      5          1           0        3.078474    0.714159    1.418545
      6          1           0        3.121359   -1.007213    1.084406
      7          6           0        2.335685    0.001556   -0.594029
      8          1           0        2.728517   -0.757995   -1.272891
      9          1           0        2.671832    0.886494   -1.139576
     10          6           0        0.882381   -0.033462   -0.276540
     11          6           0        0.116608    1.081538   -0.156262
     12          1           0        0.386871    2.130655   -0.173953
     13          7           0       -1.198307    0.669308    0.059783
     14          6           0       -2.390583    1.405606    0.037675
     15          1           0       -2.249875    2.477660   -0.029809
     16          6           0       -3.576761    0.660752    0.111290
     17          1           0       -4.540620    1.127549    0.288202
     18          6           0       -3.523930   -0.748244    0.099074
     19          1           0       -4.389282   -1.366272    0.315769
     20          6           0       -2.326036   -1.354438   -0.005796
     21          1           0       -2.232145   -2.429546    0.102567
     22          6           0       -1.122168   -0.714346    0.006088
     23          7           0        0.180804   -1.187139   -0.159444
     24          1           0        5.179627   -0.479834    0.766964
 ---------------------------------------------------------------------
 Rotational constants (GHZ):           3.4466878           0.4428877           0.4041620
 Leave Link  202 at Sun Jul 11 16:24:54 2021, MaxMem=   104857600 cpu:               0.1 elap:               0.0
 (Enter /prod/apps/gaussian/g16b1/l301.exe)
 Standard basis: 6-31G(d) (6D, 7F)
 Ernie: Thresh=  0.10000D-02 Tol=  0.10000D-05 Strict=F.
 There are   204 symmetry adapted cartesian basis functions of A   symmetry.
 There are   204 symmetry adapted basis functions of A   symmetry.
   204 basis functions,   384 primitive gaussians,   204 cartesian basis functions
    43 alpha electrons       43 beta electrons
       nuclear repulsion energy       668.6635988186 Hartrees.
 IExCor=  402 DFT=T Ex+Corr=B3LYP ExCW=0 ScaHFX=  0.200000
 ScaDFX=  0.800000  0.720000  1.000000  0.810000 ScalE2=  1.000000  1.000000
 IRadAn=      5 IRanWt=     -1 IRanGd=            0 ICorTp=0 IEmpDi=  4
 NAtoms=   24 NActive=   24 NUniq=   24 SFac= 1.00D+00 NAtFMM=   60 NAOKFM=F Big=F
 Integral buffers will be    131072 words long.
 Raffenetti 2 integral format.
 Two-electron integral symmetry is turned on.
 Using the following non-standard input for PCM:
 MSTModel=DFT cav MSTCharged
 --- end of non-standard input.
 MST model for solvation energy: B3LYP parametrization.
 MST cavity parameters:
 ISph   IAn     Re0     Alpha   Atom Type   QCorr
 ------------------------------------------------
   1      7     1.70     1.15      NH         T
   2      1     0.90     1.15      NH         T
   3      1     0.90     1.15      NH         T
   4      6     1.50     1.25      CH2        F
   5      1     1.20     1.25      CH2        F
   6      1     1.20     1.25      CH2        F
   7      6     1.50     1.25      CH2        F
   8      1     1.20     1.25      CH2        F
   9      1     1.20     1.25      CH2        F
  10      6     1.50     1.25      C          F
  11      6     1.50     1.25      CH         F
  12      1     1.20     1.25      CH         F
  13      7     1.40     1.25      N          F
  14      6     1.50     1.25      CH         F
  15      1     1.20     1.25      CH         F
  16      6     1.50     1.25      CH         F
  17      1     1.20     1.25      CH         F
  18      6     1.50     1.25      CH         F
  19      1     1.20     1.25      CH         F
  20      6     1.50     1.25      CH         F
  21      1     1.20     1.25      CH         F
  22      6     1.50     1.25      C          F
  23      7     1.40     1.25      N          F
  24      1     0.90     1.15      NH         T
 ------------------------------------------------------------------------------
 Polarizable Continuum Model (PCM)
 =================================
 Model                : PCM.
 Atomic radii         : MST.
 Polarization charges : Total charges.
 Charge compensation  : None.
 Solution method      : On-the-fly selection.
 Cavity type          : Scaled VdW (van der Waals Surface) (Alpha=1.250).
 Cavity algorithm     : GePol (No added spheres)
                        Default sphere list used, NSphG=   24.
                        Lebedev-Laikov grids with approx.  5.0 points / Ang**2.
                        Smoothing algorithm: York/Karplus (Gamma=1.0000).
                        Polarization charges: spherical gaussians, with
                                              point-specific exponents (IZeta= 3).
                        Self-potential: point-specific (ISelfS= 7).
                        Self-field    : sphere-specific E.n sum rule (ISelfD= 2).
 1st derivatives      : Analytical E(r).r(x)/FMM algorithm (CHGder, D1EAlg=3).
                        Cavity 1st derivative terms included.
 Solvent              : Water, Eps=  78.355300 Eps(inf)=   1.777849
 ------------------------------------------------------------------------------
 GePol: Number of generator spheres                  =      24
 GePol: Total number of spheres                      =      24
 GePol: Number of exposed spheres                    =      24 (100.00%)
 GePol: Number of points                             =    1786
 GePol: Average weight of points                     =       0.13
 GePol: Minimum weight of points                     =   0.69D-10
 GePol: Maximum weight of points                     =    0.22001
 GePol: Number of points with low weight             =     103
 GePol: Fraction of low-weight points (<1% of avg)   =       5.77%
 GePol: Cavity surface area                          =    224.274 Ang**2
 GePol: Cavity volume                                =    201.392 Ang**3
 PCM non-electrostatic energy =         0.0010037050 Hartrees.
 Nuclear repulsion after PCM non-electrostatic terms =      668.6646025237 Hartrees.
 Leave Link  301 at Sun Jul 11 16:24:54 2021, MaxMem=   104857600 cpu:               0.3 elap:               0.1
 (Enter /prod/apps/gaussian/g16b1/l302.exe)
 NPDir=0 NMtPBC=     1 NCelOv=     1 NCel=       1 NClECP=     1 NCelD=      1
         NCelK=      1 NCelE2=     1 NClLst=     1 CellRange=     0.0.
 One-electron integrals computed using PRISM.
 One-electron integral symmetry used in STVInt
 NBasis=   204 RedAO= T EigKep=  6.89D-04  NBF=   204
 NBsUse=   204 1.00D-06 EigRej= -1.00D+00 NBFU=   204
 Precomputing XC quadrature grid using
 IXCGrd= 4 IRadAn=           5 IRanWt=          -1 IRanGd=           0 AccXCQ= 0.00D+00.
 Generated NRdTot=       0 NPtTot=           0 NUsed=           0 NTot=          32
 NSgBfM=   203   203   203   203   203 MxSgAt=    24 MxSgA2=    24.
 Leave Link  302 at Sun Jul 11 16:24:55 2021, MaxMem=   104857600 cpu:               1.2 elap:               0.3
 (Enter /prod/apps/gaussian/g16b1/l303.exe)
 DipDrv:  MaxL=1.
 Leave Link  303 at Sun Jul 11 16:24:55 2021, MaxMem=   104857600 cpu:               0.1 elap:               0.1
 (Enter /prod/apps/gaussian/g16b1/l401.exe)
 ExpMin= 1.61D-01 ExpMax= 4.17D+03 ExpMxC= 6.27D+02 IAcc=3 IRadAn=         5 AccDes= 0.00D+00
 Harris functional with IExCor=  402 and IRadAn=       5 diagonalized for initial guess.
 HarFok:  IExCor=  402 AccDes= 0.00D+00 IRadAn=         5 IDoV= 1 UseB2=F ITyADJ=14
 ICtDFT=  3500011 ScaDFX=  1.000000  1.000000  1.000000  1.000000
 FoFCou: FMM=F IPFlag=           0 FMFlag=      100000 FMFlg1=           0
         NFxFlg=           0 DoJE=T BraDBF=F KetDBF=T FulRan=T
         wScrn=  0.000000 ICntrl=       500 IOpCl=  0 I1Cent=   200000004 NGrid=           0
         NMat0=    1 NMatS0=      1 NMatT0=    0 NMatD0=    1 NMtDS0=    0 NMtDT0=    0
 Petite list used in FoFCou.
 Harris En= -514.179223553897    
 JPrj=0 DoOrth=F DoCkMO=F.
 Leave Link  401 at Sun Jul 11 16:24:56 2021, MaxMem=   104857600 cpu:               5.1 elap:               1.3
 (Enter /prod/apps/gaussian/g16b1/l502.exe)
 Integral symmetry usage will be decided dynamically.
 Closed shell SCF:
 Using DIIS extrapolation, IDIIS=  1040.
 NGot=   104857600 LenX=   104770734 LenY=   104728677
 Requested convergence on RMS density matrix=1.00D-08 within 128 cycles.
 Requested convergence on MAX density matrix=1.00D-06.
 Requested convergence on             energy=1.00D-06.
 No special actions if energy rises.
 Fock matrices will be formed incrementally for  20 cycles.

 Cycle   1  Pass 1  IDiag  1:
 FoFJK:  IHMeth= 1 ICntrl=       0 DoSepK=F KAlg= 0 I1Cent=           0 FoldK=F
 IRaf= 860000000 NMat=       1 IRICut=       1 DoRegI=T DoRafI=F ISym2E= 0 IDoP0=0 IntGTp=1.
 FoFCou: FMM=F IPFlag=           0 FMFlag=      100000 FMFlg1=           0
         NFxFlg=           0 DoJE=F BraDBF=F KetDBF=F FulRan=T
         wScrn=  0.000000 ICntrl=         0 IOpCl=  0 I1Cent=           0 NGrid=           0
         NMat0=    1 NMatS0=      1 NMatT0=    0 NMatD0=    1 NMtDS0=    0 NMtDT0=    0
 Symmetry not used in FoFCou.
 Inv3:  Mode=1 IEnd=     9569388.
 Iteration    1 A*A^-1 deviation from unit magnitude is 3.55D-15 for    637.
 Iteration    1 A*A^-1 deviation from orthogonality  is 2.44D-15 for   1450    637.
 Iteration    1 A^-1*A deviation from unit magnitude is 3.11D-15 for    637.
 Iteration    1 A^-1*A deviation from orthogonality  is 1.24D-14 for    933    859.
 E= -514.050006978991    
 DIIS: error= 2.81D-02 at cycle   1 NSaved=   1.
 NSaved= 1 IEnMin= 1 EnMin= -514.050006978991     IErMin= 1 ErrMin= 2.81D-02
 ErrMax= 2.81D-02  0.00D+00 EMaxC= 1.00D-01 BMatC= 2.23D-01 BMatP= 2.23D-01
 IDIUse=3 WtCom= 7.19D-01 WtEn= 2.81D-01
 Coeff-Com:  0.100D+01
 Coeff-En:   0.100D+01
 Coeff:      0.100D+01
 Gap=     0.165 Goal=   None    Shift=    0.000
 GapD=    0.165 DampG=1.000 DampE=0.500 DampFc=0.5000 IDamp=-1.
 Damping current iteration by 5.00D-01
 RMSDP=5.30D-03 MaxDP=1.50D-01              OVMax= 2.18D-01

 Cycle   2  Pass 1  IDiag  1:
 RMSU=  2.58D-03    CP:  9.75D-01
 E= -514.148143223921     Delta-E=       -0.098136244930 Rises=F Damp=T
 DIIS: error= 8.17D-03 at cycle   2 NSaved=   2.
 NSaved= 2 IEnMin= 2 EnMin= -514.148143223921     IErMin= 2 ErrMin= 8.17D-03
 ErrMax= 8.17D-03  0.00D+00 EMaxC= 1.00D-01 BMatC= 2.14D-02 BMatP= 2.23D-01
 IDIUse=3 WtCom= 9.18D-01 WtEn= 8.17D-02
 Coeff-Com:  0.662D-01 0.934D+00
 Coeff-En:   0.111D+00 0.889D+00
 Coeff:      0.699D-01 0.930D+00
 Gap=     0.181 Goal=   None    Shift=    0.000
 RMSDP=1.51D-03 MaxDP=5.73D-02 DE=-9.81D-02 OVMax= 1.78D-01

 Cycle   3  Pass 1  IDiag  1:
 RMSU=  1.48D-03    CP:  9.64D-01  9.56D-01
 E= -514.255593901085     Delta-E=       -0.107450677164 Rises=F Damp=F
 DIIS: error= 8.26D-03 at cycle   3 NSaved=   3.
 NSaved= 3 IEnMin= 3 EnMin= -514.255593901085     IErMin= 2 ErrMin= 8.17D-03
 ErrMax= 8.26D-03  0.00D+00 EMaxC= 1.00D-01 BMatC= 2.14D-02 BMatP= 2.14D-02
 IDIUse=3 WtCom= 9.17D-01 WtEn= 8.26D-02
 Coeff-Com: -0.354D-01 0.514D+00 0.521D+00
 Coeff-En:   0.000D+00 0.000D+00 0.100D+01
 Coeff:     -0.325D-01 0.472D+00 0.561D+00
 Gap=     0.169 Goal=   None    Shift=    0.000
 RMSDP=9.45D-04 MaxDP=4.44D-02 DE=-1.07D-01 OVMax= 6.18D-02

 Cycle   4  Pass 1  IDiag  1:
 RMSU=  6.16D-04    CP:  9.67D-01  1.06D+00  5.55D-01
 E= -514.272846045321     Delta-E=       -0.017252144236 Rises=F Damp=F
 DIIS: error= 3.94D-03 at cycle   4 NSaved=   4.
 NSaved= 4 IEnMin= 4 EnMin= -514.272846045321     IErMin= 4 ErrMin= 3.94D-03
 ErrMax= 3.94D-03  0.00D+00 EMaxC= 1.00D-01 BMatC= 3.99D-03 BMatP= 2.14D-02
 IDIUse=3 WtCom= 9.61D-01 WtEn= 3.94D-02
 Coeff-Com: -0.153D-01 0.949D-01 0.323D+00 0.597D+00
 Coeff-En:   0.000D+00 0.000D+00 0.175D+00 0.825D+00
 Coeff:     -0.147D-01 0.911D-01 0.317D+00 0.606D+00
 Gap=     0.171 Goal=   None    Shift=    0.000
 RMSDP=3.26D-04 MaxDP=1.42D-02 DE=-1.73D-02 OVMax= 1.93D-02

 Cycle   5  Pass 1  IDiag  1:
 RMSU=  1.46D-04    CP:  9.66D-01  1.03D+00  6.72D-01  6.50D-01
 E= -514.276412348292     Delta-E=       -0.003566302971 Rises=F Damp=F
 DIIS: error= 6.85D-04 at cycle   5 NSaved=   5.
 NSaved= 5 IEnMin= 5 EnMin= -514.276412348292     IErMin= 5 ErrMin= 6.85D-04
 ErrMax= 6.85D-04  0.00D+00 EMaxC= 1.00D-01 BMatC= 2.20D-04 BMatP= 3.99D-03
 IDIUse=3 WtCom= 9.93D-01 WtEn= 6.85D-03
 Coeff-Com: -0.567D-02 0.198D-01 0.142D+00 0.332D+00 0.512D+00
 Coeff-En:   0.000D+00 0.000D+00 0.000D+00 0.000D+00 0.100D+01
 Coeff:     -0.563D-02 0.196D-01 0.141D+00 0.329D+00 0.515D+00
 Gap=     0.170 Goal=   None    Shift=    0.000
 RMSDP=9.27D-05 MaxDP=4.02D-03 DE=-3.57D-03 OVMax= 5.40D-03

 Cycle   6  Pass 1  IDiag  1:
 RMSU=  4.80D-05    CP:  9.66D-01  1.03D+00  6.78D-01  6.74D-01  4.83D-01
 E= -514.276605594219     Delta-E=       -0.000193245927 Rises=F Damp=F
 DIIS: error= 1.87D-04 at cycle   6 NSaved=   6.
 NSaved= 6 IEnMin= 6 EnMin= -514.276605594219     IErMin= 6 ErrMin= 1.87D-04
 ErrMax= 1.87D-04  0.00D+00 EMaxC= 1.00D-01 BMatC= 1.54D-05 BMatP= 2.20D-04
 IDIUse=3 WtCom= 9.98D-01 WtEn= 1.87D-03
 Coeff-Com: -0.148D-02 0.218D-02 0.441D-01 0.116D+00 0.270D+00 0.569D+00
 Coeff-En:   0.000D+00 0.000D+00 0.000D+00 0.000D+00 0.000D+00 0.100D+01
 Coeff:     -0.148D-02 0.217D-02 0.440D-01 0.115D+00 0.270D+00 0.570D+00
 Gap=     0.170 Goal=   None    Shift=    0.000
 RMSDP=2.27D-05 MaxDP=1.01D-03 DE=-1.93D-04 OVMax= 1.62D-03

 Cycle   7  Pass 1  IDiag  1:
 RMSU=  1.21D-05    CP:  9.66D-01  1.03D+00  6.79D-01  6.76D-01  5.62D-01
                    CP:  6.85D-01
 E= -514.276619184882     Delta-E=       -0.000013590663 Rises=F Damp=F
 DIIS: error= 4.81D-05 at cycle   7 NSaved=   7.
 NSaved= 7 IEnMin= 7 EnMin= -514.276619184882     IErMin= 7 ErrMin= 4.81D-05
 ErrMax= 4.81D-05  0.00D+00 EMaxC= 1.00D-01 BMatC= 1.45D-06 BMatP= 1.54D-05
 IDIUse=1 WtCom= 1.00D+00 WtEn= 0.00D+00
 Coeff-Com: -0.411D-03-0.313D-03 0.140D-01 0.396D-01 0.113D+00 0.317D+00
 Coeff-Com:  0.517D+00
 Coeff:     -0.411D-03-0.313D-03 0.140D-01 0.396D-01 0.113D+00 0.317D+00
 Coeff:      0.517D+00
 Gap=     0.170 Goal=   None    Shift=    0.000
 RMSDP=5.92D-06 MaxDP=2.09D-04 DE=-1.36D-05 OVMax= 4.13D-04

 Cycle   8  Pass 1  IDiag  1:
 RMSU=  2.84D-06    CP:  9.66D-01  1.03D+00  6.79D-01  6.79D-01  5.60D-01
                    CP:  7.14D-01  6.02D-01
 E= -514.276620518846     Delta-E=       -0.000001333964 Rises=F Damp=F
 DIIS: error= 7.63D-06 at cycle   8 NSaved=   8.
 NSaved= 8 IEnMin= 8 EnMin= -514.276620518846     IErMin= 8 ErrMin= 7.63D-06
 ErrMax= 7.63D-06  0.00D+00 EMaxC= 1.00D-01 BMatC= 3.10D-08 BMatP= 1.45D-06
 IDIUse=1 WtCom= 1.00D+00 WtEn= 0.00D+00
 Coeff-Com:  0.436D-05-0.282D-03 0.117D-02 0.366D-02 0.161D-01 0.580D-01
 Coeff-Com:  0.167D+00 0.755D+00
 Coeff:      0.436D-05-0.282D-03 0.117D-02 0.366D-02 0.161D-01 0.580D-01
 Coeff:      0.167D+00 0.755D+00
 Gap=     0.170 Goal=   None    Shift=    0.000
 RMSDP=1.10D-06 MaxDP=4.62D-05 DE=-1.33D-06 OVMax= 5.54D-05

 Cycle   9  Pass 1  IDiag  1:
 RMSU=  8.97D-07    CP:  9.66D-01  1.03D+00  6.79D-01  6.78D-01  5.62D-01
                    CP:  7.18D-01  6.31D-01  8.76D-01
 E= -514.276620540828     Delta-E=       -0.000000021981 Rises=F Damp=F
 DIIS: error= 3.14D-06 at cycle   9 NSaved=   9.
 NSaved= 9 IEnMin= 9 EnMin= -514.276620540828     IErMin= 9 ErrMin= 3.14D-06
 ErrMax= 3.14D-06  0.00D+00 EMaxC= 1.00D-01 BMatC= 7.44D-09 BMatP= 3.10D-08
 IDIUse=1 WtCom= 1.00D+00 WtEn= 0.00D+00
 Coeff-Com:  0.324D-04-0.142D-03-0.320D-03-0.767D-03 0.103D-02 0.942D-02
 Coeff-Com:  0.554D-01 0.408D+00 0.528D+00
 Coeff:      0.324D-04-0.142D-03-0.320D-03-0.767D-03 0.103D-02 0.942D-02
 Coeff:      0.554D-01 0.408D+00 0.528D+00
 Gap=     0.170 Goal=   None    Shift=    0.000
 RMSDP=4.62D-07 MaxDP=1.63D-05 DE=-2.20D-08 OVMax= 3.00D-05

 Cycle  10  Pass 1  IDiag  1:
 RMSU=  2.78D-07    CP:  9.66D-01  1.03D+00  6.79D-01  6.78D-01  5.61D-01
                    CP:  7.20D-01  6.38D-01  9.28D-01  6.58D-01
 E= -514.276620547670     Delta-E=       -0.000000006843 Rises=F Damp=F
 DIIS: error= 6.77D-07 at cycle  10 NSaved=  10.
 NSaved=10 IEnMin=10 EnMin= -514.276620547670     IErMin=10 ErrMin= 6.77D-07
 ErrMax= 6.77D-07  0.00D+00 EMaxC= 1.00D-01 BMatC= 2.51D-10 BMatP= 7.44D-09
 IDIUse=1 WtCom= 1.00D+00 WtEn= 0.00D+00
 Coeff-Com:  0.121D-04-0.265D-04-0.194D-03-0.580D-03-0.925D-03-0.153D-02
 Coeff-Com:  0.644D-02 0.818D-01 0.193D+00 0.722D+00
 Coeff:      0.121D-04-0.265D-04-0.194D-03-0.580D-03-0.925D-03-0.153D-02
 Coeff:      0.644D-02 0.818D-01 0.193D+00 0.722D+00
 Gap=     0.170 Goal=   None    Shift=    0.000
 RMSDP=1.07D-07 MaxDP=3.84D-06 DE=-6.84D-09 OVMax= 9.67D-06

 Cycle  11  Pass 1  IDiag  1:
 RMSU=  7.82D-08    CP:  9.66D-01  1.03D+00  6.79D-01  6.78D-01  5.62D-01
                    CP:  7.20D-01  6.39D-01  9.35D-01  7.15D-01  8.58D-01
 E= -514.276620547914     Delta-E=       -0.000000000244 Rises=F Damp=F
 DIIS: error= 3.53D-07 at cycle  11 NSaved=  11.
 NSaved=11 IEnMin=11 EnMin= -514.276620547914     IErMin=11 ErrMin= 3.53D-07
 ErrMax= 3.53D-07  0.00D+00 EMaxC= 1.00D-01 BMatC= 4.57D-11 BMatP= 2.51D-10
 IDIUse=1 WtCom= 1.00D+00 WtEn= 0.00D+00
 Coeff-Com:  0.444D-05-0.434D-05-0.806D-04-0.264D-03-0.585D-03-0.161D-02
 Coeff-Com: -0.746D-03 0.121D-01 0.597D-01 0.369D+00 0.562D+00
 Coeff:      0.444D-05-0.434D-05-0.806D-04-0.264D-03-0.585D-03-0.161D-02
 Coeff:     -0.746D-03 0.121D-01 0.597D-01 0.369D+00 0.562D+00
 Gap=     0.170 Goal=   None    Shift=    0.000
 RMSDP=4.08D-08 MaxDP=1.69D-06 DE=-2.44D-10 OVMax= 3.50D-06

 Cycle  12  Pass 1  IDiag  1:
 RMSU=  2.59D-08    CP:  9.66D-01  1.03D+00  6.79D-01  6.78D-01  5.62D-01
                    CP:  7.20D-01  6.39D-01  9.39D-01  7.21D-01  9.24D-01
                    CP:  7.37D-01
 E= -514.276620547965     Delta-E=       -0.000000000051 Rises=F Damp=F
 DIIS: error= 9.02D-08 at cycle  12 NSaved=  12.
 NSaved=12 IEnMin=12 EnMin= -514.276620547965     IErMin=12 ErrMin= 9.02D-08
 ErrMax= 9.02D-08  0.00D+00 EMaxC= 1.00D-01 BMatC= 2.61D-12 BMatP= 4.57D-11
 IDIUse=1 WtCom= 1.00D+00 WtEn= 0.00D+00
 Coeff-Com: -0.179D-06 0.202D-05 0.576D-05 0.322D-05-0.368D-04-0.302D-03
 Coeff-Com: -0.116D-02-0.901D-02-0.102D-01 0.118D-01 0.186D+00 0.823D+00
 Coeff:     -0.179D-06 0.202D-05 0.576D-05 0.322D-05-0.368D-04-0.302D-03
 Coeff:     -0.116D-02-0.901D-02-0.102D-01 0.118D-01 0.186D+00 0.823D+00
 Gap=     0.170 Goal=   None    Shift=    0.000
 RMSDP=1.32D-08 MaxDP=3.75D-07 DE=-5.14D-11 OVMax= 1.54D-06

 Cycle  13  Pass 1  IDiag  1:
 RMSU=  7.08D-09    CP:  9.66D-01  1.03D+00  6.79D-01  6.78D-01  5.62D-01
                    CP:  7.20D-01  6.39D-01  9.40D-01  7.25D-01  9.41D-01
                    CP:  8.40D-01  9.40D-01
 E= -514.276620547970     Delta-E=       -0.000000000004 Rises=F Damp=F
 DIIS: error= 3.23D-08 at cycle  13 NSaved=  13.
 NSaved=13 IEnMin=13 EnMin= -514.276620547970     IErMin=13 ErrMin= 3.23D-08
 ErrMax= 3.23D-08  0.00D+00 EMaxC= 1.00D-01 BMatC= 3.75D-13 BMatP= 2.61D-12
 IDIUse=1 WtCom= 1.00D+00 WtEn= 0.00D+00
 Coeff-Com: -0.262D-06 0.114D-05 0.693D-05 0.142D-04 0.115D-04-0.741D-04
 Coeff-Com: -0.523D-03-0.505D-02-0.791D-02-0.125D-01 0.687D-01 0.418D+00
 Coeff-Com:  0.539D+00
 Coeff:     -0.262D-06 0.114D-05 0.693D-05 0.142D-04 0.115D-04-0.741D-04
 Coeff:     -0.523D-03-0.505D-02-0.791D-02-0.125D-01 0.687D-01 0.418D+00
 Coeff:      0.539D+00
 Gap=     0.170 Goal=   None    Shift=    0.000
 RMSDP=4.02D-09 MaxDP=1.93D-07 DE=-4.32D-12 OVMax= 4.21D-07

 Error on total polarization charges =  0.01583
 SCF Done:  E(RB3LYP) =  -514.276620548     A.U. after   13 cycles
            NFock= 13  Conv=0.40D-08     -V/T= 2.0091
 KE= 5.096458481167D+02 PE=-2.517837743779D+03 EE= 8.252506725903D+02
 Leave Link  502 at Sun Jul 11 16:25:25 2021, MaxMem=   104857600 cpu:             115.7 elap:              29.0
 (Enter /prod/apps/gaussian/g16b1/l601.exe)
 Copying SCF densities to generalized density rwf, IOpCl= 0 IROHF=0.

 **********************************************************************

            Population analysis using the SCF Density.

 **********************************************************************

 Orbital symmetries:
       Occupied  (A) (A) (A) (A) (A) (A) (A) (A) (A) (A) (A) (A)
                 (A) (A) (A) (A) (A) (A) (A) (A) (A) (A) (A) (A)
                 (A) (A) (A) (A) (A) (A) (A) (A) (A) (A) (A) (A)
                 (A) (A) (A) (A) (A) (A) (A)
       Virtual   (A) (A) (A) (A) (A) (A) (A) (A) (A) (A) (A) (A)
                 (A) (A) (A) (A) (A) (A) (A) (A) (A) (A) (A) (A)
                 (A) (A) (A) (A) (A) (A) (A) (A) (A) (A) (A) (A)
                 (A) (A) (A) (A) (A) (A) (A) (A) (A) (A) (A) (A)
                 (A) (A) (A) (A) (A) (A) (A) (A) (A) (A) (A) (A)
                 (A) (A) (A) (A) (A) (A) (A) (A) (A) (A) (A) (A)
                 (A) (A) (A) (A) (A) (A) (A) (A) (A) (A) (A) (A)
                 (A) (A) (A) (A) (A) (A) (A) (A) (A) (A) (A) (A)
                 (A) (A) (A) (A) (A) (A) (A) (A) (A) (A) (A) (A)
                 (A) (A) (A) (A) (A) (A) (A) (A) (A) (A) (A) (A)
                 (A) (A) (A) (A) (A) (A) (A) (A) (A) (A) (A) (A)
                 (A) (A) (A) (A) (A) (A) (A) (A) (A) (A) (A) (A)
                 (A) (A) (A) (A) (A) (A) (A) (A) (A) (A) (A) (A)
                 (A) (A) (A) (A) (A)
 The electronic state is 1-A.
 Alpha  occ. eigenvalues --  -14.44743 -14.42154 -14.32413 -10.25365 -10.25077
 Alpha  occ. eigenvalues --  -10.24577 -10.22149 -10.21153 -10.20970 -10.20666
 Alpha  occ. eigenvalues --  -10.20142 -10.19511  -1.03214  -1.02643  -0.90809
 Alpha  occ. eigenvalues --   -0.83816  -0.80323  -0.76128  -0.73543  -0.67908
 Alpha  occ. eigenvalues --   -0.64624  -0.62360  -0.60938  -0.60125  -0.56351
 Alpha  occ. eigenvalues --   -0.52497  -0.51448  -0.50156  -0.48637  -0.46722
 Alpha  occ. eigenvalues --   -0.46191  -0.44432  -0.43800  -0.41318  -0.40321
 Alpha  occ. eigenvalues --   -0.39017  -0.36825  -0.35572  -0.33956  -0.32338
 Alpha  occ. eigenvalues --   -0.29240  -0.25305  -0.20976
 Alpha virt. eigenvalues --   -0.03933  -0.00476   0.04495   0.06012   0.09584
 Alpha virt. eigenvalues --    0.10176   0.11185   0.12093   0.12984   0.13806
 Alpha virt. eigenvalues --    0.14714   0.15899   0.16152   0.16823   0.17814
 Alpha virt. eigenvalues --    0.18135   0.18718   0.21455   0.23385   0.24583
 Alpha virt. eigenvalues --    0.26035   0.26780   0.30202   0.31075   0.32430
 Alpha virt. eigenvalues --    0.40483   0.41258   0.47057   0.47901   0.48054
 Alpha virt. eigenvalues --    0.49970   0.50618   0.51271   0.52587   0.53800
 Alpha virt. eigenvalues --    0.55969   0.56563   0.57291   0.58283   0.58574
 Alpha virt. eigenvalues --    0.59587   0.62278   0.63229   0.63678   0.63855
 Alpha virt. eigenvalues --    0.65008   0.66831   0.69475   0.70052   0.71010
 Alpha virt. eigenvalues --    0.73742   0.77783   0.78764   0.80684   0.81283
 Alpha virt. eigenvalues --    0.82814   0.83304   0.83920   0.84311   0.84723
 Alpha virt. eigenvalues --    0.85572   0.86537   0.87588   0.88578   0.89057
 Alpha virt. eigenvalues --    0.90523   0.91397   0.92773   0.93730   0.94687
 Alpha virt. eigenvalues --    0.98760   0.99178   1.01193   1.05195   1.07678
 Alpha virt. eigenvalues --    1.09719   1.11681   1.13789   1.19126   1.20058
 Alpha virt. eigenvalues --    1.21361   1.27511   1.31175   1.32626   1.34450
 Alpha virt. eigenvalues --    1.35710   1.41230   1.43956   1.45029   1.45751
 Alpha virt. eigenvalues --    1.46774   1.49253   1.52534   1.54234   1.57136
 Alpha virt. eigenvalues --    1.62820   1.65806   1.68958   1.74330   1.79332
 Alpha virt. eigenvalues --    1.80888   1.83406   1.85428   1.88314   1.89454
 Alpha virt. eigenvalues --    1.90952   1.92101   1.94193   1.95634   1.99373
 Alpha virt. eigenvalues --    2.00636   2.01373   2.03339   2.05105   2.07809
 Alpha virt. eigenvalues --    2.11614   2.13402   2.15678   2.17965   2.21105
 Alpha virt. eigenvalues --    2.21451   2.24442   2.26503   2.29191   2.31874
 Alpha virt. eigenvalues --    2.32606   2.36267   2.37127   2.41251   2.42667
 Alpha virt. eigenvalues --    2.46539   2.49620   2.54248   2.57221   2.59045
 Alpha virt. eigenvalues --    2.60530   2.65595   2.66046   2.68968   2.70046
 Alpha virt. eigenvalues --    2.72457   2.80207   2.81979   2.82270   2.91076
 Alpha virt. eigenvalues --    3.02548   3.12309   3.18294   3.43308   3.79126
 Alpha virt. eigenvalues --    4.04407   4.07404   4.12068   4.16968   4.17634
 Alpha virt. eigenvalues --    4.25656   4.28696   4.38422   4.44172   4.54620
 Alpha virt. eigenvalues --    4.66283
          Condensed to atoms (all electrons):
               1          2          3          4          5          6
     1  N    6.704657   0.303723   0.304185   0.212407  -0.029437  -0.040536
     2  H    0.303723   0.269812  -0.010042  -0.019135  -0.005033   0.004128
     3  H    0.304185  -0.010042   0.275166  -0.028775   0.003690  -0.000680
     4  C    0.212407  -0.019135  -0.028775   5.052718   0.382823   0.389166
     5  H   -0.029437  -0.005033   0.003690   0.382823   0.480089  -0.030294
     6  H   -0.040536   0.004128  -0.000680   0.389166  -0.030294   0.517548
     7  C   -0.054655  -0.001278  -0.001203   0.346164  -0.025407  -0.044580
     8  H   -0.005802  -0.000158   0.010265  -0.040772   0.004276  -0.005951
     9  H   -0.000847   0.002545  -0.000934  -0.052316  -0.004700   0.006479
    10  C    0.003337  -0.000109   0.000286  -0.038086   0.000582  -0.001596
    11  C   -0.000033   0.000009  -0.000000  -0.002469   0.001850   0.000324
    12  H   -0.000007   0.000000  -0.000000   0.000199   0.000035  -0.000009
    13  N    0.000001  -0.000000   0.000000  -0.000050  -0.000040   0.000003
    14  C   -0.000000   0.000000   0.000000   0.000000  -0.000000  -0.000000
    15  H   -0.000000   0.000000  -0.000000  -0.000000   0.000000   0.000000
    16  C    0.000000  -0.000000   0.000000  -0.000000  -0.000000   0.000000
    17  H    0.000000   0.000000   0.000000  -0.000000   0.000000   0.000000
    18  C    0.000000   0.000000  -0.000000  -0.000000   0.000000  -0.000000
    19  H   -0.000000   0.000000  -0.000000   0.000000  -0.000000   0.000000
    20  C   -0.000000   0.000000   0.000000   0.000001   0.000000   0.000000
    21  H    0.000000   0.000000   0.000000  -0.000000   0.000000   0.000000
    22  C   -0.000000   0.000000   0.000001  -0.000002   0.000009  -0.000043
    23  N   -0.000006  -0.000000  -0.000012  -0.001049  -0.000116   0.002546
    24  H    0.306635  -0.009722  -0.010856  -0.017669   0.000090  -0.005623
               7          8          9         10         11         12
     1  N   -0.054655  -0.005802  -0.000847   0.003337  -0.000033  -0.000007
     2  H   -0.001278  -0.000158   0.002545  -0.000109   0.000009   0.000000
     3  H   -0.001203   0.010265  -0.000934   0.000286  -0.000000  -0.000000
     4  C    0.346164  -0.040772  -0.052316  -0.038086  -0.002469   0.000199
     5  H   -0.025407   0.004276  -0.004700   0.000582   0.001850   0.000035
     6  H   -0.044580  -0.005951   0.006479  -0.001596   0.000324  -0.000009
     7  C    5.210424   0.362896   0.368714   0.363159  -0.067445  -0.001197
     8  H    0.362896   0.540428  -0.046424  -0.013145   0.002741  -0.000096
     9  H    0.368714  -0.046424   0.553179  -0.018813  -0.001266   0.001785
    10  C    0.363159  -0.013145  -0.018813   4.563658   0.554047  -0.032786
    11  C   -0.067445   0.002741  -0.001266   0.554047   5.068988   0.361239
    12  H   -0.001197  -0.000096   0.001785  -0.032786   0.361239   0.519291
    13  N    0.005581  -0.000055   0.000048  -0.018433   0.313729  -0.042184
    14  C   -0.000071   0.000001  -0.000005   0.004401  -0.045637   0.000415
    15  H   -0.000000   0.000000   0.000000   0.000052  -0.002649   0.002285
    16  C    0.000003  -0.000000   0.000000  -0.000369   0.003563   0.000050
    17  H   -0.000000   0.000000  -0.000000   0.000003  -0.000097  -0.000002
    18  C    0.000007  -0.000000  -0.000000  -0.000084   0.001262   0.000017
    19  H   -0.000000  -0.000000   0.000000  -0.000000   0.000012  -0.000000
    20  C   -0.000657   0.000006   0.000006  -0.001450   0.013890  -0.000410
    21  H    0.000000   0.000002   0.000000   0.000479  -0.000388   0.000002
    22  C    0.002399   0.000391  -0.000029  -0.075041  -0.090506   0.004435
    23  N   -0.061155   0.000288   0.002144   0.432852  -0.077592   0.005635
    24  H    0.004198  -0.000213   0.000047  -0.000065   0.000002   0.000000
              13         14         15         16         17         18
     1  N    0.000001  -0.000000  -0.000000   0.000000   0.000000   0.000000
     2  H   -0.000000   0.000000   0.000000  -0.000000   0.000000   0.000000
     3  H    0.000000   0.000000  -0.000000   0.000000   0.000000  -0.000000
     4  C   -0.000050   0.000000  -0.000000  -0.000000  -0.000000  -0.000000
     5  H   -0.000040  -0.000000   0.000000  -0.000000   0.000000   0.000000
     6  H    0.000003  -0.000000   0.000000   0.000000   0.000000  -0.000000
     7  C    0.005581  -0.000071  -0.000000   0.000003  -0.000000   0.000007
     8  H   -0.000055   0.000001   0.000000  -0.000000   0.000000  -0.000000
     9  H    0.000048  -0.000005   0.000000   0.000000  -0.000000  -0.000000
    10  C   -0.018433   0.004401   0.000052  -0.000369   0.000003  -0.000084
    11  C    0.313729  -0.045637  -0.002649   0.003563  -0.000097   0.001262
    12  H   -0.042184   0.000415   0.002285   0.000050  -0.000002   0.000017
    13  N    6.804246   0.326963  -0.042329  -0.015574   0.002806  -0.041183
    14  C    0.326963   4.848468   0.372773   0.556906  -0.036161  -0.040670
    15  H   -0.042329   0.372773   0.489942  -0.031287  -0.001998   0.002586
    16  C   -0.015574   0.556906  -0.031287   4.935625   0.366368   0.484376
    17  H    0.002806  -0.036161  -0.001998   0.366368   0.526708  -0.034235
    18  C   -0.041183  -0.040670   0.002586   0.484376  -0.034235   4.871799
    19  H   -0.000047   0.004284  -0.000100  -0.040066  -0.004559   0.370018
    20  C   -0.039323  -0.039293   0.000217  -0.017611   0.004672   0.541106
    21  H    0.006929   0.000361   0.000020   0.005700  -0.000181  -0.042004
    22  C    0.313236  -0.026399   0.002203  -0.033009   0.000792  -0.014188
    23  N   -0.102084   0.005704  -0.000163  -0.000090   0.000004   0.004167
    24  H   -0.000000   0.000000   0.000000  -0.000000   0.000000  -0.000000
              19         20         21         22         23         24
     1  N   -0.000000  -0.000000   0.000000  -0.000000  -0.000006   0.306635
     2  H    0.000000   0.000000   0.000000   0.000000  -0.000000  -0.009722
     3  H   -0.000000   0.000000   0.000000   0.000001  -0.000012  -0.010856
     4  C    0.000000   0.000001  -0.000000  -0.000002  -0.001049  -0.017669
     5  H   -0.000000   0.000000   0.000000   0.000009  -0.000116   0.000090
     6  H    0.000000   0.000000   0.000000  -0.000043   0.002546  -0.005623
     7  C   -0.000000  -0.000657   0.000000   0.002399  -0.061155   0.004198
     8  H   -0.000000   0.000006   0.000002   0.000391   0.000288  -0.000213
     9  H    0.000000   0.000006   0.000000  -0.000029   0.002144   0.000047
    10  C   -0.000000  -0.001450   0.000479  -0.075041   0.432852  -0.000065
    11  C    0.000012   0.013890  -0.000388  -0.090506  -0.077592   0.000002
    12  H   -0.000000  -0.000410   0.000002   0.004435   0.005635   0.000000
    13  N   -0.000047  -0.039323   0.006929   0.313236  -0.102084  -0.000000
    14  C    0.004284  -0.039293   0.000361  -0.026399   0.005704   0.000000
    15  H   -0.000100   0.000217   0.000020   0.002203  -0.000163   0.000000
    16  C   -0.040066  -0.017611   0.005700  -0.033009  -0.000090  -0.000000
    17  H   -0.004559   0.004672  -0.000181   0.000792   0.000004   0.000000
    18  C    0.370018   0.541106  -0.042004  -0.014188   0.004167  -0.000000
    19  H    0.538940  -0.036868  -0.007382   0.003593  -0.000081   0.000000
    20  C   -0.036868   5.035848   0.352982   0.472328  -0.062385   0.000000
    21  H   -0.007382   0.352982   0.568693  -0.041389  -0.001644   0.000000
    22  C    0.003593   0.472328  -0.041389   4.515396   0.440139  -0.000000
    23  N   -0.000081  -0.062385  -0.001644   0.440139   7.043214   0.000002
    24  H    0.000000   0.000000   0.000000  -0.000000   0.000002   0.266801
 Mulliken charges:
               1
     1  N   -0.703621
     2  H    0.465261
     3  H    0.458909
     4  C   -0.183156
     5  H    0.221583
     6  H    0.209118
     7  C   -0.405895
     8  H    0.191320
     9  H    0.190386
    10  C    0.277120
    11  C   -0.033574
    12  H    0.181304
    13  N   -0.472238
    14  C    0.067960
    15  H    0.208448
    16  C   -0.214585
    17  H    0.175880
    18  C   -0.102974
    19  H    0.172256
    20  C   -0.223058
    21  H    0.157818
    22  C    0.525684
    23  N   -0.630319
    24  H    0.466374
 Sum of Mulliken charges =   1.00000
 Mulliken charges with hydrogens summed into heavy atoms:
               1
     1  N    0.686923
     4  C    0.247546
     7  C   -0.024189
    10  C    0.277120
    11  C    0.147730
    13  N   -0.472238
    14  C    0.276408
    16  C   -0.038706
    18  C    0.069282
    20  C   -0.065240
    22  C    0.525684
    23  N   -0.630319
 Electronic spatial extent (au):  <R**2>=           2662.9752
 Charge=              1.0000 electrons
 Dipole moment (field-independent basis, Debye):
    X=             18.0812    Y=              4.0419    Z=              1.0511  Tot=             18.5572
 Quadrupole moment (field-independent basis, Debye-Ang):
   XX=             45.5440   YY=            -62.0176   ZZ=            -68.5011
   XY=              0.6145   XZ=              0.8014   YZ=             -0.8751
 Traceless Quadrupole moment (field-independent basis, Debye-Ang):
   XX=             73.8689   YY=            -33.6926   ZZ=            -40.1762
   XY=              0.6145   XZ=              0.8014   YZ=             -0.8751
 Octapole moment (field-independent basis, Debye-Ang**2):
  XXX=            454.9533  YYY=             21.5014  ZZZ=              2.2670  XYY=              7.0468
  XXY=              3.6312  XXZ=             22.2974  XZZ=             31.7423  YZZ=             -0.5091
  YYZ=              2.5688  XYZ=              1.1793
 Hexadecapole moment (field-independent basis, Debye-Ang**3):
 XXXX=           -315.3747 YYYY=           -379.0575 ZZZZ=           -123.4471 XXXY=              0.2774
 XXXZ=             44.8681 YYYX=              4.1709 YYYZ=             -5.8276 ZZZX=              7.4162
 ZZZY=              1.2470 XXYY=           -441.4466 XXZZ=           -459.5531 YYZZ=            -94.7349
 XXYZ=             -5.4793 YYXZ=              0.0447 ZZXY=             -4.3285
 N-N= 6.686646025237D+02 E-N=-2.517837746510D+03  KE= 5.096458481167D+02
 No NMR shielding tensors so no spin-rotation constants.
 Leave Link  601 at Sun Jul 11 16:25:25 2021, MaxMem=   104857600 cpu:               0.6 elap:               0.2
 (Enter /prod/apps/gaussian/g16b1/l701.exe)
 ... and contract with generalized density number  0.
 Compute integral first derivatives.
 D1PCM: PCM CHGder 1st derivatives, ID1Alg=3 FixD1E=F DoIter=F DoCFld=F I1PDM=0.
 GePol: Maximum number of non-zero 1st derivatives   =     287
 Leave Link  701 at Sun Jul 11 16:25:26 2021, MaxMem=   104857600 cpu:               5.1 elap:               1.3
 (Enter /prod/apps/gaussian/g16b1/l702.exe)
 L702 exits ... SP integral derivatives will be done elsewhere.
 Leave Link  702 at Sun Jul 11 16:25:26 2021, MaxMem=   104857600 cpu:               0.1 elap:               0.0
 (Enter /prod/apps/gaussian/g16b1/l703.exe)
 Integral derivatives from FoFJK, PRISM(SPDF).
 Compute integral first derivatives, UseDBF=F ICtDFT=           0.
 Calling FoFJK, ICntrl=      2127 FMM=F ISym2X=0 I1Cent= 0 IOpClX= 0 NMat=1 NMatS=1 NMatT=0.
 FoFJK:  IHMeth= 1 ICntrl=    2127 DoSepK=F KAlg= 0 I1Cent=           0 FoldK=F
 IRaf=         0 NMat=       1 IRICut=       1 DoRegI=T DoRafI=F ISym2E= 0 IDoP0=0 IntGTp=1.
 FoFCou: FMM=F IPFlag=           0 FMFlag=      100000 FMFlg1=         800
         NFxFlg=           0 DoJE=F BraDBF=F KetDBF=F FulRan=T
         wScrn=  0.000000 ICntrl=      2127 IOpCl=  0 I1Cent=           0 NGrid=           0
         NMat0=    1 NMatS0=      1 NMatT0=    0 NMatD0=    1 NMtDS0=    0 NMtDT0=    0
 Symmetry not used in FoFCou.
 Leave Link  703 at Sun Jul 11 16:25:32 2021, MaxMem=   104857600 cpu:              23.4 elap:               5.9
 (Enter /prod/apps/gaussian/g16b1/l716.exe)
 Dipole        = 7.11368347D+00 1.59018814D+00 4.13538033D-01
 ***** Axes restored to original set *****
 -------------------------------------------------------------------
 Center     Atomic                   Forces (Hartrees/Bohr)
 Number     Number              X              Y              Z
 -------------------------------------------------------------------
      1        7           0.001164200    0.012375375   -0.004934265
      2        1          -0.003896217    0.026052075    0.014236094
      3        1          -0.015659309   -0.012928793    0.020752737
      4        6           0.017097628   -0.037080620   -0.032635911
      5        1           0.002148989   -0.000116327    0.009790963
      6        1           0.002767947    0.002192296   -0.004682540
      7        6          -0.007615718    0.023454133    0.007210122
      8        1           0.007587091   -0.018656791   -0.007972786
      9        1           0.019702839    0.003068412    0.003844211
     10        6          -0.016656202   -0.000417904    0.011706400
     11        6           0.029263628    0.022213358    0.000474611
     12        1          -0.000121034   -0.003585867    0.000108102
     13        7          -0.010667443    0.018164385    0.027682419
     14        6          -0.010430992   -0.028253046   -0.016666433
     15        1           0.004904160   -0.003722409   -0.004170541
     16        6          -0.002509676    0.026480917    0.003226584
     17        1          -0.000252293    0.004974244    0.008540496
     18        6           0.016616886    0.005574777   -0.008035600
     19        1           0.004940606    0.000983698    0.007854107
     20        6          -0.030051931   -0.045680294   -0.032597737
     21        1           0.003888560   -0.008161897    0.004770537
     22        6          -0.032633323    0.015766764    0.011990057
     23        7           0.048518100   -0.007739707   -0.004057309
     24        1          -0.028106499    0.005043220   -0.016434318
 -------------------------------------------------------------------
 Cartesian Forces:  Max     0.048518100 RMS     0.017061872
 Leave Link  716 at Sun Jul 11 16:25:32 2021, MaxMem=   104857600 cpu:               0.1 elap:               0.0
 (Enter /prod/apps/gaussian/g16b1/l103.exe)

 GradGradGradGradGradGradGradGradGradGradGradGradGradGradGradGradGradGrad
 Berny optimization.
 FormGI is forming the generalized inverse of G from B-inverse, IUseBI=4.
 Internal  Forces:  Max     0.054879090 RMS     0.011978950
 Search for a local minimum.
 Step number   1 out of a maximum of  138
 All quantities printed in internal units (Hartrees-Bohrs-Radians)
 RMS Force = .11979D-01 SwitMx=.10000D-02 MixMth= 1
 Mixed Optimization -- RFO/linear search
 Second derivative matrix not updated -- first step.
 ITU=  0
     Eigenvalues ---    0.00569   0.00925   0.01232   0.01676   0.01801
     Eigenvalues ---    0.01892   0.01919   0.02018   0.02069   0.02165
     Eigenvalues ---    0.02241   0.02400   0.02412   0.02571   0.02748
     Eigenvalues ---    0.03841   0.03987   0.05434   0.05631   0.06366
     Eigenvalues ---    0.06370   0.07827   0.09744   0.11767   0.13155
     Eigenvalues ---    0.15661   0.15833   0.15911   0.15984   0.16000
     Eigenvalues ---    0.16000   0.16000   0.16000   0.21616   0.21781
     Eigenvalues ---    0.21958   0.22472   0.23352   0.23733   0.24720
     Eigenvalues ---    0.24949   0.30867   0.33671   0.34420   0.34462
     Eigenvalues ---    0.34516   0.34602   0.35343   0.35368   0.35441
     Eigenvalues ---    0.35573   0.35592   0.39324   0.40310   0.42068
     Eigenvalues ---    0.42808   0.43789   0.45004   0.46487   0.47589
     Eigenvalues ---    0.47711   0.47768   0.50749   0.51197   0.52720
     Eigenvalues ---    0.54360
 RFO step:  Lambda=-5.52802927D-02 EMin= 5.69333766D-03
 Linear search not attempted -- first point.
 Maximum step size (   0.300) exceeded in Quadratic search.
    -- Step size scaled by   0.793
 Iteration  1 RMS(Cart)=  0.07737959 RMS(Int)=  0.00240473
 Iteration  2 RMS(Cart)=  0.00452825 RMS(Int)=  0.00059555
 Iteration  3 RMS(Cart)=  0.00001246 RMS(Int)=  0.00059550
 Iteration  4 RMS(Cart)=  0.00000000 RMS(Int)=  0.00059550
 ITry= 1 IFail=0 DXMaxC= 3.70D-01 DCOld= 1.00D+10 DXMaxT= 3.00D-01 DXLimC= 3.00D+00 Rises=F
 Variable       Old X    -DE/DX   Delta X   Delta X   Delta X     New X
                                 (Linear)    (Quad)   (Total)
    R1        1.89080   0.02874   0.00000   0.04291   0.04291   1.93371
    R2        1.88948   0.02740   0.00000   0.04082   0.04082   1.93030
    R3        2.71135   0.05488   0.00000   0.09495   0.09495   2.80630
    R4        1.88887   0.03175   0.00000   0.04725   0.04725   1.93611
    R5        2.06557  -0.00416   0.00000  -0.00825  -0.00825   2.05732
    R6        2.06627   0.00087   0.00000   0.00173   0.00173   2.06800
    R7        2.86268   0.02028   0.00000   0.04420   0.04420   2.90687
    R8        2.06326   0.00356   0.00000   0.00704   0.00704   2.07030
    R9        2.06468   0.00579   0.00000   0.01146   0.01146   2.07614
   R10        2.81190   0.00224   0.00000   0.00453   0.00453   2.81643
   R11        2.56620   0.01593   0.00000   0.02404   0.02406   2.59026
   R12        2.56118   0.01399   0.00000   0.01982   0.01984   2.58102
   R13        2.04754  -0.00332   0.00000  -0.00641  -0.00641   2.04113
   R14        2.63589  -0.00757   0.00000  -0.01081  -0.01082   2.62507
   R15        2.64841  -0.01687   0.00000  -0.03037  -0.03058   2.61783
   R16        2.62065   0.01538   0.00000   0.02043   0.02035   2.64099
   R17        2.04724  -0.00330   0.00000  -0.00637  -0.00637   2.04087
   R18        2.65050  -0.02680   0.00000  -0.04649  -0.04668   2.60383
   R19        2.05122  -0.00097   0.00000  -0.00188  -0.00188   2.04934
   R20        2.66459   0.01007   0.00000   0.01589   0.01594   2.68053
   R21        2.05081  -0.00170   0.00000  -0.00330  -0.00330   2.04751
   R22        2.54477   0.02877   0.00000   0.04088   0.04113   2.58589
   R23        2.04965   0.00270   0.00000   0.00523   0.00523   2.05488
   R24        2.57666   0.03757   0.00000   0.05569   0.05586   2.63252
   R25        2.63796  -0.03900   0.00000  -0.06197  -0.06198   2.57598
    A1        1.91088  -0.00821   0.00000  -0.02955  -0.03006   1.88082
    A2        1.91085   0.00746   0.00000   0.02728   0.02684   1.93769
    A3        1.91095  -0.00814   0.00000  -0.03110  -0.03143   1.87952
    A4        1.91042   0.00954   0.00000   0.03570   0.03515   1.94558
    A5        1.91001  -0.00850   0.00000  -0.03090  -0.03142   1.87858
    A6        1.91069   0.00785   0.00000   0.02856   0.02811   1.93880
    A7        1.94325  -0.01173   0.00000  -0.04324  -0.04192   1.90133
    A8        1.83756  -0.00329   0.00000   0.01582   0.01329   1.85085
    A9        1.85785   0.02813   0.00000   0.08342   0.08267   1.94053
   A10        1.86200   0.00477   0.00000   0.00507   0.00540   1.86740
   A11        2.08209  -0.01623   0.00000  -0.07076  -0.06985   2.01225
   A12        1.86533  -0.00067   0.00000   0.02027   0.01779   1.88311
   A13        1.85086   0.00582   0.00000   0.02523   0.02419   1.87505
   A14        1.80450   0.01104   0.00000   0.05925   0.05896   1.86347
   A15        1.99040   0.00049   0.00000  -0.00271  -0.00255   1.98785
   A16        1.71358   0.00906   0.00000   0.05848   0.05575   1.76933
   A17        2.05748  -0.01115   0.00000  -0.06325  -0.06350   1.99398
   A18        2.01096  -0.01123   0.00000  -0.05369  -0.05385   1.95711
   A19        2.15356   0.00960   0.00000   0.02201   0.02194   2.17550
   A20        2.14605  -0.00272   0.00000  -0.00997  -0.01001   2.13603
   A21        1.98161  -0.00677   0.00000  -0.01085  -0.01091   1.97070
   A22        2.28221   0.00768   0.00000   0.01895   0.01889   2.30110
   A23        1.87827  -0.01464   0.00000  -0.03567  -0.03573   1.84254
   A24        2.12213   0.00690   0.00000   0.01612   0.01609   2.13822
   A25        2.27086  -0.00473   0.00000  -0.00601  -0.00626   2.26460
   A26        1.81019   0.01601   0.00000   0.04578   0.04575   1.85595
   A27        2.17765  -0.01052   0.00000  -0.03128  -0.03176   2.14588
   A28        1.99367  -0.00285   0.00000   0.00556   0.00567   1.99933
   A29        2.02599   0.01812   0.00000   0.03464   0.03435   2.06034
   A30        2.26351  -0.01526   0.00000  -0.04014  -0.04003   2.22348
   A31        2.13074  -0.01049   0.00000  -0.03012  -0.03022   2.10053
   A32        2.09269   0.00651   0.00000   0.00892   0.00876   2.10145
   A33        2.05376   0.00426   0.00000   0.02409   0.02400   2.07776
   A34        2.13822  -0.00651   0.00000  -0.02525  -0.02581   2.11240
   A35        2.07582   0.00172   0.00000   0.01255   0.01265   2.08847
   A36        2.05839   0.00546   0.00000   0.01895   0.01846   2.07685
   A37        2.11230   0.00773   0.00000   0.01233   0.01158   2.12389
   A38        2.18144  -0.02807   0.00000  -0.06427  -0.06422   2.11722
   A39        1.96928   0.02117   0.00000   0.06253   0.06201   2.03129
   A40        2.00451   0.01264   0.00000   0.04389   0.04404   2.04855
   A41        1.97552  -0.00983   0.00000  -0.03588  -0.03615   1.93937
   A42        2.29706  -0.00268   0.00000  -0.00659  -0.00655   2.29052
   A43        1.77738   0.01534   0.00000   0.03811   0.03808   1.81546
    D1       -0.70768   0.00126   0.00000   0.00772   0.00776  -0.69992
    D2       -2.71889   0.00318   0.00000   0.01391   0.01448  -2.70440
    D3        1.58804  -0.00655   0.00000  -0.05123  -0.05170   1.53634
    D4       -2.80238   0.00090   0.00000   0.00533   0.00532  -2.79706
    D5        1.46960   0.00282   0.00000   0.01151   0.01204   1.48164
    D6       -0.50667  -0.00691   0.00000  -0.05362  -0.05414  -0.56081
    D7        1.38727   0.00067   0.00000   0.00385   0.00379   1.39106
    D8       -0.62394   0.00260   0.00000   0.01004   0.01051  -0.61343
    D9       -2.60020  -0.00714   0.00000  -0.05510  -0.05567  -2.65587
   D10        0.84733   0.01257   0.00000   0.09061   0.09209   0.93942
   D11       -0.94598  -0.00291   0.00000  -0.00134  -0.00114  -0.94712
   D12        3.14054   0.00292   0.00000   0.02499   0.02562  -3.11703
   D13        3.06250   0.00938   0.00000   0.05146   0.05193   3.11444
   D14        1.26920  -0.00610   0.00000  -0.04048  -0.04130   1.22790
   D15       -0.92747  -0.00027   0.00000  -0.01416  -0.01454  -0.94201
   D16       -1.10978   0.00401   0.00000   0.02636   0.02654  -1.08324
   D17       -2.90309  -0.01147   0.00000  -0.06558  -0.06669  -2.96978
   D18        1.18343  -0.00564   0.00000  -0.03926  -0.03993   1.14350
   D19        1.63840   0.00195   0.00000   0.01228   0.01183   1.65022
   D20       -1.57480   0.00378   0.00000   0.03362   0.03327  -1.54153
   D21       -2.45712   0.00064   0.00000  -0.01185  -0.01197  -2.46909
   D22        0.61287   0.00246   0.00000   0.00949   0.00947   0.62234
   D23       -0.44496  -0.00463   0.00000  -0.02392  -0.02349  -0.46845
   D24        2.62504  -0.00281   0.00000  -0.00258  -0.00205   2.62298
   D25       -0.10081   0.00180   0.00000   0.01821   0.01805  -0.08277
   D26        3.07766   0.00393   0.00000   0.03748   0.03705   3.11471
   D27        3.10630   0.00005   0.00000  -0.00120  -0.00149   3.10481
   D28        0.00158   0.00219   0.00000   0.01807   0.01751   0.01910
   D29       -3.04486  -0.00450   0.00000  -0.04773  -0.04818  -3.09303
   D30        0.03154  -0.00224   0.00000  -0.02705  -0.02778   0.00376
   D31       -2.94375  -0.00314   0.00000  -0.03597  -0.03610  -2.97985
   D32       -0.03439  -0.00043   0.00000   0.00077   0.00110  -0.03329
   D33        0.23063  -0.00132   0.00000  -0.01904  -0.01953   0.21111
   D34        3.13999   0.00139   0.00000   0.01769   0.01767  -3.12552
   D35       -0.15629   0.00414   0.00000   0.03390   0.03338  -0.12291
   D36        2.99026   0.00374   0.00000   0.02199   0.02078   3.01104
   D37       -3.02221  -0.00227   0.00000  -0.01934  -0.01881  -3.04102
   D38        0.12434  -0.00267   0.00000  -0.03125  -0.03141   0.09293
   D39       -2.98010  -0.00178   0.00000  -0.03042  -0.03082  -3.01092
   D40        0.05709  -0.00087   0.00000  -0.01875  -0.01915   0.03793
   D41       -0.05447   0.00146   0.00000   0.00731   0.00663  -0.04784
   D42        2.98272   0.00237   0.00000   0.01898   0.01830   3.00102
   D43        2.93790   0.00510   0.00000   0.05836   0.05847   2.99637
   D44       -0.08357   0.00194   0.00000   0.02775   0.02824  -0.05533
   D45       -0.19782   0.00455   0.00000   0.04404   0.04385  -0.15397
   D46        3.06390   0.00139   0.00000   0.01343   0.01362   3.07752
   D47        2.96242   0.00379   0.00000   0.04150   0.04151   3.00393
   D48       -0.01872  -0.00171   0.00000  -0.00666  -0.00567  -0.02439
   D49       -0.06427   0.00178   0.00000   0.01588   0.01534  -0.04893
   D50       -3.04542  -0.00372   0.00000  -0.03229  -0.03184  -3.07725
   D51        3.01018   0.00432   0.00000   0.04043   0.03995   3.05013
   D52        0.09865  -0.00324   0.00000  -0.02747  -0.02709   0.07156
   D53        0.02168   0.00017   0.00000  -0.00146  -0.00219   0.01950
   D54       -2.88985  -0.00739   0.00000  -0.06936  -0.06922  -2.95907
   D55       -0.06269   0.00320   0.00000   0.02676   0.02625  -0.03644
   D56       -3.07580   0.00232   0.00000   0.01361   0.01290  -3.06290
   D57       -2.99064  -0.00288   0.00000  -0.03204  -0.03262  -3.02325
   D58        0.27944  -0.00376   0.00000  -0.04519  -0.04597   0.23347
   D59       -0.05518   0.00240   0.00000   0.02920   0.02944  -0.02574
   D60        2.95959   0.00456   0.00000   0.04674   0.04669   3.00628
         Item               Value     Threshold  Converged?
 Maximum Force            0.054879     0.000450     NO 
 RMS     Force            0.011979     0.000300     NO 
 Maximum Displacement     0.369672     0.001800     NO 
 RMS     Displacement     0.078482     0.001200     NO 
 Predicted change in Energy=-3.079713D-02
 Lowest energy point so far.  Saving SCF results.
 GradGradGradGradGradGradGradGradGradGradGradGradGradGradGradGradGradGrad

 Leave Link  103 at Sun Jul 11 16:25:32 2021, MaxMem=   104857600 cpu:               0.1 elap:               0.0
 (Enter /prod/apps/gaussian/g16b1/l202.exe)
                          Input orientation:                          
 ---------------------------------------------------------------------
 Center     Atomic      Atomic             Coordinates (Angstroms)
 Number     Number       Type             X           Y           Z
 ---------------------------------------------------------------------
      1          7           0       -4.047022    1.825604    0.164687
      2          1           0       -3.942739    2.777144    0.526336
      3          1           0       -4.421622    1.245471    0.917362
      4          6           0       -2.750439    1.299811   -0.333038
      5          1           0       -2.224222    2.095744   -0.857274
      6          1           0       -2.999027    0.536685   -1.076959
      7          6           0       -1.956686    0.619188    0.795203
      8          1           0       -2.610830   -0.133518    1.248816
      9          1           0       -1.871908    1.351698    1.609613
     10          6           0       -0.627375    0.097588    0.368437
     11          6           0        0.554182    0.781398    0.491592
     12          1           0        0.774574    1.784901    0.824866
[...]
                 (A) (A) (A) (A) (A) (A) (A) (A) (A) (A) (A) (A)
                 (A) (A) (A) (A) (A) (A) (A) (A) (A) (A) (A) (A)
                 (A) (A) (A) (A) (A) (A) (A) (A) (A) (A) (A) (A)
                 (A) (A) (A) (A) (A) (A) (A) (A) (A) (A) (A) (A)
                 (A) (A) (A) (A) (A) (A) (A) (A) (A) (A) (A) (A)
                 (A) (A) (A) (A) (A) (A) (A) (A) (A) (A) (A) (A)
                 (A) (A) (A) (A) (A) (A) (A) (A) (A) (A) (A) (A)
                 (A) (A) (A) (A) (A) (A) (A) (A) (A) (A) (A) (A)
                 (A) (A) (A) (A) (A) (A) (A) (A) (A) (A) (A) (A)
                 (A) (A) (A) (A) (A) (A) (A) (A) (A) (A) (A) (A)
                 (A) (A) (A) (A) (A) (A) (A) (A) (A) (A) (A) (A)
                 (A) (A) (A) (A) (A) (A) (A) (A) (A) (A) (A) (A)
                 (A) (A) (A) (A) (A) (A) (A) (A) (A) (A) (A) (A)
                 (A) (A) (A) (A) (A) (A) (A) (A) (A) (A) (A) (A)
                 (A) (A) (A) (A) (A) (A) (A) (A) (A) (A) (A) (A)
                 (A) (A) (A) (A) (A) (A) (A) (A) (A) (A) (A) (A)
                 (A) (A) (A) (A) (A) (A) (A) (A) (A) (A) (A) (A)
                 (A) (A) (A) (A) (A) (A) (A) (A) (A) (A) (A) (A)
                 (A) (A) (A) (A) (A) (A) (A) (A) (A) (A) (A) (A)
                 (A) (A) (A) (A) (A) (A) (A) (A) (A) (A) (A) (A)
                 (A) (A) (A) (A) (A) (A) (A) (A) (A) (A) (A) (A)
                 (A) (A) (A) (A) (A) (A) (A) (A) (A) (A) (A) (A)
                 (A) (A) (A) (A) (A) (A) (A) (A) (A) (A) (A) (A)
                 (A) (A) (A) (A) (A) (A) (A) (A) (A) (A) (A) (A)
                 (A) (A) (A) (A) (A) (A) (A) (A) (A) (A) (A) (A)
                 (A) (A) (A) (A) (A) (A) (A) (A) (A) (A) (A) (A)
                 (A) (A) (A) (A) (A)
 The electronic state is 1-A.
 Alpha  occ. eigenvalues --  -15.89216 -15.75651 -15.65616 -11.46524 -11.41668
 Alpha  occ. eigenvalues --  -11.39994 -11.39821 -11.38622 -11.37464 -11.35584
 Alpha  occ. eigenvalues --  -11.34551 -11.34489  -1.49901  -1.46654  -1.31927
 Alpha  occ. eigenvalues --   -1.22393  -1.21375  -1.12678  -1.10896  -1.04832
 Alpha  occ. eigenvalues --   -0.96906  -0.95795  -0.94758  -0.94074  -0.89540
 Alpha  occ. eigenvalues --   -0.83893  -0.81904  -0.80226  -0.76674  -0.76101
 Alpha  occ. eigenvalues --   -0.73502  -0.72904  -0.71424  -0.70035  -0.67683
 Alpha  occ. eigenvalues --   -0.67110  -0.63777  -0.62228  -0.56984  -0.54519
 Alpha  occ. eigenvalues --   -0.53622  -0.43059  -0.39131
 Alpha virt. eigenvalues --   -0.10816  -0.07159  -0.07091  -0.05553  -0.03822
 Alpha virt. eigenvalues --   -0.03363  -0.02971  -0.02832  -0.01838  -0.01534
 Alpha virt. eigenvalues --   -0.01431  -0.01014  -0.00465   0.00657   0.01377
 Alpha virt. eigenvalues --    0.01602   0.01978   0.02482   0.03476   0.04043
 Alpha virt. eigenvalues --    0.04161   0.04597   0.04695   0.05271   0.05792
 Alpha virt. eigenvalues --    0.06394   0.06629   0.06713   0.07123   0.07320
 Alpha virt. eigenvalues --    0.07479   0.08096   0.08272   0.08450   0.09003
 Alpha virt. eigenvalues --    0.09392   0.09837   0.10333   0.10962   0.11492
 Alpha virt. eigenvalues --    0.12173   0.12437   0.12952   0.13051   0.13490
 Alpha virt. eigenvalues --    0.13819   0.14540   0.15140   0.15547   0.16862
 Alpha virt. eigenvalues --    0.17915   0.18531   0.18905   0.19650   0.20118
 Alpha virt. eigenvalues --    0.20708   0.20923   0.21832   0.22117   0.22663
 Alpha virt. eigenvalues --    0.23223   0.23776   0.23964   0.24281   0.24948
 Alpha virt. eigenvalues --    0.25295   0.25618   0.26844   0.27110   0.27640
 Alpha virt. eigenvalues --    0.28342   0.29026   0.29592   0.30177   0.30263
 Alpha virt. eigenvalues --    0.30877   0.31698   0.31879   0.32544   0.32832
 Alpha virt. eigenvalues --    0.33397   0.33918   0.34082   0.34193   0.34411
 Alpha virt. eigenvalues --    0.35374   0.35440   0.36216   0.37125   0.37790
 Alpha virt. eigenvalues --    0.38402   0.38902   0.39502   0.40171   0.41014
 Alpha virt. eigenvalues --    0.41274   0.42037   0.42572   0.43430   0.44135
 Alpha virt. eigenvalues --    0.45284   0.46009   0.46192   0.46459   0.46709
 Alpha virt. eigenvalues --    0.47357   0.47977   0.48678   0.49052   0.50035
 Alpha virt. eigenvalues --    0.51092   0.51677   0.52037   0.52939   0.53305
 Alpha virt. eigenvalues --    0.54172   0.54505   0.54777   0.56717   0.57330
 Alpha virt. eigenvalues --    0.57650   0.58332   0.58737   0.58797   0.59172
 Alpha virt. eigenvalues --    0.59964   0.60459   0.60778   0.61850   0.62055
 Alpha virt. eigenvalues --    0.63327   0.63697   0.64644   0.64960   0.64992
 Alpha virt. eigenvalues --    0.65975   0.66764   0.67159   0.68018   0.68107
 Alpha virt. eigenvalues --    0.68254   0.68928   0.69811   0.70853   0.71577
 Alpha virt. eigenvalues --    0.74258   0.74638   0.75405   0.75946   0.77007
 Alpha virt. eigenvalues --    0.77347   0.77576   0.78687   0.79221   0.79429
 Alpha virt. eigenvalues --    0.79771   0.80977   0.81942   0.82517   0.83223
 Alpha virt. eigenvalues --    0.83478   0.84109   0.84495   0.85048   0.85811
 Alpha virt. eigenvalues --    0.86368   0.87104   0.89330   0.90328   0.90995
 Alpha virt. eigenvalues --    0.91658   0.93315   0.93795   0.94200   0.94924
 Alpha virt. eigenvalues --    0.96130   0.97607   0.98682   0.99544   1.00620
 Alpha virt. eigenvalues --    1.02160   1.03184   1.05423   1.06148   1.06828
 Alpha virt. eigenvalues --    1.08416   1.09036   1.09697   1.10707   1.13218
 Alpha virt. eigenvalues --    1.14078   1.14947   1.15376   1.18108   1.20022
 Alpha virt. eigenvalues --    1.21385   1.25135   1.26590   1.28485   1.29550
 Alpha virt. eigenvalues --    1.30757   1.31585   1.34034   1.34758   1.37357
 Alpha virt. eigenvalues --    1.38293   1.40161   1.42645   1.45046   1.46525
 Alpha virt. eigenvalues --    1.47930   1.49583   1.50455   1.51102   1.52337
 Alpha virt. eigenvalues --    1.52503   1.53883   1.54184   1.55932   1.57474
 Alpha virt. eigenvalues --    1.57783   1.58403   1.59671   1.60812   1.62283
 Alpha virt. eigenvalues --    1.63981   1.64942   1.66074   1.66984   1.67780
 Alpha virt. eigenvalues --    1.68604   1.69558   1.70294   1.71041   1.73289
 Alpha virt. eigenvalues --    1.74687   1.76505   1.77774   1.79256   1.81783
 Alpha virt. eigenvalues --    1.82359   1.83151   1.84083   1.84986   1.85544
 Alpha virt. eigenvalues --    1.86447   1.88322   1.89564   1.90409   1.91977
 Alpha virt. eigenvalues --    1.92318   1.92752   1.94615   1.95685   1.97639
 Alpha virt. eigenvalues --    1.99269   2.00856   2.01547   2.01933   2.03037
 Alpha virt. eigenvalues --    2.05345   2.05537   2.07106   2.08050   2.08326
 Alpha virt. eigenvalues --    2.09020   2.10576   2.12532   2.13900   2.15064
 Alpha virt. eigenvalues --    2.16310   2.17484   2.19497   2.20693   2.21656
 Alpha virt. eigenvalues --    2.22726   2.23982   2.25543   2.26538   2.27749
 Alpha virt. eigenvalues --    2.28367   2.30618   2.31533   2.33957   2.34614
 Alpha virt. eigenvalues --    2.35699   2.35915   2.38019   2.39954   2.42434
 Alpha virt. eigenvalues --    2.45021   2.47184   2.48160   2.50485   2.51100
 Alpha virt. eigenvalues --    2.53454   2.54207   2.56320   2.59145   2.60410
 Alpha virt. eigenvalues --    2.61572   2.64823   2.67582   2.68935   2.69715
 Alpha virt. eigenvalues --    2.71124   2.72562   2.73392   2.77398   2.79422
 Alpha virt. eigenvalues --    2.80062   2.81751   2.82142   2.82870   2.84309
 Alpha virt. eigenvalues --    2.86922   2.89326   2.89643   2.91952   2.97282
 Alpha virt. eigenvalues --    2.97927   2.99938   3.04189   3.04758   3.09317
 Alpha virt. eigenvalues --    3.11143   3.13551   3.22498   3.25334   3.34990
 Alpha virt. eigenvalues --    3.36532   3.38126   3.39389   3.41742   3.49379
 Alpha virt. eigenvalues --    3.51101   3.57885   3.64484   3.81826   4.23982
 Alpha virt. eigenvalues --    4.45392
          Condensed to atoms (all electrons):
               1          2          3          4          5          6
     1  N    6.723070   0.415324   0.416686  -0.213013  -0.123450  -0.143095
     2  H    0.415324   0.511671  -0.046729  -0.037253  -0.028166   0.019373
     3  H    0.416686  -0.046729   0.507404  -0.046209   0.024715  -0.029778
     4  C   -0.213013  -0.037253  -0.046209   4.775499   0.186910   0.323211
     5  H   -0.123450  -0.028166   0.024715   0.186910   1.264427  -0.121598
     6  H   -0.143095   0.019373  -0.029778   0.323211  -0.121598   1.147037
     7  C   -0.075526  -0.038250  -0.016541   0.582314   0.020439  -0.120937
     8  H   -0.011618  -0.010751   0.013702  -0.177902   0.063946  -0.037860
     9  H   -0.031450   0.010256  -0.013263  -0.044188  -0.081626   0.069956
    10  C    0.159182   0.022622   0.002635  -0.196395  -0.116653   0.033725
    11  C   -0.026801  -0.003224   0.004820  -0.021055   0.054883   0.005045
    12  H   -0.000632  -0.000102  -0.000088   0.009379   0.006393  -0.000141
    13  N    0.001913  -0.000029  -0.000311   0.000732   0.001294   0.003453
    14  C   -0.001291   0.000140  -0.000112   0.016957   0.002637  -0.000476
    15  H    0.000095  -0.000015   0.000003   0.000239  -0.000506   0.000295
    16  C   -0.000924  -0.000044   0.000104  -0.001180  -0.000837   0.002071
    17  H   -0.000021  -0.000003   0.000000  -0.000122   0.000039   0.000037
    18  C    0.001024   0.000157  -0.000101   0.003966  -0.000068  -0.001586
    19  H    0.000004   0.000003  -0.000004   0.000301   0.000015   0.000020
    20  C   -0.002897  -0.000288   0.000167  -0.051702  -0.003561   0.009562
    21  H   -0.000255  -0.000007   0.000006   0.001366   0.000277   0.000351
    22  C    0.035037   0.002157  -0.000401  -0.085531   0.007852  -0.022401
    23  N    0.014229   0.000347   0.002090  -0.040993   0.010714  -0.015900
    24  H    0.440528  -0.063204  -0.063105  -0.051924  -0.035264  -0.025161
               7          8          9         10         11         12
     1  N   -0.075526  -0.011618  -0.031450   0.159182  -0.026801  -0.000632
     2  H   -0.038250  -0.010751   0.010256   0.022622  -0.003224  -0.000102
     3  H   -0.016541   0.013702  -0.013263   0.002635   0.004820  -0.000088
     4  C    0.582314  -0.177902  -0.044188  -0.196395  -0.021055   0.009379
     5  H    0.020439   0.063946  -0.081626  -0.116653   0.054883   0.006393
     6  H   -0.120937  -0.037860   0.069956   0.033725   0.005045  -0.000141
     7  C    5.641570   0.305532  -0.017694  -0.312152   0.080066  -0.015276
     8  H    0.305532   1.000886  -0.094768  -0.279619   0.164829   0.009883
     9  H   -0.017694  -0.094768   1.212905   0.232689  -0.111595  -0.005795
    10  C   -0.312152  -0.279619   0.232689   8.050317  -1.902296   0.081824
    11  C    0.080066   0.164829  -0.111595  -1.902296   9.269089  -0.443376
    12  H   -0.015276   0.009883  -0.005795   0.081824  -0.443376   1.579794
    13  N   -0.013174  -0.008387   0.026394   0.401016  -0.110594   0.022856
    14  C   -0.047663   0.003590  -0.001451  -0.122554  -0.801774   0.142993
    15  H    0.019249  -0.000417   0.002185   0.000896  -0.004064  -0.055775
    16  C    0.062224   0.000574  -0.000833  -0.080772   0.352609  -0.022237
    17  H   -0.000071   0.000063   0.000116   0.001728   0.021268  -0.001475
    18  C   -0.038138  -0.001137  -0.001576  -0.311081  -0.080304   0.032960
    19  H    0.000120   0.000117  -0.000040   0.023857  -0.010824   0.001281
    20  C   -0.032614  -0.010334   0.015186   0.600636  -0.705964  -0.034995
    21  H    0.002110   0.001194  -0.000020  -0.049265   0.078171   0.002915
    22  C   -0.316700   0.023283  -0.025862  -0.596414  -1.032559   0.146587
    23  N   -0.036625   0.041263  -0.053014   0.055453   0.190430   0.013151
    24  H    0.035321  -0.002985   0.001757  -0.009470  -0.001995  -0.000070
              13         14         15         16         17         18
     1  N    0.001913  -0.001291   0.000095  -0.000924  -0.000021   0.001024
     2  H   -0.000029   0.000140  -0.000015  -0.000044  -0.000003   0.000157
     3  H   -0.000311  -0.000112   0.000003   0.000104   0.000000  -0.000101
     4  C    0.000732   0.016957   0.000239  -0.001180  -0.000122   0.003966
     5  H    0.001294   0.002637  -0.000506  -0.000837   0.000039  -0.000068
     6  H    0.003453  -0.000476   0.000295   0.002071   0.000037  -0.001586
     7  C   -0.013174  -0.047663   0.019249   0.062224  -0.000071  -0.038138
     8  H   -0.008387   0.003590  -0.000417   0.000574   0.000063  -0.001137
     9  H    0.026394  -0.001451   0.002185  -0.000833   0.000116  -0.001576
    10  C    0.401016  -0.122554   0.000896  -0.080772   0.001728  -0.311081
    11  C   -0.110594  -0.801774  -0.004064   0.352609   0.021268  -0.080304
    12  H    0.022856   0.142993  -0.055775  -0.022237  -0.001475   0.032960
    13  N    7.911884  -0.063698  -0.052587  -0.167140   0.031458  -0.379659
    14  C   -0.063698   7.395851  -0.375601  -1.388903   0.272404   0.797767
    15  H   -0.052587  -0.375601   1.729097   0.361053  -0.067048   0.021888
    16  C   -0.167140  -1.388903   0.361053   7.366999  -0.537678  -1.031786
    17  H    0.031458   0.272404  -0.067048  -0.537678   1.602345   0.244097
    18  C   -0.379659   0.797767   0.021888  -1.031786   0.244097   7.481216
    19  H    0.007804  -0.124581  -0.009468   0.250578  -0.061514  -0.406837
    20  C    0.106765  -0.602007   0.028102   1.076337  -0.081260  -1.413772
    21  H    0.037923   0.012359  -0.002738  -0.129346  -0.007839   0.268865
    22  C    0.164773   0.306432  -0.109768  -1.004238   0.011672   0.954842
    23  N   -0.174357  -0.095352   0.005984   0.113208  -0.000500  -0.090872
    24  H   -0.000020   0.000038  -0.000001  -0.000124  -0.000003   0.000100
              19         20         21         22         23         24
     1  N    0.000004  -0.002897  -0.000255   0.035037   0.014229   0.440528
     2  H    0.000003  -0.000288  -0.000007   0.002157   0.000347  -0.063204
     3  H   -0.000004   0.000167   0.000006  -0.000401   0.002090  -0.063105
     4  C    0.000301  -0.051702   0.001366  -0.085531  -0.040993  -0.051924
     5  H    0.000015  -0.003561   0.000277   0.007852   0.010714  -0.035264
     6  H    0.000020   0.009562   0.000351  -0.022401  -0.015900  -0.025161
     7  C    0.000120  -0.032614   0.002110  -0.316700  -0.036625   0.035321
     8  H    0.000117  -0.010334   0.001194   0.023283   0.041263  -0.002985
     9  H   -0.000040   0.015186  -0.000020  -0.025862  -0.053014   0.001757
    10  C    0.023857   0.600636  -0.049265  -0.596414   0.055453  -0.009470
    11  C   -0.010824  -0.705964   0.078171  -1.032559   0.190430  -0.001995
    12  H    0.001281  -0.034995   0.002915   0.146587   0.013151  -0.000070
    13  N    0.007804   0.106765   0.037923   0.164773  -0.174357  -0.000020
    14  C   -0.124581  -0.602007   0.012359   0.306432  -0.095352   0.000038
    15  H   -0.009468   0.028102  -0.002738  -0.109768   0.005984  -0.000001
    16  C    0.250578   1.076337  -0.129346  -1.004238   0.113208  -0.000124
    17  H   -0.061514  -0.081260  -0.007839   0.011672  -0.000500  -0.000003
    18  C   -0.406837  -1.413772   0.268865   0.954842  -0.090872   0.000100
    19  H    1.508205   0.313015  -0.058607  -0.027633   0.003437   0.000002
    20  C    0.313015   9.490823  -0.988828  -3.376742   0.213694  -0.000532
    21  H   -0.058607  -0.988828   1.642261   0.743070  -0.076041  -0.000008
    22  C   -0.027633  -3.376742   0.743070  10.459033   0.067704   0.000270
    23  N    0.003437   0.213694  -0.076041   0.067704   7.901009  -0.000578
    24  H    0.000002  -0.000532  -0.000008   0.000270  -0.000578   0.584156
 Mulliken charges:
               1
     1  N   -0.576117
     2  H    0.246015
     3  H    0.244310
     4  C    1.066593
     5  H   -0.132810
     6  H   -0.095202
     7  C    0.332417
     8  H    0.006915
     9  H   -0.088270
    10  C    0.310092
    11  C    1.035217
    12  H   -0.470052
    13  N   -0.748308
    14  C    0.674295
    15  H   -0.491098
    16  C    0.780287
    17  H   -0.427694
    18  C   -0.049965
    19  H   -0.409252
    20  C    1.451207
    21  H   -0.477912
    22  C   -0.324462
    23  N   -1.048480
    24  H    0.192275
 Sum of Mulliken charges =   1.00000
 Mulliken charges with hydrogens summed into heavy atoms:
               1
     1  N    0.106483
     4  C    0.838581
     7  C    0.251062
    10  C    0.310092
    11  C    0.565165
    13  N   -0.748308
    14  C    0.183197
    16  C    0.352593
    18  C   -0.459217
    20  C    0.973295
    22  C   -0.324462
    23  N   -1.048480
 Electronic spatial extent (au):  <R**2>=           2657.6731
 Charge=              1.0000 electrons
 Dipole moment (field-independent basis, Debye):
    X=             14.8390    Y=              1.4120    Z=              1.9499  Tot=             15.0330
 Quadrupole moment (field-independent basis, Debye-Ang):
   XX=             37.6248   YY=            -60.2737   ZZ=            -71.2147
   XY=             -3.6608   XZ=              4.3288   YZ=             -0.4424
 Traceless Quadrupole moment (field-independent basis, Debye-Ang):
   XX=             68.9126   YY=            -28.9858   ZZ=            -39.9268
   XY=             -3.6608   XZ=              4.3288   YZ=             -0.4424
 Octapole moment (field-independent basis, Debye-Ang**2):
  XXX=            401.7098  YYY=              9.6334  ZZZ=              4.3488  XYY=              5.1024
  XXY=            -27.0501  XXZ=             36.8691  XZZ=             34.5746  YZZ=             -1.8390
  YYZ=              3.6917  XYZ=             -4.5740
 Hexadecapole moment (field-independent basis, Debye-Ang**3):
 XXXX=           -451.3255 YYYY=           -394.0190 ZZZZ=           -142.4866 XXXY=           -111.9036
 XXXZ=            112.5875 YYYX=             -6.8730 YYYZ=              2.0030 ZZZX=             24.4132
 ZZZY=             -0.9900 XXYY=           -437.2057 XXZZ=           -463.2595 YYZZ=           -109.2049
 XXYZ=             -3.7874 YYXZ=              3.6592 ZZXY=            -15.2603
 N-N= 6.662986485122D+02 E-N=-2.511926035327D+03  KE= 5.102603622813D+02
 Leave Link  601 at Sun Jul 11 16:42:09 2021, MaxMem=   262144000 cpu:               0.5 elap:               0.2
 (Enter /prod/apps/gaussian/g16b1/l9999.exe)
 1\1\GINC-PIRINEUS48\SP\RMP2-FC\Aug-CC-pVDZ\C9H12N3(1+)\UBATOR02\11-Jul
 -2021\0\\#p mp2/aug-cc-pVDZ scf=tight maxdisk=180GB geom=allcheck\\SET
 _328_BBB315_conf1.geo_180_270 geometry\\1,1\N,0,-4.1011603053,1.627631
 3975,0.0292940542\H,0,-4.0483887172,2.4998443484,0.5812209222\H,0,-4.6
 147849576,0.9319826523,0.5936907611\C,0,-2.7373284151,1.1306439339,-0.
 3488872193\H,0,-2.2884167037,1.8952350872,-0.9811980315\H,0,-2.8809925
 104,0.2240316914,-0.9348057099\C,0,-1.8935578284,0.8591300832,0.894706
 9805\H,0,-2.4301206174,0.1590505778,1.5463355168\H,0,-1.7473528015,1.7
 867217365,1.4559281233\C,0,-0.5643201156,0.2758137451,0.5207572821\C,0
 ,0.6784963424,0.8400928821,0.7138490955\H,0,0.9917673869,1.7719546359,
 1.1556050279\N,0,1.5833061194,-0.0676673458,0.2022806551\C,0,2.9543013
 397,-0.0326668573,0.1304604501\H,0,3.4347599616,0.8460311415,0.5362040
 152\C,0,3.6182647172,-1.0838368952,-0.4357082388\H,0,4.6998095912,-1.0
 535647926,-0.491832098\C,0,2.8964325068,-2.2006128378,-0.9432414865\H,
 0,3.4377316157,-3.0269828075,-1.3890217623\C,0,1.5247758552,-2.2352531
 357,-0.8700732969\H,0,0.9482561638,-3.0712602035,-1.2467389546\C,0,0.8
 331482522,-1.1496581813,-0.2856417133\N,0,-0.4727881782,-0.946730466,-
 0.0946874097\H,0,-4.6738387015,1.82706961,-0.8114969632\\Version=ES64L
 -G16RevB.01\State=1-A\HF=-510.9912346\MP2=-512.7429655\RMSD=9.248e-09\
 PG=C01 [X(C9H12N3)]\\@


 Statistics are no substitute for judgment.
                            -- Henry Clay
 Job cpu time:       0 days  0 hours 20 minutes 16.6 seconds.
 Elapsed time:       0 days  0 hours  5 minutes 14.9 seconds.
 File lengths (MBytes):  RWF=  15977 Int=      0 D2E=      0 Chk=     13 Scr=      1
 Normal termination of Gaussian 16 at Sun Jul 11 16:42:10 2021.
