 Entering Gaussian System, Link 0=g16
 Input=SET_328_BBB324_conf1.geo_180_300_300_OCTANOL.dat
 Output=SET_328_BBB324_conf1.geo_180_300_300_OCTANOL.log
 Initial command:
 /dades/curu/g16A03_MST/g16/l1.exe "/tmp/ubator02/1839707/Gau-217881.inp" -scrdir="/tmp/ubator02/1839707/"
 Entering Link 1 = /dades/curu/g16A03_MST/g16/l1.exe PID=    217882.
  
 Copyright (c) 1988,1990,1992,1993,1995,1998,2003,2009,2016,
            Gaussian, Inc.  All Rights Reserved.
  
 This is part of the Gaussian(R) 16 program.  It is based on
 the Gaussian(R) 09 system (copyright 2009, Gaussian, Inc.),
 the Gaussian(R) 03 system (copyright 2003, Gaussian, Inc.),
 the Gaussian(R) 98 system (copyright 1998, Gaussian, Inc.),
 the Gaussian(R) 94 system (copyright 1995, Gaussian, Inc.),
 the Gaussian 92(TM) system (copyright 1992, Gaussian, Inc.),
 the Gaussian 90(TM) system (copyright 1990, Gaussian, Inc.),
 the Gaussian 88(TM) system (copyright 1988, Gaussian, Inc.),
 the Gaussian 86(TM) system (copyright 1986, Carnegie Mellon
 University), and the Gaussian 82(TM) system (copyright 1983,
 Carnegie Mellon University). Gaussian is a federally registered
 trademark of Gaussian, Inc.
  
 This software contains proprietary and confidential information,
 including trade secrets, belonging to Gaussian, Inc.
  
 This software is provided under written license and may be
 used, copied, transmitted, or stored only in accord with that
 written license.
  
 The following legend is applicable only to US Government
 contracts under FAR:
  
                    RESTRICTED RIGHTS LEGEND
  
 Use, reproduction and disclosure by the US Government is
 subject to restrictions as set forth in subparagraphs (a)
 and (c) of the Commercial Computer Software - Restricted
 Rights clause in FAR 52.227-19.
  
 Gaussian, Inc.
 340 Quinnipiac St., Bldg. 40, Wallingford CT 06492
  
  
 ---------------------------------------------------------------
 Warning -- This program may not be used in any manner that
 competes with the business of Gaussian, Inc. or will provide
 assistance to any competitor of Gaussian, Inc.  The licensee
 of this program is prohibited from giving any competitor of
 Gaussian, Inc. access to this program.  By using this program,
 the user acknowledges that Gaussian, Inc. is engaged in the
 business of creating and licensing software in the field of
 computational chemistry and represents and warrants to the
 licensee that it is not a competitor of Gaussian, Inc. and that
 it will not use this program in any manner prohibited above.
 ---------------------------------------------------------------
  

 Cite this work as:
 Gaussian 16, Revision A.03,
 M. J. Frisch, G. W. Trucks, H. B. Schlegel, G. E. Scuseria, 
 M. A. Robb, J. R. Cheeseman, G. Scalmani, V. Barone, 
 G. A. Petersson, H. Nakatsuji, X. Li, M. Caricato, A. V. Marenich, 
 J. Bloino, B. G. Janesko, R. Gomperts, B. Mennucci, H. P. Hratchian, 
 J. V. Ortiz, A. F. Izmaylov, J. L. Sonnenberg, D. Williams-Young, 
 F. Ding, F. Lipparini, F. Egidi, J. Goings, B. Peng, A. Petrone, 
 T. Henderson, D. Ranasinghe, V. G. Zakrzewski, J. Gao, N. Rega, 
 G. Zheng, W. Liang, M. Hada, M. Ehara, K. Toyota, R. Fukuda, 
 J. Hasegawa, M. Ishida, T. Nakajima, Y. Honda, O. Kitao, H. Nakai, 
 T. Vreven, K. Throssell, J. A. Montgomery, Jr., J. E. Peralta, 
 F. Ogliaro, M. J. Bearpark, J. J. Heyd, E. N. Brothers, K. N. Kudin, 
 V. N. Staroverov, T. A. Keith, R. Kobayashi, J. Normand, 
 K. Raghavachari, A. P. Rendell, J. C. Burant, S. S. Iyengar, 
 J. Tomasi, M. Cossi, J. M. Millam, M. Klene, C. Adamo, R. Cammi, 
 J. W. Ochterski, R. L. Martin, K. Morokuma, O. Farkas, 
 J. B. Foresman, and D. J. Fox, Gaussian, Inc., Wallingford CT, 2016.
 
 ******************************************
 Gaussian 16:  ES64L-G16RevA.03 25-Dec-2016
                18-Jul-2021 
 ******************************************
 %mem=800MB
 %nproc=4
 Will use up to    4 processors via shared memory.
 %chk=SET_328_BBB324_conf1.geo_180_300_300.chk
 ---------------------------------------------------------------
 #p b3lyp/6-31G(d) opt freq scrf=(iefpcm,read,solvent=n-octanol)
 ---------------------------------------------------------------
 1/18=20,19=15,26=3,38=1,40=2/1,3;
 2/9=110,12=2,17=6,18=5,40=1/2;
 3/5=1,6=6,7=1,11=2,25=1,30=1,70=2203,71=1,72=25,74=-5/1,2,3;
 4//1;
 5/5=2,38=5,53=25/2;
 6/7=2,8=2,9=2,10=2,28=1/1;
 7//1,2,3,16;
 1/18=20,19=15,26=3/3(2);
 2/9=110/2;
 99//99;
 2/9=110/2;
 3/5=1,6=6,7=1,11=2,25=1,30=1,70=2205,71=1,72=25,74=-5/1,2,3;
 4/5=5,16=3,69=1/1;
 5/5=2,38=5,53=25/2;
 7//1,2,3,16;
 1/18=20,19=15,26=3/3(-5);
 2/9=110/2;
 6/7=2,8=2,9=2,10=2,19=2,28=1/1;
 99/9=1/99;
 Leave Link    1 at Sun Jul 18 16:27:54 2021, MaxMem=   104857600 cpu:               0.0 elap:               0.0
 (Enter /dades/curu/g16A03_MST/g16/l101.exe)
 ---------------------------------------------
 SET_328_BBB324_conf1.geo_180_300_300 geometry
 ---------------------------------------------
 Symbolic Z-matrix:
 Charge =  1 Multiplicity = 1
 C                     1.512     0.648    -1.407 
 H                     1.99      1.629    -1.469 
 H                     1.873     0.053    -2.249 
 H                     1.744     0.131    -0.472 
 N                     0.043     0.811    -1.505 
 C                    -0.714     1.041    -0.259 
 H                    -1.33      1.912    -0.497 
 H                    -0.138     1.358     0.614 
 C                    -1.565    -0.221     0.011 
 C                    -1.296    -1.266     0.836 
 C                    -0.083    -1.326     1.669 
 N                     0.105    -2.495     2.361 
 O                     1.314    -2.313     3.003 
 C                     1.704    -1.068     2.662 
 N                     0.906    -0.391     1.89 
 C                     3.108    -0.544     3.168 
 C                     2.97      0.685     4.03 
 H                     3.939     1.036     4.393 
 H                     2.316     0.532     4.891 
 H                     2.49      1.524     3.522 
 O                     3.703    -1.458     4.153 
 H                     4.189    -2.164     3.69 
 C                     4.055    -0.26      1.988 
 O                     4.238    -1.517     1.253 
 H                     4.269    -1.297     0.304 
 H                     4.96      0.161     2.433 
 H                     3.639     0.484     1.303 
 N                    -2.267    -2.262     0.633 
 C                    -2.998    -1.834    -0.506 
 H                    -3.774    -2.392    -1.006 
 N                    -2.564    -0.605    -0.861 
 C                    -2.956     0.109    -1.902 
 C                    -4.334     0.188    -2.139 
 H                    -5.034    -0.274    -1.448 
 C                    -4.831     0.99     -3.149 
 H                    -5.908     1.049    -3.286 
 C                    -4.007     1.66     -3.958 
 H                    -4.441     2.251    -4.761 
 C                    -2.622     1.514    -3.793 
 Cl                   -1.629     2.36     -4.926 
 C                    -2.037     0.784    -2.757 
 C                    -0.597     0.609    -2.757 
 O                     0.059     0.169    -3.699 
 H                    -2.411    -3.091     1.173 
 
 ITRead=  0  0  0  0  0  0  0  0  0  0  0  0  0  0  0  0  0  0  0  0
 ITRead=  0  0  0  0  0  0  0  0  0  0  0  0  0  0  0  0  0  0  0  0
 ITRead=  0  0  0  0
 MicOpt= -1 -1 -1 -1 -1 -1 -1 -1 -1 -1 -1 -1 -1 -1 -1 -1 -1 -1 -1 -1
 MicOpt= -1 -1 -1 -1 -1 -1 -1 -1 -1 -1 -1 -1 -1 -1 -1 -1 -1 -1 -1 -1
 MicOpt= -1 -1 -1 -1
 NAtoms=     44 NQM=       44 NQMF=       0 NMMI=      0 NMMIF=      0
                NMic=       0 NMicF=      0.
                    Isotopes and Nuclear Properties:
 (Nuclear quadrupole moments (NQMom) in fm**2, nuclear magnetic moments (NMagM)
  in nuclear magnetons)

  Atom         1           2           3           4           5           6           7           8           9          10
 IAtWgt=          12           1           1           1          14          12           1           1          12          12
 AtmWgt=  12.0000000   1.0078250   1.0078250   1.0078250  14.0030740  12.0000000   1.0078250   1.0078250  12.0000000  12.0000000
 NucSpn=           0           1           1           1           2           0           1           1           0           0
 AtZEff=  -0.0000000  -0.0000000  -0.0000000  -0.0000000  -0.0000000  -0.0000000  -0.0000000  -0.0000000  -0.0000000  -0.0000000
 NQMom=    0.0000000   0.0000000   0.0000000   0.0000000   2.0440000   0.0000000   0.0000000   0.0000000   0.0000000   0.0000000
 NMagM=    0.0000000   2.7928460   2.7928460   2.7928460   0.4037610   0.0000000   2.7928460   2.7928460   0.0000000   0.0000000
 AtZNuc=   6.0000000   1.0000000   1.0000000   1.0000000   7.0000000   6.0000000   1.0000000   1.0000000   6.0000000   6.0000000

  Atom        11          12          13          14          15          16          17          18          19          20
 IAtWgt=          12          14          16          12          14          12          12           1           1           1
 AtmWgt=  12.0000000  14.0030740  15.9949146  12.0000000  14.0030740  12.0000000  12.0000000   1.0078250   1.0078250   1.0078250
 NucSpn=           0           2           0           0           2           0           0           1           1           1
 AtZEff=  -0.0000000  -0.0000000  -0.0000000  -0.0000000  -0.0000000  -0.0000000  -0.0000000  -0.0000000  -0.0000000  -0.0000000
 NQMom=    0.0000000   2.0440000   0.0000000   0.0000000   2.0440000   0.0000000   0.0000000   0.0000000   0.0000000   0.0000000
 NMagM=    0.0000000   0.4037610   0.0000000   0.0000000   0.4037610   0.0000000   0.0000000   2.7928460   2.7928460   2.7928460
 AtZNuc=   6.0000000   7.0000000   8.0000000   6.0000000   7.0000000   6.0000000   6.0000000   1.0000000   1.0000000   1.0000000

  Atom        21          22          23          24          25          26          27          28          29          30
 IAtWgt=          16           1          12          16           1           1           1          14          12           1
 AtmWgt=  15.9949146   1.0078250  12.0000000  15.9949146   1.0078250   1.0078250   1.0078250  14.0030740  12.0000000   1.0078250
 NucSpn=           0           1           0           0           1           1           1           2           0           1
 AtZEff=  -0.0000000  -0.0000000  -0.0000000  -0.0000000  -0.0000000  -0.0000000  -0.0000000  -0.0000000  -0.0000000  -0.0000000
 NQMom=    0.0000000   0.0000000   0.0000000   0.0000000   0.0000000   0.0000000   0.0000000   2.0440000   0.0000000   0.0000000
 NMagM=    0.0000000   2.7928460   0.0000000   0.0000000   2.7928460   2.7928460   2.7928460   0.4037610   0.0000000   2.7928460
 AtZNuc=   8.0000000   1.0000000   6.0000000   8.0000000   1.0000000   1.0000000   1.0000000   7.0000000   6.0000000   1.0000000

  Atom        31          32          33          34          35          36          37          38          39          40
 IAtWgt=          14          12          12           1          12           1          12           1          12          35
 AtmWgt=  14.0030740  12.0000000  12.0000000   1.0078250  12.0000000   1.0078250  12.0000000   1.0078250  12.0000000  34.9688527
 NucSpn=           2           0           0           1           0           1           0           1           0           3
 AtZEff=  -0.0000000  -0.0000000  -0.0000000  -0.0000000  -0.0000000  -0.0000000  -0.0000000  -0.0000000  -0.0000000  -0.0000000
 NQMom=    2.0440000   0.0000000   0.0000000   0.0000000   0.0000000   0.0000000   0.0000000   0.0000000   0.0000000  -8.1650000
 NMagM=    0.4037610   0.0000000   0.0000000   2.7928460   0.0000000   2.7928460   0.0000000   2.7928460   0.0000000   0.8218740
 AtZNuc=   7.0000000   6.0000000   6.0000000   1.0000000   6.0000000   1.0000000   6.0000000   1.0000000   6.0000000  17.0000000

  Atom        41          42          43          44
 IAtWgt=          12          12          16           1
 AtmWgt=  12.0000000  12.0000000  15.9949146   1.0078250
 NucSpn=           0           0           0           1
 AtZEff=  -0.0000000  -0.0000000  -0.0000000  -0.0000000
 NQMom=    0.0000000   0.0000000   0.0000000   0.0000000
 NMagM=    0.0000000   0.0000000   0.0000000   2.7928460
 AtZNuc=   6.0000000   6.0000000   8.0000000   1.0000000
 Leave Link  101 at Sun Jul 18 16:27:54 2021, MaxMem=   104857600 cpu:               0.1 elap:               0.1
 (Enter /dades/curu/g16A03_MST/g16/l103.exe)

 GradGradGradGradGradGradGradGradGradGradGradGradGradGradGradGradGradGrad
 Berny optimization.
 Initialization pass.
                           ----------------------------
                           !    Initial Parameters    !
                           ! (Angstroms and Degrees)  !
 --------------------------                            --------------------------
 ! Name  Definition              Value          Derivative Info.                !
 --------------------------------------------------------------------------------
 ! R1    R(1,2)                  1.093          estimate D2E/DX2                !
 ! R2    R(1,3)                  1.0924         estimate D2E/DX2                !
 ! R3    R(1,4)                  1.0933         estimate D2E/DX2                !
 ! R4    R(1,5)                  1.4813         estimate D2E/DX2                !
 ! R5    R(5,6)                  1.476          estimate D2E/DX2                !
 ! R6    R(5,42)                 1.4205         estimate D2E/DX2                !
 ! R7    R(6,7)                  1.093          estimate D2E/DX2                !
 ! R8    R(6,8)                  1.0929         estimate D2E/DX2                !
 ! R9    R(6,9)                  1.5459         estimate D2E/DX2                !
 ! R10   R(9,10)                 1.3583         estimate D2E/DX2                !
 ! R11   R(9,31)                 1.3805         estimate D2E/DX2                !
 ! R12   R(10,11)                1.4727         estimate D2E/DX2                !
 ! R13   R(10,28)                1.4057         estimate D2E/DX2                !
 ! R14   R(11,12)                1.3714         estimate D2E/DX2                !
 ! R15   R(11,15)                1.3788         estimate D2E/DX2                !
 ! R16   R(12,13)                1.3809         estimate D2E/DX2                !
 ! R17   R(13,14)                1.3485         estimate D2E/DX2                !
 ! R18   R(14,15)                1.3004         estimate D2E/DX2                !
 ! R19   R(14,16)                1.5817         estimate D2E/DX2                !
 ! R20   R(16,17)                1.5075         estimate D2E/DX2                !
 ! R21   R(16,21)                1.4696         estimate D2E/DX2                !
 ! R22   R(16,23)                1.5394         estimate D2E/DX2                !
 ! R23   R(17,18)                1.0927         estimate D2E/DX2                !
 ! R24   R(17,19)                1.092          estimate D2E/DX2                !
 ! R25   R(17,20)                1.092          estimate D2E/DX2                !
 ! R26   R(21,22)                0.9742         estimate D2E/DX2                !
 ! R27   R(23,24)                1.4676         estimate D2E/DX2                !
 ! R28   R(23,26)                1.0928         estimate D2E/DX2                !
 ! R29   R(23,27)                1.0935         estimate D2E/DX2                !
 ! R30   R(24,25)                0.9747         estimate D2E/DX2                !
 ! R31   R(28,29)                1.4195         estimate D2E/DX2                !
 ! R32   R(28,44)                0.9998         estimate D2E/DX2                !
 ! R33   R(29,30)                1.0787         estimate D2E/DX2                !
 ! R34   R(29,31)                1.3509         estimate D2E/DX2                !
 ! R35   R(31,32)                1.3218         estimate D2E/DX2                !
 ! R36   R(32,33)                1.4005         estimate D2E/DX2                !
 ! R37   R(32,41)                1.4252         estimate D2E/DX2                !
 ! R38   R(33,34)                1.0867         estimate D2E/DX2                !
 ! R39   R(33,35)                1.3821         estimate D2E/DX2                !
 ! R40   R(35,36)                1.0873         estimate D2E/DX2                !
 ! R41   R(35,37)                1.335          estimate D2E/DX2                !
 ! R42   R(37,38)                1.0874         estimate D2E/DX2                !
 ! R43   R(37,39)                1.4024         estimate D2E/DX2                !
 ! R44   R(39,40)                1.7278         estimate D2E/DX2                !
 ! R45   R(39,41)                1.3959         estimate D2E/DX2                !
 ! R46   R(41,42)                1.4506         estimate D2E/DX2                !
 ! R47   R(42,43)                1.2293         estimate D2E/DX2                !
 ! A1    A(2,1,3)              107.4945         estimate D2E/DX2                !
 ! A2    A(2,1,4)              112.3412         estimate D2E/DX2                !
 ! A3    A(2,1,5)              109.3407         estimate D2E/DX2                !
 ! A4    A(3,1,4)              109.3591         estimate D2E/DX2                !
 ! A5    A(3,1,5)              109.6744         estimate D2E/DX2                !
 ! A6    A(4,1,5)              108.6059         estimate D2E/DX2                !
 ! A7    A(1,5,6)              118.0302         estimate D2E/DX2                !
 ! A8    A(1,5,42)             119.3057         estimate D2E/DX2                !
 ! A9    A(6,5,42)             122.3525         estimate D2E/DX2                !
 ! A10   A(5,6,7)              103.262          estimate D2E/DX2                !
 ! A11   A(5,6,8)              116.6944         estimate D2E/DX2                !
 ! A12   A(5,6,9)              107.6122         estimate D2E/DX2                !
 ! A13   A(7,6,8)              103.876          estimate D2E/DX2                !
 ! A14   A(7,6,9)              112.2294         estimate D2E/DX2                !
 ! A15   A(8,6,9)              112.7936         estimate D2E/DX2                !
 ! A16   A(6,9,10)             128.6911         estimate D2E/DX2                !
 ! A17   A(6,9,31)             121.0051         estimate D2E/DX2                !
 ! A18   A(10,9,31)            108.2375         estimate D2E/DX2                !
 ! A19   A(9,10,11)            122.548          estimate D2E/DX2                !
 ! A20   A(9,10,28)            108.6988         estimate D2E/DX2                !
 ! A21   A(11,10,28)           128.4442         estimate D2E/DX2                !
 ! A22   A(10,11,12)           115.6612         estimate D2E/DX2                !
 ! A23   A(10,11,15)           130.8299         estimate D2E/DX2                !
 ! A24   A(12,11,15)           113.5045         estimate D2E/DX2                !
 ! A25   A(11,12,13)           104.02           estimate D2E/DX2                !
 ! A26   A(12,13,14)           104.9113         estimate D2E/DX2                !
 ! A27   A(13,14,15)           116.9551         estimate D2E/DX2                !
 ! A28   A(13,14,16)           118.7955         estimate D2E/DX2                !
 ! A29   A(15,14,16)           124.2041         estimate D2E/DX2                !
 ! A30   A(11,15,14)           100.5025         estimate D2E/DX2                !
 ! A31   A(14,16,17)           111.8238         estimate D2E/DX2                !
 ! A32   A(14,16,21)           111.5779         estimate D2E/DX2                !
 ! A33   A(14,16,23)           111.2198         estimate D2E/DX2                !
 ! A34   A(17,16,21)            99.2563         estimate D2E/DX2                !
 ! A35   A(17,16,23)           110.1337         estimate D2E/DX2                !
 ! A36   A(21,16,23)           112.2989         estimate D2E/DX2                !
 ! A37   A(16,17,18)           111.7569         estimate D2E/DX2                !
 ! A38   A(16,17,19)           113.0449         estimate D2E/DX2                !
 ! A39   A(16,17,20)           113.6171         estimate D2E/DX2                !
 ! A40   A(18,17,19)           108.3118         estimate D2E/DX2                !
 ! A41   A(18,17,20)           107.3111         estimate D2E/DX2                !
 ! A42   A(19,17,20)           102.1925         estimate D2E/DX2                !
 ! A43   A(16,21,22)           109.522          estimate D2E/DX2                !
 ! A44   A(16,23,24)           107.613          estimate D2E/DX2                !
 ! A45   A(16,23,26)           105.5675         estimate D2E/DX2                !
 ! A46   A(16,23,27)           111.8174         estimate D2E/DX2                !
 ! A47   A(24,23,26)           115.5078         estimate D2E/DX2                !
 ! A48   A(24,23,27)           108.4487         estimate D2E/DX2                !
 ! A49   A(26,23,27)           107.939          estimate D2E/DX2                !
 ! A50   A(23,24,25)           107.3541         estimate D2E/DX2                !
 ! A51   A(10,28,29)           104.9492         estimate D2E/DX2                !
 ! A52   A(10,28,44)           127.5163         estimate D2E/DX2                !
 ! A53   A(29,28,44)           127.5345         estimate D2E/DX2                !
 ! A54   A(28,29,30)           125.9054         estimate D2E/DX2                !
 ! A55   A(28,29,31)           108.6473         estimate D2E/DX2                !
 ! A56   A(30,29,31)           125.4469         estimate D2E/DX2                !
 ! A57   A(9,31,29)            108.6362         estimate D2E/DX2                !
 ! A58   A(9,31,32)            124.1815         estimate D2E/DX2                !
 ! A59   A(29,31,32)           127.0947         estimate D2E/DX2                !
 ! A60   A(31,32,33)           117.101          estimate D2E/DX2                !
 ! A61   A(31,32,41)           122.4847         estimate D2E/DX2                !
 ! A62   A(33,32,41)           120.4135         estimate D2E/DX2                !
 ! A63   A(32,33,34)           120.1475         estimate D2E/DX2                !
 ! A64   A(32,33,35)           120.6783         estimate D2E/DX2                !
 ! A65   A(34,33,35)           118.6673         estimate D2E/DX2                !
 ! A66   A(33,35,36)           118.6691         estimate D2E/DX2                !
 ! A67   A(33,35,37)           120.8024         estimate D2E/DX2                !
 ! A68   A(36,35,37)           120.5163         estimate D2E/DX2                !
 ! A69   A(35,37,38)           118.2879         estimate D2E/DX2                !
 ! A70   A(35,37,39)           119.078          estimate D2E/DX2                !
 ! A71   A(38,37,39)           122.522          estimate D2E/DX2                !
 ! A72   A(37,39,40)           116.0685         estimate D2E/DX2                !
 ! A73   A(37,39,41)           123.7562         estimate D2E/DX2                !
 ! A74   A(40,39,41)           120.1248         estimate D2E/DX2                !
 ! A75   A(32,41,39)           115.0052         estimate D2E/DX2                !
 ! A76   A(32,41,42)           125.6599         estimate D2E/DX2                !
 ! A77   A(39,41,42)           118.6285         estimate D2E/DX2                !
 ! A78   A(5,42,41)            115.4733         estimate D2E/DX2                !
 ! A79   A(5,42,43)            119.0671         estimate D2E/DX2                !
 ! A80   A(41,42,43)           124.9525         estimate D2E/DX2                !
 ! D1    D(2,1,5,6)            -88.396          estimate D2E/DX2                !
 ! D2    D(2,1,5,42)            97.8625         estimate D2E/DX2                !
 ! D3    D(3,1,5,6)            153.9687         estimate D2E/DX2                !
 ! D4    D(3,1,5,42)           -19.7729         estimate D2E/DX2                !
 ! D5    D(4,1,5,6)             34.5082         estimate D2E/DX2                !
 ! D6    D(4,1,5,42)          -139.2333         estimate D2E/DX2                !
 ! D7    D(1,5,6,7)            130.0811         estimate D2E/DX2                !
 ! D8    D(1,5,6,8)             16.8589         estimate D2E/DX2                !
 ! D9    D(1,5,6,9)           -111.0625         estimate D2E/DX2                !
 ! D10   D(42,5,6,7)           -56.3801         estimate D2E/DX2                !
 ! D11   D(42,5,6,8)          -169.6023         estimate D2E/DX2                !
 ! D12   D(42,5,6,9)            62.4764         estimate D2E/DX2                !
 ! D13   D(1,5,42,41)          179.7259         estimate D2E/DX2                !
 ! D14   D(1,5,42,43)            7.4895         estimate D2E/DX2                !
 ! D15   D(6,5,42,41)            6.2666         estimate D2E/DX2                !
 ! D16   D(6,5,42,43)         -165.9699         estimate D2E/DX2                !
 ! D17   D(5,6,9,10)            97.8912         estimate D2E/DX2                !
 ! D18   D(5,6,9,31)           -63.7526         estimate D2E/DX2                !
 ! D19   D(7,6,9,10)          -149.1698         estimate D2E/DX2                !
 ! D20   D(7,6,9,31)            49.1863         estimate D2E/DX2                !
 ! D21   D(8,6,9,10)           -32.2484         estimate D2E/DX2                !
 ! D22   D(8,6,9,31)           166.1077         estimate D2E/DX2                !
 ! D23   D(6,9,10,11)            1.589          estimate D2E/DX2                !
 ! D24   D(6,9,10,28)         -172.5209         estimate D2E/DX2                !
 ! D25   D(31,9,10,11)         165.0778         estimate D2E/DX2                !
 ! D26   D(31,9,10,28)          -9.0321         estimate D2E/DX2                !
 ! D27   D(6,9,31,29)          170.4279         estimate D2E/DX2                !
 ! D28   D(6,9,31,32)           -6.3783         estimate D2E/DX2                !
 ! D29   D(10,9,31,29)           5.4272         estimate D2E/DX2                !
 ! D30   D(10,9,31,32)        -171.379          estimate D2E/DX2                !
 ! D31   D(9,10,11,12)        -174.5976         estimate D2E/DX2                !
 ! D32   D(9,10,11,15)           6.2257         estimate D2E/DX2                !
 ! D33   D(28,10,11,12)         -1.7269         estimate D2E/DX2                !
 ! D34   D(28,10,11,15)        179.0964         estimate D2E/DX2                !
 ! D35   D(9,10,28,29)           8.9454         estimate D2E/DX2                !
 ! D36   D(9,10,28,44)        -171.0689         estimate D2E/DX2                !
 ! D37   D(11,10,28,29)       -164.7136         estimate D2E/DX2                !
 ! D38   D(11,10,28,44)         15.2721         estimate D2E/DX2                !
 ! D39   D(10,11,12,13)        177.6569         estimate D2E/DX2                !
 ! D40   D(15,11,12,13)         -3.0225         estimate D2E/DX2                !
 ! D41   D(10,11,15,14)       -177.4624         estimate D2E/DX2                !
 ! D42   D(12,11,15,14)          3.3469         estimate D2E/DX2                !
 ! D43   D(11,12,13,14)          1.3381         estimate D2E/DX2                !
 ! D44   D(12,13,14,15)          0.7898         estimate D2E/DX2                !
 ! D45   D(12,13,14,16)       -176.8654         estimate D2E/DX2                !
 ! D46   D(13,14,15,11)         -2.4776         estimate D2E/DX2                !
 ! D47   D(16,14,15,11)        175.0377         estimate D2E/DX2                !
 ! D48   D(13,14,16,17)       -119.6581         estimate D2E/DX2                !
 ! D49   D(13,14,16,21)         -9.4946         estimate D2E/DX2                !
 ! D50   D(13,14,16,23)        116.7524         estimate D2E/DX2                !
 ! D51   D(15,14,16,17)         62.8692         estimate D2E/DX2                !
 ! D52   D(15,14,16,21)        173.0327         estimate D2E/DX2                !
 ! D53   D(15,14,16,23)        -60.7203         estimate D2E/DX2                !
 ! D54   D(14,16,17,18)        179.0207         estimate D2E/DX2                !
 ! D55   D(14,16,17,19)         56.5138         estimate D2E/DX2                !
 ! D56   D(14,16,17,20)        -59.3668         estimate D2E/DX2                !
 ! D57   D(21,16,17,18)         61.2037         estimate D2E/DX2                !
 ! D58   D(21,16,17,19)        -61.3031         estimate D2E/DX2                !
 ! D59   D(21,16,17,20)       -177.1837         estimate D2E/DX2                !
 ! D60   D(23,16,17,18)        -56.7797         estimate D2E/DX2                !
 ! D61   D(23,16,17,19)       -179.2865         estimate D2E/DX2                !
 ! D62   D(23,16,17,20)         64.8329         estimate D2E/DX2                !
 ! D63   D(14,16,21,22)         85.2751         estimate D2E/DX2                !
 ! D64   D(17,16,21,22)       -156.7233         estimate D2E/DX2                !
 ! D65   D(23,16,21,22)        -40.378          estimate D2E/DX2                !
 ! D66   D(14,16,23,24)        -60.1075         estimate D2E/DX2                !
 ! D67   D(14,16,23,26)        176.0118         estimate D2E/DX2                !
 ! D68   D(14,16,23,27)         58.887          estimate D2E/DX2                !
 ! D69   D(17,16,23,24)        175.3446         estimate D2E/DX2                !
 ! D70   D(17,16,23,26)         51.464          estimate D2E/DX2                !
 ! D71   D(17,16,23,27)        -65.6608         estimate D2E/DX2                !
 ! D72   D(21,16,23,24)         65.7404         estimate D2E/DX2                !
 ! D73   D(21,16,23,26)        -58.1402         estimate D2E/DX2                !
 ! D74   D(21,16,23,27)       -175.265          estimate D2E/DX2                !
 ! D75   D(16,23,24,25)        142.0415         estimate D2E/DX2                !
 ! D76   D(26,23,24,25)       -100.3478         estimate D2E/DX2                !
 ! D77   D(27,23,24,25)         20.9129         estimate D2E/DX2                !
 ! D78   D(10,28,29,30)        174.6036         estimate D2E/DX2                !
 ! D79   D(10,28,29,31)         -5.6004         estimate D2E/DX2                !
 ! D80   D(44,28,29,30)         -5.3821         estimate D2E/DX2                !
 ! D81   D(44,28,29,31)        174.4139         estimate D2E/DX2                !
 ! D82   D(28,29,31,9)           0.2843         estimate D2E/DX2                !
 ! D83   D(28,29,31,32)        176.9718         estimate D2E/DX2                !
 ! D84   D(30,29,31,9)        -179.9185         estimate D2E/DX2                !
 ! D85   D(30,29,31,32)         -3.231          estimate D2E/DX2                !
 ! D86   D(9,31,32,33)        -138.0021         estimate D2E/DX2                !
 ! D87   D(9,31,32,41)          41.6829         estimate D2E/DX2                !
 ! D88   D(29,31,32,33)         45.7928         estimate D2E/DX2                !
 ! D89   D(29,31,32,41)       -134.5222         estimate D2E/DX2                !
 ! D90   D(31,32,33,34)          3.6855         estimate D2E/DX2                !
 ! D91   D(31,32,33,35)        175.4107         estimate D2E/DX2                !
 ! D92   D(41,32,33,34)       -176.0064         estimate D2E/DX2                !
 ! D93   D(41,32,33,35)         -4.2812         estimate D2E/DX2                !
 ! D94   D(31,32,41,39)       -178.7723         estimate D2E/DX2                !
 ! D95   D(31,32,41,42)         11.0463         estimate D2E/DX2                !
 ! D96   D(33,32,41,39)          0.9025         estimate D2E/DX2                !
 ! D97   D(33,32,41,42)       -169.2789         estimate D2E/DX2                !
 ! D98   D(32,33,35,36)       -178.2711         estimate D2E/DX2                !
 ! D99   D(32,33,35,37)          2.9909         estimate D2E/DX2                !
 ! D100  D(34,33,35,36)         -6.4255         estimate D2E/DX2                !
 ! D101  D(34,33,35,37)        174.8365         estimate D2E/DX2                !
 ! D102  D(33,35,37,38)        177.8675         estimate D2E/DX2                !
 ! D103  D(33,35,37,39)          1.6178         estimate D2E/DX2                !
 ! D104  D(36,35,37,38)         -0.8471         estimate D2E/DX2                !
 ! D105  D(36,35,37,39)       -177.0968         estimate D2E/DX2                !
 ! D106  D(35,37,39,40)        177.3544         estimate D2E/DX2                !
 ! D107  D(35,37,39,41)         -5.2338         estimate D2E/DX2                !
 ! D108  D(38,37,39,40)          1.2713         estimate D2E/DX2                !
 ! D109  D(38,37,39,41)        178.683          estimate D2E/DX2                !
 ! D110  D(37,39,41,32)          3.8258         estimate D2E/DX2                !
 ! D111  D(37,39,41,42)        174.7436         estimate D2E/DX2                !
 ! D112  D(40,39,41,32)       -178.8622         estimate D2E/DX2                !
 ! D113  D(40,39,41,42)         -7.9445         estimate D2E/DX2                !
 ! D114  D(32,41,42,5)         -54.9154         estimate D2E/DX2                !
 ! D115  D(32,41,42,43)        116.802          estimate D2E/DX2                !
 ! D116  D(39,41,42,5)         135.2256         estimate D2E/DX2                !
 ! D117  D(39,41,42,43)        -53.057          estimate D2E/DX2                !
 --------------------------------------------------------------------------------
 Trust Radius=3.00D-01 FncErr=1.00D-07 GrdErr=1.00D-06 EigMax=2.50D+02 EigMin=1.00D-04
 Number of steps in this run=    254 maximum allowed number of steps=    264.
 GradGradGradGradGradGradGradGradGradGradGradGradGradGradGradGradGradGrad

 Leave Link  103 at Sun Jul 18 16:27:54 2021, MaxMem=   104857600 cpu:               0.0 elap:               0.0
 (Enter /dades/curu/g16A03_MST/g16/l202.exe)
                          Input orientation:                          
 ---------------------------------------------------------------------
 Center     Atomic      Atomic             Coordinates (Angstroms)
 Number     Number       Type             X           Y           Z
 ---------------------------------------------------------------------
      1          6           0        1.512000    0.648000   -1.407000
      2          1           0        1.990000    1.629000   -1.469000
      3          1           0        1.873000    0.053000   -2.249000
      4          1           0        1.744000    0.131000   -0.472000
      5          7           0        0.043000    0.811000   -1.505000
      6          6           0       -0.714000    1.041000   -0.259000
      7          1           0       -1.330000    1.912000   -0.497000
      8          1           0       -0.138000    1.358000    0.614000
      9          6           0       -1.565000   -0.221000    0.011000
     10          6           0       -1.296000   -1.266000    0.836000
     11          6           0       -0.083000   -1.326000    1.669000
     12          7           0        0.105000   -2.495000    2.361000
     13          8           0        1.314000   -2.313000    3.003000
     14          6           0        1.704000   -1.068000    2.662000
     15          7           0        0.906000   -0.391000    1.890000
     16          6           0        3.108000   -0.544000    3.168000
     17          6           0        2.970000    0.685000    4.030000
     18          1           0        3.939000    1.036000    4.393000
     19          1           0        2.316000    0.532000    4.891000
     20          1           0        2.490000    1.524000    3.522000
     21          8           0        3.703000   -1.458000    4.153000
     22          1           0        4.189000   -2.164000    3.690000
     23          6           0        4.055000   -0.260000    1.988000
     24          8           0        4.238000   -1.517000    1.253000
     25          1           0        4.269000   -1.297000    0.304000
     26          1           0        4.960000    0.161000    2.433000
     27          1           0        3.639000    0.484000    1.303000
     28          7           0       -2.267000   -2.262000    0.633000
     29          6           0       -2.998000   -1.834000   -0.506000
     30          1           0       -3.774000   -2.392000   -1.006000
     31          7           0       -2.564000   -0.605000   -0.861000
     32          6           0       -2.956000    0.109000   -1.902000
     33          6           0       -4.334000    0.188000   -2.139000
     34          1           0       -5.034000   -0.274000   -1.448000
     35          6           0       -4.831000    0.990000   -3.149000
     36          1           0       -5.908000    1.049000   -3.286000
     37          6           0       -4.007000    1.660000   -3.958000
     38          1           0       -4.441000    2.251000   -4.761000
     39          6           0       -2.622000    1.514000   -3.793000
     40         17           0       -1.629000    2.360000   -4.926000
     41          6           0       -2.037000    0.784000   -2.757000
     42          6           0       -0.597000    0.609000   -2.757000
     43          8           0        0.059000    0.169000   -3.699000
     44          1           0       -2.411000   -3.091000    1.173000
 ---------------------------------------------------------------------
                    Distance matrix (angstroms):
                    1          2          3          4          5
     1  C    0.000000
     2  H    1.093018   0.000000
     3  H    1.092387   1.762346   0.000000
     4  H    1.093315   1.816185   1.783383   0.000000
     5  N    1.481261   2.112162   2.115892   2.103067   0.000000
     6  C    2.535237   3.020175   3.410105   2.629683   1.475962
     7  H    3.240796   3.470918   4.096901   3.552754   2.028150
     8  H    2.703894   2.990103   3.734155   2.495366   2.195935
     9  C    3.497687   4.272110   4.123411   3.362540   2.439046
    10  C    4.071770   4.948924   4.615143   3.592224   3.403988
    11  C    3.987791   4.782928   4.591111   3.169331   3.828436
    12  N    5.104500   5.935444   5.556098   4.196199   5.087184
    13  O    5.315527   5.999594   5.787395   4.270089   5.629998
    14  C    4.420213   4.941737   5.040151   3.355765   4.863481
    15  N    3.509554   4.066735   4.273587   2.560034   3.703458
    16  C    4.989860   5.241529   5.587980   3.945342   5.750407
    17  C    5.629219   5.664851   6.405363   4.698723   6.262542
    18  H    6.299276   6.205908   7.025013   5.413435   7.072188
    19  H    6.350171   6.462142   7.169748   5.408304   6.793614
    20  H    5.100873   5.017081   5.987401   4.295230   5.636214
    21  O    6.336349   6.638586   6.827710   5.268133   7.110339
    22  H    6.407268   6.770357   6.749123   5.344838   7.282030
    23  C    4.337896   4.447853   4.776114   3.397823   5.426254
    24  O    4.381084   4.728647   4.508007   3.451314   5.533911
    25  H    3.783067   4.110821   3.752483   3.002829   5.057195
    26  H    5.183770   5.118743   5.609132   4.333888   6.333027
    27  H    3.448931   3.422603   3.990140   2.620355   4.574168
    28  N    5.187537   6.138431   5.550203   4.799541   4.398917
    29  C    5.226110   6.148161   5.506856   5.133122   4.152313
    30  H    6.110990   7.043189   6.277872   6.090896   5.007764
    31  N    4.299058   5.108751   4.695368   4.387697   3.035826
    32  C    4.527535   5.192380   4.841775   4.912778   3.105546
    33  C    5.909580   6.520610   6.209442   6.302715   4.466342
    34  H    6.610740   7.277254   6.960975   6.859875   5.191956
    35  C    6.586743   7.053847   6.828732   7.150863   5.146907
    36  H    7.664714   8.125041   7.912733   8.204537   6.216350
    37  C    6.163693   6.493080   6.330682   6.896669   4.810458
    38  H    7.018343   7.251338   7.141985   7.819472   5.725504
    39  C    4.851073   5.165728   4.972271   5.657180   3.582091
    40  Cl   5.017986   5.057902   4.975197   6.015288   4.110745
    41  C    3.799526   4.311577   4.010053   4.465825   2.427887
    42  C    2.504377   3.064623   2.582266   3.306054   1.420531
    43  O    2.755706   3.291392   2.325199   3.640632   2.286057
    44  H    6.002204   6.973332   6.320402   5.509204   5.330985
                    6          7          8          9         10
     6  C    0.000000
     7  H    1.093042   0.000000
     8  H    1.092883   1.721076   0.000000
     9  C    1.545880   2.205216   2.212053   0.000000
    10  C    2.619160   3.446408   2.876738   1.358312   0.000000
    11  C    3.117376   4.090380   2.884425   2.483206   1.472704
    12  N    4.476434   5.445093   4.237531   3.671849   2.408084
    13  O    5.099289   6.090268   4.614311   4.649427   3.550239
    14  C    4.338991   5.297626   3.670524   4.293201   3.517596
    15  N    3.048479   4.000159   2.403563   3.108920   2.593327
    16  C    5.372545   6.257796   4.547201   5.648708   5.035347
    17  C    5.665167   6.363117   4.667081   6.126942   5.675103
    18  H    6.579631   7.241674   5.568344   7.146747   6.734737
    19  H    5.996873   6.650433   4.999712   6.280412   5.720347
    20  H    4.979444   5.558355   3.923061   5.640494   5.415948
    21  O    6.724629   7.636130   5.933604   6.814555   6.002446
    22  H    7.064420   8.037668   6.370965   7.100620   6.247955
    23  C    5.430007   6.315935   4.699686   5.957722   5.565280
    24  O    5.775103   6.769281   5.274782   6.074289   5.555362
    25  H    5.532947   6.502929   5.154297   5.939628   5.590457
    26  H    6.341572   7.156466   5.543571   6.970483   6.612433
    27  H    4.658187   5.474500   3.937553   5.408133   5.256883
    28  N    3.757297   4.424607   4.199691   2.246190   1.405726
    29  C    3.680121   4.100588   4.429770   2.218681   2.240623
    30  H    4.659088   4.975604   5.468765   3.259940   3.286537
    31  N    2.548376   2.826754   3.451734   1.380522   2.219134
    32  C    2.931661   2.805122   3.978867   2.388169   3.484662
    33  C    4.167302   3.833061   5.153089   3.529468   4.493794
    34  H    4.669619   4.404840   5.557525   3.763702   4.491477
    35  C    5.030347   4.487782   6.026595   4.703071   5.784979
    36  H    6.011691   5.429675   6.971254   5.598639   6.604593
    37  C    4.990953   4.382734   5.996962   5.025384   6.236460
    38  H    5.968470   5.289134   6.942902   6.095420   7.320295
    39  C    4.043927   3.562483   5.061249   4.312527   5.560064
    40  Cl   4.935370   4.461630   5.823975   5.571322   6.816114
    41  C    2.838377   2.622944   3.911434   2.982387   4.202527
    42  C    2.537778   2.709741   3.483579   3.047581   4.112648
    43  O    3.632012   3.901304   4.478225   4.068609   4.945854
    44  H    4.690827   5.384001   5.027187   3.209807   2.165045
                   11         12         13         14         15
    11  C    0.000000
    12  N    1.371411   0.000000
    13  O    2.169178   1.380930   0.000000
    14  C    2.060578   2.164193   1.348483   0.000000
    15  N    1.378835   2.300056   2.258167   1.300430   0.000000
    16  C    3.611233   3.670921   2.524881   1.581717   2.550588
    17  C    4.351925   4.594147   3.575621   2.558748   3.161878
    18  H    5.401454   5.594331   4.476441   3.523975   4.183351
    19  H    4.425907   4.522405   3.558451   2.811225   3.441806
    20  H    4.263383   4.815445   4.046592   2.841806   2.973164
    21  O    4.530064   4.151173   2.785829   2.524120   3.752715
    22  H    4.799653   4.307535   2.959695   2.904002   4.142658
    23  C    4.284993   4.553774   3.571850   2.575721   3.153247
    24  O    4.345179   4.389287   3.499413   2.933946   3.574335
    25  H    4.561137   4.796389   4.129029   3.491680   3.827009
    26  H    5.312882   5.534487   4.442847   3.487753   4.127283
    27  H    4.154918   4.741620   4.014827   2.828394   2.929075
    28  N    2.592151   2.943919   4.294539   4.616418   3.892123
    29  C    3.672317   4.276122   5.579952   5.721170   4.802529
    30  H    4.681395   5.137503   6.478122   6.724261   5.856041
    31  N    3.616089   4.590963   5.734688   5.553532   4.433362
    32  C    4.802645   5.858644   6.939597   6.628048   5.435468
    33  C    5.904580   6.866819   8.037106   7.815663   6.635185
    34  H    5.944308   6.771310   8.016609   7.932413   6.814656
    35  C    7.149859   8.177372   9.301502   8.983836   7.759630
    36  H    8.007701   8.978013  10.149475   9.889537   8.677279
    37  C    7.481785   8.608271   9.620462   9.158707   7.908431
    38  H    8.551725   9.690899  10.687835  10.192042   8.933441
    39  C    6.659247   7.834560   8.736340   8.188286   6.955020
    40  Cl   7.711727   8.926262   9.662671   8.968713   7.775094
    41  C    5.278228   6.444682   7.348347   6.840362   5.624632
    42  C    4.857767   6.026736   6.735548   6.121478   4.985340
    43  O    5.574102   6.619865   7.256180   6.685695   5.680487
    44  H    2.963246   2.845490   4.222536   4.821086   4.336655
                   16         17         18         19         20
    16  C    0.000000
    17  C    1.507491   0.000000
    18  H    2.165083   1.092671   0.000000
    19  H    2.180314   1.091992   1.770918   0.000000
    20  H    2.187205   1.091964   1.759655   1.699559   0.000000
    21  O    1.469573   2.268230   2.516611   2.535451   3.280526
    22  H    2.016295   3.117429   3.285835   3.495561   4.064009
    23  C    1.539437   2.498002   2.734428   3.475456   2.825781
    24  O    2.427108   3.764088   4.057932   4.596469   4.177505
    25  H    3.180790   4.415745   4.719291   5.310369   4.634480
    26  H    2.113564   2.604820   2.376903   3.629069   3.024002
    27  H    2.194760   2.815047   3.153221   3.824445   2.706614
    28  N    6.186144   6.902940   7.970498   6.851342   6.731208
    29  C    7.241934   7.908077   8.964322   7.934996   7.590724
    30  H    8.258287   8.961627  10.019519   8.967301   8.664614
    31  N    6.957596   7.497409   8.519766   7.628412   7.020416
    32  C    7.931167   8.404634   9.382291   8.609167   7.815428
    33  C    9.169702   9.573504  10.574907   9.683064   8.966537
    34  H    9.363361   9.746393  10.786478   9.739356   9.194796
    35  C   10.260866  10.605973  11.567056  10.767125   9.918893
    36  H   11.201787  11.509789  12.487218  11.608824  10.821317
    37  C   10.308284  10.650695  11.544154  10.934236   9.908577
    38  H   11.299047  11.604178  12.469817  11.906852  10.824758
    39  C    9.247907   9.651789  10.501705  10.037929   8.924229
    40  Cl   9.817598  10.206192  10.936149  10.736764   9.435770
    41  C    7.958658   8.434644   9.321941   8.803637   7.776064
    42  C    7.082518   7.667635   8.478215   8.184339   7.056390
    43  O    7.547215   8.275120   9.015906   8.888977   7.738774
    44  H    6.397390   7.167690   8.229400   7.020982   7.129925
                   21         22         23         24         25
    21  O    0.000000
    22  H    0.974167   0.000000
    23  C    2.499266   2.557338   0.000000
    24  O    2.949526   2.521900   1.467570   0.000000
    25  H    3.893723   3.496153   1.989226   0.974660   0.000000
    26  H    2.675745   2.753201   1.092836   2.174711   2.671308
    27  H    3.449342   3.607239   1.093534   2.089331   2.137022
    28  N    6.976942   7.143864   6.768435   6.576812   6.615041
    29  C    8.170132   8.328763   7.644758   7.453473   7.331695
    30  H    9.131986   9.247366   8.648855   8.370236   8.222224
    31  N    8.071127   8.291266   7.214360   7.181082   6.966059
    32  C    9.135688   9.353503   8.026355   8.021941   7.684003
    33  C   10.338856  10.590122   9.359923   9.375067   9.065599
    34  H   10.445488  10.725431   9.716801   9.737065   9.521651
    35  C   11.495263  11.750746  10.339839  10.387946   9.998179
    36  H   12.409476  12.686109  11.348565  11.407375  11.043693
    37  C   11.616985  11.844378  10.199861  10.258064   9.767327
    38  H   12.630947  12.860347  11.137151  11.211202  10.682070
    39  C   10.581934  10.766276   9.008294   9.039285   8.495470
    40  Cl  11.199803  11.338040   9.326074   9.361242   8.689819
    41  C    9.258632   9.434913   7.792139   7.794250   7.312039
    42  C    8.397058   8.494653   6.701589   6.631531   6.056444
    43  O    8.807938   8.780496   6.963765   6.695442   5.991433
    44  H    6.994861   7.124228   7.105487   6.833233   6.971083
                   26         27         28         29         30
    26  H    0.000000
    27  H    1.768126   0.000000
    28  N    7.832015   6.547538   0.000000
    29  C    8.714787   7.259158   1.419460   0.000000
    30  H    9.727656   8.279820   2.230307   1.078675   0.000000
    31  N    8.249107   6.659281   2.250754   1.350860   2.162983
    32  C    9.025408   7.342117   3.538727   2.392870   2.779738
    33  C   10.357719   8.689287   4.237803   2.922340   2.872923
    34  H   10.729931   9.130361   3.992367   2.732446   2.503775
    35  C   11.300869   9.582131   5.608308   4.280224   4.140969
    36  H   12.312958  10.607703   6.291118   4.950575   4.646809
    37  C   11.113009   9.355341   6.283865   5.014222   5.018695
    38  H   12.020838  10.255768   7.361296   6.072438   6.008524
    39  C    9.903555   8.138196   5.828694   4.706894   4.934705
    40  Cl  10.119555   8.370881   7.257576   6.245014   6.522954
    41  C    8.733970   6.985025   4.563235   3.583915   4.021212
    42  C    7.616893   5.868809   4.745908   4.098787   4.708007
    43  O    7.849923   6.159191   5.485094   4.853093   5.338807
    44  H    8.154431   7.028515   0.999788   2.177994   2.663534
                   31         32         33         34         35
    31  N    0.000000
    32  C    1.321795   0.000000
    33  C    2.322721   1.400462   0.000000
    34  H    2.560279   2.161224   1.086704   0.000000
    35  C    3.594198   2.418015   1.382141   2.128921   0.000000
    36  H    4.449570   3.393134   2.129414   2.427437   1.087281
    37  C    4.099254   2.781607   2.362726   3.330944   1.335049
    38  H    5.185544   3.868756   3.338009   4.207522   2.083450
    39  C    3.618031   2.379383   2.724874   3.809687   2.359871
    40  Cl   5.117585   3.996562   4.449941   5.534299   3.909915
    41  C    2.408706   1.425206   2.452213   3.437274   2.828875
    42  C    2.989599   2.558497   3.811080   4.709579   4.269143
    43  O    3.941250   3.510418   4.661803   5.585866   4.988852
    44  H    3.215705   4.471314   5.041737   4.656743   6.417994
                   36         37         38         39         40
    36  H    0.000000
    37  C    2.106824   0.000000
    38  H    2.402607   1.087403   0.000000
    39  C    3.357241   1.402414   2.188368   0.000000
    40  Cl   4.766357   2.661185   2.818945   1.727847   0.000000
    41  C    3.915955   2.467930   3.456490   1.395859   2.711974
    42  C    5.355386   3.764984   4.635571   2.448049   2.972471
    43  O    6.045664   4.338493   5.070756   3.000937   3.025782
    44  H    7.017926   7.172613   8.238338   6.775817   8.217221
                   41         42         43         44
    41  C    0.000000
    42  C    1.450595   0.000000
    43  O    2.378824   1.229349   0.000000
    44  H    5.531763   5.694339   6.361201   0.000000
 Stoichiometry    C17H17ClN5O4(1+)
 Framework group  C1[X(C17H17ClN5O4)]
 Deg. of freedom   126
 Full point group                 C1      NOp   1
 Largest Abelian subgroup         C1      NOp   1
 Largest concise Abelian subgroup C1      NOp   1
                         Standard orientation:                         
 ---------------------------------------------------------------------
 Center     Atomic      Atomic             Coordinates (Angstroms)
 Number     Number       Type             X           Y           Z
 ---------------------------------------------------------------------
      1          6           0       -0.189090   -2.184913   -0.374225
      2          1           0       -0.206313   -3.060460    0.279846
      3          1           0        0.049722   -2.532462   -1.381939
      4          1           0       -1.147441   -1.658931   -0.389872
      5          7           0        0.857893   -1.245828    0.090620
      6          6           0        0.486009   -0.238334    1.103104
      7          1           0        1.266750   -0.344177    1.860721
      8          1           0       -0.440486   -0.415669    1.654966
      9          6           0        0.519445    1.147269    0.418465
     10          6           0       -0.512212    1.864569   -0.097459
     11          6           0       -1.907922    1.397995   -0.041254
     12          7           0       -2.821386    2.175965   -0.705419
     13          8           0       -4.015336    1.500949   -0.544781
     14          6           0       -3.707596    0.426200    0.209286
     15          7           0       -2.468593    0.305126    0.585223
     16          6           0       -4.842019   -0.627409    0.533044
     17          6           0       -5.081157   -0.755578    2.015918
     18          1           0       -5.876792   -1.470972    2.237519
     19          1           0       -5.331675    0.194600    2.492204
     20          1           0       -4.197586   -1.068454    2.576093
     21          8           0       -6.165845   -0.139898    0.121385
     22          1           0       -6.310916   -0.346939   -0.819407
     23          6           0       -4.512642   -2.004310   -0.071538
     24          8           0       -4.401856   -1.836004   -1.525210
     25          1           0       -3.673905   -2.408251   -1.829484
     26          1           0       -5.310201   -2.671041    0.265597
     27          1           0       -3.563889   -2.396929    0.304674
     28          7           0        0.008813    2.983731   -0.769824
     29          6           0        1.411972    2.771547   -0.801233
     30          1           0        2.133833    3.388967   -1.312360
     31          7           0        1.697988    1.666522   -0.078780
     32          6           0        2.884209    1.107562    0.087309
     33          6           0        3.954128    1.959210    0.389407
     34          1           0        3.780963    3.021793    0.537244
     35          6           0        5.206230    1.446013    0.670802
     36          1           0        6.006523    2.135274    0.928925
     37          6           0        5.437944    0.132974    0.603015
     38          1           0        6.446674   -0.223058    0.798337
     39          6           0        4.399668   -0.722839    0.207625
     40         17           0        4.803927   -2.397734    0.078186
     41          6           0        3.090289   -0.298260   -0.024068
     42          6           0        2.130423   -1.255359   -0.540636
     43          8           0        2.292706   -1.942308   -1.547148
     44          1           0       -0.498424    3.759640   -1.144328
 ---------------------------------------------------------------------
 Rotational constants (GHZ):           0.3828921           0.0959037           0.0824740
 Leave Link  202 at Sun Jul 18 16:27:55 2021, MaxMem=   104857600 cpu:               0.0 elap:               0.0
 (Enter /dades/curu/g16A03_MST/g16/l301.exe)
 Standard basis: 6-31G(d) (6D, 7F)
 Ernie: Thresh=  0.10000D-02 Tol=  0.10000D-05 Strict=F.
 There are   443 symmetry adapted cartesian basis functions of A   symmetry.
 There are   443 symmetry adapted basis functions of A   symmetry.
   443 basis functions,   848 primitive gaussians,   443 cartesian basis functions
   101 alpha electrons      101 beta electrons
       nuclear repulsion energy      2674.0487035868 Hartrees.
 IExCor=  402 DFT=T Ex+Corr=B3LYP ExCW=0 ScaHFX=  0.200000
 ScaDFX=  0.800000  0.720000  1.000000  0.810000 ScalE2=  1.000000  1.000000
 IRadAn=      5 IRanWt=     -1 IRanGd=            0 ICorTp=0 IEmpDi=  4
 NAtoms=   44 NActive=   44 NUniq=   44 SFac= 1.00D+00 NAtFMM=   60 NAOKFM=F Big=F
 Integral buffers will be    131072 words long.
 Raffenetti 2 integral format.
 Two-electron integral symmetry is turned on.
 Using the following non-standard input for PCM:
 MSTModel=DFT cav MSTCharged
 --- end of non-standard input.
 MST model for solvation energy: B3LYP parametrization.
 MST cavity parameters:
 ISph   IAn     Re0     Alpha   Atom Type   QCorr
 ------------------------------------------------
   1      6     1.50     1.50      CH3        F
   2      1     1.20     1.50      CH3        F
   3      1     1.20     1.50      CH3        F
   4      1     1.20     1.50      CH3        F
   5      7     1.50     1.50      N          F
   6      6     1.50     1.50      CH2        F
   7      1     1.20     1.50      CH2        F
   8      1     1.20     1.50      CH2        F
   9      6     1.50     1.50      C          F
  10      6     1.50     1.50      C          F
  11      6     1.50     1.50      C          F
  12      7     1.50     1.50      Nc         F
  13      8     1.40     1.50      O          F
  14      6     1.50     1.50      C          F
  15      7     1.50     1.50      Nc         F
  16      6     1.50     1.50      C          F
  17      6     1.50     1.50      CH3        F
  18      1     1.20     1.50      CH3        F
  19      1     1.20     1.50      CH3        F
  20      1     1.20     1.50      CH3        F
  21      8     1.40     1.50      OH         F
  22      1     0.90     1.50      OH         F
  23      6     1.50     1.50      CH2        F
  24      8     1.40     1.50      OH         F
  25      1     0.90     1.50      OH         F
  26      1     1.20     1.50      CH2        F
  27      1     1.20     1.50      CH2        F
  28      7     1.50     1.15      NHc        T
  29      6     1.50     1.50      CH         F
  30      1     1.20     1.50      CH         F
  31      7     1.50     1.50      Nc         F
  32      6     1.50     1.50      C          F
  33      6     1.50     1.50      CH         F
  34      1     1.20     1.50      CH         F
  35      6     1.50     1.50      CH         F
  36      1     1.20     1.50      CH         F
  37      6     1.50     1.50      CH         F
  38      1     1.20     1.50      CH         F
  39      6     1.50     1.50      C          F
  40     17     1.80     1.50      Cl         F
  41      6     1.50     1.50      C          F
  42      6     1.50     1.50      C          F
  43      8     1.40     1.50      O          F
  44      1     0.90     1.15      NHc        T
 ------------------------------------------------------------------------------
 Polarizable Continuum Model (PCM)
 =================================
 Model                : PCM.
 Atomic radii         : MST.
 Polarization charges : Total charges.
 Charge compensation  : None.
 Solution method      : On-the-fly selection.
 Cavity type          : Scaled VdW (van der Waals Surface) (Alpha=1.500).
 Cavity algorithm     : GePol (No added spheres)
                        Default sphere list used, NSphG=   44.
                        Lebedev-Laikov grids with approx.  5.0 points / Ang**2.
                        Smoothing algorithm: York/Karplus (Gamma=1.0000).
                        Polarization charges: spherical gaussians, with
                                              point-specific exponents (IZeta= 3).
                        Self-potential: point-specific (ISelfS= 7).
                        Self-field    : sphere-specific E.n sum rule (ISelfD= 2).
 1st derivatives      : Analytical E(r).r(x)/FMM algorithm (CHGder, D1EAlg=3).
                        Cavity 1st derivative terms included.
 Solvent              : n-Octanol, Eps=   9.862900 Eps(inf)=   2.043470
 ------------------------------------------------------------------------------
 GePol: Number of generator spheres                  =      44
 GePol: Total number of spheres                      =      44
 GePol: Number of exposed spheres                    =      44 (100.00%)
 GePol: Number of points                             =    3999
 GePol: Average weight of points                     =       0.11
 GePol: Minimum weight of points                     =   0.17D-11
 GePol: Maximum weight of points                     =    0.21306
 GePol: Number of points with low weight             =     225
 GePol: Fraction of low-weight points (<1% of avg)   =       5.63%
 GePol: Cavity surface area                          =    450.745 Ang**2
 GePol: Cavity volume                                =    560.572 Ang**3
 Surface areas from nonelectrostatic (unscaled) cavity and vdw tensions:
 Sphere =    1 Type =  CH3 Surf =        5.191 Tension =       -0.183
 Sphere =    2 Type =  CH3 Surf =       10.130 Tension =       -0.183
 Sphere =    3 Type =  CH3 Surf =        9.199 Tension =       -0.183
 Sphere =    4 Type =  CH3 Surf =        9.469 Tension =       -0.183
 Sphere =    5 Type =  N   Surf =        5.741 Tension =       -0.115
 Sphere =    6 Type =  CH2 Surf =        3.846 Tension =       -0.194
 Sphere =    7 Type =  CH2 Surf =        9.621 Tension =       -0.194
 Sphere =    8 Type =  CH2 Surf =        8.912 Tension =       -0.194
 Sphere =    9 Type =  C   Surf =        6.082 Tension =       -0.205
 Sphere =   10 Type =  C   Surf =        6.346 Tension =       -0.205
 Sphere =   11 Type =  C   Surf =        6.255 Tension =       -0.205
 Sphere =   12 Type =  Nc  Surf =       14.118 Tension =       -0.161
 Sphere =   13 Type =  O   Surf =       11.045 Tension =       -0.185
 Sphere =   14 Type =  C   Surf =        6.371 Tension =       -0.205
 Sphere =   15 Type =  Nc  Surf =       11.797 Tension =       -0.161
 Sphere =   16 Type =  C   Surf =        2.345 Tension =       -0.205
 Sphere =   17 Type =  CH3 Surf =        4.494 Tension =       -0.183
 Sphere =   18 Type =  CH3 Surf =        9.984 Tension =       -0.183
 Sphere =   19 Type =  CH3 Surf =       10.055 Tension =       -0.183
 Sphere =   20 Type =  CH3 Surf =       10.080 Tension =       -0.183
 Sphere =   21 Type =  OH  Surf =       14.034 Tension =       -0.238
 Sphere =   22 Type =  OH  Surf =        4.485 Tension =       -0.238
 Sphere =   23 Type =  CH2 Surf =        4.457 Tension =       -0.194
 Sphere =   24 Type =  OH  Surf =       14.725 Tension =       -0.238
 Sphere =   25 Type =  OH  Surf =        4.467 Tension =       -0.238
 Sphere =   26 Type =  CH2 Surf =        9.864 Tension =       -0.194
 Sphere =   27 Type =  CH2 Surf =       10.106 Tension =       -0.194
 Sphere =   28 Type =  NHc Surf =       11.211 Tension =       -0.295
 Sphere =   29 Type =  CH  Surf =        7.957 Tension =       -0.195
 Sphere =   30 Type =  CH  Surf =       10.248 Tension =       -0.195
 Sphere =   31 Type =  Nc  Surf =        5.332 Tension =       -0.161
 Sphere =   32 Type =  C   Surf =        5.617 Tension =       -0.205
 Sphere =   33 Type =  CH  Surf =        7.491 Tension =       -0.195
 Sphere =   34 Type =  CH  Surf =       10.076 Tension =       -0.195
 Sphere =   35 Type =  CH  Surf =        7.491 Tension =       -0.195
 Sphere =   36 Type =  CH  Surf =       10.207 Tension =       -0.195
 Sphere =   37 Type =  CH  Surf =        7.278 Tension =       -0.195
 Sphere =   38 Type =  CH  Surf =       10.032 Tension =       -0.195
 Sphere =   39 Type =  C   Surf =        5.215 Tension =       -0.205
 Sphere =   40 Type =  Cl  Surf =       30.962 Tension =       -0.163
 Sphere =   41 Type =  C   Surf =        5.536 Tension =       -0.205
 Sphere =   42 Type =  C   Surf =        5.730 Tension =       -0.205
 Sphere =   43 Type =  O   Surf =       14.917 Tension =       -0.185
 Sphere =   44 Type =  NHc Surf =        3.863 Tension =       -0.295
 PCM non-electrostatic energy =        -0.0211087871 Hartrees.
 Nuclear repulsion after PCM non-electrostatic terms =     2674.0275947997 Hartrees.
 Leave Link  301 at Sun Jul 18 16:27:55 2021, MaxMem=   104857600 cpu:               0.2 elap:               0.3
 (Enter /dades/curu/g16A03_MST/g16/l302.exe)
 NPDir=0 NMtPBC=     1 NCelOv=     1 NCel=       1 NClECP=     1 NCelD=      1
         NCelK=      1 NCelE2=     1 NClLst=     1 CellRange=     0.0.
 One-electron integrals computed using PRISM.
 One-electron integral symmetry used in STVInt
 NBasis=   443 RedAO= T EigKep=  3.52D-04  NBF=   443
 NBsUse=   443 1.00D-06 EigRej= -1.00D+00 NBFU=   443
 Precomputing XC quadrature grid using
 IXCGrd= 4 IRadAn=           5 IRanWt=          -1 IRanGd=           0 AccXCQ= 0.00D+00.
 Generated NRdTot=       0 NPtTot=           0 NUsed=           0 NTot=          32
 NSgBfM=   436   436   436   436   436 MxSgAt=    44 MxSgA2=    44.
 Leave Link  302 at Sun Jul 18 16:28:03 2021, MaxMem=   104857600 cpu:               7.7 elap:               7.6
 (Enter /dades/curu/g16A03_MST/g16/l303.exe)
 DipDrv:  MaxL=1.
 Leave Link  303 at Sun Jul 18 16:28:03 2021, MaxMem=   104857600 cpu:               0.1 elap:               0.1
 (Enter /dades/curu/g16A03_MST/g16/l401.exe)
 ExpMin= 1.43D-01 ExpMax= 2.52D+04 ExpMxC= 3.78D+03 IAcc=3 IRadAn=         5 AccDes= 0.00D+00
 Harris functional with IExCor=  402 and IRadAn=       5 diagonalized for initial guess.
 HarFok:  IExCor=  402 AccDes= 0.00D+00 IRadAn=         5 IDoV= 1 UseB2=F ITyADJ=14
 ICtDFT=  3500011 ScaDFX=  1.000000  1.000000  1.000000  1.000000
 FoFCou: FMM=F IPFlag=           0 FMFlag=      100000 FMFlg1=           0
         NFxFlg=           0 DoJE=T BraDBF=F KetDBF=T FulRan=T
         wScrn=  0.000000 ICntrl=       500 IOpCl=  0 I1Cent=   200000004 NGrid=           0
         NMat0=    1 NMatS0=      1 NMatT0=    0 NMatD0=    1 NMtDS0=    0 NMtDT0=    0
 Petite list used in FoFCou.
 Harris En= -1692.45121535563    
 JPrj=0 DoOrth=F DoCkMO=F.
 Leave Link  401 at Sun Jul 18 16:28:54 2021, MaxMem=   104857600 cpu:              51.8 elap:              51.8
 (Enter /dades/curu/g16A03_MST/g16/l502.exe)
 Integral symmetry usage will be decided dynamically.
 Closed shell SCF:
 Using DIIS extrapolation, IDIIS=  1040.
 NGot=   104857600 LenX=   104457664 LenY=   104260972
 Requested convergence on RMS density matrix=1.00D-08 within 128 cycles.
 Requested convergence on MAX density matrix=1.00D-06.
 Requested convergence on             energy=1.00D-06.
 No special actions if energy rises.
 Fock matrices will be formed incrementally for  20 cycles.

 Cycle   1  Pass 1  IDiag  1:
 FoFJK:  IHMeth= 1 ICntrl=       0 DoSepK=F KAlg= 0 I1Cent=           0 FoldK=F
 IRaf= 710000000 NMat=       1 IRICut=       1 DoRegI=T DoRafI=F ISym2E= 0 IDoP0=0 IntGTp=1.
 FoFCou: FMM=F IPFlag=           0 FMFlag=      100000 FMFlg1=           0
         NFxFlg=           0 DoJE=F BraDBF=F KetDBF=F FulRan=T
         wScrn=  0.000000 ICntrl=         0 IOpCl=  0 I1Cent=           0 NGrid=           0
         NMat0=    1 NMatS0=      1 NMatT0=    0 NMatD0=    1 NMtDS0=    0 NMtDT0=    0
 Symmetry not used in FoFCou.
 Inv3:  Mode=1 IEnd=    47976003.
 Iteration    1 A*A^-1 deviation from unit magnitude is 5.11D-15 for   3991.
 Iteration    1 A*A^-1 deviation from orthogonality  is 3.61D-15 for   3988   3894.
 Iteration    1 A^-1*A deviation from unit magnitude is 5.22D-15 for   3999.
 Iteration    1 A^-1*A deviation from orthogonality  is 3.33D-15 for   3988   3894.
 E= -1692.14135476351    
 DIIS: error= 3.52D-02 at cycle   1 NSaved=   1.
 NSaved= 1 IEnMin= 1 EnMin= -1692.14135476351     IErMin= 1 ErrMin= 3.52D-02
 ErrMax= 3.52D-02  0.00D+00 EMaxC= 1.00D-01 BMatC= 5.78D-01 BMatP= 5.78D-01
 IDIUse=3 WtCom= 6.48D-01 WtEn= 3.52D-01
 Coeff-Com:  0.100D+01
 Coeff-En:   0.100D+01
 Coeff:      0.100D+01
 Gap=     0.262 Goal=   None    Shift=    0.000
 GapD=    0.262 DampG=1.000 DampE=0.500 DampFc=0.5000 IDamp=-1.
 Damping current iteration by 5.00D-01
 RMSDP=4.31D-03 MaxDP=2.03D-01              OVMax= 3.85D-01

 Cycle   2  Pass 1  IDiag  1:
 RMSU=  2.14D-03    CP:  9.86D-01
 E= -1692.29185171258     Delta-E=       -0.150496949067 Rises=F Damp=T
 DIIS: error= 1.11D-02 at cycle   2 NSaved=   2.
 NSaved= 2 IEnMin= 2 EnMin= -1692.29185171258     IErMin= 2 ErrMin= 1.11D-02
 ErrMax= 1.11D-02  0.00D+00 EMaxC= 1.00D-01 BMatC= 9.00D-02 BMatP= 5.78D-01
 IDIUse=3 WtCom= 8.89D-01 WtEn= 1.11D-01
 Coeff-Com:  0.198D+00 0.802D+00
 Coeff-En:   0.324D+00 0.676D+00
 Coeff:      0.212D+00 0.788D+00
 Gap=     0.207 Goal=   None    Shift=    0.000
 RMSDP=1.39D-03 MaxDP=9.81D-02 DE=-1.50D-01 OVMax= 2.23D-01

 Cycle   3  Pass 1  IDiag  1:
 RMSU=  1.29D-03    CP:  9.75D-01  7.73D-01
 E= -1692.58217380691     Delta-E=       -0.290322094327 Rises=F Damp=F
 DIIS: error= 1.30D-02 at cycle   3 NSaved=   3.
 NSaved= 3 IEnMin= 3 EnMin= -1692.58217380691     IErMin= 2 ErrMin= 1.11D-02
 ErrMax= 1.30D-02  0.00D+00 EMaxC= 1.00D-01 BMatC= 8.22D-02 BMatP= 9.00D-02
 IDIUse=3 WtCom= 8.70D-01 WtEn= 1.30D-01
 Coeff-Com:  0.479D-01 0.481D+00 0.471D+00
 Coeff-En:   0.000D+00 0.000D+00 0.100D+01
 Coeff:      0.417D-01 0.418D+00 0.540D+00
 Gap=     0.178 Goal=   None    Shift=    0.000
 RMSDP=1.00D-03 MaxDP=7.04D-02 DE=-2.90D-01 OVMax= 1.41D-01

 Cycle   4  Pass 1  IDiag  1:
 RMSU=  7.19D-04    CP:  9.78D-01  8.93D-01  4.99D-01
 E= -1692.62787663393     Delta-E=       -0.045702827023 Rises=F Damp=F
 DIIS: error= 8.52D-03 at cycle   4 NSaved=   4.
 NSaved= 4 IEnMin= 4 EnMin= -1692.62787663393     IErMin= 4 ErrMin= 8.52D-03
 ErrMax= 8.52D-03  0.00D+00 EMaxC= 1.00D-01 BMatC= 3.08D-02 BMatP= 8.22D-02
 IDIUse=3 WtCom= 9.15D-01 WtEn= 8.52D-02
 Coeff-Com:  0.142D-02 0.113D+00 0.380D+00 0.505D+00
 Coeff-En:   0.000D+00 0.000D+00 0.312D+00 0.688D+00
 Coeff:      0.130D-02 0.103D+00 0.374D+00 0.521D+00
 Gap=     0.180 Goal=   None    Shift=    0.000
 RMSDP=4.50D-04 MaxDP=3.43D-02 DE=-4.57D-02 OVMax= 6.74D-02

 Cycle   5  Pass 1  IDiag  1:
 RMSU=  1.80D-04    CP:  9.78D-01  8.52D-01  6.84D-01  5.47D-01
 E= -1692.65243001373     Delta-E=       -0.024553379801 Rises=F Damp=F
 DIIS: error= 1.23D-03 at cycle   5 NSaved=   5.
 NSaved= 5 IEnMin= 5 EnMin= -1692.65243001373     IErMin= 5 ErrMin= 1.23D-03
 ErrMax= 1.23D-03  0.00D+00 EMaxC= 1.00D-01 BMatC= 1.82D-03 BMatP= 3.08D-02
 IDIUse=3 WtCom= 9.88D-01 WtEn= 1.23D-02
 Coeff-Com: -0.200D-02 0.226D-01 0.177D+00 0.313D+00 0.490D+00
 Coeff-En:   0.000D+00 0.000D+00 0.000D+00 0.000D+00 0.100D+01
 Coeff:     -0.197D-02 0.223D-01 0.175D+00 0.309D+00 0.496D+00
 Gap=     0.159 Goal=   None    Shift=    0.000
 RMSDP=1.15D-04 MaxDP=6.32D-03 DE=-2.46D-02 OVMax= 1.57D-02

 Cycle   6  Pass 1  IDiag  1:
 RMSU=  6.48D-05    CP:  9.78D-01  8.55D-01  6.78D-01  5.92D-01  5.09D-01
 E= -1692.65389266350     Delta-E=       -0.001462649762 Rises=F Damp=F
 DIIS: error= 4.22D-04 at cycle   6 NSaved=   6.
 NSaved= 6 IEnMin= 6 EnMin= -1692.65389266350     IErMin= 6 ErrMin= 4.22D-04
 ErrMax= 4.22D-04  0.00D+00 EMaxC= 1.00D-01 BMatC= 1.80D-04 BMatP= 1.82D-03
 IDIUse=3 WtCom= 9.96D-01 WtEn= 4.22D-03
 Coeff-Com: -0.109D-02-0.219D-03 0.536D-01 0.113D+00 0.293D+00 0.542D+00
 Coeff-En:   0.000D+00 0.000D+00 0.000D+00 0.000D+00 0.654D-01 0.935D+00
 Coeff:     -0.109D-02-0.219D-03 0.534D-01 0.112D+00 0.292D+00 0.544D+00
 Gap=     0.158 Goal=   None    Shift=    0.000
 RMSDP=3.92D-05 MaxDP=1.84D-03 DE=-1.46D-03 OVMax= 3.43D-03

 Cycle   7  Pass 1  IDiag  1:
 RMSU=  2.25D-05    CP:  9.77D-01  8.54D-01  6.80D-01  5.99D-01  5.95D-01
                    CP:  5.76D-01
 E= -1692.65403788999     Delta-E=       -0.000145226496 Rises=F Damp=F
 DIIS: error= 1.69D-04 at cycle   7 NSaved=   7.
 NSaved= 7 IEnMin= 7 EnMin= -1692.65403788999     IErMin= 7 ErrMin= 1.69D-04
 ErrMax= 1.69D-04  0.00D+00 EMaxC= 1.00D-01 BMatC= 2.70D-05 BMatP= 1.80D-04
 IDIUse=3 WtCom= 9.98D-01 WtEn= 1.69D-03
 Coeff-Com: -0.437D-03-0.198D-02 0.183D-01 0.426D-01 0.142D+00 0.350D+00
 Coeff-Com:  0.450D+00
 Coeff-En:   0.000D+00 0.000D+00 0.000D+00 0.000D+00 0.000D+00 0.922D-01
 Coeff-En:   0.908D+00
 Coeff:     -0.436D-03-0.198D-02 0.182D-01 0.425D-01 0.142D+00 0.349D+00
 Coeff:      0.450D+00
 Gap=     0.158 Goal=   None    Shift=    0.000
 RMSDP=1.26D-05 MaxDP=9.20D-04 DE=-1.45D-04 OVMax= 1.68D-03

 Cycle   8  Pass 1  IDiag  1:
 RMSU=  7.18D-06    CP:  9.77D-01  8.54D-01  6.80D-01  6.01D-01  5.94D-01
                    CP:  6.27D-01  5.69D-01
 E= -1692.65406071547     Delta-E=       -0.000022825481 Rises=F Damp=F
 DIIS: error= 4.68D-05 at cycle   8 NSaved=   8.
 NSaved= 8 IEnMin= 8 EnMin= -1692.65406071547     IErMin= 8 ErrMin= 4.68D-05
 ErrMax= 4.68D-05  0.00D+00 EMaxC= 1.00D-01 BMatC= 2.40D-06 BMatP= 2.70D-05
 IDIUse=1 WtCom= 1.00D+00 WtEn= 0.00D+00
 Coeff-Com: -0.514D-04-0.116D-02 0.390D-02 0.998D-02 0.472D-01 0.136D+00
 Coeff-Com:  0.266D+00 0.538D+00
 Coeff:     -0.514D-04-0.116D-02 0.390D-02 0.998D-02 0.472D-01 0.136D+00
 Coeff:      0.266D+00 0.538D+00
 Gap=     0.158 Goal=   None    Shift=    0.000
 RMSDP=4.03D-06 MaxDP=3.52D-04 DE=-2.28D-05 OVMax= 5.40D-04

 Cycle   9  Pass 1  IDiag  1:
 RMSU=  2.50D-06    CP:  9.77D-01  8.54D-01  6.80D-01  6.00D-01  5.95D-01
                    CP:  6.41D-01  5.97D-01  6.00D-01
 E= -1692.65406258910     Delta-E=       -0.000001873628 Rises=F Damp=F
 DIIS: error= 1.30D-05 at cycle   9 NSaved=   9.
 NSaved= 9 IEnMin= 9 EnMin= -1692.65406258910     IErMin= 9 ErrMin= 1.30D-05
 ErrMax= 1.30D-05  0.00D+00 EMaxC= 1.00D-01 BMatC= 2.80D-07 BMatP= 2.40D-06
 IDIUse=1 WtCom= 1.00D+00 WtEn= 0.00D+00
 Coeff-Com:  0.500D-04-0.407D-03-0.768D-04-0.937D-04 0.881D-02 0.312D-01
 Coeff-Com:  0.937D-01 0.308D+00 0.559D+00
 Coeff:      0.500D-04-0.407D-03-0.768D-04-0.937D-04 0.881D-02 0.312D-01
 Coeff:      0.937D-01 0.308D+00 0.559D+00
 Gap=     0.158 Goal=   None    Shift=    0.000
 RMSDP=1.48D-06 MaxDP=9.87D-05 DE=-1.87D-06 OVMax= 1.47D-04

 Cycle  10  Pass 1  IDiag  1:
 RMSU=  1.01D-06    CP:  9.77D-01  8.54D-01  6.80D-01  6.00D-01  5.97D-01
                    CP:  6.38D-01  6.04D-01  6.75D-01  6.82D-01
 E= -1692.65406282553     Delta-E=       -0.000000236426 Rises=F Damp=F
 DIIS: error= 5.95D-06 at cycle  10 NSaved=  10.
 NSaved=10 IEnMin=10 EnMin= -1692.65406282553     IErMin=10 ErrMin= 5.95D-06
 ErrMax= 5.95D-06  0.00D+00 EMaxC= 1.00D-01 BMatC= 3.24D-08 BMatP= 2.80D-07
 IDIUse=1 WtCom= 1.00D+00 WtEn= 0.00D+00
 Coeff-Com:  0.394D-04-0.132D-03-0.366D-03-0.100D-02 0.696D-03 0.425D-02
 Coeff-Com:  0.282D-01 0.124D+00 0.324D+00 0.520D+00
 Coeff:      0.394D-04-0.132D-03-0.366D-03-0.100D-02 0.696D-03 0.425D-02
 Coeff:      0.282D-01 0.124D+00 0.324D+00 0.520D+00
 Gap=     0.158 Goal=   None    Shift=    0.000
 RMSDP=4.91D-07 MaxDP=3.17D-05 DE=-2.36D-07 OVMax= 5.34D-05

 Cycle  11  Pass 1  IDiag  1:
 RMSU=  2.96D-07    CP:  9.77D-01  8.54D-01  6.80D-01  6.00D-01  5.97D-01
                    CP:  6.39D-01  6.09D-01  6.81D-01  7.35D-01  6.75D-01
 E= -1692.65406285420     Delta-E=       -0.000000028672 Rises=F Damp=F
 DIIS: error= 1.48D-06 at cycle  11 NSaved=  11.
 NSaved=11 IEnMin=11 EnMin= -1692.65406285420     IErMin=11 ErrMin= 1.48D-06
 ErrMax= 1.48D-06  0.00D+00 EMaxC= 1.00D-01 BMatC= 3.26D-09 BMatP= 3.24D-08
 IDIUse=1 WtCom= 1.00D+00 WtEn= 0.00D+00
 Coeff-Com:  0.193D-04-0.357D-04-0.202D-03-0.583D-03-0.515D-03-0.962D-03
 Coeff-Com:  0.648D-02 0.389D-01 0.124D+00 0.297D+00 0.536D+00
 Coeff:      0.193D-04-0.357D-04-0.202D-03-0.583D-03-0.515D-03-0.962D-03
 Coeff:      0.648D-02 0.389D-01 0.124D+00 0.297D+00 0.536D+00
 Gap=     0.158 Goal=   None    Shift=    0.000
 RMSDP=1.47D-07 MaxDP=1.05D-05 DE=-2.87D-08 OVMax= 1.51D-05

 Cycle  12  Pass 1  IDiag  1:
 RMSU=  1.06D-07    CP:  9.77D-01  8.54D-01  6.80D-01  6.00D-01  5.97D-01
                    CP:  6.39D-01  6.09D-01  6.86D-01  7.46D-01  7.10D-01
                    CP:  7.26D-01
 E= -1692.65406285664     Delta-E=       -0.000000002441 Rises=F Damp=F
 DIIS: error= 5.07D-07 at cycle  12 NSaved=  12.
 NSaved=12 IEnMin=12 EnMin= -1692.65406285664     IErMin=12 ErrMin= 5.07D-07
 ErrMax= 5.07D-07  0.00D+00 EMaxC= 1.00D-01 BMatC= 3.61D-10 BMatP= 3.26D-09
 IDIUse=1 WtCom= 1.00D+00 WtEn= 0.00D+00
 Coeff-Com:  0.431D-05-0.839D-06-0.541D-04-0.161D-03-0.404D-03-0.132D-02
 Coeff-Com: -0.116D-02 0.523D-03 0.127D-01 0.765D-01 0.289D+00 0.624D+00
 Coeff:      0.431D-05-0.839D-06-0.541D-04-0.161D-03-0.404D-03-0.132D-02
 Coeff:     -0.116D-02 0.523D-03 0.127D-01 0.765D-01 0.289D+00 0.624D+00
 Gap=     0.158 Goal=   None    Shift=    0.000
 RMSDP=5.22D-08 MaxDP=2.75D-06 DE=-2.44D-09 OVMax= 4.98D-06

 Cycle  13  Pass 1  IDiag  1:
 RMSU=  3.76D-08    CP:  9.77D-01  8.54D-01  6.80D-01  6.00D-01  5.97D-01
                    CP:  6.39D-01  6.10D-01  6.86D-01  7.51D-01  7.28D-01
                    CP:  7.67D-01  7.92D-01
 E= -1692.65406285695     Delta-E=       -0.000000000313 Rises=F Damp=F
 DIIS: error= 1.78D-07 at cycle  13 NSaved=  13.
 NSaved=13 IEnMin=13 EnMin= -1692.65406285695     IErMin=13 ErrMin= 1.78D-07
 ErrMax= 1.78D-07  0.00D+00 EMaxC= 1.00D-01 BMatC= 5.03D-11 BMatP= 3.61D-10
 IDIUse=1 WtCom= 1.00D+00 WtEn= 0.00D+00
 Coeff-Com:  0.500D-06 0.304D-05-0.855D-05-0.291D-04-0.162D-03-0.615D-03
 Coeff-Com: -0.124D-02-0.346D-02-0.568D-02 0.133D-01 0.108D+00 0.350D+00
 Coeff-Com:  0.540D+00
 Coeff:      0.500D-06 0.304D-05-0.855D-05-0.291D-04-0.162D-03-0.615D-03
 Coeff:     -0.124D-02-0.346D-02-0.568D-02 0.133D-01 0.108D+00 0.350D+00
 Coeff:      0.540D+00
 Gap=     0.158 Goal=   None    Shift=    0.000
 RMSDP=2.10D-08 MaxDP=1.02D-06 DE=-3.13D-10 OVMax= 1.94D-06

 Cycle  14  Pass 1  IDiag  1:
 RMSU=  1.44D-08    CP:  9.77D-01  8.54D-01  6.80D-01  6.00D-01  5.97D-01
                    CP:  6.39D-01  6.10D-01  6.86D-01  7.51D-01  7.31D-01
                    CP:  7.92D-01  8.39D-01  6.86D-01
 E= -1692.65406285707     Delta-E=       -0.000000000115 Rises=F Damp=F
 DIIS: error= 1.03D-07 at cycle  14 NSaved=  14.
 NSaved=14 IEnMin=14 EnMin= -1692.65406285707     IErMin=14 ErrMin= 1.03D-07
 ErrMax= 1.03D-07  0.00D+00 EMaxC= 1.00D-01 BMatC= 6.41D-12 BMatP= 5.03D-11
 IDIUse=1 WtCom= 1.00D+00 WtEn= 0.00D+00
 Coeff-Com: -0.194D-06 0.143D-05 0.209D-05 0.395D-05-0.362D-04-0.172D-03
 Coeff-Com: -0.535D-03-0.196D-02-0.491D-02-0.160D-02 0.255D-01 0.120D+00
 Coeff-Com:  0.309D+00 0.555D+00
 Coeff:     -0.194D-06 0.143D-05 0.209D-05 0.395D-05-0.362D-04-0.172D-03
 Coeff:     -0.535D-03-0.196D-02-0.491D-02-0.160D-02 0.255D-01 0.120D+00
 Coeff:      0.309D+00 0.555D+00
 Gap=     0.158 Goal=   None    Shift=    0.000
 RMSDP=7.64D-09 MaxDP=4.46D-07 DE=-1.15D-10 OVMax= 9.47D-07

 Error on total polarization charges =  0.00701
 SCF Done:  E(RB3LYP) =  -1692.65406286     A.U. after   14 cycles
            NFock= 14  Conv=0.76D-08     -V/T= 2.0077
 KE= 1.679750859062D+03 PE=-9.285610831827D+03 EE= 3.239178315108D+03
 Leave Link  502 at Sun Jul 18 16:51:18 2021, MaxMem=   104857600 cpu:            1880.6 elap:            1343.2
 (Enter /dades/curu/g16A03_MST/g16/l601.exe)
 Copying SCF densities to generalized density rwf, IOpCl= 0 IROHF=0.

 **********************************************************************

            Population analysis using the SCF density.

 **********************************************************************

 Orbital symmetries:
       Occupied  (A) (A) (A) (A) (A) (A) (A) (A) (A) (A) (A) (A)
                 (A) (A) (A) (A) (A) (A) (A) (A) (A) (A) (A) (A)
                 (A) (A) (A) (A) (A) (A) (A) (A) (A) (A) (A) (A)
                 (A) (A) (A) (A) (A) (A) (A) (A) (A) (A) (A) (A)
                 (A) (A) (A) (A) (A) (A) (A) (A) (A) (A) (A) (A)
                 (A) (A) (A) (A) (A) (A) (A) (A) (A) (A) (A) (A)
                 (A) (A) (A) (A) (A) (A) (A) (A) (A) (A) (A) (A)
                 (A) (A) (A) (A) (A) (A) (A) (A) (A) (A) (A) (A)
                 (A) (A) (A) (A) (A)
       Virtual   (A) (A) (A) (A) (A) (A) (A) (A) (A) (A) (A) (A)
                 (A) (A) (A) (A) (A) (A) (A) (A) (A) (A) (A) (A)
                 (A) (A) (A) (A) (A) (A) (A) (A) (A) (A) (A) (A)
                 (A) (A) (A) (A) (A) (A) (A) (A) (A) (A) (A) (A)
                 (A) (A) (A) (A) (A) (A) (A) (A) (A) (A) (A) (A)
                 (A) (A) (A) (A) (A) (A) (A) (A) (A) (A) (A) (A)
                 (A) (A) (A) (A) (A) (A) (A) (A) (A) (A) (A) (A)
                 (A) (A) (A) (A) (A) (A) (A) (A) (A) (A) (A) (A)
                 (A) (A) (A) (A) (A) (A) (A) (A) (A) (A) (A) (A)
                 (A) (A) (A) (A) (A) (A) (A) (A) (A) (A) (A) (A)
                 (A) (A) (A) (A) (A) (A) (A) (A) (A) (A) (A) (A)
                 (A) (A) (A) (A) (A) (A) (A) (A) (A) (A) (A) (A)
                 (A) (A) (A) (A) (A) (A) (A) (A) (A) (A) (A) (A)
[...]
    19  H    1.082764  -0.140152  -0.020301  -0.005300   0.022899   0.000236
    20  H   -0.140152   1.183396   0.058285  -0.001913  -0.020127   0.008429
    21  O   -0.020301   0.058285   9.109981   0.266710   0.026765   0.004338
    22  H   -0.005300  -0.001913   0.266710   0.569262  -0.029269   0.007413
    23  C    0.022899  -0.020127   0.026765  -0.029269   4.878635  -0.104898
    24  O    0.000236   0.008429   0.004338   0.007413  -0.104898   8.586754
    25  H   -0.000156   0.000750  -0.008646  -0.000187  -0.086887   0.414095
    26  H    0.005515  -0.027901   0.088044  -0.027702   0.153502  -0.070700
    27  H    0.002012   0.000161  -0.006108   0.021234   0.096031  -0.075952
    28  N    0.000293  -0.001355  -0.001132   0.000428  -0.002958  -0.000478
    29  C   -0.000454  -0.000543  -0.000041   0.000198  -0.005107  -0.000208
    30  H   -0.000025  -0.000034   0.000010   0.000006  -0.000183   0.000004
    31  N   -0.000521   0.002095   0.000024   0.000131   0.001120   0.000570
    32  C   -0.001139   0.002920   0.000155   0.000039  -0.003746   0.000544
    33  C    0.000305  -0.000073  -0.000010  -0.000003   0.000355  -0.000049
    34  H   -0.000010  -0.000013   0.000001  -0.000002  -0.000053  -0.000004
    35  C    0.000045   0.000183  -0.000000   0.000002   0.000039  -0.000000
    36  H   -0.000000   0.000008  -0.000000   0.000000   0.000002   0.000000
    37  C   -0.000026  -0.000124   0.000000  -0.000001  -0.000055   0.000000
    38  H   -0.000000  -0.000005   0.000000  -0.000000  -0.000003   0.000000
    39  C   -0.000130  -0.000159   0.000007  -0.000003  -0.000615   0.000037
    40  Cl   0.000000  -0.000006  -0.000000  -0.000000  -0.000008   0.000000
    41  C    0.000113  -0.000593  -0.000041  -0.000003   0.004498  -0.000387
    42  C   -0.000582   0.000341   0.000078  -0.000062  -0.014972   0.000853
    43  O    0.000008  -0.000039  -0.000001   0.000002   0.000211  -0.000004
    44  H    0.000007   0.000010  -0.000025   0.000007   0.000089  -0.000052
              25         26         27         28         29         30
     1  C    0.000187  -0.000829   0.011957  -0.000003   0.015661   0.003899
     2  H    0.000110   0.000490   0.004432  -0.000299   0.003013   0.000263
     3  H    0.000037  -0.000259  -0.001736  -0.000476   0.003158   0.000120
     4  H   -0.000802   0.000902  -0.000490   0.002022  -0.006483   0.000392
     5  N    0.000022   0.000962  -0.013610   0.004667   0.010067   0.000033
     6  C    0.000482  -0.004401   0.015011  -0.053474  -0.020379   0.025350
     7  H    0.000012  -0.000172   0.002860  -0.003683  -0.049947  -0.001604
     8  H   -0.000798   0.007315  -0.000797  -0.007750  -0.011578  -0.001432
     9  C   -0.002208   0.003608  -0.013391  -0.048820   0.362160  -0.025142
    10  C   -0.000255   0.010683  -0.053403  -0.485574  -1.359865  -0.058187
    11  C   -0.008860   0.056143   0.087477  -0.407243  -0.980123  -0.162264
    12  N    0.000479   0.003500  -0.022512   0.093516   0.070804  -0.003197
    13  O    0.002422  -0.005242   0.007463  -0.064439  -0.049095  -0.001281
    14  C   -0.079654   0.551758  -0.289014   0.097596  -0.222435  -0.019733
    15  N   -0.000895   0.027162  -0.035133   0.170879   0.082755   0.003635
    16  C    0.120127  -0.616993   0.228620   0.027213  -0.025862  -0.001246
    17  C    0.002118  -0.078478   0.016662  -0.011805  -0.010514  -0.000196
    18  H   -0.000176   0.025163  -0.006640  -0.000336  -0.000462  -0.000009
    19  H   -0.000156   0.005515   0.002012   0.000293  -0.000454  -0.000025
    20  H    0.000750  -0.027901   0.000161  -0.001355  -0.000543  -0.000034
    21  O   -0.008646   0.088044  -0.006108  -0.001132  -0.000041   0.000010
    22  H   -0.000187  -0.027702   0.021234   0.000428   0.000198   0.000006
    23  C   -0.086887   0.153502   0.096031  -0.002958  -0.005107  -0.000183
    24  O    0.414095  -0.070700  -0.075952  -0.000478  -0.000208   0.000004
    25  H    0.502977  -0.052600   0.000978  -0.000154  -0.000251  -0.000013
    26  H   -0.052600   1.280333  -0.220502   0.000240   0.000362   0.000012
    27  H    0.000978  -0.220502   1.343092  -0.000780  -0.003118  -0.000093
    28  N   -0.000154   0.000240  -0.000780   7.986844   0.290638  -0.391305
    29  C   -0.000251   0.000362  -0.003118   0.290638   6.761780   0.510836
    30  H   -0.000013   0.000012  -0.000093  -0.391305   0.510836   1.289074
    31  N   -0.000145  -0.000024   0.002334   0.140591   0.398354  -0.298634
    32  C   -0.000131  -0.000475   0.005229  -0.391707  -0.708576   0.499258
    33  C    0.000029  -0.000009  -0.000665   0.086417   0.281593  -0.179155
    34  H    0.000001   0.000001  -0.000055  -0.004862   0.005473  -0.003357
    35  C   -0.000001  -0.000007   0.000176   0.109826  -0.464848  -0.013702
    36  H   -0.000000  -0.000000   0.000002  -0.000713   0.010219   0.004791
    37  C    0.000001   0.000005  -0.000214  -0.029447   0.207081  -0.002688
    38  H    0.000000  -0.000000  -0.000002  -0.000385   0.001279  -0.000507
    39  C   -0.000018  -0.000021   0.000766   0.025063  -0.169635  -0.005017
    40  Cl   0.000001  -0.000001   0.000011  -0.000791   0.004528   0.000147
    41  C    0.000065   0.000376  -0.002905  -0.104965   0.534373   0.075104
    42  C    0.000190  -0.000611  -0.006415   0.018452   0.082395   0.076580
    43  O   -0.000005   0.000013   0.000269   0.002175  -0.012702  -0.001160
    44  H   -0.000002  -0.000025   0.000061   0.517113  -0.192066   0.004889
              31         32         33         34         35         36
     1  C    0.014484   0.219619  -0.147584  -0.001189   0.034876   0.000816
     2  H    0.000104   0.028015  -0.006430  -0.000109   0.001165   0.000046
     3  H    0.023616  -0.045765  -0.004621   0.000209   0.002029   0.000073
     4  H   -0.010949   0.007757  -0.015324  -0.000232   0.001710   0.000043
     5  N   -0.232429   0.479094  -0.102540   0.003062   0.080128  -0.000190
     6  C   -0.189386  -0.072280  -0.185976  -0.011380  -0.238523   0.001110
     7  H   -0.072957   0.424611  -0.043439  -0.002526   0.046576  -0.000623
     8  H    0.032170  -0.150421   0.028351  -0.000499  -0.022622  -0.000308
     9  C   -2.084415  -5.340940   1.679984   0.094786   0.075543   0.009046
    10  C   -0.046897  -0.131381   0.148016  -0.071010   0.112562  -0.009929
    11  C    0.853153   1.276501  -0.066573  -0.027044   0.138797   0.001778
    12  N   -0.045747  -0.064371   0.007385   0.000490  -0.000587  -0.000039
    13  O    0.001530   0.004764  -0.000598  -0.000051  -0.000017   0.000003
    14  C   -0.019077  -0.238486   0.078054  -0.004209   0.014556   0.000134
    15  N   -0.073207  -0.132013   0.009497  -0.000208  -0.000534  -0.000057
    16  C   -0.017533  -0.032679   0.006079  -0.000285   0.000568   0.000006
    17  C   -0.001468  -0.000214   0.001257  -0.000094   0.000179   0.000004
    18  H   -0.000050   0.000165   0.000073  -0.000006   0.000014   0.000000
    19  H   -0.000521  -0.001139   0.000305  -0.000010   0.000045  -0.000000
    20  H    0.002095   0.002920  -0.000073  -0.000013   0.000183   0.000008
    21  O    0.000024   0.000155  -0.000010   0.000001  -0.000000  -0.000000
    22  H    0.000131   0.000039  -0.000003  -0.000002   0.000002   0.000000
    23  C    0.001120  -0.003746   0.000355  -0.000053   0.000039   0.000002
    24  O    0.000570   0.000544  -0.000049  -0.000004  -0.000000   0.000000
    25  H   -0.000145  -0.000131   0.000029   0.000001  -0.000001  -0.000000
    26  H   -0.000024  -0.000475  -0.000009   0.000001  -0.000007  -0.000000
    27  H    0.002334   0.005229  -0.000665  -0.000055   0.000176   0.000002
    28  N    0.140591  -0.391707   0.086417  -0.004862   0.109826  -0.000713
    29  C    0.398354  -0.708576   0.281593   0.005473  -0.464848   0.010219
    30  H   -0.298634   0.499258  -0.179155  -0.003357  -0.013702   0.004791
    31  N   10.999179  -4.654124   2.198099  -0.537102  -0.736680  -0.008299
    32  C   -4.654124  48.670177 -19.326973   2.460926   5.678989   0.087079
    33  C    2.198099 -19.326973  25.209709  -2.597315  -7.523875   0.826722
    34  H   -0.537102   2.460926  -2.597315   2.422843   0.835034  -0.071484
    35  C   -0.736680   5.678989  -7.523875   0.835034  15.129026  -1.168241
    36  H   -0.008299   0.087079   0.826722  -0.071484  -1.168241   1.704397
    37  C    0.738250  -9.745129   6.629986  -0.352710  -5.570493   0.585824
    38  H   -0.000349   0.172681  -0.506549  -0.023328   0.418708  -0.089512
    39  C   -0.666409   6.496492  -8.678543   0.320324   3.685561  -0.442300
    40  Cl   0.004427  -0.334538   0.377129   0.002014  -0.281446   0.003561
    41  C    1.553592 -17.370500   8.002325  -0.759101  -5.703935   0.008295
    42  C    0.643246  -1.613669  -1.172085   0.026022   0.902538  -0.003163
    43  O   -0.062275   0.118032   0.001003   0.000404  -0.021961  -0.000368
    44  H    0.039491   0.007341   0.002116   0.001242  -0.001866  -0.000087
              37         38         39         40         41         42
     1  C   -0.033871  -0.001255   0.262968  -0.026017  -0.839750   0.292515
     2  H   -0.000685  -0.000102   0.006669  -0.002979   0.015588  -0.140589
     3  H    0.000756  -0.000085   0.037148  -0.003251  -0.233736   0.466196
     4  H   -0.000489  -0.000015   0.016292  -0.000299   0.047071  -0.107653
     5  N   -0.083356   0.000079  -0.045831   0.034653   0.075967  -0.625937
     6  C    0.273696   0.004437   0.307176   0.049263   0.593446  -0.554077
     7  H   -0.046248  -0.001397   0.016792   0.005095  -0.222896  -0.350823
     8  H    0.019031   0.000689   0.022017   0.004466   0.025767   0.163652
     9  C    0.132423  -0.006947  -1.030378  -0.002775   1.075784  -1.608745
    10  C   -0.117711   0.003524   0.155746   0.000834  -0.209040  -0.249011
    11  C   -0.077063  -0.001061   0.018397   0.000022  -0.632541  -0.654664
    12  N    0.000394   0.000010  -0.000688   0.000005   0.012967   0.008806
    13  O   -0.000008  -0.000000   0.000162  -0.000001  -0.001028   0.001194
    14  C   -0.006426  -0.000114  -0.025924   0.000152  -0.011361  -0.206259
    15  N   -0.000447  -0.000002  -0.009575   0.000200   0.036336  -0.003567
    16  C   -0.000236  -0.000006  -0.002823   0.000013   0.008363  -0.025566
    17  C   -0.000133  -0.000003  -0.000703   0.000002   0.000421  -0.008187
    18  H   -0.000012  -0.000000  -0.000048   0.000001  -0.000027  -0.000587
    19  H   -0.000026  -0.000000  -0.000130   0.000000   0.000113  -0.000582
    20  H   -0.000124  -0.000005  -0.000159  -0.000006  -0.000593   0.000341
    21  O    0.000000   0.000000   0.000007  -0.000000  -0.000041   0.000078
    22  H   -0.000001  -0.000000  -0.000003  -0.000000  -0.000003  -0.000062
    23  C   -0.000055  -0.000003  -0.000615  -0.000008   0.004498  -0.014972
    24  O    0.000000   0.000000   0.000037   0.000000  -0.000387   0.000853
    25  H    0.000001   0.000000  -0.000018   0.000001   0.000065   0.000190
    26  H    0.000005  -0.000000  -0.000021  -0.000001   0.000376  -0.000611
    27  H   -0.000214  -0.000002   0.000766   0.000011  -0.002905  -0.006415
    28  N   -0.029447  -0.000385   0.025063  -0.000791  -0.104965   0.018452
    29  C    0.207081   0.001279  -0.169635   0.004528   0.534373   0.082395
    30  H   -0.002688  -0.000507  -0.005017   0.000147   0.075104   0.076580
    31  N    0.738250  -0.000349  -0.666409   0.004427   1.553592   0.643246
    32  C   -9.745129   0.172681   6.496492  -0.334538 -17.370500  -1.613669
    33  C    6.629986  -0.506549  -8.678543   0.377129   8.002325  -1.172085
    34  H   -0.352710  -0.023328   0.320324   0.002014  -0.759101   0.026022
    35  C   -5.570493   0.418708   3.685561  -0.281446  -5.703935   0.902538
    36  H    0.585824  -0.089512  -0.442300   0.003561   0.008295  -0.003163
    37  C   17.827714  -1.498453  -6.892709   0.387455   3.563608  -0.652781
    38  H   -1.498453   1.793622   1.226832  -0.108767   0.005476   0.046549
    39  C   -6.892709   1.226832  22.452195  -0.438500 -10.982505   1.309992
    40  Cl   0.387455  -0.108767  -0.438500  17.529188   0.461063  -0.346729
    41  C    3.563608   0.005476 -10.982505   0.461063  29.291846  -4.493206
    42  C   -0.652781   0.046549   1.309992  -0.346729  -4.493206  14.443343
    43  O   -0.031224   0.000639  -0.185654  -0.007555   0.518289  -0.407039
    44  H    0.000982   0.000027  -0.000987   0.000027   0.003603  -0.002115
              43         44
     1  C    0.018740  -0.000228
     2  H    0.010837  -0.000057
     3  H   -0.056284   0.000099
     4  H    0.019244  -0.000136
     5  N   -0.073367  -0.002258
     6  C    0.051156   0.011714
     7  H    0.015698   0.000311
     8  H   -0.004005   0.000814
     9  C    0.103932  -0.043360
    10  C   -0.005680  -0.114276
    11  C    0.025724   0.034836
    12  N   -0.000108  -0.011633
    13  O   -0.000005   0.001915
    14  C    0.004612  -0.013079
    15  N    0.000961  -0.010251
    16  C    0.000424  -0.000332
    17  C    0.000101   0.000087
    18  H    0.000014  -0.000010
    19  H    0.000008   0.000007
    20  H   -0.000039   0.000010
    21  O   -0.000001  -0.000025
    22  H    0.000002   0.000007
    23  C    0.000211   0.000089
    24  O   -0.000004  -0.000052
    25  H   -0.000005  -0.000002
    26  H    0.000013  -0.000025
    27  H    0.000269   0.000061
    28  N    0.002175   0.517113
    29  C   -0.012702  -0.192066
    30  H   -0.001160   0.004889
    31  N   -0.062275   0.039491
    32  C    0.118032   0.007341
    33  C    0.001003   0.002116
    34  H    0.000404   0.001242
    35  C   -0.021961  -0.001866
    36  H   -0.000368  -0.000087
    37  C   -0.031224   0.000982
    38  H    0.000639   0.000027
    39  C   -0.185654  -0.000987
    40  Cl  -0.007555   0.000027
    41  C    0.518289   0.003603
    42  C   -0.407039  -0.002115
    43  O    8.821901  -0.000005
    44  H   -0.000005   0.797619
 Mulliken charges:
               1
     1  C    0.790758
     2  H   -0.109186
     3  H   -0.222681
     4  H   -0.044077
     5  N   -0.601318
     6  C    1.142006
     7  H   -0.016247
     8  H   -0.225409
     9  C   -0.022728
    10  C    0.783587
    11  C    0.414818
    12  N   -0.280902
    13  O   -0.917397
    14  C    0.738148
    15  N   -0.499416
    16  C   -1.042257
    17  C    1.116831
    18  H   -0.015457
    19  H    0.031312
    20  H    0.062953
    21  O   -0.872435
    22  H    0.183033
    23  C    1.729706
    24  O   -0.827025
    25  H    0.197762
    26  H   -0.109134
    27  H   -0.093302
    28  N   -0.559039
    29  C    0.657563
    30  H   -0.324240
    31  N   -0.887887
    32  C   -0.281130
    33  C    0.983909
    34  H   -0.704594
    35  C    0.480507
    36  H   -0.448644
    37  C    0.775532
    38  H   -0.435703
    39  C   -0.781460
    40  Cl  -0.310593
    41  C    1.654186
    42  C    0.766149
    43  O   -0.844948
    44  H   -0.031552
 Sum of Mulliken charges =   1.00000
 Mulliken charges with hydrogens summed into heavy atoms:
               1
     1  C    0.414815
     5  N   -0.601318
     6  C    0.900350
     9  C   -0.022728
    10  C    0.783587
    11  C    0.414818
    12  N   -0.280902
    13  O   -0.917397
    14  C    0.738148
    15  N   -0.499416
    16  C   -1.042257
    17  C    1.195639
    21  O   -0.689402
    23  C    1.527269
    24  O   -0.629263
    28  N   -0.590591
    29  C    0.333323
    31  N   -0.887887
    32  C   -0.281130
    33  C    0.279315
    35  C    0.031864
    37  C    0.339829
    39  C   -0.781460
    40  Cl  -0.310593
    41  C    1.654186
    42  C    0.766149
    43  O   -0.844948
 Electronic spatial extent (au):  <R**2>=          12925.5561
 Charge=              1.0000 electrons
 Dipole moment (field-independent basis, Debye):
    X=              1.7446    Y=              5.7042    Z=              0.8261  Tot=              6.0220
 Quadrupole moment (field-independent basis, Debye-Ang):
   XX=           -113.0360   YY=           -122.0145   ZZ=           -156.7407
   XY=             47.5002   XZ=             13.9683   YZ=             -9.2838
 Traceless Quadrupole moment (field-independent basis, Debye-Ang):
   XX=             17.5611   YY=              8.5826   ZZ=            -26.1436
   XY=             47.5002   XZ=             13.9683   YZ=             -9.2838
 Octapole moment (field-independent basis, Debye-Ang**2):
  XXX=             57.2807  YYY=             51.7024  ZZZ=             -7.6065  XYY=            -17.4063
  XXY=            -52.8710  XXZ=             33.9696  XZZ=            -55.2039  YZZ=              6.9667
  YYZ=            -39.7976  XYZ=            -22.0514
 Hexadecapole moment (field-independent basis, Debye-Ang**3):
 XXXX=         -11702.7612 YYYY=          -2216.0418 ZZZZ=           -844.0195 XXXY=           1017.1249
 XXXZ=            647.7528 YYYX=            275.1728 YYYZ=            -81.9865 ZZZX=             23.6129
 ZZZY=            -14.8598 XXYY=          -2293.7647 XXZZ=          -2248.1644 YYZZ=           -518.5250
 XXYZ=            102.1669 YYXZ=             88.5722 ZZXY=             91.7822
 N-N= 2.651561857199D+03 E-N=-9.240283925289D+03  KE= 1.683094488301D+03
 Leave Link  601 at Mon Jul 19 01:58:55 2021, MaxMem=   262144000 cpu:               0.8 elap:               0.7
 (Enter /dades/curu/g16A03_MST/g16/l9999.exe)
 1\1\GINC-PIRINEUS29\SP\RMP2-FC\Aug-CC-pVDZ\C17H17Cl1N5O4(1+)\UBATOR02\
 19-Jul-2021\0\\#p mp2/aug-cc-pVDZ scf=tight maxdisk=180GB geom=allchec
 k\\SET_328_BBB324_conf1.geo_180_300_300 geometry\\1,1\C,0,1.4914473091
 ,0.5679242244,-1.9806670287\H,0,2.0485061802,1.3682163259,-1.488714037
 1\H,0,1.7659407964,0.5171238267,-3.0316855668\H,0,1.7332541194,-0.3843
 368643,-1.4968644944\N,0,0.0593403916,0.848398701,-1.9028364516\C,0,-0
 .5419667662,0.9623102824,-0.5750806844\H,0,-1.2435232981,1.8004813135,
 -0.5461163128\H,0,0.2439852299,1.1467513833,0.155656619\C,0,-1.2456614
 305,-0.3091495324,-0.2316928294\C,0,-0.9991823127,-1.3339567128,0.6468
 366281\C,0,0.0417667659,-1.4605054043,1.6502257159\N,0,0.0901649869,-2
 .4629092949,2.4950724962\O,0,1.2334362241,-2.1783976386,3.2449728015\C
 ,0,1.7460502481,-1.0338443372,2.768258798\N,0,1.0504832958,-0.53934661
 81,1.7812971627\C,0,3.0138376062,-0.4792929247,3.3991136491\C,0,2.7346
 344474,0.9057406619,3.9851032176\H,0,3.6592143074,1.3051131456,4.40682
 01615\H,0,1.9931787257,0.8316024849,4.7832205856\H,0,2.3615254262,1.58
 90145529,3.2197562797\O,0,3.4327794084,-1.3301673785,4.4428791316\H,0,
 3.9076468256,-2.0631132025,4.005210942\C,0,4.1107728298,-0.4309374611,
 2.3208857887\O,0,4.3827506037,-1.7902490693,2.0034508324\H,0,5.2502204
 918,-1.8483013323,1.5737209517\H,0,4.9854249017,0.0664566915,2.7533840
 815\H,0,3.7709023217,0.1335393512,1.4451612488\N,0,-1.969913233,-2.296
 0682485,0.4166249634\C,0,-2.7734712783,-1.8942383984,-0.5616451851\H,0
 ,-3.6016309816,-2.4521106388,-0.9646612524\N,0,-2.3602636386,-0.685836
 333,-0.9760184862\C,0,-3.000826005,0.1526343938,-1.9492055432\C,0,-4.3
 921957009,0.2259703629,-1.9307417579\H,0,-4.9575667468,-0.3338959756,-
 1.195968934\C,0,-5.0376342623,1.0561072002,-2.8392210473\H,0,-6.118679
 1271,1.1237155303,-2.8353060063\C,0,-4.2961229084,1.8271212138,-3.7289
 029312\H,0,-4.7839562485,2.5024683533,-4.4192630105\C,0,-2.9053327248,
 1.7409486935,-3.7306512734\Cl,0,-2.040088094,2.7710367256,-4.844425760
 9\C,0,-2.2131752884,0.8905829166,-2.8518075407\C,0,-0.7178053751,0.684
 6697514,-3.0161635312\O,0,-0.2674382435,0.3962171741,-4.1175768604\H,0
 ,-2.0508297791,-3.1974878953,0.8915644708\\Version=ES64L-G16RevA.03\St
 ate=1-A\HF=-1684.7662026\MP2=-1688.881928\RMSD=2.170e-09\PG=C01 [X(C17
 H17Cl1N5O4)]\\@


 THE FIRST AND LAST THING REQUIRED OF GENIUS IS THE LOVE OF TRUTH.

                          -- GOETHE
 Job cpu time:       0 days 11 hours 45 minutes 56.2 seconds.
 Elapsed time:       0 days  3 hours 41 minutes 23.7 seconds.
 File lengths (MBytes):  RWF= 158910 Int=      0 D2E=      0 Chk=     49 Scr=      1
 Normal termination of Gaussian 16 at Mon Jul 19 01:58:58 2021.
