 Entering Gaussian System, Link 0=g16
 Input=SET_328_BBB6_conf1.geo_165_225_075_OCTANOL.dat
 Output=SET_328_BBB6_conf1.geo_165_225_075_OCTANOL.log
 Initial command:
 /dades/curu/g16A03_MST/g16/l1.exe "/tmp/ubator02/1839712/Gau-171074.inp" -scrdir="/tmp/ubator02/1839712/"
 Entering Link 1 = /dades/curu/g16A03_MST/g16/l1.exe PID=    171075.
  
 Copyright (c) 1988,1990,1992,1993,1995,1998,2003,2009,2016,
            Gaussian, Inc.  All Rights Reserved.
  
 This is part of the Gaussian(R) 16 program.  It is based on
 the Gaussian(R) 09 system (copyright 2009, Gaussian, Inc.),
 the Gaussian(R) 03 system (copyright 2003, Gaussian, Inc.),
 the Gaussian(R) 98 system (copyright 1998, Gaussian, Inc.),
 the Gaussian(R) 94 system (copyright 1995, Gaussian, Inc.),
 the Gaussian 92(TM) system (copyright 1992, Gaussian, Inc.),
 the Gaussian 90(TM) system (copyright 1990, Gaussian, Inc.),
 the Gaussian 88(TM) system (copyright 1988, Gaussian, Inc.),
 the Gaussian 86(TM) system (copyright 1986, Carnegie Mellon
 University), and the Gaussian 82(TM) system (copyright 1983,
 Carnegie Mellon University). Gaussian is a federally registered
 trademark of Gaussian, Inc.
  
 This software contains proprietary and confidential information,
 including trade secrets, belonging to Gaussian, Inc.
  
 This software is provided under written license and may be
 used, copied, transmitted, or stored only in accord with that
 written license.
  
 The following legend is applicable only to US Government
 contracts under FAR:
  
                    RESTRICTED RIGHTS LEGEND
  
 Use, reproduction and disclosure by the US Government is
 subject to restrictions as set forth in subparagraphs (a)
 and (c) of the Commercial Computer Software - Restricted
 Rights clause in FAR 52.227-19.
  
 Gaussian, Inc.
 340 Quinnipiac St., Bldg. 40, Wallingford CT 06492
  
  
 ---------------------------------------------------------------
 Warning -- This program may not be used in any manner that
 competes with the business of Gaussian, Inc. or will provide
 assistance to any competitor of Gaussian, Inc.  The licensee
 of this program is prohibited from giving any competitor of
 Gaussian, Inc. access to this program.  By using this program,
 the user acknowledges that Gaussian, Inc. is engaged in the
 business of creating and licensing software in the field of
 computational chemistry and represents and warrants to the
 licensee that it is not a competitor of Gaussian, Inc. and that
 it will not use this program in any manner prohibited above.
 ---------------------------------------------------------------
  

 Cite this work as:
 Gaussian 16, Revision A.03,
 M. J. Frisch, G. W. Trucks, H. B. Schlegel, G. E. Scuseria, 
 M. A. Robb, J. R. Cheeseman, G. Scalmani, V. Barone, 
 G. A. Petersson, H. Nakatsuji, X. Li, M. Caricato, A. V. Marenich, 
 J. Bloino, B. G. Janesko, R. Gomperts, B. Mennucci, H. P. Hratchian, 
 J. V. Ortiz, A. F. Izmaylov, J. L. Sonnenberg, D. Williams-Young, 
 F. Ding, F. Lipparini, F. Egidi, J. Goings, B. Peng, A. Petrone, 
 T. Henderson, D. Ranasinghe, V. G. Zakrzewski, J. Gao, N. Rega, 
 G. Zheng, W. Liang, M. Hada, M. Ehara, K. Toyota, R. Fukuda, 
 J. Hasegawa, M. Ishida, T. Nakajima, Y. Honda, O. Kitao, H. Nakai, 
 T. Vreven, K. Throssell, J. A. Montgomery, Jr., J. E. Peralta, 
 F. Ogliaro, M. J. Bearpark, J. J. Heyd, E. N. Brothers, K. N. Kudin, 
 V. N. Staroverov, T. A. Keith, R. Kobayashi, J. Normand, 
 K. Raghavachari, A. P. Rendell, J. C. Burant, S. S. Iyengar, 
 J. Tomasi, M. Cossi, J. M. Millam, M. Klene, C. Adamo, R. Cammi, 
 J. W. Ochterski, R. L. Martin, K. Morokuma, O. Farkas, 
 J. B. Foresman, and D. J. Fox, Gaussian, Inc., Wallingford CT, 2016.
 
 ******************************************
 Gaussian 16:  ES64L-G16RevA.03 25-Dec-2016
                18-Jul-2021 
 ******************************************
 %mem=800MB
 %nproc=4
 Will use up to    4 processors via shared memory.
 %chk=SET_328_BBB6_conf1.geo_165_225_075.chk
 ---------------------------------------------------------------
 #p b3lyp/6-31G(d) opt freq scrf=(iefpcm,read,solvent=n-octanol)
 ---------------------------------------------------------------
 1/18=20,19=15,26=3,38=1,40=2/1,3;
 2/9=110,12=2,17=6,18=5,40=1/2;
 3/5=1,6=6,7=1,11=2,25=1,30=1,70=2203,71=1,72=25,74=-5/1,2,3;
 4//1;
 5/5=2,38=5,53=25/2;
 6/7=2,8=2,9=2,10=2,28=1/1;
 7//1,2,3,16;
 1/18=20,19=15,26=3/3(2);
 2/9=110/2;
 99//99;
 2/9=110/2;
 3/5=1,6=6,7=1,11=2,25=1,30=1,70=2205,71=1,72=25,74=-5/1,2,3;
 4/5=5,16=3,69=1/1;
 5/5=2,38=5,53=25/2;
 7//1,2,3,16;
 1/18=20,19=15,26=3/3(-5);
 2/9=110/2;
 6/7=2,8=2,9=2,10=2,19=2,28=1/1;
 99/9=1/99;
 Leave Link    1 at Sun Jul 18 16:30:57 2021, MaxMem=   104857600 cpu:               0.0 elap:               0.0
 (Enter /dades/curu/g16A03_MST/g16/l101.exe)
 -------------------------------------------
 SET_328_BBB6_conf1.geo_165_225_075 geometry
 -------------------------------------------
 Symbolic Z-matrix:
 Charge =  1 Multiplicity = 1
 C                    -0.715     2.309    -1.345 
 H                    -0.454     3.004    -0.545 
 H                    -1.736     2.441    -1.709 
 H                    -0.044     2.514    -2.181 
 C                    -0.473     0.919    -0.797 
 N                    -0.861     0.024    -1.907 
 C                    -1.136    -1.406    -1.553 
 C                     0.253    -2.131    -1.209 
 H                     0.76     -1.946    -0.259 
 H                     0.969    -1.884    -1.996 
 H                     0.092    -3.211    -1.21 
 C                    -2.136    -1.566    -0.417 
 H                    -2.961    -0.856    -0.511 
 H                    -1.65     -1.195     0.488 
 H                    -2.629    -2.535    -0.311 
 C                    -1.651    -2.156    -2.831 
 H                    -2.108    -3.145    -2.758 
 H                    -0.881    -2.456    -3.544 
 H                    -2.403    -1.481    -3.246 
 H                    -0.126     0.038    -2.585 
 H                    -1.155     0.805     0.05 
 C                     0.909     0.869    -0.174 
 O                     1.865     0.705    -0.969 
 C                     1.185     0.875     1.295 
 C                     2.469     0.507     1.759 
 H                     3.201     0.        1.136 
 C                     2.83      0.773     3.069 
 Cl                    4.414     0.5       3.667 
 C                     1.885     1.251     3.984 
 H                     2.222     1.348     5.013 
 C                     0.577     1.614     3.48 
 H                    -0.033     2.086     4.246 
 C                     0.289     1.453     2.189 
 H                    -0.667     1.767     1.779 
 H                    -1.684     0.4      -2.333 
 
 ITRead=  0  0  0  0  0  0  0  0  0  0  0  0  0  0  0  0  0  0  0  0
 ITRead=  0  0  0  0  0  0  0  0  0  0  0  0  0  0  0
 MicOpt= -1 -1 -1 -1 -1 -1 -1 -1 -1 -1 -1 -1 -1 -1 -1 -1 -1 -1 -1 -1
 MicOpt= -1 -1 -1 -1 -1 -1 -1 -1 -1 -1 -1 -1 -1 -1 -1
 NAtoms=     35 NQM=       35 NQMF=       0 NMMI=      0 NMMIF=      0
                NMic=       0 NMicF=      0.
                    Isotopes and Nuclear Properties:
 (Nuclear quadrupole moments (NQMom) in fm**2, nuclear magnetic moments (NMagM)
  in nuclear magnetons)

  Atom         1           2           3           4           5           6           7           8           9          10
 IAtWgt=          12           1           1           1          12          14          12          12           1           1
 AtmWgt=  12.0000000   1.0078250   1.0078250   1.0078250  12.0000000  14.0030740  12.0000000  12.0000000   1.0078250   1.0078250
 NucSpn=           0           1           1           1           0           2           0           0           1           1
 AtZEff=  -0.0000000  -0.0000000  -0.0000000  -0.0000000  -0.0000000  -0.0000000  -0.0000000  -0.0000000  -0.0000000  -0.0000000
 NQMom=    0.0000000   0.0000000   0.0000000   0.0000000   0.0000000   2.0440000   0.0000000   0.0000000   0.0000000   0.0000000
 NMagM=    0.0000000   2.7928460   2.7928460   2.7928460   0.0000000   0.4037610   0.0000000   0.0000000   2.7928460   2.7928460
 AtZNuc=   6.0000000   1.0000000   1.0000000   1.0000000   6.0000000   7.0000000   6.0000000   6.0000000   1.0000000   1.0000000

  Atom        11          12          13          14          15          16          17          18          19          20
 IAtWgt=           1          12           1           1           1          12           1           1           1           1
 AtmWgt=   1.0078250  12.0000000   1.0078250   1.0078250   1.0078250  12.0000000   1.0078250   1.0078250   1.0078250   1.0078250
 NucSpn=           1           0           1           1           1           0           1           1           1           1
 AtZEff=  -0.0000000  -0.0000000  -0.0000000  -0.0000000  -0.0000000  -0.0000000  -0.0000000  -0.0000000  -0.0000000  -0.0000000
 NQMom=    0.0000000   0.0000000   0.0000000   0.0000000   0.0000000   0.0000000   0.0000000   0.0000000   0.0000000   0.0000000
 NMagM=    2.7928460   0.0000000   2.7928460   2.7928460   2.7928460   0.0000000   2.7928460   2.7928460   2.7928460   2.7928460
 AtZNuc=   1.0000000   6.0000000   1.0000000   1.0000000   1.0000000   6.0000000   1.0000000   1.0000000   1.0000000   1.0000000

  Atom        21          22          23          24          25          26          27          28          29          30
 IAtWgt=           1          12          16          12          12           1          12          35          12           1
 AtmWgt=   1.0078250  12.0000000  15.9949146  12.0000000  12.0000000   1.0078250  12.0000000  34.9688527  12.0000000   1.0078250
 NucSpn=           1           0           0           0           0           1           0           3           0           1
 AtZEff=  -0.0000000  -0.0000000  -0.0000000  -0.0000000  -0.0000000  -0.0000000  -0.0000000  -0.0000000  -0.0000000  -0.0000000
 NQMom=    0.0000000   0.0000000   0.0000000   0.0000000   0.0000000   0.0000000   0.0000000  -8.1650000   0.0000000   0.0000000
 NMagM=    2.7928460   0.0000000   0.0000000   0.0000000   0.0000000   2.7928460   0.0000000   0.8218740   0.0000000   2.7928460
 AtZNuc=   1.0000000   6.0000000   8.0000000   6.0000000   6.0000000   1.0000000   6.0000000  17.0000000   6.0000000   1.0000000

  Atom        31          32          33          34          35
 IAtWgt=          12           1          12           1           1
 AtmWgt=  12.0000000   1.0078250  12.0000000   1.0078250   1.0078250
 NucSpn=           0           1           0           1           1
 AtZEff=  -0.0000000  -0.0000000  -0.0000000  -0.0000000  -0.0000000
 NQMom=    0.0000000   0.0000000   0.0000000   0.0000000   0.0000000
 NMagM=    0.0000000   2.7928460   0.0000000   2.7928460   2.7928460
 AtZNuc=   6.0000000   1.0000000   6.0000000   1.0000000   1.0000000
 Leave Link  101 at Sun Jul 18 16:30:57 2021, MaxMem=   104857600 cpu:               0.1 elap:               0.1
 (Enter /dades/curu/g16A03_MST/g16/l103.exe)

 GradGradGradGradGradGradGradGradGradGradGradGradGradGradGradGradGradGrad
 Berny optimization.
 Initialization pass.
                           ----------------------------
                           !    Initial Parameters    !
                           ! (Angstroms and Degrees)  !
 --------------------------                            --------------------------
 ! Name  Definition              Value          Derivative Info.                !
 --------------------------------------------------------------------------------
 ! R1    R(1,2)                  1.0914         estimate D2E/DX2                !
 ! R2    R(1,3)                  1.092          estimate D2E/DX2                !
 ! R3    R(1,4)                  1.0914         estimate D2E/DX2                !
 ! R4    R(1,5)                  1.5136         estimate D2E/DX2                !
 ! R5    R(5,6)                  1.4777         estimate D2E/DX2                !
 ! R6    R(5,21)                 1.0934         estimate D2E/DX2                !
 ! R7    R(5,22)                 1.5168         estimate D2E/DX2                !
 ! R8    R(6,7)                  1.4986         estimate D2E/DX2                !
 ! R9    R(6,20)                 1.0001         estimate D2E/DX2                !
 ! R10   R(6,35)                 1.0001         estimate D2E/DX2                !
 ! R11   R(7,8)                  1.6041         estimate D2E/DX2                !
 ! R12   R(7,12)                 1.5219         estimate D2E/DX2                !
 ! R13   R(7,16)                 1.5688         estimate D2E/DX2                !
 ! R14   R(8,9)                  1.0926         estimate D2E/DX2                !
 ! R15   R(8,10)                 1.0923         estimate D2E/DX2                !
 ! R16   R(8,11)                 1.0919         estimate D2E/DX2                !
 ! R17   R(12,13)                1.0925         estimate D2E/DX2                !
 ! R18   R(12,14)                1.0922         estimate D2E/DX2                !
 ! R19   R(12,15)                1.0924         estimate D2E/DX2                !
 ! R20   R(16,17)                1.0919         estimate D2E/DX2                !
 ! R21   R(16,18)                1.0915         estimate D2E/DX2                !
 ! R22   R(16,19)                1.0924         estimate D2E/DX2                !
 ! R23   R(22,23)                1.2541         estimate D2E/DX2                !
 ! R24   R(22,24)                1.4947         estimate D2E/DX2                !
 ! R25   R(24,25)                1.414          estimate D2E/DX2                !
 ! R26   R(24,33)                1.3915         estimate D2E/DX2                !
 ! R27   R(25,26)                1.0867         estimate D2E/DX2                !
 ! R28   R(25,27)                1.3846         estimate D2E/DX2                !
 ! R29   R(27,28)                1.715          estimate D2E/DX2                !
 ! R30   R(27,29)                1.3995         estimate D2E/DX2                !
 ! R31   R(29,30)                1.0871         estimate D2E/DX2                !
 ! R32   R(29,31)                1.448          estimate D2E/DX2                !
 ! R33   R(31,32)                1.087          estimate D2E/DX2                !
 ! R34   R(31,33)                1.3325         estimate D2E/DX2                !
 ! R35   R(33,34)                1.0866         estimate D2E/DX2                !
 ! A1    A(2,1,3)              113.0149         estimate D2E/DX2                !
 ! A2    A(2,1,4)              107.1476         estimate D2E/DX2                !
 ! A3    A(2,1,5)              106.3306         estimate D2E/DX2                !
 ! A4    A(3,1,4)              107.2661         estimate D2E/DX2                !
 ! A5    A(3,1,5)              112.4079         estimate D2E/DX2                !
 ! A6    A(4,1,5)              110.5805         estimate D2E/DX2                !
 ! A7    A(1,5,6)              104.0204         estimate D2E/DX2                !
 ! A8    A(1,5,21)             106.0505         estimate D2E/DX2                !
 ! A9    A(1,5,22)             108.9452         estimate D2E/DX2                !
 ! A10   A(6,5,21)             110.7909         estimate D2E/DX2                !
 ! A11   A(6,5,22)             121.8573         estimate D2E/DX2                !
 ! A12   A(21,5,22)            104.2826         estimate D2E/DX2                !
 ! A13   A(5,6,7)              116.6588         estimate D2E/DX2                !
 ! A14   A(5,6,20)             107.9268         estimate D2E/DX2                !
 ! A15   A(5,6,35)             107.9585         estimate D2E/DX2                !
 ! A16   A(7,6,20)             107.9612         estimate D2E/DX2                !
 ! A17   A(7,6,35)             107.9606         estimate D2E/DX2                !
 ! A18   A(20,6,35)            108.1056         estimate D2E/DX2                !
 ! A19   A(6,7,8)              108.846          estimate D2E/DX2                !
 ! A20   A(6,7,12)             113.4046         estimate D2E/DX2                !
 ! A21   A(6,7,16)             108.905          estimate D2E/DX2                !
 ! A22   A(8,7,12)             111.1844         estimate D2E/DX2                !
 ! A23   A(8,7,16)             104.0567         estimate D2E/DX2                !
 ! A24   A(12,7,16)            110.0064         estimate D2E/DX2                !
 ! A25   A(7,8,9)              120.7789         estimate D2E/DX2                !
 ! A26   A(7,8,10)             108.1128         estimate D2E/DX2                !
 ! A27   A(7,8,11)             108.6114         estimate D2E/DX2                !
 ! A28   A(9,8,10)             106.4999         estimate D2E/DX2                !
 ! A29   A(9,8,11)             103.691          estimate D2E/DX2                !
 ! A30   A(10,8,11)            108.6422         estimate D2E/DX2                !
 ! A31   A(7,12,13)            111.3243         estimate D2E/DX2                !
 ! A32   A(7,12,14)            106.8829         estimate D2E/DX2                !
 ! A33   A(7,12,15)            117.5323         estimate D2E/DX2                !
 ! A34   A(13,12,14)           100.7523         estimate D2E/DX2                !
 ! A35   A(13,12,15)           104.1247         estimate D2E/DX2                !
 ! A36   A(14,12,15)           114.9449         estimate D2E/DX2                !
 ! A37   A(7,16,17)            121.0612         estimate D2E/DX2                !
 ! A38   A(7,16,18)            115.5939         estimate D2E/DX2                !
 ! A39   A(7,16,19)            103.8902         estimate D2E/DX2                !
 ! A40   A(17,16,18)            95.1626         estimate D2E/DX2                !
 ! A41   A(17,16,19)           107.2743         estimate D2E/DX2                !
 ! A42   A(18,16,19)           114.0362         estimate D2E/DX2                !
 ! A43   A(5,22,23)            116.0077         estimate D2E/DX2                !
 ! A44   A(5,22,24)            124.8752         estimate D2E/DX2                !
 ! A45   A(23,22,24)           118.8663         estimate D2E/DX2                !
 ! A46   A(22,24,25)           119.2837         estimate D2E/DX2                !
 ! A47   A(22,24,33)           120.9444         estimate D2E/DX2                !
 ! A48   A(25,24,33)           118.8166         estimate D2E/DX2                !
 ! A49   A(24,25,26)           123.0212         estimate D2E/DX2                !
 ! A50   A(24,25,27)           119.8161         estimate D2E/DX2                !
 ! A51   A(26,25,27)           117.1544         estimate D2E/DX2                !
 ! A52   A(25,27,28)           122.6921         estimate D2E/DX2                !
 ! A53   A(25,27,29)           120.5385         estimate D2E/DX2                !
 ! A54   A(28,27,29)           116.7466         estimate D2E/DX2                !
 ! A55   A(27,29,30)           116.1034         estimate D2E/DX2                !
 ! A56   A(27,29,31)           117.9047         estimate D2E/DX2                !
 ! A57   A(30,29,31)           125.953          estimate D2E/DX2                !
 ! A58   A(29,31,32)           111.7458         estimate D2E/DX2                !
 ! A59   A(29,31,33)           120.1445         estimate D2E/DX2                !
 ! A60   A(32,31,33)           127.8722         estimate D2E/DX2                !
 ! A61   A(24,33,31)           122.2422         estimate D2E/DX2                !
 ! A62   A(24,33,34)           116.3696         estimate D2E/DX2                !
 ! A63   A(31,33,34)           121.388          estimate D2E/DX2                !
 ! D1    D(2,1,5,6)            179.115          estimate D2E/DX2                !
 ! D2    D(2,1,5,21)            62.2084         estimate D2E/DX2                !
 ! D3    D(2,1,5,22)           -49.5178         estimate D2E/DX2                !
 ! D4    D(3,1,5,6)             54.9558         estimate D2E/DX2                !
 ! D5    D(3,1,5,21)           -61.9509         estimate D2E/DX2                !
 ! D6    D(3,1,5,22)          -173.677          estimate D2E/DX2                !
 ! D7    D(4,1,5,6)            -64.8964         estimate D2E/DX2                !
 ! D8    D(4,1,5,21)           178.1969         estimate D2E/DX2                !
 ! D9    D(4,1,5,22)            66.4708         estimate D2E/DX2                !
 ! D10   D(1,5,6,7)           -161.8189         estimate D2E/DX2                !
 ! D11   D(1,5,6,20)            76.5076         estimate D2E/DX2                !
 ! D12   D(1,5,6,35)           -40.1213         estimate D2E/DX2                !
 ! D13   D(21,5,6,7)           -48.2637         estimate D2E/DX2                !
 ! D14   D(21,5,6,20)         -169.9372         estimate D2E/DX2                !
 ! D15   D(21,5,6,35)           73.4339         estimate D2E/DX2                !
 ! D16   D(22,5,6,7)            74.8724         estimate D2E/DX2                !
 ! D17   D(22,5,6,20)          -46.8011         estimate D2E/DX2                !
 ! D18   D(22,5,6,35)         -163.43           estimate D2E/DX2                !
 ! D19   D(1,5,22,23)          -81.2098         estimate D2E/DX2                !
 ! D20   D(1,5,22,24)          104.6324         estimate D2E/DX2                !
 ! D21   D(6,5,22,23)           39.7793         estimate D2E/DX2                !
 ! D22   D(6,5,22,24)         -134.3785         estimate D2E/DX2                !
 ! D23   D(21,5,22,23)         165.8962         estimate D2E/DX2                !
 ! D24   D(21,5,22,24)          -8.2616         estimate D2E/DX2                !
 ! D25   D(5,6,7,8)            -72.1229         estimate D2E/DX2                !
 ! D26   D(5,6,7,12)            52.1969         estimate D2E/DX2                !
 ! D27   D(5,6,7,16)           175.0365         estimate D2E/DX2                !
 ! D28   D(20,6,7,8)            49.5325         estimate D2E/DX2                !
 ! D29   D(20,6,7,12)          173.8523         estimate D2E/DX2                !
 ! D30   D(20,6,7,16)          -63.3081         estimate D2E/DX2                !
 ! D31   D(35,6,7,8)           166.1805         estimate D2E/DX2                !
 ! D32   D(35,6,7,12)          -69.4997         estimate D2E/DX2                !
 ! D33   D(35,6,7,16)           53.3399         estimate D2E/DX2                !
 ! D34   D(6,7,8,9)             75.2778         estimate D2E/DX2                !
 ! D35   D(6,7,8,10)           -47.5855         estimate D2E/DX2                !
 ! D36   D(6,7,8,11)          -165.298          estimate D2E/DX2                !
 ! D37   D(12,7,8,9)           -50.3436         estimate D2E/DX2                !
 ! D38   D(12,7,8,10)         -173.2069         estimate D2E/DX2                !
 ! D39   D(12,7,8,11)           69.0806         estimate D2E/DX2                !
 ! D40   D(16,7,8,9)          -168.7215         estimate D2E/DX2                !
 ! D41   D(16,7,8,10)           68.4152         estimate D2E/DX2                !
 ! D42   D(16,7,8,11)          -49.2973         estimate D2E/DX2                !
 ! D43   D(6,7,12,13)           40.8839         estimate D2E/DX2                !
 ! D44   D(6,7,12,14)          -68.2498         estimate D2E/DX2                !
 ! D45   D(6,7,12,15)          160.8124         estimate D2E/DX2                !
 ! D46   D(8,7,12,13)          163.9254         estimate D2E/DX2                !
 ! D47   D(8,7,12,14)           54.7918         estimate D2E/DX2                !
 ! D48   D(8,7,12,15)          -76.1461         estimate D2E/DX2                !
 ! D49   D(16,7,12,13)         -81.3458         estimate D2E/DX2                !
 ! D50   D(16,7,12,14)         169.5205         estimate D2E/DX2                !
 ! D51   D(16,7,12,15)          38.5827         estimate D2E/DX2                !
 ! D52   D(6,7,16,17)         -167.0183         estimate D2E/DX2                !
 ! D53   D(6,7,16,18)           79.0922         estimate D2E/DX2                !
 ! D54   D(6,7,16,19)          -46.6178         estimate D2E/DX2                !
 ! D55   D(8,7,16,17)           77.0224         estimate D2E/DX2                !
 ! D56   D(8,7,16,18)          -36.8671         estimate D2E/DX2                !
 ! D57   D(8,7,16,19)         -162.5771         estimate D2E/DX2                !
 ! D58   D(12,7,16,17)         -42.1614         estimate D2E/DX2                !
 ! D59   D(12,7,16,18)        -156.0508         estimate D2E/DX2                !
 ! D60   D(12,7,16,19)          78.2391         estimate D2E/DX2                !
 ! D61   D(5,22,24,25)         164.9672         estimate D2E/DX2                !
 ! D62   D(5,22,24,33)         -26.348          estimate D2E/DX2                !
 ! D63   D(23,22,24,25)         -9.0367         estimate D2E/DX2                !
 ! D64   D(23,22,24,33)        159.6481         estimate D2E/DX2                !
 ! D65   D(22,24,25,26)        -14.6754         estimate D2E/DX2                !
 ! D66   D(22,24,25,27)        166.4017         estimate D2E/DX2                !
 ! D67   D(33,24,25,26)        176.3979         estimate D2E/DX2                !
 ! D68   D(33,24,25,27)         -2.525          estimate D2E/DX2                !
 ! D69   D(22,24,33,31)       -171.944          estimate D2E/DX2                !
 ! D70   D(22,24,33,34)          8.2177         estimate D2E/DX2                !
 ! D71   D(25,24,33,31)         -3.2075         estimate D2E/DX2                !
 ! D72   D(25,24,33,34)        176.9542         estimate D2E/DX2                !
 ! D73   D(24,25,27,28)       -173.8663         estimate D2E/DX2                !
 ! D74   D(24,25,27,29)          7.9251         estimate D2E/DX2                !
 ! D75   D(26,25,27,28)          7.1486         estimate D2E/DX2                !
 ! D76   D(26,25,27,29)       -171.0599         estimate D2E/DX2                !
 ! D77   D(25,27,29,30)        174.5377         estimate D2E/DX2                !
 ! D78   D(25,27,29,31)         -7.5942         estimate D2E/DX2                !
 ! D79   D(28,27,29,30)         -3.774          estimate D2E/DX2                !
 ! D80   D(28,27,29,31)        174.094          estimate D2E/DX2                !
 ! D81   D(27,29,31,32)       -172.8846         estimate D2E/DX2                !
 ! D82   D(27,29,31,33)          1.9468         estimate D2E/DX2                !
 ! D83   D(30,29,31,32)          4.7503         estimate D2E/DX2                !
 ! D84   D(30,29,31,33)        179.5816         estimate D2E/DX2                !
 ! D85   D(29,31,33,24)          3.4393         estimate D2E/DX2                !
 ! D86   D(29,31,33,34)       -176.7304         estimate D2E/DX2                !
 ! D87   D(32,31,33,24)        177.3543         estimate D2E/DX2                !
 ! D88   D(32,31,33,34)         -2.8153         estimate D2E/DX2                !
 --------------------------------------------------------------------------------
 Trust Radius=3.00D-01 FncErr=1.00D-07 GrdErr=1.00D-06 EigMax=2.50D+02 EigMin=1.00D-04
 Number of steps in this run=    196 maximum allowed number of steps=    210.
 GradGradGradGradGradGradGradGradGradGradGradGradGradGradGradGradGradGrad

 Leave Link  103 at Sun Jul 18 16:30:57 2021, MaxMem=   104857600 cpu:               0.1 elap:               0.0
 (Enter /dades/curu/g16A03_MST/g16/l202.exe)
                          Input orientation:                          
 ---------------------------------------------------------------------
 Center     Atomic      Atomic             Coordinates (Angstroms)
 Number     Number       Type             X           Y           Z
 ---------------------------------------------------------------------
      1          6           0       -0.715000    2.309000   -1.345000
      2          1           0       -0.454000    3.004000   -0.545000
      3          1           0       -1.736000    2.441000   -1.709000
      4          1           0       -0.044000    2.514000   -2.181000
      5          6           0       -0.473000    0.919000   -0.797000
      6          7           0       -0.861000    0.024000   -1.907000
      7          6           0       -1.136000   -1.406000   -1.553000
      8          6           0        0.253000   -2.131000   -1.209000
      9          1           0        0.760000   -1.946000   -0.259000
     10          1           0        0.969000   -1.884000   -1.996000
     11          1           0        0.092000   -3.211000   -1.210000
     12          6           0       -2.136000   -1.566000   -0.417000
     13          1           0       -2.961000   -0.856000   -0.511000
     14          1           0       -1.650000   -1.195000    0.488000
     15          1           0       -2.629000   -2.535000   -0.311000
     16          6           0       -1.651000   -2.156000   -2.831000
     17          1           0       -2.108000   -3.145000   -2.758000
     18          1           0       -0.881000   -2.456000   -3.544000
     19          1           0       -2.403000   -1.481000   -3.246000
     20          1           0       -0.126000    0.038000   -2.585000
     21          1           0       -1.155000    0.805000    0.050000
     22          6           0        0.909000    0.869000   -0.174000
     23          8           0        1.865000    0.705000   -0.969000
     24          6           0        1.185000    0.875000    1.295000
     25          6           0        2.469000    0.507000    1.759000
     26          1           0        3.201000    0.000000    1.136000
     27          6           0        2.830000    0.773000    3.069000
     28         17           0        4.414000    0.500000    3.667000
     29          6           0        1.885000    1.251000    3.984000
     30          1           0        2.222000    1.348000    5.013000
     31          6           0        0.577000    1.614000    3.480000
     32          1           0       -0.033000    2.086000    4.246000
     33          6           0        0.289000    1.453000    2.189000
     34          1           0       -0.667000    1.767000    1.779000
     35          1           0       -1.684000    0.400000   -2.333000
 ---------------------------------------------------------------------
                    Distance matrix (angstroms):
                    1          2          3          4          5
     1  C    0.000000
     2  H    1.091396   0.000000
     3  H    1.091953   1.820821   0.000000
     4  H    1.091404   1.756330   1.758117   0.000000
     5  C    1.513594   2.100260   2.177934   2.154883   0.000000
     6  N    2.357623   3.301680   2.578123   2.634894   1.477724
     7  C    3.744560   4.574854   3.896633   4.117432   2.533127
     8  C    4.546330   5.225799   5.010919   4.754894   3.162170
     9  H    4.632499   5.104713   5.251503   4.922611   3.165116
    10  H    4.565184   5.293664   5.109307   4.516946   3.372503
    11  H    5.580311   6.274278   5.961182   5.808353   4.188877
    12  C    4.230372   4.871387   4.229103   4.912694   3.014166
    13  H    3.969546   4.602804   3.715648   4.759694   3.069620
    14  H    4.063512   4.486547   4.249082   4.843499   2.739626
    15  H    5.310074   5.955326   5.245229   5.972564   4.100567
    16  C    4.797970   5.769246   4.732707   4.981350   3.870461
    17  H    5.803717   6.741164   5.695804   6.051224   4.799463
    18  H    5.250560   6.244032   5.298949   5.221038   4.370709
    19  H    4.563688   5.586522   4.264896   4.760161   3.934781
    20  H    2.653670   3.614739   3.022232   2.510083   2.023243
    21  H    2.098009   2.383491   2.471465   3.021980   1.093402
    22  C    2.466215   2.560007   3.438522   2.764468   1.516757
    23  O    3.061142   3.292862   4.065525   2.895808   2.354065
    24  C    3.554709   3.256465   4.473099   4.034766   2.669712
    25  C    4.797903   4.481892   5.783546   5.085943   3.918960
    26  H    5.178986   5.020837   6.198909   5.277567   4.251979
    27  C    5.865980   5.368707   6.816147   6.233254   5.086952
    28  Cl   7.395895   6.907126   8.395913   7.624242   6.632166
    29  C    6.023089   5.390341   6.851131   6.582054   5.341194
    30  H    7.069205   6.387071   7.876909   7.632034   6.418969
    31  C    5.043106   4.381288   5.741047   5.765636   4.458504
    32  H    5.636855   4.896289   6.203891   6.441245   5.194934
    33  C    3.772255   3.229924   4.502352   4.509269   3.127618
    34  H    3.171032   2.641309   3.709876   4.077712   2.718918
    35  H    2.357835   3.389788   2.134891   2.679869   2.023655
                    6          7          8          9         10
     6  N    0.000000
     7  C    1.498613   0.000000
     8  C    2.524327   1.604145   0.000000
     9  H    3.037177   2.358146   1.092600   0.000000
    10  H    2.645238   2.203578   1.092261   1.750627   0.000000
    11  H    3.443725   2.209900   1.091935   1.717804   1.774219
    12  C    2.524644   1.521873   2.579498   2.925095   3.497912
    13  H    2.670808   2.172300   3.527411   3.885543   4.325148
    14  H    2.800805   2.115277   2.716121   2.632510   3.674798
    15  H    3.495929   2.246387   3.045578   3.440196   4.025994
    16  C    2.496052   1.568760   2.501345   3.531601   2.763261
    17  H    3.510238   2.328289   3.000320   3.988487   3.411553
    18  H    2.971627   2.265305   2.616067   3.707318   2.479110
    19  H    2.536870   2.115931   3.409722   4.375267   3.618742
    20  H    1.000052   2.042121   2.596455   3.183006   2.289111
    21  H    2.127498   2.731024   3.491080   3.366112   3.991017
    22  C    2.617291   3.355487   3.240611   2.820222   3.301862
    23  O    2.962209   3.715290   3.270939   2.958534   2.925827
    24  C    3.893985   4.324478   4.021775   3.248628   4.299932
    25  C    4.976117   5.255943   4.547387   3.606967   4.697543
    26  H    5.075458   5.293121   4.327920   3.419272   4.282605
    27  C    6.240598   6.468391   5.777147   4.770057   6.014748
    28  Cl   7.689062   7.853899   6.929030   5.894753   7.044221
    29  C    6.614373   6.844301   6.408479   5.430422   6.813786
    30  H    7.690531   7.872295   7.395518   6.386068   7.819330
    31  C    5.797906   6.114398   6.009719   5.165967   6.509704
    32  H    6.541929   6.858504   6.900863   6.097614   7.465083
    33  C    4.487957   4.920068   4.938902   4.215180   5.395572
    34  H    4.081946   4.624945   4.996894   4.469468   5.500629
    35  H    1.000090   2.042141   3.379542   3.972194   3.516907
                   11         12         13         14         15
    11  H    0.000000
    12  C    2.880774   0.000000
    13  H    3.918601   1.092502   0.000000
    14  H    3.159434   1.092182   1.682749   0.000000
    15  H    2.944320   1.092358   1.723156   1.841858   0.000000
    16  C    2.603597   2.531940   2.964540   3.455327   2.729565
    17  H    2.690847   2.823881   3.319057   3.814286   2.575141
    18  H    2.638998   3.485004   4.010672   4.294008   3.676144
    19  H    3.655574   2.842843   2.860457   3.819890   3.126694
    20  H    3.534706   3.363501   3.624629   3.645023   4.249284
    21  H    4.389859   2.608082   2.516998   2.106388   3.668596
    22  C    4.288028   3.906443   4.250423   3.353628   4.911561
    23  O    4.305423   4.633589   5.092815   4.253008   5.579122
    24  C    4.915798   4.463011   4.842243   3.601857   5.362269
    25  C    5.318704   5.498939   6.041156   4.634480   6.287151
    26  H    5.047783   5.774750   6.435494   5.037870   6.519888
    27  C    6.455907   6.502636   7.000409   5.532177   7.222738
    28  Cl   7.499089   7.990614   8.583999   7.053450   8.639419
    29  C    7.078272   6.593385   6.937448   5.540862   7.290886
    30  H    8.002944   7.547745   7.888959   6.475713   8.182595
    31  C    6.746255   5.714838   5.877621   4.669269   6.470264
    32  H    7.605378   6.285164   6.313287   5.244255   6.989929
    33  C    5.774505   4.667571   4.814975   3.696624   5.537948
    34  H    5.855825   4.253148   4.169732   3.377338   5.169598
    35  H    4.177873   2.782178   2.554985   3.240867   3.687239
                   16         17         18         19         20
    16  C    0.000000
    17  H    1.091924   0.000000
    18  H    1.091453   1.611846   0.000000
    19  H    1.092407   1.758995   1.831915   0.000000
    20  H    2.683240   3.753631   2.776642   2.815850   0.000000
    21  H    4.160973   4.939187   4.860662   4.200823   2.930931
    22  C    4.771150   5.647260   5.061287   5.092055   2.752219
    23  O    4.900472   5.814443   4.915594   5.308404   2.649609
    24  C    5.852669   6.590224   6.227346   6.248613   4.180154
    25  C    6.718189   7.395223   6.937123   7.262131   5.081764
    26  H    6.627770   7.296557   6.678103   7.266368   4.991614
    27  C    7.966706   8.584200   8.241949   8.505529   6.422295
    28  Cl   9.276991   9.854092   9.421968   9.908856   7.740320
    29  C    8.399712   8.984622   8.835349   8.838759   6.976192
    30  H    9.423719   9.966162   9.865155   9.879522   8.059703
    31  C    7.681511   8.292765   8.247863   7.981134   6.305728
    32  H    8.408116   8.984709   9.057205   8.629626   7.132006
    33  C    6.479883   7.166591   7.036794   6.737540   4.996551
    34  H    6.132722   6.840219   6.798077   6.230074   4.725105
    35  H    2.604271   3.595473   3.204382   2.211038   1.619232
                   21         22         23         24         25
    21  H    0.000000
    22  C    2.077106   0.000000
    23  O    3.188849   1.254136   0.000000
    24  C    2.651514   1.494715   2.370020   0.000000
    25  C    4.017818   2.510206   2.801072   1.413993   0.000000
    26  H    4.560938   2.779303   2.590935   2.203443   1.086739
    27  C    4.999561   3.770478   4.152264   2.421468   1.384622
    28  Cl   6.647516   5.212913   5.294518   4.024109   2.724617
    29  C    4.991680   4.288061   4.983044   2.803943   2.417688
    30  H    6.027466   5.372000   6.027041   3.888782   3.369986
    31  C    3.926730   3.743924   4.720045   2.385374   2.786926
    32  H    4.528384   4.680262   5.718898   3.414447   3.865024
    33  C    2.660895   2.511817   3.607803   1.391451   2.414998
    34  H    2.037898   2.665406   3.884633   2.111830   3.379718
    35  H    2.474380   3.406595   3.814305   4.649642   5.831237
                   26         27         28         29         30
    26  H    0.000000
    27  C    2.114630   0.000000
    28  Cl   2.850847   1.714990   0.000000
    29  C    3.377567   1.399548   2.657128   0.000000
    30  H    4.219795   2.116465   2.708447   1.087115   0.000000
    31  C    3.871009   2.439715   3.999817   1.447981   2.264259
    32  H    4.947954   3.362450   4.756726   2.108220   2.493583
    33  C    3.420491   2.773712   4.484230   2.410403   3.423812
    34  H    4.300833   3.857609   5.566542   3.411889   4.356677
    35  H    6.004764   7.049605   8.555443   7.305234   8.373724
                   31         32         33         34         35
    31  C    0.000000
    32  H    1.087033   0.000000
    33  C    1.332496   2.176148   0.000000
    34  H    2.112900   2.567062   1.086569   0.000000
    35  H    6.354281   6.989395   5.044801   4.451014   0.000000
 Stoichiometry    C13H19ClNO(1+)
 Framework group  C1[X(C13H19ClNO)]
 Deg. of freedom    99
 Full point group                 C1      NOp   1
 Largest Abelian subgroup         C1      NOp   1
 Largest concise Abelian subgroup C1      NOp   1
                         Standard orientation:                         
 ---------------------------------------------------------------------
 Center     Atomic      Atomic             Coordinates (Angstroms)
 Number     Number       Type             X           Y           Z
 ---------------------------------------------------------------------
      1          6           0       -1.807583    2.278071   -1.329157
      2          1           0       -0.869317    2.833966   -1.286918
      3          1           0       -2.669060    2.869910   -1.013018
      4          1           0       -1.970431    2.000411   -2.372012
      5          6           0       -1.610197    1.044422   -0.474688
      6          7           0       -2.909855    0.345197   -0.549812
      7          6           0       -3.183645   -0.680559    0.507877
      8          6           0       -2.266257   -1.967197    0.231753
      9          1           0       -1.197813   -1.951385    0.459678
     10          1           0       -2.354072   -2.226237   -0.825706
     11          1           0       -2.645363   -2.799896    0.827751
     12          6           0       -2.985462   -0.157309    1.923161
     13          1           0       -3.375335    0.857683    2.029704
     14          1           0       -1.915280    0.021301    2.048345
     15          1           0       -3.458386   -0.711341    2.737187
     16          6           0       -4.648959   -1.212693    0.332669
     17          1           0       -5.129788   -1.806400    1.112807
     18          1           0       -4.790278   -1.953883   -0.455959
     19          1           0       -5.243571   -0.305586    0.202490
     20          1           0       -2.964920   -0.107357   -1.439906
     21          1           0       -1.422233    1.406281    0.539834
     22          6           0       -0.313242    0.368882   -0.877314
     23          8           0       -0.367111   -0.363216   -1.894166
     24          6           0        0.956169    0.417616   -0.089665
     25          6           0        1.991840   -0.497119   -0.389699
     26          1           0        1.840996   -1.382821   -1.001074
     27          6           0        3.261575   -0.291887    0.122970
     28         17           0        4.605308   -1.263691   -0.314257
     29          6           0        3.493392    0.715903    1.066026
     30          1           0        4.494356    0.754691    1.488383
     31          6           0        2.411838    1.633704    1.356768
     32          1           0        2.735102    2.444976    2.004054
     33          6           0        1.228116    1.482276    0.763963
     34          1           0        0.419091    2.189091    0.926824
     35          1           0       -3.633582    1.034027   -0.506072
 ---------------------------------------------------------------------
 Rotational constants (GHZ):           0.8877622           0.2183105           0.2085334
 Leave Link  202 at Sun Jul 18 16:30:57 2021, MaxMem=   104857600 cpu:               0.1 elap:               0.0
 (Enter /dades/curu/g16A03_MST/g16/l301.exe)
 Standard basis: 6-31G(d) (6D, 7F)
 Ernie: Thresh=  0.10000D-02 Tol=  0.10000D-05 Strict=F.
 There are   282 symmetry adapted cartesian basis functions of A   symmetry.
 There are   282 symmetry adapted basis functions of A   symmetry.
   282 basis functions,   548 primitive gaussians,   282 cartesian basis functions
    64 alpha electrons       64 beta electrons
       nuclear repulsion energy      1219.8818030442 Hartrees.
 IExCor=  402 DFT=T Ex+Corr=B3LYP ExCW=0 ScaHFX=  0.200000
 ScaDFX=  0.800000  0.720000  1.000000  0.810000 ScalE2=  1.000000  1.000000
 IRadAn=      5 IRanWt=     -1 IRanGd=            0 ICorTp=0 IEmpDi=  4
 NAtoms=   35 NActive=   35 NUniq=   35 SFac= 1.00D+00 NAtFMM=   60 NAOKFM=F Big=F
 Integral buffers will be    131072 words long.
 Raffenetti 2 integral format.
 Two-electron integral symmetry is turned on.
 Using the following non-standard input for PCM:
 MSTModel=DFT cav MSTCharged
 --- end of non-standard input.
 MST model for solvation energy: B3LYP parametrization.
 MST cavity parameters:
 ISph   IAn     Re0     Alpha   Atom Type   QCorr
 ------------------------------------------------
   1      6     1.50     1.50      CH3        F
   2      1     1.20     1.50      CH3        F
   3      1     1.20     1.50      CH3        F
   4      1     1.20     1.50      CH3        F
   5      6     1.50     1.50      CN+        F
   6      7     1.50     1.15      NH+        T
   7      6     1.50     1.50      CN+        F
   8      6     1.50     1.50      CH3        F
   9      1     1.20     1.50      CH3        F
  10      1     1.20     1.50      CH3        F
  11      1     1.20     1.50      CH3        F
  12      6     1.50     1.50      CH3        F
  13      1     1.20     1.50      CH3        F
  14      1     1.20     1.50      CH3        F
  15      1     1.20     1.50      CH3        F
  16      6     1.50     1.50      CH3        F
  17      1     1.20     1.50      CH3        F
  18      1     1.20     1.50      CH3        F
  19      1     1.20     1.50      CH3        F
  20      1     0.90     1.15      NH+        T
  21      1     1.20     1.50      CN+        F
  22      6     1.50     1.50      C          F
  23      8     1.40     1.50      O          F
  24      6     1.50     1.50      C          F
  25      6     1.50     1.50      CH         F
  26      1     1.20     1.50      CH         F
  27      6     1.50     1.50      C          F
  28     17     1.80     1.50      Cl         F
  29      6     1.50     1.50      CH         F
  30      1     1.20     1.50      CH         F
  31      6     1.50     1.50      CH         F
  32      1     1.20     1.50      CH         F
  33      6     1.50     1.50      CH         F
  34      1     1.20     1.50      CH         F
  35      1     0.90     1.15      NH+        T
 ------------------------------------------------------------------------------
 Polarizable Continuum Model (PCM)
 =================================
 Model                : PCM.
 Atomic radii         : MST.
 Polarization charges : Total charges.
 Charge compensation  : None.
 Solution method      : On-the-fly selection.
 Cavity type          : Scaled VdW (van der Waals Surface) (Alpha=1.500).
 Cavity algorithm     : GePol (No added spheres)
                        Default sphere list used, NSphG=   35.
                        Lebedev-Laikov grids with approx.  5.0 points / Ang**2.
                        Smoothing algorithm: York/Karplus (Gamma=1.0000).
                        Polarization charges: spherical gaussians, with
                                              point-specific exponents (IZeta= 3).
                        Self-potential: point-specific (ISelfS= 7).
                        Self-field    : sphere-specific E.n sum rule (ISelfD= 2).
 1st derivatives      : Analytical E(r).r(x)/FMM algorithm (CHGder, D1EAlg=3).
                        Cavity 1st derivative terms included.
 Solvent              : n-Octanol, Eps=   9.862900 Eps(inf)=   2.043470
 ------------------------------------------------------------------------------
 GePol: Number of generator spheres                  =      35
 GePol: Total number of spheres                      =      35
 GePol: Number of exposed spheres                    =      35 (100.00%)
 GePol: Number of points                             =    3247
 GePol: Average weight of points                     =       0.11
 GePol: Minimum weight of points                     =   0.66D-11
 GePol: Maximum weight of points                     =    0.21373
 GePol: Number of points with low weight             =     159
 GePol: Fraction of low-weight points (<1% of avg)   =       4.90%
 GePol: Cavity surface area                          =    362.412 Ang**2
 GePol: Cavity volume                                =    428.497 Ang**3
 Surface areas from nonelectrostatic (unscaled) cavity and vdw tensions:
 Sphere =    1 Type =  CH3 Surf =        4.634 Tension =       -0.183
 Sphere =    2 Type =  CH3 Surf =        9.945 Tension =       -0.183
 Sphere =    3 Type =  CH3 Surf =       10.053 Tension =       -0.183
 Sphere =    4 Type =  CH3 Surf =       10.066 Tension =       -0.183
 Sphere =    5 Type =  CN+ Surf =        2.707 Tension =       -0.227
 Sphere =    6 Type =  NH+ Surf =        7.103 Tension =       -0.274
 Sphere =    7 Type =  CN+ Surf =        1.978 Tension =       -0.227
 Sphere =    8 Type =  CH3 Surf =        5.006 Tension =       -0.183
 Sphere =    9 Type =  CH3 Surf =       10.174 Tension =       -0.183
 Sphere =   10 Type =  CH3 Surf =       10.035 Tension =       -0.183
 Sphere =   11 Type =  CH3 Surf =        9.991 Tension =       -0.183
 Sphere =   12 Type =  CH3 Surf =        4.862 Tension =       -0.183
 Sphere =   13 Type =  CH3 Surf =        9.991 Tension =       -0.183
 Sphere =   14 Type =  CH3 Surf =        8.990 Tension =       -0.183
 Sphere =   15 Type =  CH3 Surf =       10.187 Tension =       -0.183
 Sphere =   16 Type =  CH3 Surf =        4.879 Tension =       -0.183
 Sphere =   17 Type =  CH3 Surf =       10.027 Tension =       -0.183
 Sphere =   18 Type =  CH3 Surf =        9.924 Tension =       -0.183
 Sphere =   19 Type =  CH3 Surf =        9.855 Tension =       -0.183
 Sphere =   20 Type =  NH+ Surf =        3.838 Tension =       -0.274
 Sphere =   21 Type =  CN+ Surf =        7.135 Tension =       -0.227
 Sphere =   22 Type =  C   Surf =        6.549 Tension =       -0.205
 Sphere =   23 Type =  O   Surf =       16.247 Tension =       -0.185
 Sphere =   24 Type =  C   Surf =        6.383 Tension =       -0.205
 Sphere =   25 Type =  CH  Surf =        7.474 Tension =       -0.195
 Sphere =   26 Type =  CH  Surf =        9.999 Tension =       -0.195
 Sphere =   27 Type =  C   Surf =        5.196 Tension =       -0.205
 Sphere =   28 Type =  Cl  Surf =       32.013 Tension =       -0.163
 Sphere =   29 Type =  CH  Surf =        7.719 Tension =       -0.195
 Sphere =   30 Type =  CH  Surf =        9.794 Tension =       -0.195
 Sphere =   31 Type =  CH  Surf =        7.821 Tension =       -0.195
 Sphere =   32 Type =  CH  Surf =       10.203 Tension =       -0.195
 Sphere =   33 Type =  CH  Surf =        7.404 Tension =       -0.195
 Sphere =   34 Type =  CH  Surf =        8.874 Tension =       -0.195
 Sphere =   35 Type =  NH+ Surf =        3.792 Tension =       -0.274
 PCM non-electrostatic energy =        -0.0133799127 Hartrees.
 Nuclear repulsion after PCM non-electrostatic terms =     1219.8684231315 Hartrees.
 Leave Link  301 at Sun Jul 18 16:30:57 2021, MaxMem=   104857600 cpu:               0.2 elap:               0.1
 (Enter /dades/curu/g16A03_MST/g16/l302.exe)
 NPDir=0 NMtPBC=     1 NCelOv=     1 NCel=       1 NClECP=     1 NCelD=      1
         NCelK=      1 NCelE2=     1 NClLst=     1 CellRange=     0.0.
 One-electron integrals computed using PRISM.
 One-electron integral symmetry used in STVInt
 NBasis=   282 RedAO= T EigKep=  4.60D-04  NBF=   282
 NBsUse=   282 1.00D-06 EigRej= -1.00D+00 NBFU=   282
 Precomputing XC quadrature grid using
 IXCGrd= 4 IRadAn=           5 IRanWt=          -1 IRanGd=           0 AccXCQ= 0.00D+00.
 Generated NRdTot=       0 NPtTot=           0 NUsed=           0 NTot=          32
 NSgBfM=   280   280   280   280   280 MxSgAt=    35 MxSgA2=    35.
 Leave Link  302 at Sun Jul 18 16:30:59 2021, MaxMem=   104857600 cpu:               4.4 elap:               1.2
 (Enter /dades/curu/g16A03_MST/g16/l303.exe)
 DipDrv:  MaxL=1.
 Leave Link  303 at Sun Jul 18 16:30:59 2021, MaxMem=   104857600 cpu:               0.1 elap:               0.1
 (Enter /dades/curu/g16A03_MST/g16/l401.exe)
 ExpMin= 1.43D-01 ExpMax= 2.52D+04 ExpMxC= 3.78D+03 IAcc=3 IRadAn=         5 AccDes= 0.00D+00
 Harris functional with IExCor=  402 and IRadAn=       5 diagonalized for initial guess.
 HarFok:  IExCor=  402 AccDes= 0.00D+00 IRadAn=         5 IDoV= 1 UseB2=F ITyADJ=14
 ICtDFT=  3500011 ScaDFX=  1.000000  1.000000  1.000000  1.000000
 FoFCou: FMM=F IPFlag=           0 FMFlag=      100000 FMFlg1=           0
         NFxFlg=           0 DoJE=T BraDBF=F KetDBF=T FulRan=T
         wScrn=  0.000000 ICntrl=       500 IOpCl=  0 I1Cent=   200000004 NGrid=           0
         NMat0=    1 NMatS0=      1 NMatT0=    0 NMatD0=    1 NMtDS0=    0 NMtDT0=    0
 Petite list used in FoFCou.
 Harris En= -1096.73860866698    
 JPrj=0 DoOrth=F DoCkMO=F.
 Leave Link  401 at Sun Jul 18 16:31:06 2021, MaxMem=   104857600 cpu:              30.9 elap:               7.8
 (Enter /dades/curu/g16A03_MST/g16/l502.exe)
 Integral symmetry usage will be decided dynamically.
 Closed shell SCF:
 Using DIIS extrapolation, IDIIS=  1040.
 NGot=   104857600 LenX=   104693526 LenY=   104613561
 Requested convergence on RMS density matrix=1.00D-08 within 128 cycles.
 Requested convergence on MAX density matrix=1.00D-06.
 Requested convergence on             energy=1.00D-06.
 No special actions if energy rises.
 Fock matrices will be formed incrementally for  20 cycles.

 Cycle   1  Pass 1  IDiag  1:
 FoFJK:  IHMeth= 1 ICntrl=       0 DoSepK=F KAlg= 0 I1Cent=           0 FoldK=F
 IRaf= 850000000 NMat=       1 IRICut=       1 DoRegI=T DoRafI=F ISym2E= 0 IDoP0=0 IntGTp=1.
 FoFCou: FMM=F IPFlag=           0 FMFlag=      100000 FMFlg1=           0
         NFxFlg=           0 DoJE=F BraDBF=F KetDBF=F FulRan=T
         wScrn=  0.000000 ICntrl=         0 IOpCl=  0 I1Cent=           0 NGrid=           0
         NMat0=    1 NMatS0=      1 NMatT0=    0 NMatD0=    1 NMtDS0=    0 NMtDT0=    0
 Symmetry not used in FoFCou.
 Inv3:  Mode=1 IEnd=    31629027.
 Iteration    1 A*A^-1 deviation from unit magnitude is 5.33D-15 for   3223.
 Iteration    1 A*A^-1 deviation from orthogonality  is 2.95D-15 for   3228   3161.
 Iteration    1 A^-1*A deviation from unit magnitude is 4.55D-15 for   3223.
 Iteration    1 A^-1*A deviation from orthogonality  is 3.16D-15 for   3234   3167.
 E= -1096.37327886071    
 DIIS: error= 3.48D-02 at cycle   1 NSaved=   1.
 NSaved= 1 IEnMin= 1 EnMin= -1096.37327886071     IErMin= 1 ErrMin= 3.48D-02
 ErrMax= 3.48D-02  0.00D+00 EMaxC= 1.00D-01 BMatC= 4.48D-01 BMatP= 4.48D-01
 IDIUse=3 WtCom= 6.52D-01 WtEn= 3.48D-01
 Coeff-Com:  0.100D+01
 Coeff-En:   0.100D+01
 Coeff:      0.100D+01
 Gap=     0.278 Goal=   None    Shift=    0.000
 GapD=    0.278 DampG=1.000 DampE=0.500 DampFc=0.5000 IDamp=-1.
 Damping current iteration by 5.00D-01
 RMSDP=5.26D-03 MaxDP=1.57D-01              OVMax= 2.30D-01

 Cycle   2  Pass 1  IDiag  1:
 RMSU=  2.61D-03    CP:  9.83D-01
 E= -1096.54707681234     Delta-E=       -0.173797951633 Rises=F Damp=T
 DIIS: error= 1.01D-02 at cycle   2 NSaved=   2.
 NSaved= 2 IEnMin= 2 EnMin= -1096.54707681234     IErMin= 2 ErrMin= 1.01D-02
 ErrMax= 1.01D-02  0.00D+00 EMaxC= 1.00D-01 BMatC= 4.31D-02 BMatP= 4.48D-01
 IDIUse=3 WtCom= 8.99D-01 WtEn= 1.01D-01
 Coeff-Com:  0.135D+00 0.865D+00
 Coeff-En:   0.210D+00 0.790D+00
 Coeff:      0.143D+00 0.857D+00
 Gap=     0.187 Goal=   None    Shift=    0.000
 RMSDP=1.43D-03 MaxDP=6.01D-02 DE=-1.74D-01 OVMax= 1.31D-01

 Cycle   3  Pass 1  IDiag  1:
 RMSU=  1.36D-03    CP:  9.75D-01  8.46D-01
 E= -1096.77530237760     Delta-E=       -0.228225565256 Rises=F Damp=F
 DIIS: error= 1.47D-02 at cycle   3 NSaved=   3.
 NSaved= 3 IEnMin= 3 EnMin= -1096.77530237760     IErMin= 2 ErrMin= 1.01D-02
 ErrMax= 1.47D-02  0.00D+00 EMaxC= 1.00D-01 BMatC= 4.68D-02 BMatP= 4.31D-02
 IDIUse=3 WtCom= 8.53D-01 WtEn= 1.47D-01
 Coeff-Com:  0.302D-01 0.507D+00 0.463D+00
 Coeff-En:   0.000D+00 0.000D+00 0.100D+01
 Coeff:      0.257D-01 0.433D+00 0.542D+00
 Gap=     0.167 Goal=   None    Shift=    0.000
 RMSDP=1.10D-03 MaxDP=6.61D-02 DE=-2.28D-01 OVMax= 7.55D-02

 Cycle   4  Pass 1  IDiag  1:
 RMSU=  7.91D-04    CP:  9.79D-01  9.30D-01  4.71D-01
 E= -1096.79778951581     Delta-E=       -0.022487138210 Rises=F Damp=F
 DIIS: error= 9.40D-03 at cycle   4 NSaved=   4.
 NSaved= 4 IEnMin= 4 EnMin= -1096.79778951581     IErMin= 4 ErrMin= 9.40D-03
 ErrMax= 9.40D-03  0.00D+00 EMaxC= 1.00D-01 BMatC= 2.05D-02 BMatP= 4.31D-02
 IDIUse=3 WtCom= 9.06D-01 WtEn= 9.40D-02
 Coeff-Com:  0.186D-02 0.788D-01 0.393D+00 0.526D+00
 Coeff-En:   0.000D+00 0.000D+00 0.343D+00 0.657D+00
 Coeff:      0.168D-02 0.714D-01 0.389D+00 0.538D+00
 Gap=     0.187 Goal=   None    Shift=    0.000
 RMSDP=5.10D-04 MaxDP=2.92D-02 DE=-2.25D-02 OVMax= 2.85D-02

 Cycle   5  Pass 1  IDiag  1:
 RMSU=  1.84D-04    CP:  9.78D-01  8.96D-01  6.78D-01  5.31D-01
 E= -1096.81395274103     Delta-E=       -0.016163225222 Rises=F Damp=F
 DIIS: error= 7.41D-04 at cycle   5 NSaved=   5.
 NSaved= 5 IEnMin= 5 EnMin= -1096.81395274103     IErMin= 5 ErrMin= 7.41D-04
 ErrMax= 7.41D-04  0.00D+00 EMaxC= 1.00D-01 BMatC= 4.71D-04 BMatP= 2.05D-02
 IDIUse=3 WtCom= 9.93D-01 WtEn= 7.41D-03
 Coeff-Com: -0.252D-03 0.951D-02 0.172D+00 0.280D+00 0.539D+00
 Coeff-En:   0.000D+00 0.000D+00 0.000D+00 0.000D+00 0.100D+01
 Coeff:     -0.250D-03 0.944D-02 0.171D+00 0.278D+00 0.542D+00
 Gap=     0.170 Goal=   None    Shift=    0.000
 RMSDP=1.03D-04 MaxDP=3.04D-03 DE=-1.62D-02 OVMax= 8.65D-03

 Cycle   6  Pass 1  IDiag  1:
 RMSU=  5.74D-05    CP:  9.78D-01  8.95D-01  6.72D-01  5.68D-01  5.65D-01
 E= -1096.81436887135     Delta-E=       -0.000416130312 Rises=F Damp=F
 DIIS: error= 1.90D-04 at cycle   6 NSaved=   6.
 NSaved= 6 IEnMin= 6 EnMin= -1096.81436887135     IErMin= 6 ErrMin= 1.90D-04
 ErrMax= 1.90D-04  0.00D+00 EMaxC= 1.00D-01 BMatC= 3.44D-05 BMatP= 4.71D-04
 IDIUse=3 WtCom= 9.98D-01 WtEn= 1.90D-03
 Coeff-Com: -0.264D-04-0.231D-02 0.455D-01 0.837D-01 0.270D+00 0.603D+00
 Coeff-En:   0.000D+00 0.000D+00 0.000D+00 0.000D+00 0.000D+00 0.100D+01
 Coeff:     -0.263D-04-0.231D-02 0.454D-01 0.836D-01 0.270D+00 0.604D+00
 Gap=     0.170 Goal=   None    Shift=    0.000
 RMSDP=2.78D-05 MaxDP=9.37D-04 DE=-4.16D-04 OVMax= 2.68D-03

 Cycle   7  Pass 1  IDiag  1:
 RMSU=  1.58D-05    CP:  9.78D-01  8.96D-01  6.75D-01  5.72D-01  6.19D-01
                    CP:  6.55D-01
 E= -1096.81440067994     Delta-E=       -0.000031808591 Rises=F Damp=F
 DIIS: error= 7.35D-05 at cycle   7 NSaved=   7.
 NSaved= 7 IEnMin= 7 EnMin= -1096.81440067994     IErMin= 7 ErrMin= 7.35D-05
 ErrMax= 7.35D-05  0.00D+00 EMaxC= 1.00D-01 BMatC= 3.67D-06 BMatP= 3.44D-05
 IDIUse=1 WtCom= 1.00D+00 WtEn= 0.00D+00
 Coeff-Com:  0.425D-04-0.167D-02 0.156D-01 0.302D-01 0.118D+00 0.338D+00
 Coeff-Com:  0.499D+00
 Coeff:      0.425D-04-0.167D-02 0.156D-01 0.302D-01 0.118D+00 0.338D+00
 Coeff:      0.499D+00
 Gap=     0.169 Goal=   None    Shift=    0.000
 RMSDP=9.54D-06 MaxDP=3.03D-04 DE=-3.18D-05 OVMax= 1.08D-03

 Cycle   8  Pass 1  IDiag  1:
 RMSU=  4.80D-06    CP:  9.78D-01  8.96D-01  6.75D-01  5.72D-01  6.26D-01
                    CP:  6.90D-01  5.00D-01
 E= -1096.81440431818     Delta-E=       -0.000003638242 Rises=F Damp=F
 DIIS: error= 1.94D-05 at cycle   8 NSaved=   8.
 NSaved= 8 IEnMin= 8 EnMin= -1096.81440431818     IErMin= 8 ErrMin= 1.94D-05
 ErrMax= 1.94D-05  0.00D+00 EMaxC= 1.00D-01 BMatC= 3.11D-07 BMatP= 3.67D-06
 IDIUse=1 WtCom= 1.00D+00 WtEn= 0.00D+00
 Coeff-Com:  0.512D-04-0.589D-03 0.189D-02 0.386D-02 0.227D-01 0.902D-01
 Coeff-Com:  0.259D+00 0.623D+00
 Coeff:      0.512D-04-0.589D-03 0.189D-02 0.386D-02 0.227D-01 0.902D-01
 Coeff:      0.259D+00 0.623D+00
 Gap=     0.170 Goal=   None    Shift=    0.000
 RMSDP=2.70D-06 MaxDP=1.04D-04 DE=-3.64D-06 OVMax= 3.03D-04

 Cycle   9  Pass 1  IDiag  1:
 RMSU=  1.34D-06    CP:  9.78D-01  8.96D-01  6.75D-01  5.72D-01  6.26D-01
                    CP:  6.91D-01  6.00D-01  6.40D-01
 E= -1096.81440463780     Delta-E=       -0.000000319623 Rises=F Damp=F
 DIIS: error= 5.10D-06 at cycle   9 NSaved=   9.
 NSaved= 9 IEnMin= 9 EnMin= -1096.81440463780     IErMin= 9 ErrMin= 5.10D-06
 ErrMax= 5.10D-06  0.00D+00 EMaxC= 1.00D-01 BMatC= 2.27D-08 BMatP= 3.11D-07
 IDIUse=1 WtCom= 1.00D+00 WtEn= 0.00D+00
 Coeff-Com:  0.344D-04-0.160D-03-0.194D-03-0.491D-03 0.173D-02 0.180D-01
 Coeff-Com:  0.838D-01 0.294D+00 0.604D+00
 Coeff:      0.344D-04-0.160D-03-0.194D-03-0.491D-03 0.173D-02 0.180D-01
 Coeff:      0.838D-01 0.294D+00 0.604D+00
 Gap=     0.170 Goal=   None    Shift=    0.000
 RMSDP=6.21D-07 MaxDP=2.58D-05 DE=-3.20D-07 OVMax= 7.62D-05

 Cycle  10  Pass 1  IDiag  1:
 RMSU=  3.77D-07    CP:  9.78D-01  8.96D-01  6.75D-01  5.72D-01  6.26D-01
                    CP:  6.93D-01  5.96D-01  7.03D-01  7.31D-01
 E= -1096.81440465948     Delta-E=       -0.000000021673 Rises=F Damp=F
 DIIS: error= 1.58D-06 at cycle  10 NSaved=  10.
 NSaved=10 IEnMin=10 EnMin= -1096.81440465948     IErMin=10 ErrMin= 1.58D-06
 ErrMax= 1.58D-06  0.00D+00 EMaxC= 1.00D-01 BMatC= 1.96D-09 BMatP= 2.27D-08
 IDIUse=1 WtCom= 1.00D+00 WtEn= 0.00D+00
 Coeff-Com:  0.171D-04-0.500D-04-0.233D-03-0.560D-03-0.823D-03 0.299D-02
 Coeff-Com:  0.239D-01 0.105D+00 0.312D+00 0.558D+00
 Coeff:      0.171D-04-0.500D-04-0.233D-03-0.560D-03-0.823D-03 0.299D-02
 Coeff:      0.239D-01 0.105D+00 0.312D+00 0.558D+00
 Gap=     0.170 Goal=   None    Shift=    0.000
 RMSDP=2.09D-07 MaxDP=9.03D-06 DE=-2.17D-08 OVMax= 1.79D-05

 Cycle  11  Pass 1  IDiag  1:
 RMSU=  1.32D-07    CP:  9.78D-01  8.96D-01  6.75D-01  5.72D-01  6.26D-01
                    CP:  6.93D-01  5.99D-01  7.13D-01  7.47D-01  6.70D-01
 E= -1096.81440466121     Delta-E=       -0.000000001736 Rises=F Damp=F
 DIIS: error= 5.99D-07 at cycle  11 NSaved=  11.
 NSaved=11 IEnMin=11 EnMin= -1096.81440466121     IErMin=11 ErrMin= 5.99D-07
 ErrMax= 5.99D-07  0.00D+00 EMaxC= 1.00D-01 BMatC= 2.11D-10 BMatP= 1.96D-09
 IDIUse=1 WtCom= 1.00D+00 WtEn= 0.00D+00
 Coeff-Com:  0.543D-05-0.646D-05-0.894D-04-0.225D-03-0.686D-03-0.594D-03
 Coeff-Com:  0.156D-02 0.162D-01 0.932D-01 0.282D+00 0.608D+00
 Coeff:      0.543D-05-0.646D-05-0.894D-04-0.225D-03-0.686D-03-0.594D-03
 Coeff:      0.156D-02 0.162D-01 0.932D-01 0.282D+00 0.608D+00
 Gap=     0.170 Goal=   None    Shift=    0.000
 RMSDP=7.90D-08 MaxDP=2.70D-06 DE=-1.74D-09 OVMax= 8.99D-06

 Cycle  12  Pass 1  IDiag  1:
 RMSU=  4.83D-08    CP:  9.78D-01  8.96D-01  6.75D-01  5.72D-01  6.26D-01
                    CP:  6.93D-01  5.99D-01  7.13D-01  7.60D-01  7.60D-01
                    CP:  6.52D-01
 E= -1096.81440466144     Delta-E=       -0.000000000228 Rises=F Damp=F
 DIIS: error= 2.30D-07 at cycle  12 NSaved=  12.
 NSaved=12 IEnMin=12 EnMin= -1096.81440466144     IErMin=12 ErrMin= 2.30D-07
 ErrMax= 2.30D-07  0.00D+00 EMaxC= 1.00D-01 BMatC= 3.60D-11 BMatP= 2.11D-10
 IDIUse=1 WtCom= 1.00D+00 WtEn= 0.00D+00
 Coeff-Com:  0.112D-05 0.565D-06-0.184D-04-0.485D-04-0.254D-03-0.493D-03
 Coeff-Com: -0.164D-02-0.299D-02 0.168D-01 0.714D-01 0.334D+00 0.584D+00
 Coeff:      0.112D-05 0.565D-06-0.184D-04-0.485D-04-0.254D-03-0.493D-03
 Coeff:     -0.164D-02-0.299D-02 0.168D-01 0.714D-01 0.334D+00 0.584D+00
 Gap=     0.170 Goal=   None    Shift=    0.000
 RMSDP=2.89D-08 MaxDP=1.20D-06 DE=-2.28D-10 OVMax= 3.07D-06

 Cycle  13  Pass 1  IDiag  1:
 RMSU=  1.64D-08    CP:  9.78D-01  8.96D-01  6.75D-01  5.72D-01  6.26D-01
                    CP:  6.93D-01  5.99D-01  7.13D-01  7.67D-01  7.53D-01
                    CP:  7.49D-01  6.59D-01
 E= -1096.81440466145     Delta-E=       -0.000000000006 Rises=F Damp=F
 DIIS: error= 7.48D-08 at cycle  13 NSaved=  13.
 NSaved=13 IEnMin=13 EnMin= -1096.81440466145     IErMin=13 ErrMin= 7.48D-08
 ErrMax= 7.48D-08  0.00D+00 EMaxC= 1.00D-01 BMatC= 2.77D-12 BMatP= 3.60D-11
 IDIUse=1 WtCom= 1.00D+00 WtEn= 0.00D+00
 Coeff-Com: -0.136D-06 0.119D-05 0.603D-06 0.377D-05-0.524D-04-0.186D-03
 Coeff-Com: -0.113D-02-0.405D-02-0.373D-02-0.671D-02 0.846D-01 0.267D+00
 Coeff-Com:  0.665D+00
 Coeff:     -0.136D-06 0.119D-05 0.603D-06 0.377D-05-0.524D-04-0.186D-03
 Coeff:     -0.113D-02-0.405D-02-0.373D-02-0.671D-02 0.846D-01 0.267D+00
 Coeff:      0.665D+00
 Gap=     0.170 Goal=   None    Shift=    0.000
 RMSDP=7.73D-09 MaxDP=3.23D-07 DE=-6.14D-12 OVMax= 5.23D-07

 Error on total polarization charges =  0.00744
 SCF Done:  E(RB3LYP) =  -1096.81440466     A.U. after   13 cycles
            NFock= 13  Conv=0.77D-08     -V/T= 2.0069
 KE= 1.089351822134D+03 PE=-4.990428639958D+03 EE= 1.584393990031D+03
 Leave Link  502 at Sun Jul 18 16:34:55 2021, MaxMem=   104857600 cpu:             883.6 elap:             228.8
 (Enter /dades/curu/g16A03_MST/g16/l601.exe)
 Copying SCF densities to generalized density rwf, IOpCl= 0 IROHF=0.

 **********************************************************************

            Population analysis using the SCF density.

 **********************************************************************

 Orbital symmetries:
       Occupied  (A) (A) (A) (A) (A) (A) (A) (A) (A) (A) (A) (A)
                 (A) (A) (A) (A) (A) (A) (A) (A) (A) (A) (A) (A)
                 (A) (A) (A) (A) (A) (A) (A) (A) (A) (A) (A) (A)
                 (A) (A) (A) (A) (A) (A) (A) (A) (A) (A) (A) (A)
                 (A) (A) (A) (A) (A) (A) (A) (A) (A) (A) (A) (A)
                 (A) (A) (A) (A)
       Virtual   (A) (A) (A) (A) (A) (A) (A) (A) (A) (A) (A) (A)
                 (A) (A) (A) (A) (A) (A) (A) (A) (A) (A) (A) (A)
                 (A) (A) (A) (A) (A) (A) (A) (A) (A) (A) (A) (A)
                 (A) (A) (A) (A) (A) (A) (A) (A) (A) (A) (A) (A)
                 (A) (A) (A) (A) (A) (A) (A) (A) (A) (A) (A) (A)
                 (A) (A) (A) (A) (A) (A) (A) (A) (A) (A) (A) (A)
                 (A) (A) (A) (A) (A) (A) (A) (A) (A) (A) (A) (A)
                 (A) (A) (A) (A) (A) (A) (A) (A) (A) (A) (A) (A)
                 (A) (A) (A) (A) (A) (A) (A) (A) (A) (A) (A) (A)
                 (A) (A) (A) (A) (A) (A) (A) (A) (A) (A) (A) (A)
                 (A) (A) (A) (A) (A) (A) (A) (A) (A) (A) (A) (A)
                 (A) (A) (A) (A) (A) (A) (A) (A) (A) (A) (A) (A)
                 (A) (A) (A) (A) (A) (A) (A) (A) (A) (A) (A) (A)
                 (A) (A) (A) (A) (A) (A) (A) (A) (A) (A) (A) (A)
                 (A) (A) (A) (A) (A) (A) (A) (A) (A) (A) (A) (A)
                 (A) (A) (A) (A) (A) (A) (A) (A) (A) (A) (A) (A)
                 (A) (A) (A) (A) (A) (A) (A) (A) (A) (A) (A) (A)
                 (A) (A) (A) (A) (A) (A) (A) (A) (A) (A) (A) (A)
                 (A) (A)
 The electronic state is 1-A.
 Alpha  occ. eigenvalues -- -101.57145 -19.18264 -14.49201 -10.32960 -10.29936
 Alpha  occ. eigenvalues --  -10.29659 -10.27760 -10.24626 -10.23833 -10.23785
 Alpha  occ. eigenvalues --  -10.23107 -10.22927 -10.22802 -10.21734 -10.21550
 Alpha  occ. eigenvalues --  -10.21419  -9.48849  -7.25243  -7.24271  -7.24230
 Alpha  occ. eigenvalues --   -1.07750  -1.05527  -0.92536  -0.87714  -0.86004
 Alpha  occ. eigenvalues --   -0.81912  -0.79095  -0.77167  -0.73892  -0.72945
 Alpha  occ. eigenvalues --   -0.71127  -0.67220  -0.64292  -0.63838  -0.63326
 Alpha  occ. eigenvalues --   -0.60205  -0.55697  -0.54139  -0.53051  -0.51088
 Alpha  occ. eigenvalues --   -0.50455  -0.47954  -0.47386  -0.47198  -0.46651
 Alpha  occ. eigenvalues --   -0.46220  -0.45558  -0.44990  -0.42743  -0.42728
 Alpha  occ. eigenvalues --   -0.42107  -0.41891  -0.41055  -0.40753  -0.40042
 Alpha  occ. eigenvalues --   -0.38533  -0.38021  -0.37162  -0.36117  -0.35828
 Alpha  occ. eigenvalues --   -0.33443  -0.29857  -0.28578  -0.27772
 Alpha virt. eigenvalues --   -0.10822  -0.03508  -0.01891   0.02051   0.02232
 Alpha virt. eigenvalues --    0.05474   0.06855   0.07567   0.07932   0.09864
 Alpha virt. eigenvalues --    0.10393   0.10890   0.11252   0.11865   0.12569
 Alpha virt. eigenvalues --    0.12746   0.13898   0.14430   0.14639   0.14832
 Alpha virt. eigenvalues --    0.15345   0.15626   0.16608   0.17347   0.18457
 Alpha virt. eigenvalues --    0.19073   0.20186   0.20492   0.20890   0.21640
 Alpha virt. eigenvalues --    0.23591   0.24068   0.24966   0.26372   0.29137
 Alpha virt. eigenvalues --    0.33284   0.34017   0.37589   0.40054   0.40592
 Alpha virt. eigenvalues --    0.42232   0.43930   0.44956   0.45568   0.47443
 Alpha virt. eigenvalues --    0.47736   0.49501   0.49597   0.50868   0.50994
 Alpha virt. eigenvalues --    0.52228   0.53494   0.54332   0.54375   0.55511
 Alpha virt. eigenvalues --    0.56546   0.57035   0.58417   0.58727   0.59432
 Alpha virt. eigenvalues --    0.60214   0.61762   0.62626   0.63342   0.64731
 Alpha virt. eigenvalues --    0.65097   0.66785   0.68724   0.71771   0.73084
 Alpha virt. eigenvalues --    0.73591   0.74445   0.75753   0.77573   0.77988
 Alpha virt. eigenvalues --    0.79280   0.80363   0.81241   0.81637   0.82225
 Alpha virt. eigenvalues --    0.83061   0.83544   0.84262   0.84837   0.85173
 Alpha virt. eigenvalues --    0.85784   0.86566   0.87166   0.87811   0.88344
 Alpha virt. eigenvalues --    0.89285   0.89892   0.91206   0.91653   0.92011
 Alpha virt. eigenvalues --    0.92473   0.93280   0.94518   0.94624   0.95345
 Alpha virt. eigenvalues --    0.97011   0.97776   0.98516   0.99868   1.00722
 Alpha virt. eigenvalues --    1.03577   1.05661   1.07884   1.08338   1.09633
 Alpha virt. eigenvalues --    1.10545   1.13127   1.14095   1.17024   1.18719
 Alpha virt. eigenvalues --    1.18952   1.26629   1.30421   1.30882   1.33002
 Alpha virt. eigenvalues --    1.34984   1.36485   1.38729   1.40467   1.42926
 Alpha virt. eigenvalues --    1.44582   1.46202   1.47677   1.48161   1.51034
 Alpha virt. eigenvalues --    1.51157   1.53455   1.57106   1.59395   1.63432
 Alpha virt. eigenvalues --    1.66534   1.69250   1.71415   1.72024   1.73615
 Alpha virt. eigenvalues --    1.75712   1.76295   1.79951   1.79966   1.82068
 Alpha virt. eigenvalues --    1.83037   1.85566   1.87647   1.89862   1.90301
 Alpha virt. eigenvalues --    1.92159   1.94086   1.95507   1.96814   1.97543
 Alpha virt. eigenvalues --    2.00701   2.02005   2.02789   2.05097   2.06227
 Alpha virt. eigenvalues --    2.08035   2.08838   2.09757   2.12295   2.13688
 Alpha virt. eigenvalues --    2.14499   2.17525   2.18496   2.19696   2.21945
 Alpha virt. eigenvalues --    2.23056   2.23498   2.24338   2.26191   2.28430
 Alpha virt. eigenvalues --    2.28861   2.30722   2.32454   2.34643   2.37992
 Alpha virt. eigenvalues --    2.42034   2.43724   2.49438   2.53146   2.54762
 Alpha virt. eigenvalues --    2.55161   2.58464   2.59638   2.62310   2.63636
 Alpha virt. eigenvalues --    2.64723   2.67379   2.70545   2.73583   2.74704
 Alpha virt. eigenvalues --    2.75983   2.82095   2.85410   2.94427   2.95338
 Alpha virt. eigenvalues --    3.11461   3.35176   3.88416   4.02567   4.03789
 Alpha virt. eigenvalues --    4.07403   4.11052   4.16498   4.18618   4.22415
 Alpha virt. eigenvalues --    4.25201   4.26577   4.27729   4.33020   4.39831
 Alpha virt. eigenvalues --    4.57934   4.60092   4.68555
          Condensed to atoms (all electrons):
               1          2          3          4          5          6
     1  C    5.155098   0.372505   0.374972   0.372204   0.350102  -0.060868
     2  H    0.372505   0.499477  -0.015632  -0.021601  -0.034263   0.004866
     3  H    0.374972  -0.015632   0.503052  -0.029633  -0.031363  -0.003513
     4  H    0.372204  -0.021601  -0.029633   0.510148  -0.033447  -0.004800
     5  C    0.350102  -0.034263  -0.031363  -0.033447   5.254821   0.228642
     6  N   -0.060868   0.004866  -0.003513  -0.004800   0.228642   6.867871
     7  C    0.004942  -0.000148   0.000054  -0.000041  -0.031030   0.230195
     8  C    0.000027   0.000012  -0.000010  -0.000008  -0.006702  -0.055634
     9  H    0.000027   0.000001  -0.000001  -0.000000   0.001085  -0.001134
    10  H   -0.000020   0.000000  -0.000000  -0.000003  -0.000754  -0.003444
    11  H    0.000001  -0.000000  -0.000000   0.000000  -0.000065   0.003480
    12  C   -0.000022   0.000005   0.000031   0.000001  -0.004346  -0.056819
    13  H   -0.000157   0.000005   0.000059  -0.000001  -0.001520  -0.004345
    14  H    0.000159   0.000002   0.000010  -0.000006   0.001071  -0.001581
    15  H   -0.000002  -0.000000  -0.000002   0.000000   0.000235   0.002812
    16  C   -0.000268   0.000003  -0.000010  -0.000005   0.004801  -0.049697
    17  H    0.000002  -0.000000   0.000000  -0.000000  -0.000075   0.002455
    18  H    0.000000  -0.000000   0.000001  -0.000000  -0.000062  -0.001096
    19  H   -0.000030   0.000000  -0.000018   0.000003   0.000060  -0.005187
    20  H   -0.001870  -0.000092  -0.000580   0.004429  -0.024066   0.282171
    21  H   -0.040211  -0.003968  -0.005326   0.005699   0.359362  -0.040070
    22  C   -0.030726  -0.000516   0.004210  -0.007647   0.258829  -0.022458
    23  O   -0.002703  -0.000425   0.000009   0.005326  -0.095387  -0.004225
    24  C   -0.001153   0.000242  -0.000028   0.000549  -0.098142   0.001180
    25  C   -0.000187  -0.000045   0.000003  -0.000008   0.009377  -0.000036
    26  H   -0.000005  -0.000001   0.000000  -0.000001   0.000457  -0.000003
    27  C    0.000003  -0.000002  -0.000000  -0.000000  -0.000046   0.000000
    28  Cl  -0.000000   0.000000   0.000000  -0.000000   0.000001  -0.000000
    29  C    0.000001  -0.000002   0.000000   0.000000  -0.000026   0.000000
    30  H    0.000000  -0.000000  -0.000000   0.000000  -0.000000  -0.000000
    31  C    0.000015   0.000033  -0.000000   0.000001   0.000105  -0.000001
    32  H   -0.000001  -0.000001   0.000000  -0.000000   0.000011  -0.000000
    33  C   -0.000777   0.001606  -0.000039  -0.000034  -0.006201   0.000042
    34  H   -0.000270   0.001523   0.000094  -0.000051   0.004477   0.000071
    35  H   -0.000852   0.000146   0.006821  -0.000977  -0.024779   0.294804
               7          8          9         10         11         12
     1  C    0.004942   0.000027   0.000027  -0.000020   0.000001  -0.000022
     2  H   -0.000148   0.000012   0.000001   0.000000  -0.000000   0.000005
     3  H    0.000054  -0.000010  -0.000001  -0.000000  -0.000000   0.000031
     4  H   -0.000041  -0.000008  -0.000000  -0.000003   0.000000   0.000001
     5  C   -0.031030  -0.006702   0.001085  -0.000754  -0.000065  -0.004346
     6  N    0.230195  -0.055634  -0.001134  -0.003444   0.003480  -0.056819
     7  C    4.790700   0.380037  -0.019745  -0.027852  -0.027136   0.380545
     8  C    0.380037   5.173327   0.363777   0.365063   0.375108  -0.058251
     9  H   -0.019745   0.363777   0.534337  -0.030571  -0.031173  -0.003773
    10  H   -0.027852   0.365063  -0.030571   0.533725  -0.021329   0.004501
    11  H   -0.027136   0.375108  -0.031173  -0.021329   0.516159  -0.001073
    12  C    0.380545  -0.058251  -0.003773   0.004501  -0.001073   5.159928
    13  H   -0.029762   0.005053  -0.000017  -0.000178  -0.000052   0.363292
    14  H   -0.034830  -0.008342   0.003670   0.000093  -0.000196   0.364716
    15  H   -0.019392  -0.001055  -0.000113   0.000010   0.000816   0.380458
    16  C    0.377805  -0.060714   0.004340  -0.005227  -0.005333  -0.062690
    17  H   -0.012765  -0.001423  -0.000069  -0.000028   0.001421  -0.004860
    18  H   -0.026790  -0.005344   0.000117   0.003551  -0.000520   0.004609
    19  H   -0.040293   0.005333  -0.000165  -0.000085   0.000287  -0.001436
    20  H   -0.017740  -0.002265  -0.000403   0.005832   0.000051   0.004320
    21  H   -0.006929  -0.000264  -0.000048  -0.000000   0.000002   0.007028
    22  C   -0.001837   0.005566   0.002299  -0.000059   0.000075  -0.000956
    23  O   -0.002154   0.001184  -0.001275   0.001739   0.000140   0.000023
    24  C    0.000145  -0.000910   0.001560   0.000058   0.000000  -0.000323
    25  C    0.000012  -0.000199   0.000833   0.000002  -0.000002  -0.000006
    26  H   -0.000001   0.000027   0.000195   0.000004  -0.000000   0.000000
    27  C    0.000000  -0.000001   0.000006   0.000000   0.000000   0.000000
    28  Cl   0.000000   0.000000  -0.000001  -0.000000  -0.000000  -0.000000
    29  C   -0.000000   0.000000  -0.000002   0.000000   0.000000   0.000000
    30  H    0.000000  -0.000000  -0.000000   0.000000  -0.000000  -0.000000
    31  C   -0.000001   0.000002  -0.000010   0.000000   0.000000  -0.000002
    32  H   -0.000000   0.000000   0.000000  -0.000000  -0.000000   0.000000
    33  C    0.000031  -0.000026  -0.000015  -0.000003  -0.000000  -0.000180
    34  H    0.000006   0.000003   0.000001  -0.000000  -0.000000  -0.000079
    35  H   -0.018547   0.004681  -0.000131  -0.000079  -0.000095  -0.001262
              13         14         15         16         17         18
     1  C   -0.000157   0.000159  -0.000002  -0.000268   0.000002   0.000000
     2  H    0.000005   0.000002  -0.000000   0.000003  -0.000000  -0.000000
     3  H    0.000059   0.000010  -0.000002  -0.000010   0.000000   0.000001
     4  H   -0.000001  -0.000006   0.000000  -0.000005  -0.000000  -0.000000
     5  C   -0.001520   0.001071   0.000235   0.004801  -0.000075  -0.000062
     6  N   -0.004345  -0.001581   0.002812  -0.049697   0.002455  -0.001096
     7  C   -0.029762  -0.034830  -0.019392   0.377805  -0.012765  -0.026790
     8  C    0.005053  -0.008342  -0.001055  -0.060714  -0.001423  -0.005344
     9  H   -0.000017   0.003670  -0.000113   0.004340  -0.000069   0.000117
    10  H   -0.000178   0.000093   0.000010  -0.005227  -0.000028   0.003551
    11  H   -0.000052  -0.000196   0.000816  -0.005333   0.001421  -0.000520
    12  C    0.363292   0.364716   0.380458  -0.062690  -0.004860   0.004609
    13  H    0.556187  -0.040370  -0.026865  -0.002864   0.000094  -0.000110
    14  H   -0.040370   0.550440  -0.016066   0.005607   0.000178  -0.000171
    15  H   -0.026865  -0.016066   0.474360  -0.004294   0.001943   0.000086
    16  C   -0.002864   0.005607  -0.004294   5.181660   0.374874   0.370947
    17  H    0.000094   0.000178   0.001943   0.374874   0.503249  -0.044280
    18  H   -0.000110  -0.000171   0.000086   0.370947  -0.044280   0.532119
    19  H    0.001556  -0.000239   0.000170   0.362407  -0.022580  -0.019346
    20  H   -0.000039  -0.000356  -0.000038  -0.002934  -0.000117   0.001889
    21  H    0.001410   0.001524  -0.000003   0.000097  -0.000001  -0.000005
    22  C    0.000258  -0.000214  -0.000007  -0.000069   0.000001  -0.000001
    23  O   -0.000001  -0.000038   0.000000  -0.000015   0.000000  -0.000004
    24  C   -0.000016   0.001012  -0.000000  -0.000002  -0.000000  -0.000000
    25  C   -0.000000   0.000007  -0.000000   0.000000   0.000000   0.000000
    26  H   -0.000000  -0.000000  -0.000000   0.000000   0.000000   0.000000
    27  C    0.000000  -0.000003  -0.000000   0.000000   0.000000  -0.000000
    28  Cl   0.000000   0.000000  -0.000000  -0.000000   0.000000   0.000000
    29  C   -0.000000  -0.000001   0.000000   0.000000  -0.000000  -0.000000
    30  H   -0.000000   0.000000  -0.000000   0.000000  -0.000000   0.000000
    31  C   -0.000000  -0.000016   0.000000  -0.000000  -0.000000   0.000000
    32  H   -0.000000  -0.000000   0.000000   0.000000   0.000000   0.000000
    33  C    0.000003   0.000695  -0.000001  -0.000000   0.000000   0.000000
    34  H   -0.000008  -0.000006   0.000000   0.000000   0.000000   0.000000
    35  H    0.003498  -0.000472  -0.000066  -0.002386  -0.000044  -0.000244
              19         20         21         22         23         24
     1  C   -0.000030  -0.001870  -0.040211  -0.030726  -0.002703  -0.001153
     2  H    0.000000  -0.000092  -0.003968  -0.000516  -0.000425   0.000242
     3  H   -0.000018  -0.000580  -0.005326   0.004210   0.000009  -0.000028
     4  H    0.000003   0.004429   0.005699  -0.007647   0.005326   0.000549
     5  C    0.000060  -0.024066   0.359362   0.258829  -0.095387  -0.098142
     6  N   -0.005187   0.282171  -0.040070  -0.022458  -0.004225   0.001180
     7  C   -0.040293  -0.017740  -0.006929  -0.001837  -0.002154   0.000145
     8  C    0.005333  -0.002265  -0.000264   0.005566   0.001184  -0.000910
     9  H   -0.000165  -0.000403  -0.000048   0.002299  -0.001275   0.001560
    10  H   -0.000085   0.005832  -0.000000  -0.000059   0.001739   0.000058
    11  H    0.000287   0.000051   0.000002   0.000075   0.000140   0.000000
    12  C   -0.001436   0.004320   0.007028  -0.000956   0.000023  -0.000323
    13  H    0.001556  -0.000039   0.001410   0.000258  -0.000001  -0.000016
    14  H   -0.000239  -0.000356   0.001524  -0.000214  -0.000038   0.001012
    15  H    0.000170  -0.000038  -0.000003  -0.000007   0.000000  -0.000000
    16  C    0.362407  -0.002934   0.000097  -0.000069  -0.000015  -0.000002
    17  H   -0.022580  -0.000117  -0.000001   0.000001   0.000000  -0.000000
    18  H   -0.019346   0.001889  -0.000005  -0.000001  -0.000004  -0.000000
    19  H    0.547664  -0.000056  -0.000011  -0.000009   0.000000  -0.000000
[...]
    20  H   -0.002584   0.001436   0.012972  -0.005110  -0.162264   0.203476
    21  H   -0.372701  -0.028168  -0.099815   0.087518   0.532921  -0.018364
    22  C    1.189627   0.196952   0.165190  -0.339396  -8.753042   1.392093
    23  O   -0.077556  -0.015032  -0.004322   0.028244   0.869457  -0.168814
    24  C   -0.108140  -0.115387   0.065152   0.046076   1.745248  -0.057159
    25  C   -0.278919  -0.018710  -0.001270  -0.029939  -0.743679  -0.132092
    26  H   -0.013735   0.000523   0.000548  -0.000765   0.088563  -0.015321
    27  C    0.061089   0.002769   0.007714  -0.006679   0.001714  -0.023596
    28  Cl  -0.000503   0.000368  -0.000065  -0.000188  -0.005536  -0.000170
    29  C   -0.066149   0.005400  -0.008895  -0.000302  -0.063846  -0.004441
    30  H    0.002174   0.000450   0.000101   0.000117  -0.010370  -0.000024
    31  C    0.077206  -0.046205   0.001477   0.022418  -0.080226   0.053731
    32  H   -0.006465  -0.003055   0.000873  -0.000257   0.060350  -0.002225
    33  C    0.005884   0.088654  -0.026660   0.022262  -1.915562   0.188282
    34  H    0.094346  -0.034885   0.000694   0.003351  -0.161098   0.020114
    35  H   -0.017019   0.007638   0.014512  -0.024454  -0.249158   0.434417
               7          8          9         10         11         12
     1  C   -0.091107  -0.009192  -0.010533   0.006715   0.001454  -0.001307
     2  H   -0.011207   0.007682   0.000768  -0.000521   0.000118  -0.017237
     3  H    0.048239  -0.005810   0.000862   0.002057  -0.000290   0.026480
     4  H   -0.031875  -0.002297  -0.001462  -0.001344   0.000589   0.000580
     5  C   -0.497602   0.025550  -0.142906   0.152816   0.018077   0.196675
     6  N   -1.442248   0.054632   0.014620  -0.165056   0.102719  -0.205939
     7  C   12.527157  -0.182376   0.121787   0.207574  -0.244627  -0.406817
     8  C   -0.182376   4.526568   0.204731   0.074025   0.271043  -0.092693
     9  H    0.121787   0.204731   1.477876  -0.212839  -0.427500  -0.007709
    10  H    0.207574   0.074025  -0.212839   1.388356  -0.363135   0.015006
    11  H   -0.244627   0.271043  -0.427500  -0.363135   1.665297  -0.017021
    12  C   -0.406817  -0.092693  -0.007709   0.015006  -0.017021   4.619826
    13  H    0.202269   0.006866   0.013759  -0.009086   0.008542   0.136755
    14  H    0.094128   0.016729  -0.002224   0.011404  -0.007652   0.283649
    15  H   -0.115706  -0.055962  -0.009289   0.008073  -0.026803   0.298154
    16  C   -0.620558  -0.097298  -0.038344  -0.064281   0.062373  -0.064408
    17  H   -0.142124   0.016837   0.017278  -0.008908  -0.022892   0.033911
    18  H    0.211176  -0.042989   0.013733  -0.025138  -0.009522  -0.019218
    19  H    0.205147  -0.004135  -0.019831   0.016249   0.014078  -0.029665
    20  H   -0.077157   0.036305   0.001540   0.014832   0.006239   0.034681
    21  H    0.185950  -0.032992  -0.059043  -0.004727   0.012082  -0.132906
    22  C   -0.402440  -0.024860   0.000759  -0.090908   0.042746   0.002875
    23  O    0.030238  -0.002990   0.019991   0.022012  -0.009882   0.016721
    24  C    0.224603  -0.013010  -0.033434   0.023336   0.006853  -0.034983
    25  C    0.008824  -0.019103  -0.045251  -0.024451   0.007005   0.047494
    26  H    0.002056   0.001136  -0.000821  -0.003207   0.001004   0.001146
    27  C   -0.001562   0.006162  -0.004744   0.005904   0.000648  -0.002582
    28  Cl  -0.000011  -0.000250   0.000315   0.000009  -0.000056   0.000046
    29  C    0.012613  -0.019002   0.007118  -0.004835  -0.001733   0.003488
    30  H   -0.000136  -0.000172   0.000110   0.000059  -0.000023   0.000028
    31  C   -0.013219   0.022040  -0.001883   0.008642   0.003208  -0.018882
    32  H    0.002431   0.000090  -0.003816   0.000070   0.000321  -0.000276
    33  C   -0.057242  -0.022412   0.099505  -0.017293  -0.015214  -0.023748
    34  H   -0.028454   0.010965   0.016333   0.001732  -0.003775   0.009729
    35  H   -0.042321  -0.004419   0.005454  -0.000264  -0.006993   0.002944
              13         14         15         16         17         18
     1  C   -0.043191   0.026690   0.016384   0.015804   0.001795  -0.007273
     2  H   -0.002158  -0.001252   0.000018   0.002051   0.000310  -0.000815
     3  H   -0.003844   0.016228   0.000295   0.001748   0.000442  -0.000854
     4  H    0.000243  -0.000340   0.000173   0.008342   0.000143   0.001987
     5  C    0.082089  -0.182200   0.003011  -0.263193   0.038592  -0.035668
     6  N   -0.123875  -0.089953   0.119118   0.264431   0.000340  -0.075869
     7  C    0.202269   0.094128  -0.115706  -0.620558  -0.142124   0.211176
     8  C    0.006866   0.016729  -0.055962  -0.097298   0.016837  -0.042989
     9  H    0.013759  -0.002224  -0.009289  -0.038344   0.017278   0.013733
    10  H   -0.009086   0.011404   0.008073  -0.064281  -0.008908  -0.025138
    11  H    0.008542  -0.007652  -0.026803   0.062373  -0.022892  -0.009522
    12  C    0.136755   0.283649   0.298154  -0.064408   0.033911  -0.019218
    13  H    1.304569  -0.217013  -0.303539  -0.069376  -0.005110   0.014841
    14  H   -0.217013   1.307581  -0.312348  -0.005746   0.014325  -0.016977
    15  H   -0.303539  -0.312348   1.339099   0.049045  -0.015404   0.011230
    16  C   -0.069376  -0.005746   0.049045   4.703791   0.215350   0.231084
    17  H   -0.005110   0.014325  -0.015404   0.215350   1.248905  -0.219311
    18  H    0.014841  -0.016977   0.011230   0.231084  -0.219311   1.263020
    19  H   -0.032949   0.015966  -0.013730   0.169812  -0.240106  -0.303194
    20  H    0.006533   0.023524  -0.010835  -0.013489   0.008693   0.000007
    21  H    0.013589  -0.158038   0.048856   0.028098  -0.005792   0.008560
    22  C   -0.010402   0.207125  -0.037476   0.210483  -0.011934   0.030054
    23  O    0.001406  -0.004955   0.000839  -0.024518   0.001063  -0.001737
    24  C    0.002875  -0.053783   0.003433  -0.029997   0.001634   0.003000
    25  C    0.002101   0.023488  -0.002666  -0.007965  -0.000326   0.002037
    26  H    0.000152   0.000754  -0.000271   0.000122  -0.000049   0.000533
    27  C   -0.000629  -0.001836   0.000182  -0.001014   0.000022   0.000201
    28  Cl  -0.000002   0.000175  -0.000008   0.000005   0.000002   0.000011
    29  C    0.000668   0.004199  -0.000442  -0.001037   0.000068   0.000200
    30  H    0.000006   0.000234  -0.000031  -0.000042   0.000003  -0.000007
    31  C   -0.000047  -0.026654   0.001234   0.003791  -0.000200  -0.000863
    32  H   -0.000142  -0.000356   0.000251   0.000211  -0.000021  -0.000002
    33  C    0.002470   0.059727  -0.008953   0.011678   0.001555  -0.003077
    34  H    0.003406   0.007408  -0.004511  -0.001989   0.000265   0.000061
    35  H    0.017264  -0.015359   0.008846  -0.000175   0.005076  -0.002868
              19         20         21         22         23         24
     1  C   -0.000930  -0.002584  -0.372701   1.189627  -0.077556  -0.108140
     2  H    0.000365   0.001436  -0.028168   0.196952  -0.015032  -0.115387
     3  H    0.002016   0.012972  -0.099815   0.165190  -0.004322   0.065152
     4  H   -0.001813  -0.005110   0.087518  -0.339396   0.028244   0.046076
     5  C    0.014934  -0.162264   0.532921  -8.753042   0.869457   1.745248
     6  N   -0.017130   0.203476  -0.018364   1.392093  -0.168814  -0.057159
     7  C    0.205147  -0.077157   0.185950  -0.402440   0.030238   0.224603
     8  C   -0.004135   0.036305  -0.032992  -0.024860  -0.002990  -0.013010
     9  H   -0.019831   0.001540  -0.059043   0.000759   0.019991  -0.033434
    10  H    0.016249   0.014832  -0.004727  -0.090908   0.022012   0.023336
    11  H    0.014078   0.006239   0.012082   0.042746  -0.009882   0.006853
    12  C   -0.029665   0.034681  -0.132906   0.002875   0.016721  -0.034983
    13  H   -0.032949   0.006533   0.013589  -0.010402   0.001406   0.002875
    14  H    0.015966   0.023524  -0.158038   0.207125  -0.004955  -0.053783
    15  H   -0.013730  -0.010835   0.048856  -0.037476   0.000839   0.003433
    16  C    0.169812  -0.013489   0.028098   0.210483  -0.024518  -0.029997
    17  H   -0.240106   0.008693  -0.005792  -0.011934   0.001063   0.001634
    18  H   -0.303194   0.000007   0.008560   0.030054  -0.001737   0.003000
    19  H    1.251748  -0.010238  -0.000619   0.006334  -0.002846  -0.003133
    20  H   -0.010238   0.664186  -0.036963   0.073663   0.046112  -0.049285
    21  H   -0.000619  -0.036963   2.421685  -0.705545   0.026039   0.292034
    22  C    0.006334   0.073663  -0.705545  17.135956  -0.403575  -3.107945
    23  O   -0.002846   0.046112   0.026039  -0.403575   9.255138  -0.103177
    24  C   -0.003133  -0.049285   0.292034  -3.107945  -0.103177  21.904004
    25  C   -0.000896  -0.007638  -0.272386  -1.824481  -0.231971  -7.684600
    26  H    0.000021  -0.001714   0.007962   0.190930  -0.085017   0.140840
    27  C   -0.000069  -0.000589   0.018652   0.615360  -0.084910  -0.019374
    28  Cl  -0.000005  -0.000276  -0.003994  -0.073725   0.001974  -0.179912
    29  C   -0.000274  -0.000014  -0.059977  -0.139822  -0.009435  -4.973194
    30  H   -0.000008   0.000144  -0.003039   0.012133  -0.000499   0.155907
    31  C    0.001195   0.002188   0.322472  -0.055338   0.032337   2.421183
    32  H    0.000069  -0.000457   0.006562  -0.027615   0.001156  -0.068493
    33  C    0.000844   0.052903  -0.435241  -0.136557  -0.113699  -6.658637
    34  H   -0.000645   0.007248  -0.078164   0.134224   0.011417   0.386526
    35  H   -0.016145  -0.083350  -0.021812   0.162344  -0.008852  -0.011191
              25         26         27         28         29         30
     1  C   -0.278919  -0.013735   0.061089  -0.000503  -0.066149   0.002174
     2  H   -0.018710   0.000523   0.002769   0.000368   0.005400   0.000450
     3  H   -0.001270   0.000548   0.007714  -0.000065  -0.008895   0.000101
     4  H   -0.029939  -0.000765  -0.006679  -0.000188  -0.000302   0.000117
     5  C   -0.743679   0.088563   0.001714  -0.005536  -0.063846  -0.010370
     6  N   -0.132092  -0.015321  -0.023596  -0.000170  -0.004441  -0.000024
     7  C    0.008824   0.002056  -0.001562  -0.000011   0.012613  -0.000136
     8  C   -0.019103   0.001136   0.006162  -0.000250  -0.019002  -0.000172
     9  H   -0.045251  -0.000821  -0.004744   0.000315   0.007118   0.000110
    10  H   -0.024451  -0.003207   0.005904   0.000009  -0.004835   0.000059
    11  H    0.007005   0.001004   0.000648  -0.000056  -0.001733  -0.000023
    12  C    0.047494   0.001146  -0.002582   0.000046   0.003488   0.000028
    13  H    0.002101   0.000152  -0.000629  -0.000002   0.000668   0.000006
    14  H    0.023488   0.000754  -0.001836   0.000175   0.004199   0.000234
    15  H   -0.002666  -0.000271   0.000182  -0.000008  -0.000442  -0.000031
    16  C   -0.007965   0.000122  -0.001014   0.000005  -0.001037  -0.000042
    17  H   -0.000326  -0.000049   0.000022   0.000002   0.000068   0.000003
    18  H    0.002037   0.000533   0.000201   0.000011   0.000200  -0.000007
    19  H   -0.000896   0.000021  -0.000069  -0.000005  -0.000274  -0.000008
    20  H   -0.007638  -0.001714  -0.000589  -0.000276  -0.000014   0.000144
    21  H   -0.272386   0.007962   0.018652  -0.003994  -0.059977  -0.003039
    22  C   -1.824481   0.190930   0.615360  -0.073725  -0.139822   0.012133
    23  O   -0.231971  -0.085017  -0.084910   0.001974  -0.009435  -0.000499
    24  C   -7.684600   0.140840  -0.019374  -0.179912  -4.973194   0.155907
    25  C   21.482646  -1.113310  -1.737929  -0.013082   0.726799   0.175211
    26  H   -1.113310   1.994302   0.596132  -0.088165   0.206817  -0.015978
    27  C   -1.737929   0.596132  11.607681   0.045112  -2.876444   0.920218
    28  Cl  -0.013082  -0.088165   0.045112  17.522261   0.147130  -0.081990
    29  C    0.726799   0.206817  -2.876444   0.147130  13.439801  -1.176234
    30  H    0.175211  -0.015978   0.920218  -0.081990  -1.176234   1.736296
    31  C   -3.349998   0.015865   2.230568  -0.225801  -4.385539   0.290361
    32  H    0.152725   0.010816  -0.638064   0.003590   0.400803  -0.101455
    33  C    0.304210  -0.326091  -3.809259   0.270681   3.941488  -0.483727
    34  H   -0.064340  -0.031500   0.007637   0.006060  -0.018108  -0.011310
    35  H    0.023151   0.001013  -0.000853   0.000144   0.003477   0.000038
              31         32         33         34         35
     1  C    0.077206  -0.006465   0.005884   0.094346  -0.017019
     2  H   -0.046205  -0.003055   0.088654  -0.034885   0.007638
     3  H    0.001477   0.000873  -0.026660   0.000694   0.014512
     4  H    0.022418  -0.000257   0.022262   0.003351  -0.024454
     5  C   -0.080226   0.060350  -1.915562  -0.161098  -0.249158
     6  N    0.053731  -0.002225   0.188282   0.020114   0.434417
     7  C   -0.013219   0.002431  -0.057242  -0.028454  -0.042321
     8  C    0.022040   0.000090  -0.022412   0.010965  -0.004419
     9  H   -0.001883  -0.003816   0.099505   0.016333   0.005454
    10  H    0.008642   0.000070  -0.017293   0.001732  -0.000264
    11  H    0.003208   0.000321  -0.015214  -0.003775  -0.006993
    12  C   -0.018882  -0.000276  -0.023748   0.009729   0.002944
    13  H   -0.000047  -0.000142   0.002470   0.003406   0.017264
    14  H   -0.026654  -0.000356   0.059727   0.007408  -0.015359
    15  H    0.001234   0.000251  -0.008953  -0.004511   0.008846
    16  C    0.003791   0.000211   0.011678  -0.001989  -0.000175
    17  H   -0.000200  -0.000021   0.001555   0.000265   0.005076
    18  H   -0.000863  -0.000002  -0.003077   0.000061  -0.002868
    19  H    0.001195   0.000069   0.000844  -0.000645  -0.016145
    20  H    0.002188  -0.000457   0.052903   0.007248  -0.083350
    21  H    0.322472   0.006562  -0.435241  -0.078164  -0.021812
    22  C   -0.055338  -0.027615  -0.136557   0.134224   0.162344
    23  O    0.032337   0.001156  -0.113699   0.011417  -0.008852
    24  C    2.421183  -0.068493  -6.658637   0.386526  -0.011191
    25  C   -3.349998   0.152725   0.304210  -0.064340   0.023151
    26  H    0.015865   0.010816  -0.326091  -0.031500   0.001013
    27  C    2.230568  -0.638064  -3.809259   0.007637  -0.000853
    28  Cl  -0.225801   0.003590   0.270681   0.006060   0.000144
    29  C   -4.385539   0.400803   3.941488  -0.018108   0.003477
    30  H    0.290361  -0.101455  -0.483727  -0.011310   0.000038
    31  C   17.507734  -1.626732  -7.995260   0.441117  -0.018853
    32  H   -1.626732   1.878775   1.614823  -0.123985  -0.000050
    33  C   -7.995260   1.614823  22.219123  -1.546686  -0.021383
    34  H    0.441117  -0.123985  -1.546686   2.812692  -0.003695
    35  H   -0.018853  -0.000050  -0.021383  -0.003695   0.707583
 Mulliken charges:
               1
     1  C    1.007093
     2  H   -0.033207
     3  H   -0.084421
     4  H    0.033959
     5  C   -0.180458
     6  N   -0.352517
     7  C   -3.675403
     8  C    1.350600
     9  H    0.005090
    10  H    0.037123
    11  H   -0.067278
    12  C    1.345202
    13  H    0.000962
    14  H   -0.016649
    15  H    0.009733
    16  C    1.325210
    17  H    0.065571
    18  H   -0.026353
    19  H   -0.000418
    20  H    0.265281
    21  H   -0.482691
    22  C    0.376215
    23  O   -1.010355
    24  C    1.882131
    25  C    0.649311
    26  H   -0.565291
    27  C   -0.917631
    28  Cl  -0.324143
    29  C    0.909651
    30  H   -0.408547
    31  C    0.386932
    32  H   -0.530449
    33  C    0.732612
    34  H   -0.862183
    35  H    0.155317
 Sum of Mulliken charges =   1.00000
 Mulliken charges with hydrogens summed into heavy atoms:
               1
     1  C    0.923425
     5  C   -0.663148
     6  N    0.068081
     7  C   -3.675403
     8  C    1.325535
    12  C    1.339249
    16  C    1.364010
    22  C    0.376215
    23  O   -1.010355
    24  C    1.882131
    25  C    0.084021
    27  C   -0.917631
    28  Cl  -0.324143
    29  C    0.501104
    31  C   -0.143517
    33  C   -0.129571
 Electronic spatial extent (au):  <R**2>=           5574.3759
 Charge=              1.0000 electrons
 Dipole moment (field-independent basis, Debye):
    X=            -10.3571    Y=              3.8751    Z=             -0.0337  Tot=             11.0584
 Quadrupole moment (field-independent basis, Debye-Ang):
   XX=            -50.5367   YY=            -92.8085   ZZ=            -95.2956
   XY=              6.6293   XZ=              5.6702   YZ=             -1.1533
 Traceless Quadrupole moment (field-independent basis, Debye-Ang):
   XX=             29.0102   YY=            -13.2615   ZZ=            -15.7487
   XY=              6.6293   XZ=              5.6702   YZ=             -1.1533
 Octapole moment (field-independent basis, Debye-Ang**2):
  XXX=           -144.5817  YYY=              5.5318  ZZZ=            -11.9297  XYY=             -7.5497
  XXY=              4.3168  XXZ=             14.2733  XZZ=            -30.9584  YZZ=              4.3523
  YYZ=              5.0378  XYZ=             20.3993
 Hexadecapole moment (field-independent basis, Debye-Ang**3):
 XXXX=          -4945.0833 YYYY=           -915.4116 ZZZZ=           -604.1085 XXXY=            109.5893
 XXXZ=             56.3117 YYYX=              4.6721 YYYZ=             15.5489 ZZZX=             -0.7632
 ZZZY=            -14.7493 XXYY=          -1015.3482 XXZZ=           -975.3793 YYZZ=           -248.4046
 XXYZ=             25.1735 YYXZ=             21.3845 ZZXY=              4.4051
 N-N= 1.216763612447D+03 E-N=-4.984320129832D+03  KE= 1.091256035746D+03
 Leave Link  601 at Sun Jul 18 20:00:25 2021, MaxMem=   262144000 cpu:               0.5 elap:               0.3
 (Enter /dades/curu/g16A03_MST/g16/l9999.exe)
 1\1\GINC-PIRINEUS10\SP\RMP2-FC\Aug-CC-pVDZ\C13H19Cl1N1O1(1+)\UBATOR02\
 18-Jul-2021\0\\#p mp2/aug-cc-pVDZ scf=tight maxdisk=180GB geom=allchec
 k\\SET_328_BBB6_conf1.geo_165_225_075 geometry\\1,1\C,0,-0.7980205365,
 2.2312893506,-0.8375749959\H,0,-0.6186951973,2.8210569947,0.0614962591
 \H,0,-1.8408511883,2.3652627999,-1.1289232349\H,0,-0.1525653802,2.6142
 382711,-1.6305003007\C,0,-0.5019519266,0.7528646746,-0.5619334658\N,0,
 -0.7272130524,-0.0679301512,-1.8054493804\C,0,-1.2819938488,-1.5045094
 74,-1.6331544501\C,0,-0.3799206297,-2.2543787619,-0.651542004\H,0,-0.3
 733720031,-1.7870350025,0.3363127149\H,0,0.6476569408,-2.322802297,-1.
 0138414045\H,0,-0.7621498612,-3.2698176063,-0.5262119194\C,0,-2.721871
 5781,-1.4085009327,-1.1122813087\H,0,-3.3684329663,-0.8478940442,-1.79
 37622639\H,0,-2.7730721792,-0.9462884849,-0.1227811724\H,0,-3.12935939
 29,-2.4181888824,-1.0206375951\C,0,-1.2312131572,-2.1499138806,-3.0239
 128012\H,0,-1.6189237319,-3.1684658704,-2.9553622898\H,0,-0.2084634187
 ,-2.2103633512,-3.4082761792\H,0,-1.8460198399,-1.6109754806,-3.749923
 1866\H,0,0.1947809118,-0.1208331686,-2.2737239666\H,0,-1.1690709535,0.
 3713301044,0.2084997993\C,0,0.9728342635,0.5811429573,-0.1566040885\O,
 0,1.771631291,0.2111873739,-1.0074782175\C,0,1.3851920494,0.9177416951
 ,1.2227397608\C,0,2.7591131283,0.8807036146,1.5070549668\H,0,3.4552745
 508,0.6164156383,0.7218444655\C,0,3.1940609926,1.1845058038,2.78665768
 62\Cl,0,4.9065022596,1.1410303391,3.1432572872\C,0,2.2914496295,1.5244
 824323,3.7973755816\H,0,2.6557680599,1.7590148401,4.7905654603\C,0,0.9
 267041577,1.5560009579,3.5104955642\H,0,0.220868136,1.8162875222,4.290
 6307682\C,0,0.4701911991,1.2543856188,2.2302528929\H,0,-0.5933244518,1
 .2812150188,2.0281381748\H,0,-1.3385422764,0.4417413809,-2.4564471565\
 \Version=ES64L-G16RevA.03\State=1-A\HF=-1092.0478537\MP2=-1094.4090123
 \RMSD=6.368e-09\PG=C01 [X(C13H19Cl1N1O1)]\\@


 I LOVE THOSE WHO LONG FOR THE IMPOSSIBLE.

                                 -- GOETHE
 Job cpu time:       0 days  3 hours 12 minutes  1.0 seconds.
 Elapsed time:       0 days  0 hours 55 minutes 30.6 seconds.
 File lengths (MBytes):  RWF=  74918 Int=      0 D2E=      0 Chk=     24 Scr=      1
 Normal termination of Gaussian 16 at Sun Jul 18 20:00:27 2021.
