 Entering Gaussian System, Link 0=g16
 Input=SET_328_BBB301_conf1.geo_075_090_045_OCTANOL.dat
 Output=SET_328_BBB301_conf1.geo_075_090_045_OCTANOL.log
 Initial command:
 /dades/curu/g16A03_MST/g16/l1.exe "/tmp/ubator02/1839643/Gau-66608.inp" -scrdir="/tmp/ubator02/1839643/"
 Entering Link 1 = /dades/curu/g16A03_MST/g16/l1.exe PID=     66609.
  
 Copyright (c) 1988,1990,1992,1993,1995,1998,2003,2009,2016,
            Gaussian, Inc.  All Rights Reserved.
  
 This is part of the Gaussian(R) 16 program.  It is based on
 the Gaussian(R) 09 system (copyright 2009, Gaussian, Inc.),
 the Gaussian(R) 03 system (copyright 2003, Gaussian, Inc.),
 the Gaussian(R) 98 system (copyright 1998, Gaussian, Inc.),
 the Gaussian(R) 94 system (copyright 1995, Gaussian, Inc.),
 the Gaussian 92(TM) system (copyright 1992, Gaussian, Inc.),
 the Gaussian 90(TM) system (copyright 1990, Gaussian, Inc.),
 the Gaussian 88(TM) system (copyright 1988, Gaussian, Inc.),
 the Gaussian 86(TM) system (copyright 1986, Carnegie Mellon
 University), and the Gaussian 82(TM) system (copyright 1983,
 Carnegie Mellon University). Gaussian is a federally registered
 trademark of Gaussian, Inc.
  
 This software contains proprietary and confidential information,
 including trade secrets, belonging to Gaussian, Inc.
  
 This software is provided under written license and may be
 used, copied, transmitted, or stored only in accord with that
 written license.
  
 The following legend is applicable only to US Government
 contracts under FAR:
  
                    RESTRICTED RIGHTS LEGEND
  
 Use, reproduction and disclosure by the US Government is
 subject to restrictions as set forth in subparagraphs (a)
 and (c) of the Commercial Computer Software - Restricted
 Rights clause in FAR 52.227-19.
  
 Gaussian, Inc.
 340 Quinnipiac St., Bldg. 40, Wallingford CT 06492
  
  
 ---------------------------------------------------------------
 Warning -- This program may not be used in any manner that
 competes with the business of Gaussian, Inc. or will provide
 assistance to any competitor of Gaussian, Inc.  The licensee
 of this program is prohibited from giving any competitor of
 Gaussian, Inc. access to this program.  By using this program,
 the user acknowledges that Gaussian, Inc. is engaged in the
 business of creating and licensing software in the field of
 computational chemistry and represents and warrants to the
 licensee that it is not a competitor of Gaussian, Inc. and that
 it will not use this program in any manner prohibited above.
 ---------------------------------------------------------------
  

 Cite this work as:
 Gaussian 16, Revision A.03,
 M. J. Frisch, G. W. Trucks, H. B. Schlegel, G. E. Scuseria, 
 M. A. Robb, J. R. Cheeseman, G. Scalmani, V. Barone, 
 G. A. Petersson, H. Nakatsuji, X. Li, M. Caricato, A. V. Marenich, 
 J. Bloino, B. G. Janesko, R. Gomperts, B. Mennucci, H. P. Hratchian, 
 J. V. Ortiz, A. F. Izmaylov, J. L. Sonnenberg, D. Williams-Young, 
 F. Ding, F. Lipparini, F. Egidi, J. Goings, B. Peng, A. Petrone, 
 T. Henderson, D. Ranasinghe, V. G. Zakrzewski, J. Gao, N. Rega, 
 G. Zheng, W. Liang, M. Hada, M. Ehara, K. Toyota, R. Fukuda, 
 J. Hasegawa, M. Ishida, T. Nakajima, Y. Honda, O. Kitao, H. Nakai, 
 T. Vreven, K. Throssell, J. A. Montgomery, Jr., J. E. Peralta, 
 F. Ogliaro, M. J. Bearpark, J. J. Heyd, E. N. Brothers, K. N. Kudin, 
 V. N. Staroverov, T. A. Keith, R. Kobayashi, J. Normand, 
 K. Raghavachari, A. P. Rendell, J. C. Burant, S. S. Iyengar, 
 J. Tomasi, M. Cossi, J. M. Millam, M. Klene, C. Adamo, R. Cammi, 
 J. W. Ochterski, R. L. Martin, K. Morokuma, O. Farkas, 
 J. B. Foresman, and D. J. Fox, Gaussian, Inc., Wallingford CT, 2016.
 
 ******************************************
 Gaussian 16:  ES64L-G16RevA.03 25-Dec-2016
                18-Jul-2021 
 ******************************************
 %mem=800MB
 %nproc=4
 Will use up to    4 processors via shared memory.
 %chk=SET_328_BBB301_conf1.geo_075_090_045.chk
 ---------------------------------------------------------------
 #p b3lyp/6-31G(d) opt freq scrf=(iefpcm,read,solvent=n-octanol)
 ---------------------------------------------------------------
 1/18=20,19=15,26=3,38=1,40=2/1,3;
 2/9=110,12=2,17=6,18=5,40=1/2;
 3/5=1,6=6,7=1,11=2,25=1,30=1,70=2203,71=1,72=25,74=-5/1,2,3;
 4//1;
 5/5=2,38=5,53=25/2;
 6/7=2,8=2,9=2,10=2,28=1/1;
 7//1,2,3,16;
 1/18=20,19=15,26=3/3(2);
 2/9=110/2;
 99//99;
 2/9=110/2;
 3/5=1,6=6,7=1,11=2,25=1,30=1,70=2205,71=1,72=25,74=-5/1,2,3;
 4/5=5,16=3,69=1/1;
 5/5=2,38=5,53=25/2;
 7//1,2,3,16;
 1/18=20,19=15,26=3/3(-5);
 2/9=110/2;
 6/7=2,8=2,9=2,10=2,19=2,28=1/1;
 99/9=1/99;
 Leave Link    1 at Sun Jul 18 14:42:05 2021, MaxMem=   104857600 cpu:               0.0 elap:               0.0
 (Enter /dades/curu/g16A03_MST/g16/l101.exe)
 ---------------------------------------------
 SET_328_BBB301_conf1.geo_075_090_045 geometry
 ---------------------------------------------
 Symbolic Z-matrix:
 Charge =  1 Multiplicity = 1
 C                     0.935    -0.041     4.047 
 H                     0.277    -0.901     4.188 
 H                     0.43      0.926     4.083 
 H                     1.727    -0.208     4.78 
 C                     1.456    -0.34      2.645 
 C                     2.198     0.874     2.127 
 H                     2.445     0.935     1.065 
 H                     3.124     0.951     2.7 
 H                     1.599     1.776     2.272 
 C                     2.322    -1.495     2.795 
 H                     3.138    -1.376     3.511 
 H                     2.861    -1.672     1.862 
 H                     1.723    -2.362     3.082 
 N                     0.228    -0.688     1.811 
 H                    -0.266     0.155     1.598 
 C                     0.579    -1.39      0.512 
 H                     1.011    -2.386     0.645 
 H                     1.246    -0.805    -0.126 
 C                    -0.672    -1.755    -0.347 
 O                    -1.531    -2.442     0.585 
 H                    -1.13     -1.916     1.3 
 H                    -0.315    -2.489    -1.074 
 C                    -1.283    -0.583    -1.013 
 C                    -0.744    -0.315    -2.269 
 H                     0.018    -0.949    -2.716 
 C                    -1.248     0.77     -3.04 
 C                    -0.624     1.039    -4.48 
 O                    -0.426     2.412    -4.558 
 H                     0.54      2.503    -4.469 
 H                    -1.382     0.756    -5.215 
 H                     0.306     0.495    -4.663 
 C                    -2.277     1.545    -2.549 
 O                    -2.874     2.502    -3.244 
 H                    -2.151     2.834    -3.805 
 C                    -2.795     1.313    -1.255 
 H                    -3.553     1.99     -0.87 
 C                    -2.289     0.223    -0.477 
 H                    -2.691     0.036     0.515 
 H                    -0.368    -1.284     2.349 
 
 ITRead=  0  0  0  0  0  0  0  0  0  0  0  0  0  0  0  0  0  0  0  0
 ITRead=  0  0  0  0  0  0  0  0  0  0  0  0  0  0  0  0  0  0  0
 MicOpt= -1 -1 -1 -1 -1 -1 -1 -1 -1 -1 -1 -1 -1 -1 -1 -1 -1 -1 -1 -1
 MicOpt= -1 -1 -1 -1 -1 -1 -1 -1 -1 -1 -1 -1 -1 -1 -1 -1 -1 -1 -1
 NAtoms=     39 NQM=       39 NQMF=       0 NMMI=      0 NMMIF=      0
                NMic=       0 NMicF=      0.
                    Isotopes and Nuclear Properties:
 (Nuclear quadrupole moments (NQMom) in fm**2, nuclear magnetic moments (NMagM)
  in nuclear magnetons)

  Atom         1           2           3           4           5           6           7           8           9          10
 IAtWgt=          12           1           1           1          12          12           1           1           1          12
 AtmWgt=  12.0000000   1.0078250   1.0078250   1.0078250  12.0000000  12.0000000   1.0078250   1.0078250   1.0078250  12.0000000
 NucSpn=           0           1           1           1           0           0           1           1           1           0
 AtZEff=  -0.0000000  -0.0000000  -0.0000000  -0.0000000  -0.0000000  -0.0000000  -0.0000000  -0.0000000  -0.0000000  -0.0000000
 NQMom=    0.0000000   0.0000000   0.0000000   0.0000000   0.0000000   0.0000000   0.0000000   0.0000000   0.0000000   0.0000000
 NMagM=    0.0000000   2.7928460   2.7928460   2.7928460   0.0000000   0.0000000   2.7928460   2.7928460   2.7928460   0.0000000
 AtZNuc=   6.0000000   1.0000000   1.0000000   1.0000000   6.0000000   6.0000000   1.0000000   1.0000000   1.0000000   6.0000000

  Atom        11          12          13          14          15          16          17          18          19          20
 IAtWgt=           1           1           1          14           1          12           1           1          12          16
 AtmWgt=   1.0078250   1.0078250   1.0078250  14.0030740   1.0078250  12.0000000   1.0078250   1.0078250  12.0000000  15.9949146
 NucSpn=           1           1           1           2           1           0           1           1           0           0
 AtZEff=  -0.0000000  -0.0000000  -0.0000000  -0.0000000  -0.0000000  -0.0000000  -0.0000000  -0.0000000  -0.0000000  -0.0000000
 NQMom=    0.0000000   0.0000000   0.0000000   2.0440000   0.0000000   0.0000000   0.0000000   0.0000000   0.0000000   0.0000000
 NMagM=    2.7928460   2.7928460   2.7928460   0.4037610   2.7928460   0.0000000   2.7928460   2.7928460   0.0000000   0.0000000
 AtZNuc=   1.0000000   1.0000000   1.0000000   7.0000000   1.0000000   6.0000000   1.0000000   1.0000000   6.0000000   8.0000000

  Atom        21          22          23          24          25          26          27          28          29          30
 IAtWgt=           1           1          12          12           1          12          12          16           1           1
 AtmWgt=   1.0078250   1.0078250  12.0000000  12.0000000   1.0078250  12.0000000  12.0000000  15.9949146   1.0078250   1.0078250
 NucSpn=           1           1           0           0           1           0           0           0           1           1
 AtZEff=  -0.0000000  -0.0000000  -0.0000000  -0.0000000  -0.0000000  -0.0000000  -0.0000000  -0.0000000  -0.0000000  -0.0000000
 NQMom=    0.0000000   0.0000000   0.0000000   0.0000000   0.0000000   0.0000000   0.0000000   0.0000000   0.0000000   0.0000000
 NMagM=    2.7928460   2.7928460   0.0000000   0.0000000   2.7928460   0.0000000   0.0000000   0.0000000   2.7928460   2.7928460
 AtZNuc=   1.0000000   1.0000000   6.0000000   6.0000000   1.0000000   6.0000000   6.0000000   8.0000000   1.0000000   1.0000000

  Atom        31          32          33          34          35          36          37          38          39
 IAtWgt=           1          12          16           1          12           1          12           1           1
 AtmWgt=   1.0078250  12.0000000  15.9949146   1.0078250  12.0000000   1.0078250  12.0000000   1.0078250   1.0078250
 NucSpn=           1           0           0           1           0           1           0           1           1
 AtZEff=  -0.0000000  -0.0000000  -0.0000000  -0.0000000  -0.0000000  -0.0000000  -0.0000000  -0.0000000  -0.0000000
 NQMom=    0.0000000   0.0000000   0.0000000   0.0000000   0.0000000   0.0000000   0.0000000   0.0000000   0.0000000
 NMagM=    2.7928460   0.0000000   0.0000000   2.7928460   0.0000000   2.7928460   0.0000000   2.7928460   2.7928460
 AtZNuc=   1.0000000   6.0000000   8.0000000   1.0000000   6.0000000   1.0000000   6.0000000   1.0000000   1.0000000
 Leave Link  101 at Sun Jul 18 14:42:05 2021, MaxMem=   104857600 cpu:               0.1 elap:               0.1
 (Enter /dades/curu/g16A03_MST/g16/l103.exe)

 GradGradGradGradGradGradGradGradGradGradGradGradGradGradGradGradGradGrad
 Berny optimization.
 Initialization pass.
                           ----------------------------
                           !    Initial Parameters    !
                           ! (Angstroms and Degrees)  !
 --------------------------                            --------------------------
 ! Name  Definition              Value          Derivative Info.                !
 --------------------------------------------------------------------------------
 ! R1    R(1,2)                  1.092          estimate D2E/DX2                !
 ! R2    R(1,3)                  1.0915         estimate D2E/DX2                !
 ! R3    R(1,4)                  1.092          estimate D2E/DX2                !
 ! R4    R(1,5)                  1.5253         estimate D2E/DX2                !
 ! R5    R(5,6)                  1.5142         estimate D2E/DX2                !
 ! R6    R(5,10)                 1.4514         estimate D2E/DX2                !
 ! R7    R(5,14)                 1.5247         estimate D2E/DX2                !
 ! R8    R(6,7)                  1.0921         estimate D2E/DX2                !
 ! R9    R(6,8)                  1.0917         estimate D2E/DX2                !
 ! R10   R(6,9)                  1.0924         estimate D2E/DX2                !
 ! R11   R(10,11)                1.0921         estimate D2E/DX2                !
 ! R12   R(10,12)                1.0919         estimate D2E/DX2                !
 ! R13   R(10,13)                1.0922         estimate D2E/DX2                !
 ! R14   R(14,15)                1.0            estimate D2E/DX2                !
 ! R15   R(14,16)                1.5177         estimate D2E/DX2                !
 ! R16   R(14,39)                0.9999         estimate D2E/DX2                !
 ! R17   R(16,17)                1.0938         estimate D2E/DX2                !
 ! R18   R(16,18)                1.0928         estimate D2E/DX2                !
 ! R19   R(16,19)                1.5608         estimate D2E/DX2                !
 ! R20   R(19,20)                1.4417         estimate D2E/DX2                !
 ! R21   R(19,22)                1.093          estimate D2E/DX2                !
 ! R22   R(19,23)                1.48           estimate D2E/DX2                !
 ! R23   R(20,21)                0.974          estimate D2E/DX2                !
 ! R24   R(23,24)                1.3928         estimate D2E/DX2                !
 ! R25   R(23,37)                1.3961         estimate D2E/DX2                !
 ! R26   R(24,25)                1.0874         estimate D2E/DX2                !
 ! R27   R(24,26)                1.4233         estimate D2E/DX2                !
 ! R28   R(26,27)                1.5923         estimate D2E/DX2                !
 ! R29   R(26,32)                1.3786         estimate D2E/DX2                !
 ! R30   R(27,28)                1.3894         estimate D2E/DX2                !
 ! R31   R(27,30)                1.0931         estimate D2E/DX2                !
 ! R32   R(27,31)                1.0929         estimate D2E/DX2                !
 ! R33   R(28,29)                0.9744         estimate D2E/DX2                !
 ! R34   R(32,33)                1.3249         estimate D2E/DX2                !
 ! R35   R(32,35)                1.413          estimate D2E/DX2                !
 ! R36   R(33,34)                0.9735         estimate D2E/DX2                !
 ! R37   R(35,36)                1.0868         estimate D2E/DX2                !
 ! R38   R(35,37)                1.4316         estimate D2E/DX2                !
 ! R39   R(37,38)                1.0866         estimate D2E/DX2                !
 ! A1    A(2,1,3)              114.4984         estimate D2E/DX2                !
 ! A2    A(2,1,4)              103.2922         estimate D2E/DX2                !
 ! A3    A(2,1,5)               99.7952         estimate D2E/DX2                !
 ! A4    A(3,1,4)              116.6734         estimate D2E/DX2                !
 ! A5    A(3,1,5)              111.2242         estimate D2E/DX2                !
 ! A6    A(4,1,5)              109.8331         estimate D2E/DX2                !
 ! A7    A(1,5,6)              108.9457         estimate D2E/DX2                !
 ! A8    A(1,5,10)             105.356          estimate D2E/DX2                !
 ! A9    A(1,5,14)             105.8085         estimate D2E/DX2                !
 ! A10   A(6,5,10)             112.3959         estimate D2E/DX2                !
 ! A11   A(6,5,14)             112.989          estimate D2E/DX2                !
 ! A12   A(10,5,14)            110.8222         estimate D2E/DX2                !
 ! A13   A(5,6,7)              119.2297         estimate D2E/DX2                !
 ! A14   A(5,6,8)              107.0173         estimate D2E/DX2                !
 ! A15   A(5,6,9)              110.3584         estimate D2E/DX2                !
 ! A16   A(7,6,8)              108.3395         estimate D2E/DX2                !
 ! A17   A(7,6,9)              101.9451         estimate D2E/DX2                !
 ! A18   A(8,6,9)              109.7062         estimate D2E/DX2                !
 ! A19   A(5,10,11)            115.2693         estimate D2E/DX2                !
 ! A20   A(5,10,12)            109.5858         estimate D2E/DX2                !
 ! A21   A(5,10,13)            109.3683         estimate D2E/DX2                !
 ! A22   A(11,10,12)           102.0654         estimate D2E/DX2                !
 ! A23   A(11,10,13)           108.9054         estimate D2E/DX2                !
 ! A24   A(12,10,13)           111.5043         estimate D2E/DX2                !
 ! A25   A(5,14,15)            108.7819         estimate D2E/DX2                !
 ! A26   A(5,14,16)            112.7979         estimate D2E/DX2                !
 ! A27   A(5,14,39)            108.7715         estimate D2E/DX2                !
 ! A28   A(15,14,16)           108.7752         estimate D2E/DX2                !
 ! A29   A(15,14,39)           108.8208         estimate D2E/DX2                !
 ! A30   A(16,14,39)           108.8237         estimate D2E/DX2                !
 ! A31   A(14,16,17)           114.1085         estimate D2E/DX2                !
 ! A32   A(14,16,18)           113.157          estimate D2E/DX2                !
 ! A33   A(14,16,19)           113.1945         estimate D2E/DX2                !
 ! A34   A(17,16,18)           108.5058         estimate D2E/DX2                !
 ! A35   A(17,16,19)            99.8192         estimate D2E/DX2                !
 ! A36   A(18,16,19)           107.0432         estimate D2E/DX2                !
 ! A37   A(16,19,20)           103.4863         estimate D2E/DX2                !
 ! A38   A(16,19,22)           105.1477         estimate D2E/DX2                !
 ! A39   A(16,19,23)           113.1639         estimate D2E/DX2                !
 ! A40   A(20,19,22)           107.7331         estimate D2E/DX2                !
 ! A41   A(20,19,23)           114.9784         estimate D2E/DX2                !
 ! A42   A(22,19,23)           111.5494         estimate D2E/DX2                !
 ! A43   A(19,20,21)            88.3905         estimate D2E/DX2                !
 ! A44   A(19,23,24)           113.4786         estimate D2E/DX2                !
 ! A45   A(19,23,37)           125.5845         estimate D2E/DX2                !
 ! A46   A(24,23,37)           120.931          estimate D2E/DX2                !
 ! A47   A(23,24,25)           121.9853         estimate D2E/DX2                !
 ! A48   A(23,24,26)           119.878          estimate D2E/DX2                !
 ! A49   A(25,24,26)           118.0306         estimate D2E/DX2                !
 ! A50   A(24,26,27)           118.6802         estimate D2E/DX2                !
 ! A51   A(24,26,32)           119.9957         estimate D2E/DX2                !
 ! A52   A(27,26,32)           121.3079         estimate D2E/DX2                !
 ! A53   A(26,27,28)           105.8766         estimate D2E/DX2                !
 ! A54   A(26,27,30)           107.0138         estimate D2E/DX2                !
 ! A55   A(26,27,31)           113.6305         estimate D2E/DX2                !
 ! A56   A(28,27,30)           108.4763         estimate D2E/DX2                !
 ! A57   A(28,27,31)           111.176          estimate D2E/DX2                !
 ! A58   A(30,27,31)           110.404          estimate D2E/DX2                !
 ! A59   A(27,28,29)           103.206          estimate D2E/DX2                !
 ! A60   A(26,32,33)           123.7504         estimate D2E/DX2                !
 ! A61   A(26,32,35)           120.4967         estimate D2E/DX2                !
 ! A62   A(33,32,35)           115.7094         estimate D2E/DX2                !
 ! A63   A(32,33,34)           102.3561         estimate D2E/DX2                !
 ! A64   A(32,35,36)           118.5435         estimate D2E/DX2                !
 ! A65   A(32,35,37)           119.5461         estimate D2E/DX2                !
 ! A66   A(36,35,37)           121.8908         estimate D2E/DX2                !
 ! A67   A(23,37,35)           119.0539         estimate D2E/DX2                !
 ! A68   A(23,37,38)           121.1824         estimate D2E/DX2                !
 ! A69   A(35,37,38)           119.7637         estimate D2E/DX2                !
 ! D1    D(2,1,5,6)            169.2401         estimate D2E/DX2                !
 ! D2    D(2,1,5,10)           -69.9622         estimate D2E/DX2                !
 ! D3    D(2,1,5,14)            47.4813         estimate D2E/DX2                !
 ! D4    D(3,1,5,6)             48.0105         estimate D2E/DX2                !
 ! D5    D(3,1,5,10)           168.8081         estimate D2E/DX2                !
 ! D6    D(3,1,5,14)           -73.7484         estimate D2E/DX2                !
 ! D7    D(4,1,5,6)            -82.6826         estimate D2E/DX2                !
 ! D8    D(4,1,5,10)            38.115          estimate D2E/DX2                !
 ! D9    D(4,1,5,14)           155.5585         estimate D2E/DX2                !
 ! D10   D(1,5,6,7)           -166.2255         estimate D2E/DX2                !
 ! D11   D(1,5,6,8)             70.5222         estimate D2E/DX2                !
 ! D12   D(1,5,6,9)            -48.7988         estimate D2E/DX2                !
 ! D13   D(10,5,6,7)            77.3972         estimate D2E/DX2                !
 ! D14   D(10,5,6,8)           -45.8551         estimate D2E/DX2                !
 ! D15   D(10,5,6,9)          -165.1761         estimate D2E/DX2                !
 ! D16   D(14,5,6,7)           -48.9348         estimate D2E/DX2                !
 ! D17   D(14,5,6,8)          -172.187          estimate D2E/DX2                !
 ! D18   D(14,5,6,9)            68.4919         estimate D2E/DX2                !
 ! D19   D(1,5,10,11)          -56.4598         estimate D2E/DX2                !
 ! D20   D(1,5,10,12)         -170.8719         estimate D2E/DX2                !
 ! D21   D(1,5,10,13)           66.6144         estimate D2E/DX2                !
 ! D22   D(6,5,10,11)           62.0512         estimate D2E/DX2                !
 ! D23   D(6,5,10,12)          -52.3609         estimate D2E/DX2                !
 ! D24   D(6,5,10,13)         -174.8746         estimate D2E/DX2                !
 ! D25   D(14,5,10,11)        -170.4568         estimate D2E/DX2                !
 ! D26   D(14,5,10,12)          75.1311         estimate D2E/DX2                !
 ! D27   D(14,5,10,13)         -47.3826         estimate D2E/DX2                !
 ! D28   D(1,5,14,15)           75.6407         estimate D2E/DX2                !
 ! D29   D(1,5,14,16)         -163.5817         estimate D2E/DX2                !
 ! D30   D(1,5,14,39)          -42.75           estimate D2E/DX2                !
 ! D31   D(6,5,14,15)          -43.4809         estimate D2E/DX2                !
 ! D32   D(6,5,14,16)           77.2968         estimate D2E/DX2                !
 ! D33   D(6,5,14,39)         -161.8715         estimate D2E/DX2                !
 ! D34   D(10,5,14,15)        -170.6477         estimate D2E/DX2                !
 ! D35   D(10,5,14,16)         -49.87           estimate D2E/DX2                !
 ! D36   D(10,5,14,39)          70.9617         estimate D2E/DX2                !
 ! D37   D(5,14,16,17)          66.5355         estimate D2E/DX2                !
 ! D38   D(5,14,16,18)         -58.1871         estimate D2E/DX2                !
 ! D39   D(5,14,16,19)         179.8023         estimate D2E/DX2                !
 ! D40   D(15,14,16,17)       -172.683          estimate D2E/DX2                !
 ! D41   D(15,14,16,18)         62.5944         estimate D2E/DX2                !
 ! D42   D(15,14,16,19)        -59.4161         estimate D2E/DX2                !
 ! D43   D(39,14,16,17)        -54.2665         estimate D2E/DX2                !
 ! D44   D(39,14,16,18)       -178.989          estimate D2E/DX2                !
 ! D45   D(39,14,16,19)         59.0004         estimate D2E/DX2                !
 ! D46   D(14,16,19,20)        -50.9965         estimate D2E/DX2                !
 ! D47   D(14,16,19,22)       -163.9148         estimate D2E/DX2                !
 ! D48   D(14,16,19,23)         74.0989         estimate D2E/DX2                !
 ! D49   D(17,16,19,20)         70.6819         estimate D2E/DX2                !
 ! D50   D(17,16,19,22)        -42.2364         estimate D2E/DX2                !
 ! D51   D(17,16,19,23)       -164.2227         estimate D2E/DX2                !
 ! D52   D(18,16,19,20)       -176.3654         estimate D2E/DX2                !
 ! D53   D(18,16,19,22)         70.7163         estimate D2E/DX2                !
 ! D54   D(18,16,19,23)        -51.27           estimate D2E/DX2                !
 ! D55   D(16,19,20,21)         28.5646         estimate D2E/DX2                !
 ! D56   D(22,19,20,21)        139.5919         estimate D2E/DX2                !
 ! D57   D(23,19,20,21)        -95.3516         estimate D2E/DX2                !
 ! D58   D(16,19,23,24)         88.9406         estimate D2E/DX2                !
 ! D59   D(16,19,23,37)        -90.1804         estimate D2E/DX2                !
 ! D60   D(20,19,23,24)       -152.4293         estimate D2E/DX2                !
 ! D61   D(20,19,23,37)         28.4497         estimate D2E/DX2                !
 ! D62   D(22,19,23,24)        -29.3889         estimate D2E/DX2                !
 ! D63   D(22,19,23,37)        151.49           estimate D2E/DX2                !
 ! D64   D(19,23,24,25)          2.7617         estimate D2E/DX2                !
 ! D65   D(19,23,24,26)        178.9414         estimate D2E/DX2                !
 ! D66   D(37,23,24,25)       -178.0716         estimate D2E/DX2                !
 ! D67   D(37,23,24,26)         -1.892          estimate D2E/DX2                !
 ! D68   D(19,23,37,35)       -179.0091         estimate D2E/DX2                !
 ! D69   D(19,23,37,38)          0.9617         estimate D2E/DX2                !
 ! D70   D(24,23,37,35)          1.9308         estimate D2E/DX2                !
 ! D71   D(24,23,37,38)       -178.0984         estimate D2E/DX2                !
 ! D72   D(23,24,26,27)       -179.2092         estimate D2E/DX2                !
 ! D73   D(23,24,26,32)         -0.6571         estimate D2E/DX2                !
 ! D74   D(25,24,26,27)         -2.8799         estimate D2E/DX2                !
 ! D75   D(25,24,26,32)        175.6722         estimate D2E/DX2                !
 ! D76   D(24,26,27,28)       -135.5117         estimate D2E/DX2                !
 ! D77   D(24,26,27,30)        108.9197         estimate D2E/DX2                !
 ! D78   D(24,26,27,31)        -13.2104         estimate D2E/DX2                !
 ! D79   D(32,26,27,28)         45.956          estimate D2E/DX2                !
 ! D80   D(32,26,27,30)        -69.6126         estimate D2E/DX2                !
 ! D81   D(32,26,27,31)        168.2573         estimate D2E/DX2                !
 ! D82   D(24,26,32,33)       -174.3845         estimate D2E/DX2                !
 ! D83   D(24,26,32,35)          3.1121         estimate D2E/DX2                !
 ! D84   D(27,26,32,33)          4.1287         estimate D2E/DX2                !
 ! D85   D(27,26,32,35)       -178.3747         estimate D2E/DX2                !
 ! D86   D(26,27,28,29)        106.0698         estimate D2E/DX2                !
 ! D87   D(30,27,28,29)       -139.3622         estimate D2E/DX2                !
 ! D88   D(31,27,28,29)        -17.7851         estimate D2E/DX2                !
 ! D89   D(26,32,33,34)        -32.269          estimate D2E/DX2                !
 ! D90   D(35,32,33,34)        150.125          estimate D2E/DX2                !
 ! D91   D(26,32,35,36)        175.3747         estimate D2E/DX2                !
 ! D92   D(26,32,35,37)         -3.0437         estimate D2E/DX2                !
 ! D93   D(33,32,35,36)         -6.9354         estimate D2E/DX2                !
 ! D94   D(33,32,35,37)        174.6463         estimate D2E/DX2                !
 ! D95   D(32,35,37,23)          0.5129         estimate D2E/DX2                !
 ! D96   D(32,35,37,38)       -179.4583         estimate D2E/DX2                !
 ! D97   D(36,35,37,23)       -177.8507         estimate D2E/DX2                !
 ! D98   D(36,35,37,38)          2.1781         estimate D2E/DX2                !
 --------------------------------------------------------------------------------
 Trust Radius=3.00D-01 FncErr=1.00D-07 GrdErr=1.00D-06 EigMax=2.50D+02 EigMin=1.00D-04
 Number of steps in this run=    216 maximum allowed number of steps=    234.
 GradGradGradGradGradGradGradGradGradGradGradGradGradGradGradGradGradGrad

 Leave Link  103 at Sun Jul 18 14:42:05 2021, MaxMem=   104857600 cpu:               0.0 elap:               0.0
 (Enter /dades/curu/g16A03_MST/g16/l202.exe)
                          Input orientation:                          
 ---------------------------------------------------------------------
 Center     Atomic      Atomic             Coordinates (Angstroms)
 Number     Number       Type             X           Y           Z
 ---------------------------------------------------------------------
      1          6           0        0.935000   -0.041000    4.047000
      2          1           0        0.277000   -0.901000    4.188000
      3          1           0        0.430000    0.926000    4.083000
      4          1           0        1.727000   -0.208000    4.780000
      5          6           0        1.456000   -0.340000    2.645000
      6          6           0        2.198000    0.874000    2.127000
      7          1           0        2.445000    0.935000    1.065000
      8          1           0        3.124000    0.951000    2.700000
      9          1           0        1.599000    1.776000    2.272000
     10          6           0        2.322000   -1.495000    2.795000
     11          1           0        3.138000   -1.376000    3.511000
     12          1           0        2.861000   -1.672000    1.862000
     13          1           0        1.723000   -2.362000    3.082000
     14          7           0        0.228000   -0.688000    1.811000
     15          1           0       -0.266000    0.155000    1.598000
     16          6           0        0.579000   -1.390000    0.512000
     17          1           0        1.011000   -2.386000    0.645000
     18          1           0        1.246000   -0.805000   -0.126000
     19          6           0       -0.672000   -1.755000   -0.347000
     20          8           0       -1.531000   -2.442000    0.585000
     21          1           0       -1.130000   -1.916000    1.300000
     22          1           0       -0.315000   -2.489000   -1.074000
     23          6           0       -1.283000   -0.583000   -1.013000
     24          6           0       -0.744000   -0.315000   -2.269000
     25          1           0        0.018000   -0.949000   -2.716000
     26          6           0       -1.248000    0.770000   -3.040000
     27          6           0       -0.624000    1.039000   -4.480000
     28          8           0       -0.426000    2.412000   -4.558000
     29          1           0        0.540000    2.503000   -4.469000
     30          1           0       -1.382000    0.756000   -5.215000
     31          1           0        0.306000    0.495000   -4.663000
     32          6           0       -2.277000    1.545000   -2.549000
     33          8           0       -2.874000    2.502000   -3.244000
     34          1           0       -2.151000    2.834000   -3.805000
     35          6           0       -2.795000    1.313000   -1.255000
     36          1           0       -3.553000    1.990000   -0.870000
     37          6           0       -2.289000    0.223000   -0.477000
     38          1           0       -2.691000    0.036000    0.515000
     39          1           0       -0.368000   -1.284000    2.349000
 ---------------------------------------------------------------------
                    Distance matrix (angstroms):
                    1          2          3          4          5
     1  C    0.000000
     2  H    1.091991   0.000000
     3  H    1.091517   1.836399   0.000000
     4  H    1.091990   1.712663   1.858487   0.000000
     5  C    1.525269   2.021289   2.173310   2.156175   0.000000
     6  C    2.473620   3.329953   2.637132   2.903614   1.514161
     7  H    3.482097   4.221877   3.628861   3.952619   2.258350
     8  H    2.755031   3.708026   3.028358   2.760668   2.109960
     9  H    2.625454   3.547544   2.317063   3.200422   2.153377
    10  C    2.367570   2.544663   3.331644   2.439389   1.451372
    11  H    2.631108   2.978133   3.599952   2.228342   2.156937
    12  H    3.338242   3.561148   4.194306   3.456006   2.088382
    13  H    2.634238   2.334239   3.672165   2.742797   2.085843
    14  N    2.432726   2.387027   2.794241   3.360411   1.524678
    15  H    2.734670   2.849225   2.693340   3.772127   2.075215
    16  C    3.800363   3.720659   4.258885   4.575025   2.534032
    17  H    4.132603   3.911116   4.809028   4.728061   2.895538
    18  H    4.253745   4.422530   4.623624   4.965542   2.817582
    19  C    4.982718   4.711278   5.294059   5.868095   3.934803
    20  O    4.881742   4.315687   5.236884   5.762234   4.193349
    21  H    3.914826   3.369038   4.272663   4.815611   3.313638
    22  H    5.812043   5.528187   6.229920   6.606212   4.646031
    23  C    5.551296   5.439221   5.583965   6.539081   4.576258
    24  C    6.541099   6.563436   6.577709   7.470321   5.384052
    25  H    6.885022   6.909023   7.064826   7.723974   5.583820
    26  C    7.459811   7.573761   7.319641   8.423747   6.392413
    27  C    8.735365   8.928025   8.628363   9.634823   7.549415
    28  O    9.050721   9.378843   8.809530   9.934689   7.937168
    29  H    8.896641   9.305914   8.696881   9.710947   7.715614
    30  H    9.580623   9.690941   9.474442  10.511670   8.428230
    31  H    8.749116   8.960461   8.757491   9.575161   7.444904
    32  C    7.505968   7.608745   7.189884   8.533421   6.668294
    33  O    8.610111   8.760356   8.190551   9.638354   7.842588
    34  H    8.913076   9.150599   8.516018   9.899236   8.042837
    35  C    6.622493   6.630628   6.248571   7.693059   6.001117
    36  H    6.960172   6.972098   6.444268   8.039409   6.547840
    37  C    5.561515   5.441503   5.355443   6.629485   4.908042
    38  H    5.062492   4.814345   4.823211   6.145607   4.677166
    39  H    2.475088   1.986111   2.920216   3.384754   2.075025
                    6          7          8          9         10
     6  C    0.000000
     7  H    1.092050   0.000000
     8  H    1.091666   1.770458   0.000000
     9  H    1.092442   1.697011   1.785899   0.000000
    10  C    2.464500   2.985453   2.575878   3.390531   0.000000
    11  H    2.803847   3.435678   2.464315   3.720047   1.092096
    12  H    2.644222   2.757665   2.766142   3.694516   1.091943
    13  H    3.407249   3.931893   3.617277   4.218355   1.092181
    14  N    2.533890   2.847057   3.444337   2.857177   2.450376
    15  H    2.620706   2.870890   3.652413   2.561277   3.294397
    16  C    3.217931   3.032060   4.092023   3.763184   2.874224
    17  H    3.772651   3.641675   4.452344   4.507229   2.671161
    18  H    2.966708   2.425630   3.820562   3.540702   3.188435
    19  C    4.611856   4.352647   5.569224   4.948188   4.347850
    20  O    5.222936   5.238617   6.136342   5.516738   4.541643
    21  H    4.420816   4.578652   5.317537   4.692876   3.785310
    22  H    5.279331   4.890470   6.156573   5.748855   4.786540
    23  C    4.909156   4.529944   5.963319   4.966088   5.322465
    24  C    5.421614   4.779935   6.423017   5.521106   6.036295
    25  H    5.615192   4.871935   6.526124   5.899604   5.998137
    26  C    6.211572   5.524174   7.217669   6.110220   7.205716
    27  C    7.186331   6.338502   8.099855   7.146636   8.247769
    28  O    7.344389   6.484003   8.210699   7.152204   8.768282
    29  H    6.993556   6.059109   7.776909   6.862295   8.480874
    30  H    8.169167   7.356383   9.109846   8.122926   9.107509
    31  H    7.058853   6.130164   7.897014   7.169870   7.977852
    32  C    6.506984   5.977489   7.554842   6.190216   7.677938
    33  O    7.564602   7.022445   8.585612   7.138702   8.913133
    34  H    7.612097   6.960339   8.584075   7.218850   9.072374
    35  C    6.046544   5.743073   7.127947   5.653436   7.104298
    36  H    6.580385   6.390090   7.642431   6.038300   7.751972
    37  C    5.228555   5.029460   6.318535   5.008528   5.909216
    38  H    5.215660   5.243014   6.278987   4.951641   5.715989
    39  H    3.360149   3.805993   4.160828   3.638491   2.734874
                   11         12         13         14         15
    11  H    0.000000
    12  H    1.698101   0.000000
    13  H    1.777206   1.805421   0.000000
    14  N    3.439687   2.811325   2.579291   0.000000
    15  H    4.194132   3.631219   3.534638   1.000027   0.000000
    16  C    3.942420   2.666374   2.976310   1.517698   2.068924
    17  H    3.709203   2.326668   2.538994   2.203599   2.999270
    18  H    4.139260   2.704082   3.597644   2.191343   2.485944
    19  C    5.435431   4.167572   4.226407   2.570108   2.756077
    20  O    5.612254   4.638242   4.102429   2.770140   3.061177
    21  H    4.836935   4.037754   3.393236   1.900860   2.263701
    22  H    5.846726   4.401654   4.630541   3.444078   3.759351
    23  C    6.375003   5.159872   5.382370   3.204547   2.897629
    24  C    7.043014   5.648242   6.237748   4.210738   3.924675
    25  H    6.977984   5.437229   6.206480   4.539378   4.462070
    26  C    8.170552   6.846667   7.491005   5.276035   4.780543
    27  C    9.156470   7.727594   8.617369   6.579142   6.152374
    28  O    9.599990   8.288536   9.261689   7.113500   6.558657
    29  H    9.245358   7.930903   9.060095   7.051115   6.555244
    30  H   10.055789   8.601288   9.391654   7.351320   6.929908
    31  H    8.850714   7.334817   8.375880   6.581660   6.296261
    32  C    8.635859   7.497003   7.935541   5.501901   4.813920
    33  O    9.839362   8.739779   9.209190   6.734354   5.979552
    34  H    9.960998   8.805627   9.457117   7.042981   6.318439
    35  C    8.071305   7.114510   7.261372   4.747935   3.984522
    36  H    8.677131   7.874863   7.899012   5.353074   4.501402
    37  C    6.921941   5.965270   5.953558   3.521385   2.898755
    38  H    6.704252   5.962917   5.641213   3.274806   2.658510
    39  H    3.694691   3.288488   2.464073   0.999938   1.626384
                   16         17         18         19         20
    16  C    0.000000
    17  H    1.093768   0.000000
    18  H    1.092775   1.774606   0.000000
    19  C    1.560803   2.052977   2.151759   0.000000
    20  O    2.358841   2.543325   3.301063   1.441691   0.000000
    21  H    1.954047   2.287751   2.985494   1.717060   0.974013
    22  H    2.126601   2.173441   2.484206   1.093039   2.057461
    23  C    2.538487   3.355921   2.689218   1.480021   2.463938
    24  C    3.261888   3.982520   2.965240   2.402679   3.645383
    25  H    3.305932   3.787788   2.869986   2.595746   3.940184
    26  C    4.540951   5.351882   4.146331   3.736262   4.851562
    27  C    5.680433   6.377262   5.084737   4.989031   6.212426
    28  O    6.416395   7.221979   5.726019   5.929328   7.157708
    29  H    6.321972   7.090639   5.504811   6.048999   7.367834
    30  H    6.422567   7.066697   5.936415   5.523282   6.624908
    31  H    5.514379   6.080465   4.812273   4.964558   6.288246
    32  C    5.112796   6.038654   4.879032   4.279583   5.125880
    33  O    6.417041   7.355956   6.134539   5.600309   6.395938
    34  H    6.628089   7.553088   6.190070   5.933306   6.891493
    35  C    4.670372   5.637219   4.700026   3.839820   4.368446
    36  H    5.514322   6.501899   5.603210   4.753811   5.084106
    37  C    3.435886   4.353822   3.698136   2.558139   2.967260
    38  H    3.567406   4.425809   4.076534   2.833211   2.736966
    39  H    2.069448   2.453500   2.993336   2.753665   2.409404
                   21         22         23         24         25
    21  H    0.000000
    22  H    2.574574   0.000000
    23  C    2.673998   2.138593   0.000000
    24  C    3.930643   2.517606   1.392796   0.000000
    25  H    4.287336   2.275665   2.174113   1.087386   0.000000
    26  C    5.105303   3.918766   2.437327   1.423265   2.159327
    27  C    6.511256   4.913563   3.883974   2.595426   2.734228
    28  O    7.317333   6.014181   4.719269   3.574517   3.858292
    29  H    7.456395   6.097304   4.979022   3.798655   3.906635
    30  H    7.046156   5.368090   4.411295   3.198906   3.333471
    31  H    6.590325   4.708590   4.124258   2.736756   2.441084
    32  C    5.301786   4.722100   2.806371   2.426538   3.393369
    33  O    6.573294   6.013939   4.126241   3.663743   4.533415
    34  H    7.047408   6.258082   4.497174   3.775599   4.494616
    35  C    4.441474   4.542947   2.437114   2.808056   3.894115
    36  H    5.082978   5.530615   3.434192   3.893675   4.979707
    37  C    3.012695   3.407056   1.396054   2.426465   3.421835
    38  H    2.619781   3.813912   2.168043   3.415357   4.329927
    39  H    1.442383   3.629292   3.554106   4.733525   5.090722
                   26         27         28         29         30
    26  C    0.000000
    27  C    1.592274   0.000000
    28  O    2.382472   1.389394   0.000000
    29  H    2.870936   1.870378   0.974350   0.000000
    30  H    2.179169   1.093105   2.021861   2.702334   0.000000
    31  H    2.263773   1.092852   2.054687   2.030876   1.795040
    32  C    1.378603   2.591757   2.866003   3.541137   2.920805
    33  O    2.384390   2.954753   2.779820   3.627123   3.026454
    34  H    2.379229   2.451403   1.928916   2.791404   2.626318
    35  C    2.423692   3.897299   4.210673   4.782062   4.241276
    36  H    3.392687   4.745054   4.853613   5.474360   5.011489
    37  C    2.819904   4.411586   4.991698   5.397935   4.853389
    38  H    3.906281   5.498047   6.042427   6.431618   5.921552
    39  H    5.833921   7.217833   7.833928   7.851812   7.899613
                   31         32         33         34         35
    31  H    0.000000
    32  C    3.499055   0.000000
    33  O    4.019205   1.324871   0.000000
    34  H    3.499133   1.804143   0.973485   0.000000
    35  C    4.679721   1.413005   2.318638   3.038203   0.000000
    36  H    5.613711   2.155282   2.521718   3.360382   1.086793
    37  C    4.932606   2.457847   3.632128   4.232251   1.431580
    38  H    6.000364   3.440432   4.499414   5.175211   2.185050
    39  H    7.265484   5.969751   7.203852   7.616346   5.061971
                   36         37         38         39
    36  H    0.000000
    37  C    2.207812   0.000000
    38  H    2.545464   1.086571   0.000000
    39  H    5.587957   3.734644   3.240723   0.000000
 Stoichiometry    C13H22NO3(1+)
 Framework group  C1[X(C13H22NO3)]
 Deg. of freedom   111
 Full point group                 C1      NOp   1
 Largest Abelian subgroup         C1      NOp   1
 Largest concise Abelian subgroup C1      NOp   1
                         Standard orientation:                         
 ---------------------------------------------------------------------
 Center     Atomic      Atomic             Coordinates (Angstroms)
 Number     Number       Type             X           Y           Z
 ---------------------------------------------------------------------
      1          6           0        4.404863    0.445468    1.458844
      2          1           0        4.541293   -0.620611    1.265692
      3          1           0        3.920286    0.674810    2.409632
      4          1           0        5.404185    0.858247    1.305834
      5          6           0        3.508269    0.810102    0.280028
      6          6           0        2.967500    2.209036    0.487963
      7          1           0        2.136094    2.556531   -0.128952
      8          1           0        3.804168    2.897814    0.356410
      9          1           0        2.559836    2.312951    1.496150
     10          6           0        4.357639    0.714256   -0.892945
     11          1           0        5.259285    1.329922   -0.867190
     12          1           0        3.830767    1.117272   -1.760310
     13          1           0        4.645102   -0.327974   -1.047803
     14          7           0        2.414890   -0.251965    0.245688
     15          1           0        1.761442   -0.065193    0.979293
     16          6           0        1.669222   -0.285821   -1.075765
     17          1           0        2.278879   -0.608424   -1.924631
     18          1           0        1.199459    0.667865   -1.328676
     19          6           0        0.550721   -1.373411   -1.122773
     20          8           0        1.228786   -2.571736   -0.695318
     21          1           0        1.831651   -2.011765   -0.174081
     22          1           0        0.308191   -1.488083   -2.182378
     23          6           0       -0.644517   -1.014077   -0.327318
     24          6           0       -1.592531   -0.290127   -1.046377
     25          1           0       -1.465434   -0.064522   -2.102482
     26          6           0       -2.806783    0.106975   -0.419015
     27          6           0       -3.878862    0.917136   -1.273196
     28          8           0       -4.311565    1.953722   -0.455471
     29          1           0       -3.878360    2.736832   -0.840738
     30          1           0       -4.720437    0.243000   -1.452554
     31          1           0       -3.487413    1.298099   -2.219747
     32          6           0       -3.048664   -0.236730    0.893962
     33          8           0       -4.193474   -0.000791    1.517681
     34          1           0       -4.492820    0.825152    1.098296
     35          6           0       -2.071342   -0.926018    1.646496
     36          1           0       -2.263929   -1.114072    2.699427
     37          6           0       -0.848668   -1.325587    1.018138
     38          1           0       -0.098431   -1.863571    1.591160
     39          1           0        2.830890   -1.147296    0.404437
 ---------------------------------------------------------------------
 Rotational constants (GHZ):           0.8042238           0.2081141           0.1989596
 Leave Link  202 at Sun Jul 18 14:42:05 2021, MaxMem=   104857600 cpu:               0.0 elap:               0.0
 (Enter /dades/curu/g16A03_MST/g16/l301.exe)
 Standard basis: 6-31G(d) (6D, 7F)
 Ernie: Thresh=  0.10000D-02 Tol=  0.10000D-05 Strict=F.
 There are   299 symmetry adapted cartesian basis functions of A   symmetry.
 There are   299 symmetry adapted basis functions of A   symmetry.
   299 basis functions,   564 primitive gaussians,   299 cartesian basis functions
    65 alpha electrons       65 beta electrons
       nuclear repulsion energy      1273.2124941553 Hartrees.
 IExCor=  402 DFT=T Ex+Corr=B3LYP ExCW=0 ScaHFX=  0.200000
 ScaDFX=  0.800000  0.720000  1.000000  0.810000 ScalE2=  1.000000  1.000000
 IRadAn=      5 IRanWt=     -1 IRanGd=            0 ICorTp=0 IEmpDi=  4
 NAtoms=   39 NActive=   39 NUniq=   39 SFac= 1.00D+00 NAtFMM=   60 NAOKFM=F Big=F
 Integral buffers will be    131072 words long.
 Raffenetti 2 integral format.
 Two-electron integral symmetry is turned on.
 Using the following non-standard input for PCM:
 MSTModel=DFT cav MSTCharged
 --- end of non-standard input.
 MST model for solvation energy: B3LYP parametrization.
 MST cavity parameters:
 ISph   IAn     Re0     Alpha   Atom Type   QCorr
 ------------------------------------------------
   1      6     1.50     1.50      CH3        F
   2      1     1.20     1.50      CH3        F
   3      1     1.20     1.50      CH3        F
   4      1     1.20     1.50      CH3        F
   5      6     1.50     1.50      CN+        F
   6      6     1.50     1.50      CH3        F
   7      1     1.20     1.50      CH3        F
   8      1     1.20     1.50      CH3        F
   9      1     1.20     1.50      CH3        F
  10      6     1.50     1.50      CH3        F
  11      1     1.20     1.50      CH3        F
  12      1     1.20     1.50      CH3        F
  13      1     1.20     1.50      CH3        F
  14      7     1.50     1.15      NH+        T
  15      1     0.90     1.15      NH+        T
  16      6     1.50     1.50      CN+        F
  17      1     1.20     1.50      CN+        F
  18      1     1.20     1.50      CN+        F
  19      6     1.50     1.50      CH         F
  20      8     1.40     1.50      OH         F
  21      1     0.90     1.50      OH         F
  22      1     1.20     1.50      CH         F
  23      6     1.50     1.50      C          F
  24      6     1.50     1.50      CH         F
  25      1     1.20     1.50      CH         F
  26      6     1.50     1.50      C          F
  27      6     1.50     1.50      CH2        F
  28      8     1.40     1.50      OH         F
  29      1     0.90     1.50      OH         F
  30      1     1.20     1.50      CH2        F
  31      1     1.20     1.50      CH2        F
  32      6     1.50     1.50      C          F
  33      8     1.40     1.50      OH         F
  34      1     0.90     1.50      OH         F
  35      6     1.50     1.50      CH         F
  36      1     1.20     1.50      CH         F
  37      6     1.50     1.50      CH         F
  38      1     1.20     1.50      CH         F
  39      1     0.90     1.15      NH+        T
 ------------------------------------------------------------------------------
 Polarizable Continuum Model (PCM)
 =================================
 Model                : PCM.
 Atomic radii         : MST.
 Polarization charges : Total charges.
 Charge compensation  : None.
 Solution method      : On-the-fly selection.
 Cavity type          : Scaled VdW (van der Waals Surface) (Alpha=1.500).
 Cavity algorithm     : GePol (No added spheres)
                        Default sphere list used, NSphG=   39.
                        Lebedev-Laikov grids with approx.  5.0 points / Ang**2.
                        Smoothing algorithm: York/Karplus (Gamma=1.0000).
                        Polarization charges: spherical gaussians, with
                                              point-specific exponents (IZeta= 3).
                        Self-potential: point-specific (ISelfS= 7).
                        Self-field    : sphere-specific E.n sum rule (ISelfD= 2).
 1st derivatives      : Analytical E(r).r(x)/FMM algorithm (CHGder, D1EAlg=3).
                        Cavity 1st derivative terms included.
 Solvent              : n-Octanol, Eps=   9.862900 Eps(inf)=   2.043470
 ------------------------------------------------------------------------------
 GePol: Number of generator spheres                  =      39
 GePol: Total number of spheres                      =      39
 GePol: Number of exposed spheres                    =      39 (100.00%)
 GePol: Number of points                             =    3249
 GePol: Average weight of points                     =       0.11
 GePol: Minimum weight of points                     =   0.35D-08
 GePol: Maximum weight of points                     =    0.21373
 GePol: Number of points with low weight             =     215
 GePol: Fraction of low-weight points (<1% of avg)   =       6.62%
 GePol: Cavity surface area                          =    360.956 Ang**2
 GePol: Cavity volume                                =    413.719 Ang**3
 Surface areas from nonelectrostatic (unscaled) cavity and vdw tensions:
 Sphere =    1 Type =  CH3 Surf =        4.717 Tension =       -0.183
 Sphere =    2 Type =  CH3 Surf =        9.037 Tension =       -0.183
 Sphere =    3 Type =  CH3 Surf =        9.939 Tension =       -0.183
 Sphere =    4 Type =  CH3 Surf =        9.464 Tension =       -0.183
 Sphere =    5 Type =  CN+ Surf =        1.402 Tension =       -0.227
 Sphere =    6 Type =  CH3 Surf =        4.797 Tension =       -0.183
 Sphere =    7 Type =  CH3 Surf =       10.075 Tension =       -0.183
 Sphere =    8 Type =  CH3 Surf =        9.926 Tension =       -0.183
 Sphere =    9 Type =  CH3 Surf =        9.771 Tension =       -0.183
 Sphere =   10 Type =  CH3 Surf =        3.773 Tension =       -0.183
 Sphere =   11 Type =  CH3 Surf =        9.680 Tension =       -0.183
 Sphere =   12 Type =  CH3 Surf =        9.609 Tension =       -0.183
 Sphere =   13 Type =  CH3 Surf =        9.838 Tension =       -0.183
 Sphere =   14 Type =  NH+ Surf =        6.905 Tension =       -0.274
 Sphere =   15 Type =  NH+ Surf =        3.852 Tension =       -0.274
 Sphere =   16 Type =  CN+ Surf =        3.406 Tension =       -0.227
 Sphere =   17 Type =  CN+ Surf =        9.334 Tension =       -0.227
 Sphere =   18 Type =  CN+ Surf =        9.966 Tension =       -0.227
 Sphere =   19 Type =  CH  Surf =        2.958 Tension =       -0.195
 Sphere =   20 Type =  OH  Surf =       14.851 Tension =       -0.238
 Sphere =   21 Type =  OH  Surf =        2.203 Tension =       -0.238
 Sphere =   22 Type =  CH  Surf =        9.389 Tension =       -0.195
 Sphere =   23 Type =  C   Surf =        6.048 Tension =       -0.205
 Sphere =   24 Type =  CH  Surf =        7.518 Tension =       -0.195
 Sphere =   25 Type =  CH  Surf =        9.835 Tension =       -0.195
 Sphere =   26 Type =  C   Surf =        6.381 Tension =       -0.205
 Sphere =   27 Type =  CH2 Surf =        4.744 Tension =       -0.194
 Sphere =   28 Type =  OH  Surf =       13.049 Tension =       -0.238
 Sphere =   29 Type =  OH  Surf =        4.393 Tension =       -0.238
 Sphere =   30 Type =  CH2 Surf =       10.074 Tension =       -0.194
 Sphere =   31 Type =  CH2 Surf =       10.109 Tension =       -0.194
 Sphere =   32 Type =  C   Surf =        6.469 Tension =       -0.205
 Sphere =   33 Type =  OH  Surf =       14.168 Tension =       -0.238
 Sphere =   34 Type =  OH  Surf =        3.119 Tension =       -0.238
 Sphere =   35 Type =  CH  Surf =        7.898 Tension =       -0.195
 Sphere =   36 Type =  CH  Surf =       10.224 Tension =       -0.195
 Sphere =   37 Type =  CH  Surf =        7.955 Tension =       -0.195
 Sphere =   38 Type =  CH  Surf =       10.262 Tension =       -0.195
 Sphere =   39 Type =  NH+ Surf =        3.267 Tension =       -0.274
 PCM non-electrostatic energy =        -0.0179107149 Hartrees.
 Nuclear repulsion after PCM non-electrostatic terms =     1273.1945834404 Hartrees.
 Leave Link  301 at Sun Jul 18 14:42:05 2021, MaxMem=   104857600 cpu:               0.1 elap:               0.1
 (Enter /dades/curu/g16A03_MST/g16/l302.exe)
 NPDir=0 NMtPBC=     1 NCelOv=     1 NCel=       1 NClECP=     1 NCelD=      1
         NCelK=      1 NCelE2=     1 NClLst=     1 CellRange=     0.0.
 One-electron integrals computed using PRISM.
 One-electron integral symmetry used in STVInt
 NBasis=   299 RedAO= T EigKep=  4.25D-04  NBF=   299
 NBsUse=   299 1.00D-06 EigRej= -1.00D+00 NBFU=   299
 Precomputing XC quadrature grid using
 IXCGrd= 4 IRadAn=           5 IRanWt=          -1 IRanGd=           0 AccXCQ= 0.00D+00.
 Generated NRdTot=       0 NPtTot=           0 NUsed=           0 NTot=          32
 NSgBfM=   296   296   296   296   296 MxSgAt=    39 MxSgA2=    39.
 Leave Link  302 at Sun Jul 18 14:42:06 2021, MaxMem=   104857600 cpu:               5.3 elap:               1.4
 (Enter /dades/curu/g16A03_MST/g16/l303.exe)
 DipDrv:  MaxL=1.
 Leave Link  303 at Sun Jul 18 14:42:06 2021, MaxMem=   104857600 cpu:               0.1 elap:               0.1
 (Enter /dades/curu/g16A03_MST/g16/l401.exe)
 ExpMin= 1.61D-01 ExpMax= 5.48D+03 ExpMxC= 8.25D+02 IAcc=3 IRadAn=         5 AccDes= 0.00D+00
 Harris functional with IExCor=  402 and IRadAn=       5 diagonalized for initial guess.
 HarFok:  IExCor=  402 AccDes= 0.00D+00 IRadAn=         5 IDoV= 1 UseB2=F ITyADJ=14
 ICtDFT=  3500011 ScaDFX=  1.000000  1.000000  1.000000  1.000000
 FoFCou: FMM=F IPFlag=           0 FMFlag=      100000 FMFlg1=           0
         NFxFlg=           0 DoJE=T BraDBF=F KetDBF=T FulRan=T
         wScrn=  0.000000 ICntrl=       500 IOpCl=  0 I1Cent=   200000004 NGrid=           0
         NMat0=    1 NMatS0=      1 NMatT0=    0 NMatD0=    1 NMtDS0=    0 NMtDT0=    0
 Petite list used in FoFCou.
 Harris En= -788.814871299065    
 JPrj=0 DoOrth=F DoCkMO=F.
 Leave Link  401 at Sun Jul 18 14:42:14 2021, MaxMem=   104857600 cpu:              31.5 elap:               7.9
 (Enter /dades/curu/g16A03_MST/g16/l502.exe)
 Integral symmetry usage will be decided dynamically.
 Closed shell SCF:
 Using DIIS extrapolation, IDIIS=  1040.
 NGot=   104857600 LenX=   104673418 LenY=   104583576
 Requested convergence on RMS density matrix=1.00D-08 within 128 cycles.
 Requested convergence on MAX density matrix=1.00D-06.
 Requested convergence on             energy=1.00D-06.
 No special actions if energy rises.
 Fock matrices will be formed incrementally for  20 cycles.

 Cycle   1  Pass 1  IDiag  1:
 FoFJK:  IHMeth= 1 ICntrl=       0 DoSepK=F KAlg= 0 I1Cent=           0 FoldK=F
 IRaf= 810000000 NMat=       1 IRICut=       1 DoRegI=T DoRafI=F ISym2E= 0 IDoP0=0 IntGTp=1.
 FoFCou: FMM=F IPFlag=           0 FMFlag=      100000 FMFlg1=           0
         NFxFlg=           0 DoJE=F BraDBF=F KetDBF=F FulRan=T
         wScrn=  0.000000 ICntrl=         0 IOpCl=  0 I1Cent=           0 NGrid=           0
         NMat0=    1 NMatS0=      1 NMatT0=    0 NMatD0=    1 NMtDS0=    0 NMtDT0=    0
 Symmetry not used in FoFCou.
 Inv3:  Mode=1 IEnd=    31668003.
 Iteration    1 A*A^-1 deviation from unit magnitude is 9.10D-15 for    806.
 Iteration    1 A*A^-1 deviation from orthogonality  is 2.81D-15 for   2790    601.
 Iteration    1 A^-1*A deviation from unit magnitude is 8.66D-15 for    806.
 Iteration    1 A^-1*A deviation from orthogonality  is 2.76D-15 for   3208    843.
 E= -788.395033627023    
 DIIS: error= 3.99D-02 at cycle   1 NSaved=   1.
 NSaved= 1 IEnMin= 1 EnMin= -788.395033627023     IErMin= 1 ErrMin= 3.99D-02
 ErrMax= 3.99D-02  0.00D+00 EMaxC= 1.00D-01 BMatC= 4.54D-01 BMatP= 4.54D-01
 IDIUse=3 WtCom= 6.01D-01 WtEn= 3.99D-01
 Coeff-Com:  0.100D+01
 Coeff-En:   0.100D+01
 Coeff:      0.100D+01
 Gap=     0.214 Goal=   None    Shift=    0.000
 GapD=    0.214 DampG=1.000 DampE=0.500 DampFc=0.5000 IDamp=-1.
 Damping current iteration by 5.00D-01
 RMSDP=4.66D-03 MaxDP=1.34D-01              OVMax= 1.81D-01

 Cycle   2  Pass 1  IDiag  1:
 RMSU=  2.30D-03    CP:  9.82D-01
 E= -788.591398567292     Delta-E=       -0.196364940269 Rises=F Damp=T
 DIIS: error= 6.91D-03 at cycle   2 NSaved=   2.
 NSaved= 2 IEnMin= 2 EnMin= -788.591398567292     IErMin= 2 ErrMin= 6.91D-03
 ErrMax= 6.91D-03  0.00D+00 EMaxC= 1.00D-01 BMatC= 2.48D-02 BMatP= 4.54D-01
 IDIUse=3 WtCom= 9.31D-01 WtEn= 6.91D-02
 Coeff-Com:  0.573D-01 0.943D+00
 Coeff-En:   0.795D-01 0.921D+00
 Coeff:      0.588D-01 0.941D+00
 Gap=     0.234 Goal=   None    Shift=    0.000
 RMSDP=9.83D-04 MaxDP=2.45D-02 DE=-1.96D-01 OVMax= 1.03D-01

 Cycle   3  Pass 1  IDiag  1:
 RMSU=  9.69D-04    CP:  9.76D-01  9.47D-01
 E= -788.815466246913     Delta-E=       -0.224067679621 Rises=F Damp=F
 DIIS: error= 4.44D-03 at cycle   3 NSaved=   3.
 NSaved= 3 IEnMin= 3 EnMin= -788.815466246913     IErMin= 3 ErrMin= 4.44D-03
 ErrMax= 4.44D-03  0.00D+00 EMaxC= 1.00D-01 BMatC= 1.17D-02 BMatP= 2.48D-02
 IDIUse=3 WtCom= 9.56D-01 WtEn= 4.44D-02
 Coeff-Com: -0.161D-01 0.386D+00 0.630D+00
 Coeff-En:   0.000D+00 0.000D+00 0.100D+01
 Coeff:     -0.153D-01 0.369D+00 0.646D+00
 Gap=     0.206 Goal=   None    Shift=    0.000
 RMSDP=4.78D-04 MaxDP=2.07D-02 DE=-2.24D-01 OVMax= 1.90D-02

 Cycle   4  Pass 1  IDiag  1:
 RMSU=  4.01D-04    CP:  9.78D-01  9.69D-01  7.40D-01
 E= -788.822434477171     Delta-E=       -0.006968230259 Rises=F Damp=F
 DIIS: error= 2.60D-03 at cycle   4 NSaved=   4.
 NSaved= 4 IEnMin= 4 EnMin= -788.822434477171     IErMin= 4 ErrMin= 2.60D-03
 ErrMax= 2.60D-03  0.00D+00 EMaxC= 1.00D-01 BMatC= 2.99D-03 BMatP= 1.17D-02
 IDIUse=3 WtCom= 9.74D-01 WtEn= 2.60D-02
 Coeff-Com: -0.116D-01 0.729D-01 0.357D+00 0.581D+00
 Coeff-En:   0.000D+00 0.000D+00 0.214D+00 0.786D+00
 Coeff:     -0.113D-01 0.710D-01 0.354D+00 0.587D+00
 Gap=     0.206 Goal=   None    Shift=    0.000
 RMSDP=2.03D-04 MaxDP=8.10D-03 DE=-6.97D-03 OVMax= 1.02D-02

 Cycle   5  Pass 1  IDiag  1:
 RMSU=  9.35D-05    CP:  9.77D-01  9.69D-01  7.96D-01  5.74D-01
 E= -788.824873505300     Delta-E=       -0.002439028128 Rises=F Damp=F
 DIIS: error= 4.37D-04 at cycle   5 NSaved=   5.
 NSaved= 5 IEnMin= 5 EnMin= -788.824873505300     IErMin= 5 ErrMin= 4.37D-04
 ErrMax= 4.37D-04  0.00D+00 EMaxC= 1.00D-01 BMatC= 1.08D-04 BMatP= 2.99D-03
 IDIUse=3 WtCom= 9.96D-01 WtEn= 4.37D-03
 Coeff-Com: -0.416D-02 0.145D-01 0.132D+00 0.271D+00 0.587D+00
 Coeff-En:   0.000D+00 0.000D+00 0.000D+00 0.000D+00 0.100D+01
 Coeff:     -0.414D-02 0.145D-01 0.131D+00 0.270D+00 0.589D+00
 Gap=     0.206 Goal=   None    Shift=    0.000
 RMSDP=4.50D-05 MaxDP=1.80D-03 DE=-2.44D-03 OVMax= 4.21D-03

 Cycle   6  Pass 1  IDiag  1:
 RMSU=  2.85D-05    CP:  9.77D-01  9.70D-01  8.01D-01  6.12D-01  6.70D-01
 E= -788.824960785424     Delta-E=       -0.000087280124 Rises=F Damp=F
 DIIS: error= 1.45D-04 at cycle   6 NSaved=   6.
 NSaved= 6 IEnMin= 6 EnMin= -788.824960785424     IErMin= 6 ErrMin= 1.45D-04
 ErrMax= 1.45D-04  0.00D+00 EMaxC= 1.00D-01 BMatC= 1.56D-05 BMatP= 1.08D-04
 IDIUse=3 WtCom= 9.99D-01 WtEn= 1.45D-03
 Coeff-Com: -0.134D-02 0.188D-02 0.443D-01 0.105D+00 0.333D+00 0.517D+00
 Coeff-En:   0.000D+00 0.000D+00 0.000D+00 0.000D+00 0.845D-01 0.915D+00
 Coeff:     -0.133D-02 0.188D-02 0.442D-01 0.105D+00 0.333D+00 0.517D+00
 Gap=     0.206 Goal=   None    Shift=    0.000
 RMSDP=1.56D-05 MaxDP=6.12D-04 DE=-8.73D-05 OVMax= 1.76D-03

 Cycle   7  Pass 1  IDiag  1:
 RMSU=  7.27D-06    CP:  9.77D-01  9.70D-01  8.02D-01  6.08D-01  7.11D-01
                    CP:  5.43D-01
 E= -788.824975658461     Delta-E=       -0.000014873037 Rises=F Damp=F
 DIIS: error= 2.89D-05 at cycle   7 NSaved=   7.
 NSaved= 7 IEnMin= 7 EnMin= -788.824975658461     IErMin= 7 ErrMin= 2.89D-05
 ErrMax= 2.89D-05  0.00D+00 EMaxC= 1.00D-01 BMatC= 7.49D-07 BMatP= 1.56D-05
 IDIUse=1 WtCom= 1.00D+00 WtEn= 0.00D+00
 Coeff-Com: -0.517D-03 0.306D-03 0.171D-01 0.428D-01 0.147D+00 0.277D+00
 Coeff-Com:  0.516D+00
 Coeff:     -0.517D-03 0.306D-03 0.171D-01 0.428D-01 0.147D+00 0.277D+00
 Coeff:      0.516D+00
 Gap=     0.206 Goal=   None    Shift=    0.000
 RMSDP=3.94D-06 MaxDP=1.44D-04 DE=-1.49D-05 OVMax= 4.41D-04

 Cycle   8  Pass 1  IDiag  1:
 RMSU=  2.10D-06    CP:  9.77D-01  9.70D-01  8.02D-01  6.11D-01  7.09D-01
                    CP:  5.85D-01  6.08D-01
 E= -788.824976429793     Delta-E=       -0.000000771332 Rises=F Damp=F
 DIIS: error= 6.71D-06 at cycle   8 NSaved=   8.
 NSaved= 8 IEnMin= 8 EnMin= -788.824976429793     IErMin= 8 ErrMin= 6.71D-06
 ErrMax= 6.71D-06  0.00D+00 EMaxC= 1.00D-01 BMatC= 4.70D-08 BMatP= 7.49D-07
 IDIUse=1 WtCom= 1.00D+00 WtEn= 0.00D+00
 Coeff-Com: -0.829D-04-0.849D-04 0.276D-02 0.767D-02 0.292D-01 0.679D-01
 Coeff-Com:  0.239D+00 0.654D+00
 Coeff:     -0.829D-04-0.849D-04 0.276D-02 0.767D-02 0.292D-01 0.679D-01
 Coeff:      0.239D+00 0.654D+00
 Gap=     0.206 Goal=   None    Shift=    0.000
 RMSDP=9.12D-07 MaxDP=3.59D-05 DE=-7.71D-07 OVMax= 8.04D-05

 Cycle   9  Pass 1  IDiag  1:
 RMSU=  5.40D-07    CP:  9.77D-01  9.70D-01  8.02D-01  6.11D-01  7.11D-01
                    CP:  5.83D-01  6.54D-01  7.01D-01
 E= -788.824976471735     Delta-E=       -0.000000041941 Rises=F Damp=F
 DIIS: error= 2.39D-06 at cycle   9 NSaved=   9.
 NSaved= 9 IEnMin= 9 EnMin= -788.824976471735     IErMin= 9 ErrMin= 2.39D-06
 ErrMax= 2.39D-06  0.00D+00 EMaxC= 1.00D-01 BMatC= 5.10D-09 BMatP= 4.70D-08
 IDIUse=1 WtCom= 1.00D+00 WtEn= 0.00D+00
 Coeff-Com:  0.185D-06-0.691D-04 0.195D-04 0.415D-03 0.280D-02 0.114D-01
 Coeff-Com:  0.760D-01 0.323D+00 0.587D+00
 Coeff:      0.185D-06-0.691D-04 0.195D-04 0.415D-03 0.280D-02 0.114D-01
 Coeff:      0.760D-01 0.323D+00 0.587D+00
 Gap=     0.206 Goal=   None    Shift=    0.000
 RMSDP=2.64D-07 MaxDP=9.98D-06 DE=-4.19D-08 OVMax= 1.93D-05

 Cycle  10  Pass 1  IDiag  1:
 RMSU=  1.68D-07    CP:  9.77D-01  9.70D-01  8.03D-01  6.11D-01  7.11D-01
                    CP:  5.85D-01  6.57D-01  7.54D-01  7.31D-01
 E= -788.824976475864     Delta-E=       -0.000000004129 Rises=F Damp=F
 DIIS: error= 6.31D-07 at cycle  10 NSaved=  10.
 NSaved=10 IEnMin=10 EnMin= -788.824976475864     IErMin=10 ErrMin= 6.31D-07
 ErrMax= 6.31D-07  0.00D+00 EMaxC= 1.00D-01 BMatC= 4.03D-10 BMatP= 5.10D-09
 IDIUse=1 WtCom= 1.00D+00 WtEn= 0.00D+00
 Coeff-Com:  0.735D-05-0.242D-04-0.266D-03-0.571D-03-0.154D-02-0.127D-02
 Coeff-Com:  0.131D-01 0.900D-01 0.277D+00 0.623D+00
 Coeff:      0.735D-05-0.242D-04-0.266D-03-0.571D-03-0.154D-02-0.127D-02
 Coeff:      0.131D-01 0.900D-01 0.277D+00 0.623D+00
 Gap=     0.206 Goal=   None    Shift=    0.000
 RMSDP=7.35D-08 MaxDP=2.95D-06 DE=-4.13D-09 OVMax= 3.37D-06

 Cycle  11  Pass 1  IDiag  1:
 RMSU=  4.49D-08    CP:  9.77D-01  9.70D-01  8.03D-01  6.11D-01  7.11D-01
                    CP:  5.85D-01  6.59D-01  7.61D-01  7.66D-01  7.12D-01
 E= -788.824976476187     Delta-E=       -0.000000000324 Rises=F Damp=F
 DIIS: error= 1.92D-07 at cycle  11 NSaved=  11.
 NSaved=11 IEnMin=11 EnMin= -788.824976476187     IErMin=11 ErrMin= 1.92D-07
 ErrMax= 1.92D-07  0.00D+00 EMaxC= 1.00D-01 BMatC= 2.99D-11 BMatP= 4.03D-10
 IDIUse=1 WtCom= 1.00D+00 WtEn= 0.00D+00
 Coeff-Com:  0.327D-05-0.769D-05-0.130D-03-0.298D-03-0.869D-03-0.120D-02
 Coeff-Com:  0.253D-02 0.277D-01 0.107D+00 0.309D+00 0.557D+00
 Coeff:      0.327D-05-0.769D-05-0.130D-03-0.298D-03-0.869D-03-0.120D-02
 Coeff:      0.253D-02 0.277D-01 0.107D+00 0.309D+00 0.557D+00
 Gap=     0.206 Goal=   None    Shift=    0.000
 RMSDP=2.32D-08 MaxDP=8.42D-07 DE=-3.24D-10 OVMax= 1.99D-06

 Cycle  12  Pass 1  IDiag  1:
 RMSU=  1.60D-08    CP:  9.77D-01  9.70D-01  8.03D-01  6.11D-01  7.11D-01
                    CP:  5.85D-01  6.60D-01  7.62D-01  7.69D-01  7.47D-01
                    CP:  6.66D-01
 E= -788.824976476219     Delta-E=       -0.000000000031 Rises=F Damp=F
 DIIS: error= 6.59D-08 at cycle  12 NSaved=  12.
 NSaved=12 IEnMin=12 EnMin= -788.824976476219     IErMin=12 ErrMin= 6.59D-08
 ErrMax= 6.59D-08  0.00D+00 EMaxC= 1.00D-01 BMatC= 3.11D-12 BMatP= 2.99D-11
 IDIUse=1 WtCom= 1.00D+00 WtEn= 0.00D+00
 Coeff-Com:  0.548D-06-0.406D-06-0.290D-04-0.725D-04-0.215D-03-0.404D-03
 Coeff-Com: -0.331D-03 0.217D-02 0.161D-01 0.668D-01 0.274D+00 0.642D+00
 Coeff:      0.548D-06-0.406D-06-0.290D-04-0.725D-04-0.215D-03-0.404D-03
 Coeff:     -0.331D-03 0.217D-02 0.161D-01 0.668D-01 0.274D+00 0.642D+00
 Gap=     0.206 Goal=   None    Shift=    0.000
 RMSDP=8.22D-09 MaxDP=2.88D-07 DE=-3.14D-11 OVMax= 8.66D-07

 Error on total polarization charges =  0.00907
 SCF Done:  E(RB3LYP) =  -788.824976476     A.U. after   12 cycles
            NFock= 12  Conv=0.82D-08     -V/T= 2.0087
 KE= 7.820120519741D+02 PE=-4.362887045493D+03 EE= 1.518855433602D+03
 Leave Link  502 at Sun Jul 18 14:45:40 2021, MaxMem=   104857600 cpu:             789.3 elap:             205.3
 (Enter /dades/curu/g16A03_MST/g16/l601.exe)
 Copying SCF densities to generalized density rwf, IOpCl= 0 IROHF=0.

 **********************************************************************

            Population analysis using the SCF density.

 **********************************************************************

 Orbital symmetries:
       Occupied  (A) (A) (A) (A) (A) (A) (A) (A) (A) (A) (A) (A)
                 (A) (A) (A) (A) (A) (A) (A) (A) (A) (A) (A) (A)
                 (A) (A) (A) (A) (A) (A) (A) (A) (A) (A) (A) (A)
                 (A) (A) (A) (A) (A) (A) (A) (A) (A) (A) (A) (A)
                 (A) (A) (A) (A) (A) (A) (A) (A) (A) (A) (A) (A)
                 (A) (A) (A) (A) (A)
       Virtual   (A) (A) (A) (A) (A) (A) (A) (A) (A) (A) (A) (A)
                 (A) (A) (A) (A) (A) (A) (A) (A) (A) (A) (A) (A)
                 (A) (A) (A) (A) (A) (A) (A) (A) (A) (A) (A) (A)
                 (A) (A) (A) (A) (A) (A) (A) (A) (A) (A) (A) (A)
                 (A) (A) (A) (A) (A) (A) (A) (A) (A) (A) (A) (A)
                 (A) (A) (A) (A) (A) (A) (A) (A) (A) (A) (A) (A)
                 (A) (A) (A) (A) (A) (A) (A) (A) (A) (A) (A) (A)
                 (A) (A) (A) (A) (A) (A) (A) (A) (A) (A) (A) (A)
                 (A) (A) (A) (A) (A) (A) (A) (A) (A) (A) (A) (A)
                 (A) (A) (A) (A) (A) (A) (A) (A) (A) (A) (A) (A)
                 (A) (A) (A) (A) (A) (A) (A) (A) (A) (A) (A) (A)
                 (A) (A) (A) (A) (A) (A) (A) (A) (A) (A) (A) (A)
                 (A) (A) (A) (A) (A) (A) (A) (A) (A) (A) (A) (A)
                 (A) (A) (A) (A) (A) (A) (A) (A) (A) (A) (A) (A)
                 (A) (A) (A) (A) (A) (A) (A) (A) (A) (A) (A) (A)
                 (A) (A) (A) (A) (A) (A) (A) (A) (A) (A) (A) (A)
                 (A) (A) (A) (A) (A) (A) (A) (A) (A) (A) (A) (A)
                 (A) (A) (A) (A) (A) (A) (A) (A) (A) (A) (A) (A)
                 (A) (A) (A) (A) (A) (A) (A) (A) (A) (A) (A) (A)
                 (A) (A) (A) (A) (A) (A)
 The electronic state is 1-A.
 Alpha  occ. eigenvalues --  -19.18395 -19.18049 -19.17586 -14.49832 -10.29072
 Alpha  occ. eigenvalues --  -10.28350 -10.27914 -10.25896 -10.25781 -10.21646
 Alpha  occ. eigenvalues --  -10.21578 -10.21439 -10.21233 -10.21016 -10.20939
 Alpha  occ. eigenvalues --  -10.20813 -10.20482  -1.08600  -1.08538  -1.05725
 Alpha  occ. eigenvalues --   -1.04700  -0.87400  -0.86781  -0.80776  -0.77180
 Alpha  occ. eigenvalues --   -0.76012  -0.74595  -0.73097  -0.69114  -0.67031
 Alpha  occ. eigenvalues --   -0.65274  -0.63826  -0.62963  -0.60073  -0.56358
 Alpha  occ. eigenvalues --   -0.55364  -0.54999  -0.53142  -0.52131  -0.50307
 Alpha  occ. eigenvalues --   -0.49689  -0.48628  -0.47408  -0.46822  -0.46055
 Alpha  occ. eigenvalues --   -0.45407  -0.44181  -0.44069  -0.43667  -0.42952
 Alpha  occ. eigenvalues --   -0.42767  -0.41839  -0.40278  -0.39358  -0.39083
 Alpha  occ. eigenvalues --   -0.38864  -0.38521  -0.37332  -0.36213  -0.35671
 Alpha  occ. eigenvalues --   -0.33360  -0.31214  -0.28695  -0.26183  -0.23565
 Alpha virt. eigenvalues --   -0.02993  -0.01087   0.00655   0.04285   0.05277
 Alpha virt. eigenvalues --    0.05631   0.06251   0.08413   0.08590   0.08949
 Alpha virt. eigenvalues --    0.10133   0.10790   0.11622   0.12248   0.12937
 Alpha virt. eigenvalues --    0.13187   0.13418   0.14287   0.14856   0.15165
 Alpha virt. eigenvalues --    0.15896   0.16211   0.17091   0.17609   0.17818
 Alpha virt. eigenvalues --    0.18775   0.19260   0.20129   0.21151   0.22144
 Alpha virt. eigenvalues --    0.22972   0.23649   0.24250   0.25383   0.26498
 Alpha virt. eigenvalues --    0.28686   0.31116   0.33243   0.35059   0.37899
 Alpha virt. eigenvalues --    0.43963   0.45200   0.46738   0.46886   0.47856
 Alpha virt. eigenvalues --    0.48593   0.49531   0.51130   0.52093   0.52920
 Alpha virt. eigenvalues --    0.53409   0.54328   0.55479   0.55930   0.56884
 Alpha virt. eigenvalues --    0.57772   0.58496   0.59520   0.60007   0.61138
 Alpha virt. eigenvalues --    0.61775   0.62704   0.62785   0.64327   0.66109
 Alpha virt. eigenvalues --    0.68016   0.69436   0.69920   0.70771   0.71544
 Alpha virt. eigenvalues --    0.72679   0.74138   0.75782   0.76423   0.78763
 Alpha virt. eigenvalues --    0.79335   0.79941   0.80185   0.81096   0.82643
 Alpha virt. eigenvalues --    0.83156   0.83387   0.83752   0.84244   0.85100
 Alpha virt. eigenvalues --    0.86286   0.87094   0.87468   0.88342   0.88848
 Alpha virt. eigenvalues --    0.89130   0.89738   0.90316   0.91386   0.92903
 Alpha virt. eigenvalues --    0.93495   0.93900   0.94492   0.95882   0.96441
 Alpha virt. eigenvalues --    0.97688   0.98584   0.98809   0.99394   1.00875
 Alpha virt. eigenvalues --    1.01156   1.02099   1.04006   1.06287   1.07860
 Alpha virt. eigenvalues --    1.08947   1.11808   1.14099   1.17262   1.17479
 Alpha virt. eigenvalues --    1.18696   1.19587   1.23368   1.24061   1.25935
 Alpha virt. eigenvalues --    1.28566   1.29460   1.32654   1.36304   1.39212
 Alpha virt. eigenvalues --    1.40425   1.42050   1.43637   1.45273   1.46432
 Alpha virt. eigenvalues --    1.46921   1.48133   1.49688   1.51275   1.55129
 Alpha virt. eigenvalues --    1.60128   1.61910   1.63358   1.64766   1.66009
 Alpha virt. eigenvalues --    1.67608   1.70461   1.71178   1.71759   1.73301
 Alpha virt. eigenvalues --    1.75092   1.75964   1.77089   1.79082   1.80229
 Alpha virt. eigenvalues --    1.81442   1.82942   1.84202   1.85077   1.87548
 Alpha virt. eigenvalues --    1.88521   1.89332   1.91241   1.92040   1.93867
 Alpha virt. eigenvalues --    1.95078   1.96231   1.98384   2.01713   2.02929
 Alpha virt. eigenvalues --    2.03848   2.04843   2.07089   2.07439   2.08201
 Alpha virt. eigenvalues --    2.11162   2.11946   2.13665   2.14760   2.16585
 Alpha virt. eigenvalues --    2.18618   2.19731   2.22521   2.23045   2.23940
 Alpha virt. eigenvalues --    2.24289   2.26213   2.26875   2.27210   2.28950
 Alpha virt. eigenvalues --    2.30079   2.31413   2.34118   2.36510   2.37660
 Alpha virt. eigenvalues --    2.40678   2.43344   2.44194   2.45731   2.48012
 Alpha virt. eigenvalues --    2.48361   2.55348   2.58004   2.58942   2.60904
 Alpha virt. eigenvalues --    2.62596   2.63669   2.66909   2.68002   2.69334
 Alpha virt. eigenvalues --    2.71509   2.73601   2.75259   2.77387   2.81725
 Alpha virt. eigenvalues --    2.83568   2.88351   2.91653   2.94323   3.01112
 Alpha virt. eigenvalues --    3.18288   3.37996   3.77657   3.86814   3.96267
 Alpha virt. eigenvalues --    3.98326   4.09052   4.09940   4.19810   4.20580
 Alpha virt. eigenvalues --    4.25399   4.26941   4.27655   4.32473   4.41103
 Alpha virt. eigenvalues --    4.46639   4.52814   4.62379   4.76292
          Condensed to atoms (all electrons):
               1          2          3          4          5          6
     1  C    5.184684   0.354602   0.369735   0.381339   0.399474  -0.070329
     2  H    0.354602   0.562566  -0.019537  -0.027435  -0.036724   0.007650
     3  H    0.369735  -0.019537   0.507583  -0.016298  -0.031638  -0.006724
     4  H    0.381339  -0.027435  -0.016298   0.492411  -0.030538  -0.002004
     5  C    0.399474  -0.036724  -0.031638  -0.030538   4.807604   0.390111
     6  C   -0.070329   0.007650  -0.006724  -0.002004   0.390111   5.160751
     7  H    0.005160  -0.000262  -0.000008  -0.000068  -0.022716   0.366118
     8  H   -0.002336   0.000011  -0.000138   0.001020  -0.028896   0.379588
     9  H   -0.009465   0.000241   0.005782  -0.000096  -0.029094   0.367574
    10  C   -0.090722  -0.007093   0.006814  -0.005163   0.399005  -0.068765
    11  H   -0.008976   0.000073   0.000276   0.003473  -0.020405  -0.004713
    12  H    0.008009  -0.000367  -0.000283   0.000269  -0.035368  -0.006015
    13  H   -0.007306   0.004761  -0.000041  -0.000137  -0.033887   0.006719
    14  N   -0.071520  -0.011657  -0.000250   0.004690   0.193907  -0.052698
    15  H   -0.001986  -0.000168   0.001905  -0.000100  -0.015940  -0.002465
    16  C    0.004693   0.000086  -0.000111  -0.000122  -0.032631  -0.003410
    17  H    0.000063  -0.000015  -0.000003  -0.000002  -0.007404   0.000133
    18  H    0.000104  -0.000018  -0.000001   0.000001  -0.000119   0.002000
    19  C   -0.000134  -0.000001   0.000000   0.000002   0.003760  -0.000103
    20  O    0.000007  -0.000033   0.000000  -0.000000   0.000287  -0.000013
    21  H   -0.000260  -0.000337   0.000001   0.000005   0.000016   0.000073
    22  H    0.000003   0.000000  -0.000000  -0.000000   0.000002  -0.000005
    23  C   -0.000004   0.000000   0.000001  -0.000000  -0.000559   0.000037
    24  C    0.000000   0.000000   0.000000  -0.000000  -0.000015  -0.000002
    25  H   -0.000000   0.000000   0.000000   0.000000   0.000000   0.000000
    26  C    0.000000  -0.000000  -0.000000  -0.000000  -0.000000  -0.000000
    27  C   -0.000000   0.000000  -0.000000   0.000000   0.000000   0.000000
    28  O   -0.000000   0.000000  -0.000000   0.000000  -0.000000  -0.000000
    29  H    0.000000  -0.000000   0.000000  -0.000000   0.000000   0.000000
    30  H    0.000000  -0.000000   0.000000  -0.000000  -0.000000   0.000000
    31  H    0.000000   0.000000  -0.000000  -0.000000   0.000000  -0.000000
    32  C   -0.000000  -0.000000   0.000000   0.000000   0.000000   0.000000
    33  O    0.000000   0.000000  -0.000000  -0.000000  -0.000000   0.000000
    34  H    0.000000   0.000000  -0.000000  -0.000000  -0.000000  -0.000000
    35  C   -0.000000   0.000000  -0.000000   0.000000   0.000002  -0.000001
    36  H    0.000000   0.000000  -0.000000   0.000000   0.000000   0.000000
    37  C    0.000003   0.000001  -0.000003  -0.000000   0.000041  -0.000008
    38  H    0.000001   0.000003   0.000001  -0.000000   0.000028  -0.000001
    39  H    0.000719   0.013044  -0.000172  -0.000207  -0.014101   0.003812
               7          8          9         10         11         12
     1  C    0.005160  -0.002336  -0.009465  -0.090722  -0.008976   0.008009
     2  H   -0.000262   0.000011   0.000241  -0.007093   0.000073  -0.000367
     3  H   -0.000008  -0.000138   0.005782   0.006814   0.000276  -0.000283
     4  H   -0.000068   0.001020  -0.000096  -0.005163   0.003473   0.000269
     5  C   -0.022716  -0.028896  -0.029094   0.399005  -0.020405  -0.035368
     6  C    0.366118   0.379588   0.367574  -0.068765  -0.004713  -0.006015
     7  H    0.528328  -0.021814  -0.036112  -0.003283  -0.000116   0.002445
     8  H   -0.021814   0.496369  -0.020920  -0.005686   0.002693  -0.000190
     9  H   -0.036112  -0.020920   0.538844   0.006088   0.000033  -0.000047
    10  C   -0.003283  -0.005686   0.006088   5.188011   0.379291   0.367410
    11  H   -0.000116   0.002693   0.000033   0.379291   0.492781  -0.030773
    12  H    0.002445  -0.000190  -0.000047   0.367410  -0.030773   0.538329
    13  H   -0.000095   0.000152  -0.000233   0.369515  -0.020906  -0.023162
    14  N   -0.003717   0.003833  -0.001603  -0.062376   0.004244  -0.004481
    15  H   -0.000169  -0.000073   0.003166   0.004427  -0.000048  -0.000216
    16  C    0.001097   0.000028  -0.000044  -0.004922   0.000275   0.002918
    17  H    0.000045  -0.000007  -0.000009   0.004343   0.000117  -0.000238
    18  H    0.003412  -0.000064  -0.000133  -0.002411  -0.000032   0.000447
    19  C   -0.000042   0.000002  -0.000004   0.000172  -0.000004   0.000102
    20  O    0.000000   0.000000   0.000000  -0.000053   0.000000   0.000007
    21  H   -0.000001  -0.000001  -0.000005  -0.000065  -0.000000  -0.000000
    22  H    0.000004   0.000000  -0.000000  -0.000002  -0.000000   0.000011
    23  C    0.000013  -0.000000  -0.000002  -0.000000   0.000000  -0.000011
    24  C    0.000002   0.000000  -0.000000   0.000000   0.000000  -0.000000
    25  H   -0.000001  -0.000000   0.000000  -0.000000  -0.000000  -0.000000
    26  C   -0.000000   0.000000   0.000000   0.000000   0.000000   0.000000
[...]
    38  H    0.000260  -0.000039   0.000193   0.000178   0.000084   0.000051
    39  H    0.013584  -0.004003  -0.008007  -0.007426   0.008093  -0.025422
              13         14         15         16         17         18
     1  C   -0.050645   0.259756  -0.069593   0.012492   0.022753  -0.013373
     2  H   -0.039305  -0.064799   0.004691   0.006203  -0.000730   0.010088
     3  H    0.013838  -0.075929  -0.005110  -0.029378   0.002785  -0.008296
     4  H   -0.000120   0.065139  -0.005777   0.033882  -0.002080   0.000039
     5  C    0.207226  -2.129612   0.005311  -0.148988  -0.059076   0.019517
     6  C   -0.006940   0.135096  -0.002261  -0.039960  -0.002072   0.019973
     7  H    0.014446  -0.145247  -0.015894  -0.000422  -0.015255   0.012145
     8  H    0.005955   0.135122  -0.000458  -0.036601   0.002565   0.008605
     9  H   -0.010952  -0.069296   0.026978   0.099500   0.005154  -0.013628
    10  C    0.153893  -0.029370   0.009210   0.047485   0.019774   0.017154
    11  H   -0.294396   0.070571  -0.000612  -0.058694   0.019670  -0.016804
    12  H   -0.243520  -0.038001   0.011784   0.151839  -0.027864   0.011818
    13  H    1.313077  -0.075968  -0.003160   0.037504  -0.027504   0.007730
    14  N   -0.075968   9.571871   0.293437  -0.780959  -0.128988  -0.097679
    15  H   -0.003160   0.293437   0.657002   0.089661   0.010376  -0.041265
    16  C    0.037504  -0.780959   0.089661   6.861402   0.011477  -0.064622
    17  H   -0.027504  -0.128988   0.010376   0.011477   1.770780  -0.336624
    18  H    0.007730  -0.097679  -0.041265  -0.064622  -0.336624   1.962693
    19  C   -0.015287   0.345409  -0.129143  -0.199855   0.081733  -0.282542
    20  O   -0.000225  -0.092526  -0.003911   0.039251   0.051452   0.046487
    21  H    0.000719   0.013211   0.005562  -0.055380  -0.021825   0.004759
    22  H   -0.001047   0.074367   0.010452  -0.140382  -0.087446  -0.048415
    23  C    0.008147  -0.227059  -0.043756  -0.008187  -0.131514   0.143632
    24  C   -0.002550   0.239037   0.113793  -0.330781   0.105469  -0.050741
    25  H   -0.000814  -0.055242  -0.009103   0.047542   0.000540  -0.042792
    26  C   -0.002038   0.089641  -0.051205  -0.088105  -0.006920  -0.088879
    27  C    0.000126  -0.009767  -0.016567  -0.057498  -0.002856  -0.004292
    28  O   -0.000001  -0.000437   0.000109   0.002230  -0.000091   0.003496
    29  H   -0.000004  -0.000095  -0.001391  -0.001390  -0.000056  -0.001180
    30  H    0.000004  -0.000037   0.000626  -0.004025  -0.000062  -0.001546
    31  H   -0.000028   0.002008   0.000278   0.016340   0.000972   0.004017
    32  C    0.000373  -0.013319   0.017563   0.072935   0.001250   0.050154
    33  O   -0.000003  -0.000458  -0.001153   0.000616   0.000195  -0.000923
    34  H    0.000004   0.000089   0.000589  -0.000073   0.000024   0.000697
    35  C   -0.000044   0.087753   0.017527  -0.141339   0.002266  -0.075545
    36  H   -0.000009  -0.000120  -0.002374   0.004595   0.000028   0.001400
    37  C    0.003656  -0.153377   0.055884  -0.327758  -0.019931   0.068620
    38  H    0.000245   0.023830  -0.000643  -0.023987   0.004989  -0.005696
    39  H    0.014785   0.307227  -0.116594  -0.087832  -0.030557   0.038171
              19         20         21         22         23         24
     1  C   -0.032547  -0.001270  -0.001417  -0.003218  -0.010213  -0.007288
     2  H   -0.008949   0.001124  -0.001722  -0.000238  -0.003568   0.000573
     3  H    0.012981  -0.000190  -0.001960  -0.000377  -0.004622  -0.001296
     4  H   -0.005604  -0.000487   0.001501   0.000160   0.002433  -0.001839
     5  C    0.035529  -0.005362   0.015276   0.014754  -0.040954  -0.117838
     6  C   -0.006148   0.000828  -0.000029  -0.004121  -0.024473   0.030655
     7  H    0.020257   0.000602  -0.000639  -0.000270   0.017009  -0.000467
     8  H    0.002268   0.000046   0.000207  -0.000012  -0.003972  -0.000816
     9  H   -0.021979   0.000322  -0.000023  -0.001161   0.010362   0.013394
    10  C   -0.022236   0.009289   0.001440  -0.004923   0.015063  -0.006011
    11  H    0.026760   0.001376  -0.000633   0.000696  -0.000031   0.001823
    12  H   -0.059379  -0.001110   0.000717   0.000189   0.009285  -0.009560
    13  H   -0.015287  -0.000225   0.000719  -0.001047   0.008147  -0.002550
    14  N    0.345409  -0.092526   0.013211   0.074367  -0.227059   0.239037
    15  H   -0.129143  -0.003911   0.005562   0.010452  -0.043756   0.113793
    16  C   -0.199855   0.039251  -0.055380  -0.140382  -0.008187  -0.330781
    17  H    0.081733   0.051452  -0.021825  -0.087446  -0.131514   0.105469
    18  H   -0.282542   0.046487   0.004759  -0.048415   0.143632  -0.050741
    19  C   10.626626  -0.309817  -0.149582  -0.286435  -0.939531  -1.262221
    20  O   -0.309817   8.969159   0.241286  -0.146561   0.222991  -0.196609
    21  H   -0.149582   0.241286   0.576074   0.018814   0.136006   0.099333
    22  H   -0.286435  -0.146561   0.018814   1.439159   0.012239   0.066306
    23  C   -0.939531   0.222991   0.136006   0.012239  21.043672  -6.136813
    24  C   -1.262221  -0.196609   0.099333   0.066306  -6.136813  25.698919
    25  H   -0.169699   0.015698   0.001859  -0.012147   0.598259  -2.234126
    26  C    0.192569  -0.027579  -0.003321  -0.097358   1.682227  -5.698503
    27  C   -0.126976  -0.000512  -0.000080  -0.000052  -0.578322  -1.194166
    28  O    0.000751   0.000023   0.000098  -0.000201   0.020401  -0.000543
    29  H   -0.000067  -0.000018  -0.000018   0.000044   0.006006  -0.022456
    30  H   -0.003064   0.000116  -0.000023  -0.000342  -0.023047  -0.033433
    31  H    0.004700  -0.000410   0.000111   0.000296   0.088542   0.134967
    32  C   -0.367203   0.016863  -0.002867   0.013961  -5.341370  -0.253155
    33  O    0.007666  -0.000285   0.000258   0.000486   0.081705   0.055560
    34  H   -0.000217   0.000048  -0.000143   0.000034   0.014646   0.052244
    35  C    0.331703  -0.112260  -0.021339   0.056414   2.638604  -4.641483
    36  H    0.000476   0.001352   0.001144  -0.001527  -0.621222   0.199838
    37  C   -2.290765   0.120016  -0.026118   0.254889  -8.303565   0.391093
    38  H    0.274250  -0.074673   0.002674   0.007569   1.084042   0.117666
    39  H    0.008978   0.027653   0.008572   0.003614  -0.010052  -0.073777
              25         26         27         28         29         30
     1  C    0.008634   0.057769   0.003754   0.000146   0.000307  -0.000170
     2  H   -0.004392   0.001544   0.000051  -0.000008  -0.000020   0.000002
     3  H    0.005414  -0.000104   0.001936   0.000168   0.000270  -0.000087
     4  H    0.001127   0.002440   0.000421   0.000005   0.000043   0.000009
     5  C    0.023328  -0.042493  -0.002778  -0.000348   0.000521   0.001266
     6  C   -0.013670   0.010100  -0.003940   0.000443  -0.000427  -0.001257
     7  H    0.003535  -0.000874   0.002265  -0.000253   0.000163   0.000252
     8  H    0.000561   0.004481  -0.000551   0.000070  -0.000019  -0.000139
     9  H   -0.012405  -0.018402  -0.007094  -0.000398  -0.000787   0.000168
    10  C    0.014156  -0.011301   0.000903  -0.000017   0.000012  -0.000045
    11  H    0.002788   0.000441  -0.000018  -0.000003   0.000001   0.000000
    12  H   -0.000514  -0.002018   0.000145   0.000012   0.000007  -0.000012
    13  H   -0.000814  -0.002038   0.000126  -0.000001  -0.000004   0.000004
    14  N   -0.055242   0.089641  -0.009767  -0.000437  -0.000095  -0.000037
    15  H   -0.009103  -0.051205  -0.016567   0.000109  -0.001391   0.000626
    16  C    0.047542  -0.088105  -0.057498   0.002230  -0.001390  -0.004025
    17  H    0.000540  -0.006920  -0.002856  -0.000091  -0.000056  -0.000062
    18  H   -0.042792  -0.088879  -0.004292   0.003496  -0.001180  -0.001546
    19  C   -0.169699   0.192569  -0.126976   0.000751  -0.000067  -0.003064
    20  O    0.015698  -0.027579  -0.000512   0.000023  -0.000018   0.000116
    21  H    0.001859  -0.003321  -0.000080   0.000098  -0.000018  -0.000023
    22  H   -0.012147  -0.097358  -0.000052  -0.000201   0.000044  -0.000342
    23  C    0.598259   1.682227  -0.578322   0.020401   0.006006  -0.023047
    24  C   -2.234126  -5.698503  -1.194166  -0.000543  -0.022456  -0.033433
    25  H    2.941626   0.760630   0.022897  -0.013714   0.003817   0.009429
    26  C    0.760630  17.674087  -1.083945   0.085023  -0.029337  -0.035079
    27  C    0.022897  -1.083945   6.955379  -0.213286   0.125693   0.379554
    28  O   -0.013714   0.085023  -0.213286   8.665528   0.321029  -0.094256
    29  H    0.003817  -0.029337   0.125693   0.321029   0.522986   0.009777
    30  H    0.009429  -0.035079   0.379554  -0.094256   0.009777   1.020637
    31  H   -0.077442   0.290520  -0.275327   0.041901  -0.057176  -0.180121
    32  C   -0.090396  -3.651568   0.396180   0.107419  -0.056985  -0.058987
    33  O    0.004098   0.289343   0.102149  -0.074783   0.002021   0.014949
    34  H   -0.007764   0.209501  -0.119911   0.016730  -0.013020  -0.006721
    35  C    0.120134   1.632229   0.178603  -0.110702   0.021354   0.072302
    36  H    0.005508  -0.125815   0.011663   0.001590   0.000025  -0.000236
    37  C   -0.061189  -5.320162   0.235395   0.007477  -0.019264  -0.019033
    38  H   -0.014622   0.054199  -0.006641  -0.000443  -0.000055   0.000314
    39  H    0.017223   0.018352  -0.001911   0.000078   0.000226  -0.000110
              31         32         33         34         35         36
     1  C    0.001878   0.001293   0.000091  -0.000209  -0.008923   0.000202
     2  H    0.000114   0.000238   0.000011  -0.000004  -0.000476   0.000017
     3  H   -0.000122  -0.001190   0.000115  -0.000076  -0.001169   0.000084
     4  H    0.000046   0.000051   0.000001  -0.000018  -0.000239   0.000014
     5  C   -0.009511  -0.027172  -0.000057  -0.000110   0.042343   0.000800
     6  C    0.005433   0.012473  -0.000089   0.000114  -0.005747  -0.000071
     7  H   -0.000757  -0.004998   0.000044  -0.000083   0.005981  -0.000014
     8  H    0.000614   0.000961  -0.000011   0.000014  -0.000775  -0.000008
     9  H    0.001700  -0.001863  -0.000079   0.000207   0.001104  -0.000062
    10  C   -0.000157  -0.001113   0.000010   0.000006   0.001634  -0.000053
    11  H   -0.000024  -0.000266   0.000002  -0.000003   0.000499   0.000007
    12  H   -0.000056   0.000524  -0.000010   0.000002  -0.001262  -0.000030
    13  H   -0.000028   0.000373  -0.000003   0.000004  -0.000044  -0.000009
    14  N    0.002008  -0.013319  -0.000458   0.000089   0.087753  -0.000120
    15  H    0.000278   0.017563  -0.001153   0.000589   0.017527  -0.002374
    16  C    0.016340   0.072935   0.000616  -0.000073  -0.141339   0.004595
    17  H    0.000972   0.001250   0.000195   0.000024   0.002266   0.000028
    18  H    0.004017   0.050154  -0.000923   0.000697  -0.075545   0.001400
    19  C    0.004700  -0.367203   0.007666  -0.000217   0.331703   0.000476
    20  O   -0.000410   0.016863  -0.000285   0.000048  -0.112260   0.001352
    21  H    0.000111  -0.002867   0.000258  -0.000143  -0.021339   0.001144
    22  H    0.000296   0.013961   0.000486   0.000034   0.056414  -0.001527
    23  C    0.088542  -5.341370   0.081705   0.014646   2.638604  -0.621222
    24  C    0.134967  -0.253155   0.055560   0.052244  -4.641483   0.199838
    25  H   -0.077442  -0.090396   0.004098  -0.007764   0.120134   0.005508
    26  C    0.290520  -3.651568   0.289343   0.209501   1.632229  -0.125815
    27  C   -0.275327   0.396180   0.102149  -0.119911   0.178603   0.011663
    28  O    0.041901   0.107419  -0.074783   0.016730  -0.110702   0.001590
    29  H   -0.057176  -0.056985   0.002021  -0.013020   0.021354   0.000025
    30  H   -0.180121  -0.058987   0.014949  -0.006721   0.072302  -0.000236
    31  H    1.284668  -0.061677  -0.005236   0.015714  -0.087609   0.000554
    32  C   -0.061677  16.186593  -0.799891  -0.071937  -5.697817   1.583979
    33  O   -0.005236  -0.799891   9.072093   0.293299   0.063319  -0.075207
    34  H    0.015714  -0.071937   0.293299   0.539023  -0.174014   0.002195
    35  C   -0.087609  -5.697817   0.063319  -0.174014  18.514282  -1.844581
    36  H    0.000554   1.583979  -0.075207   0.002195  -1.844581   1.905963
    37  C    0.043623   4.169305  -0.074712   0.009709  -6.103664   0.595050
    38  H   -0.001634  -0.472244  -0.000957  -0.001433   0.645966  -0.123032
    39  H   -0.000102  -0.007903  -0.000095   0.000034   0.003042  -0.000033
              37         38         39
     1  C   -0.057716  -0.002124  -0.010877
     2  H   -0.000534  -0.000018  -0.004401
     3  H   -0.000998   0.000198  -0.002566
     4  H   -0.002811  -0.000171  -0.003774
     5  C    0.021380   0.004096   0.002077
     6  C   -0.016127  -0.000454   0.002275
     7  H   -0.003114   0.000260   0.013584
     8  H   -0.001594  -0.000039  -0.004003
     9  H    0.004106   0.000193  -0.008007
    10  C    0.008899   0.000178  -0.007426
    11  H   -0.001015   0.000084   0.008093
    12  H    0.006111   0.000051  -0.025422
    13  H    0.003656   0.000245   0.014785
    14  N   -0.153377   0.023830   0.307227
    15  H    0.055884  -0.000643  -0.116594
    16  C   -0.327758  -0.023987  -0.087832
    17  H   -0.019931   0.004989  -0.030557
    18  H    0.068620  -0.005696   0.038171
    19  C   -2.290765   0.274250   0.008978
    20  O    0.120016  -0.074673   0.027653
    21  H   -0.026118   0.002674   0.008572
    22  H    0.254889   0.007569   0.003614
    23  C   -8.303565   1.084042  -0.010052
    24  C    0.391093   0.117666  -0.073777
    25  H   -0.061189  -0.014622   0.017223
    26  C   -5.320162   0.054199   0.018352
    27  C    0.235395  -0.006641  -0.001911
    28  O    0.007477  -0.000443   0.000078
    29  H   -0.019264  -0.000055   0.000226
    30  H   -0.019033   0.000314  -0.000110
    31  H    0.043623  -0.001634  -0.000102
    32  C    4.169305  -0.472244  -0.007903
    33  O   -0.074712  -0.000957  -0.000095
    34  H    0.009709  -0.001433   0.000034
    35  C   -6.103664   0.645966   0.003042
    36  H    0.595050  -0.123032  -0.000033
    37  C   24.277006  -2.037796   0.014187
    38  H   -2.037796   2.278414   0.004441
    39  H    0.014187   0.004441   0.696294
 Mulliken charges:
               1
     1  C    1.363526
     2  H    0.010169
     3  H    0.000090
     4  H    0.027523
     5  C   -3.452553
     6  C    1.251915
     7  H   -0.021177
     8  H   -0.030675
     9  H   -0.000092
    10  C    1.301646
    11  H   -0.008031
    12  H   -0.015949
    13  H   -0.007169
    14  N   -0.525278
    15  H    0.189136
    16  C    1.091264
    17  H   -0.212803
    18  H   -0.236352
    19  C    0.716593
    20  O   -0.792178
    21  H    0.157498
    22  H   -0.138209
    23  C    0.617001
    24  C    0.955801
    25  H   -0.788773
    26  C   -0.670090
    27  C    1.289373
    28  O   -0.765244
    29  H    0.189463
    30  H   -0.047575
    31  H   -0.181608
    32  C    0.351807
    33  O   -0.954079
    34  H    0.240810
    35  C    0.591930
    36  H   -0.522090
    37  C    0.554838
    38  H   -0.736996
    39  H    0.206536
 Sum of Mulliken charges =   1.00000
 Mulliken charges with hydrogens summed into heavy atoms:
               1
     1  C    1.401309
     5  C   -3.452553
     6  C    1.199971
    10  C    1.270498
    14  N   -0.129605
    16  C    0.642109
    19  C    0.578384
    20  O   -0.634681
    23  C    0.617001
    24  C    0.167028
    26  C   -0.670090
    27  C    1.060191
    28  O   -0.575781
    32  C    0.351807
    33  O   -0.713269
    35  C    0.069839
    37  C   -0.182157
 Electronic spatial extent (au):  <R**2>=           5653.3566
 Charge=              1.0000 electrons
 Dipole moment (field-independent basis, Debye):
    X=             10.4543    Y=              2.8708    Z=              0.8068  Tot=             10.8713
 Quadrupole moment (field-independent basis, Debye-Ang):
   XX=            -70.5101   YY=            -92.9924   ZZ=            -92.4715
   XY=              5.8707   XZ=              4.4179   YZ=             -1.7059
 Traceless Quadrupole moment (field-independent basis, Debye-Ang):
   XX=             14.8146   YY=             -7.6677   ZZ=             -7.1468
   XY=              5.8707   XZ=              4.4179   YZ=             -1.7059
 Octapole moment (field-independent basis, Debye-Ang**2):
  XXX=            187.5782  YYY=             24.9453  ZZZ=              1.2735  XYY=             -1.3236
  XXY=             33.5171  XXZ=              6.7425  XZZ=             13.2372  YZZ=              2.0037
  YYZ=             21.6716  XYZ=              2.6905
 Hexadecapole moment (field-independent basis, Debye-Ang**3):
 XXXX=          -4893.9070 YYYY=          -1534.3158 ZZZZ=           -506.2700 XXXY=             82.2117
 XXXZ=             83.5754 YYYX=             58.8680 YYYZ=            -12.4063 ZZZX=              5.9623
 ZZZY=              7.8894 XXYY=          -1067.1965 XXZZ=           -892.6632 YYZZ=           -292.8541
 XXYZ=             10.5349 YYXZ=            -31.0827 ZZXY=            -41.6067
 N-N= 1.271516701161D+03 E-N=-4.358973101198D+03  KE= 7.830179608548D+02
 Leave Link  601 at Sun Jul 18 19:08:51 2021, MaxMem=   262144000 cpu:               0.5 elap:               0.4
 (Enter /dades/curu/g16A03_MST/g16/l9999.exe)
 1\1\GINC-PIRINEUS18\SP\RMP2-FC\Aug-CC-pVDZ\C13H22N1O3(1+)\UBATOR02\18-
 Jul-2021\0\\#p mp2/aug-cc-pVDZ scf=tight maxdisk=180GB geom=allcheck\\
 SET_328_BBB301_conf1.geo_075_090_045 geometry\\1,1\C,0,1.4037158333,0.
 7738331928,3.3929857629\H,0,0.6448866677,0.4554191971,4.1127951501\H,0
 ,1.063620219,1.6913082253,2.9043447332\H,0,2.3080279103,1.0159382166,3
 .9545009257\C,0,1.7306090309,-0.3270141644,2.3775671791\C,0,2.79904418
 73,0.1459222348,1.3891568527\H,0,3.0613218405,-0.6229171632,0.65823226
 61\H,0,3.706107904,0.3862352203,1.9464000642\H,0,2.4919649027,1.050602
 7732,0.8562220367\C,0,2.1427608886,-1.6203497323,3.0831986887\H,0,3.00
 57672784,-1.4131837134,3.7176293927\H,0,2.4356110236,-2.4021492499,2.3
 801566672\H,0,1.345558735,-2.0070014311,3.7250214231\N,0,0.4230227275,
 -0.6008520286,1.5956776233\H,0,0.1013566204,0.2817929936,1.1781413038\
 C,0,0.466643535,-1.6674412862,0.5390984659\H,0,0.7984550148,-2.5787682
 92,1.030839731\H,0,1.2070051995,-1.3758411876,-0.2025506913\C,0,-0.911
 7844412,-1.9175864444,-0.0919258675\O,0,-1.8249576925,-2.3211491147,0.
 9225931145\H,0,-2.3091661737,-1.5382018042,1.2377807707\H,0,-0.7719565
 067,-2.8080743327,-0.714185414\C,0,-1.4506618423,-0.7904050746,-0.9607
 277026\C,0,-0.6147051074,0.0137004648,-1.7456075465\H,0,0.4635792985,-
 0.124810015,-1.7256120067\C,0,-1.1211243456,0.9937119637,-2.5981942626
 \C,0,-0.2063921899,1.7758226646,-3.5092551354\O,0,-0.6068739432,3.1481
 481357,-3.6632676627\H,0,-0.4740793241,3.6003231618,-2.8127373814\H,0,
 -0.2376523372,1.3698653268,-4.5246617921\H,0,0.8284264314,1.7103149147
 ,-3.1606969815\C,0,-2.5144209051,1.1971250201,-2.6557292148\O,0,-3.062
 9293983,2.1488122073,-3.4485976248\H,0,-2.3287517414,2.7378272008,-3.7
 409916643\C,0,-3.3620658902,0.3923773853,-1.8890643582\H,0,-4.43323826
 32,0.5496835061,-1.9570707028\C,0,-2.8344060642,-0.5955246578,-1.06586
 61704\H,0,-3.5099813946,-1.2323637129,-0.5047385226\H,0,-0.3083376882,
 -0.8571306006,2.2711385504\\Version=ES64L-G16RevA.03\State=1-A\HF=-784
 .0233522\MP2=-786.6620365\RMSD=9.612e-09\PG=C01 [X(C13H22N1O3)]\\@


 Some scientists claim that hydrogen, because it is so
 plentiful, is the basic building block of the universe. 
 I dispute that. I say that stupidity is far more
 abundant than hydrogen, and THAT is the basic building 
 block of the universe.
                   --Frank Zappa
 Job cpu time:       0 days  3 hours 29 minutes  5.5 seconds.
 Elapsed time:       0 days  1 hours 13 minutes 42.5 seconds.
 File lengths (MBytes):  RWF= 102351 Int=      0 D2E=      0 Chk=     28 Scr=      1
 Normal termination of Gaussian 16 at Sun Jul 18 19:08:53 2021.
