 Entering Gaussian System, Link 0=g16
 Input=SET_328_BBB268_conf1.geo_300_135_285_OCTANOL.dat
 Output=SET_328_BBB268_conf1.geo_300_135_285_OCTANOL.log
 Initial command:
 /dades/curu/g16A03_MST/g16/l1.exe "/tmp/ubator02/1839558/Gau-81816.inp" -scrdir="/tmp/ubator02/1839558/"
 Entering Link 1 = /dades/curu/g16A03_MST/g16/l1.exe PID=     81818.
  
 Copyright (c) 1988,1990,1992,1993,1995,1998,2003,2009,2016,
            Gaussian, Inc.  All Rights Reserved.
  
 This is part of the Gaussian(R) 16 program.  It is based on
 the Gaussian(R) 09 system (copyright 2009, Gaussian, Inc.),
 the Gaussian(R) 03 system (copyright 2003, Gaussian, Inc.),
 the Gaussian(R) 98 system (copyright 1998, Gaussian, Inc.),
 the Gaussian(R) 94 system (copyright 1995, Gaussian, Inc.),
 the Gaussian 92(TM) system (copyright 1992, Gaussian, Inc.),
 the Gaussian 90(TM) system (copyright 1990, Gaussian, Inc.),
 the Gaussian 88(TM) system (copyright 1988, Gaussian, Inc.),
 the Gaussian 86(TM) system (copyright 1986, Carnegie Mellon
 University), and the Gaussian 82(TM) system (copyright 1983,
 Carnegie Mellon University). Gaussian is a federally registered
 trademark of Gaussian, Inc.
  
 This software contains proprietary and confidential information,
 including trade secrets, belonging to Gaussian, Inc.
  
 This software is provided under written license and may be
 used, copied, transmitted, or stored only in accord with that
 written license.
  
 The following legend is applicable only to US Government
 contracts under FAR:
  
                    RESTRICTED RIGHTS LEGEND
  
 Use, reproduction and disclosure by the US Government is
 subject to restrictions as set forth in subparagraphs (a)
 and (c) of the Commercial Computer Software - Restricted
 Rights clause in FAR 52.227-19.
  
 Gaussian, Inc.
 340 Quinnipiac St., Bldg. 40, Wallingford CT 06492
  
  
 ---------------------------------------------------------------
 Warning -- This program may not be used in any manner that
 competes with the business of Gaussian, Inc. or will provide
 assistance to any competitor of Gaussian, Inc.  The licensee
 of this program is prohibited from giving any competitor of
 Gaussian, Inc. access to this program.  By using this program,
 the user acknowledges that Gaussian, Inc. is engaged in the
 business of creating and licensing software in the field of
 computational chemistry and represents and warrants to the
 licensee that it is not a competitor of Gaussian, Inc. and that
 it will not use this program in any manner prohibited above.
 ---------------------------------------------------------------
  

 Cite this work as:
 Gaussian 16, Revision A.03,
 M. J. Frisch, G. W. Trucks, H. B. Schlegel, G. E. Scuseria, 
 M. A. Robb, J. R. Cheeseman, G. Scalmani, V. Barone, 
 G. A. Petersson, H. Nakatsuji, X. Li, M. Caricato, A. V. Marenich, 
 J. Bloino, B. G. Janesko, R. Gomperts, B. Mennucci, H. P. Hratchian, 
 J. V. Ortiz, A. F. Izmaylov, J. L. Sonnenberg, D. Williams-Young, 
 F. Ding, F. Lipparini, F. Egidi, J. Goings, B. Peng, A. Petrone, 
 T. Henderson, D. Ranasinghe, V. G. Zakrzewski, J. Gao, N. Rega, 
 G. Zheng, W. Liang, M. Hada, M. Ehara, K. Toyota, R. Fukuda, 
 J. Hasegawa, M. Ishida, T. Nakajima, Y. Honda, O. Kitao, H. Nakai, 
 T. Vreven, K. Throssell, J. A. Montgomery, Jr., J. E. Peralta, 
 F. Ogliaro, M. J. Bearpark, J. J. Heyd, E. N. Brothers, K. N. Kudin, 
 V. N. Staroverov, T. A. Keith, R. Kobayashi, J. Normand, 
 K. Raghavachari, A. P. Rendell, J. C. Burant, S. S. Iyengar, 
 J. Tomasi, M. Cossi, J. M. Millam, M. Klene, C. Adamo, R. Cammi, 
 J. W. Ochterski, R. L. Martin, K. Morokuma, O. Farkas, 
 J. B. Foresman, and D. J. Fox, Gaussian, Inc., Wallingford CT, 2016.
 
 ******************************************
 Gaussian 16:  ES64L-G16RevA.03 25-Dec-2016
                18-Jul-2021 
 ******************************************
 %mem=800MB
 %nproc=4
 Will use up to    4 processors via shared memory.
 %chk=SET_328_BBB268_conf1.geo_300_135_285.chk
 ---------------------------------------------------------------
 #p b3lyp/6-31G(d) opt freq scrf=(iefpcm,read,solvent=n-octanol)
 ---------------------------------------------------------------
 1/18=20,19=15,26=3,38=1,40=2/1,3;
 2/9=110,12=2,17=6,18=5,40=1/2;
 3/5=1,6=6,7=1,11=2,25=1,30=1,70=2203,71=1,72=25,74=-5/1,2,3;
 4//1;
 5/5=2,38=5,53=25/2;
 6/7=2,8=2,9=2,10=2,28=1/1;
 7//1,2,3,16;
 1/18=20,19=15,26=3/3(2);
 2/9=110/2;
 99//99;
 2/9=110/2;
 3/5=1,6=6,7=1,11=2,25=1,30=1,70=2205,71=1,72=25,74=-5/1,2,3;
 4/5=5,16=3,69=1/1;
 5/5=2,38=5,53=25/2;
 7//1,2,3,16;
 1/18=20,19=15,26=3/3(-5);
 2/9=110/2;
 6/7=2,8=2,9=2,10=2,19=2,28=1/1;
 99/9=1/99;
 Leave Link    1 at Sun Jul 18 13:40:52 2021, MaxMem=   104857600 cpu:               0.1 elap:               0.0
 (Enter /dades/curu/g16A03_MST/g16/l101.exe)
 ---------------------------------------------
 SET_328_BBB268_conf1.geo_300_135_285 geometry
 ---------------------------------------------
 Symbolic Z-matrix:
 Charge =  1 Multiplicity = 1
 C                    -1.679    -3.11      1.562 
 H                    -0.934    -3.539     0.888 
 H                    -2.602    -3.573     1.204 
 H                    -1.507    -3.465     2.582 
 N                    -1.691    -1.625     1.323 
 C                    -2.868    -1.118     0.626 
 H                    -3.674    -1.851     0.708 
 H                    -2.532    -0.885    -0.388 
 H                    -3.255    -0.192     1.061 
 C                    -0.618    -0.923     1.85 
 O                     0.269    -1.413     2.495 
 C                    -0.448     0.484     1.476 
 H                     0.321     1.028     2.028 
 H                    -1.44      0.886     1.69 
 C                    -0.266     0.71      0. 
 C                     0.624     0.165    -0.876 
 C                     1.7      -0.642    -0.388 
 C                     1.848    -1.904    -0.823 
 C                     2.778    -2.754    -0.299 
 C                     3.664    -2.174     0.647 
 C                     4.798    -3.009     1.116 
 H                     5.212    -3.581     0.283 
 H                     4.425    -3.672     1.899 
 H                     5.596    -2.421     1.574 
 C                     3.662    -0.828     0.933 
 C                     2.616    -0.097     0.448 
 H                     2.546     0.963     0.678 
 H                     4.371    -0.292     1.559 
 H                     2.888    -3.778    -0.646 
 H                     1.253    -2.165    -1.694 
 N                     0.626     0.738    -2.196 
 C                    -0.421     1.55     -2.057 
 C                    -0.666     2.573    -3.009 
 H                    -0.106     2.625    -3.937 
 C                    -1.53      3.597    -2.678 
 H                    -1.878     4.333    -3.395 
 C                    -2.199     3.507    -1.388 
 C                    -3.231     4.573    -1.133 
 H                    -3.074     5.505    -1.681 
 H                    -3.254     4.732    -0.053 
 H                    -4.182     4.159    -1.472 
 C                    -1.874     2.599    -0.354 
 H                    -2.374     2.591     0.607 
 N                    -0.895     1.69     -0.768 
 H                     1.228     0.576    -2.978 
 
 ITRead=  0  0  0  0  0  0  0  0  0  0  0  0  0  0  0  0  0  0  0  0
 ITRead=  0  0  0  0  0  0  0  0  0  0  0  0  0  0  0  0  0  0  0  0
 ITRead=  0  0  0  0  0
 MicOpt= -1 -1 -1 -1 -1 -1 -1 -1 -1 -1 -1 -1 -1 -1 -1 -1 -1 -1 -1 -1
 MicOpt= -1 -1 -1 -1 -1 -1 -1 -1 -1 -1 -1 -1 -1 -1 -1 -1 -1 -1 -1 -1
 MicOpt= -1 -1 -1 -1 -1
 NAtoms=     45 NQM=       45 NQMF=       0 NMMI=      0 NMMIF=      0
                NMic=       0 NMicF=      0.
                    Isotopes and Nuclear Properties:
 (Nuclear quadrupole moments (NQMom) in fm**2, nuclear magnetic moments (NMagM)
  in nuclear magnetons)

  Atom         1           2           3           4           5           6           7           8           9          10
 IAtWgt=          12           1           1           1          14          12           1           1           1          12
 AtmWgt=  12.0000000   1.0078250   1.0078250   1.0078250  14.0030740  12.0000000   1.0078250   1.0078250   1.0078250  12.0000000
 NucSpn=           0           1           1           1           2           0           1           1           1           0
 AtZEff=  -0.0000000  -0.0000000  -0.0000000  -0.0000000  -0.0000000  -0.0000000  -0.0000000  -0.0000000  -0.0000000  -0.0000000
 NQMom=    0.0000000   0.0000000   0.0000000   0.0000000   2.0440000   0.0000000   0.0000000   0.0000000   0.0000000   0.0000000
 NMagM=    0.0000000   2.7928460   2.7928460   2.7928460   0.4037610   0.0000000   2.7928460   2.7928460   2.7928460   0.0000000
 AtZNuc=   6.0000000   1.0000000   1.0000000   1.0000000   7.0000000   6.0000000   1.0000000   1.0000000   1.0000000   6.0000000

  Atom        11          12          13          14          15          16          17          18          19          20
 IAtWgt=          16          12           1           1          12          12          12          12          12          12
 AtmWgt=  15.9949146  12.0000000   1.0078250   1.0078250  12.0000000  12.0000000  12.0000000  12.0000000  12.0000000  12.0000000
 NucSpn=           0           0           1           1           0           0           0           0           0           0
 AtZEff=  -0.0000000  -0.0000000  -0.0000000  -0.0000000  -0.0000000  -0.0000000  -0.0000000  -0.0000000  -0.0000000  -0.0000000
 NQMom=    0.0000000   0.0000000   0.0000000   0.0000000   0.0000000   0.0000000   0.0000000   0.0000000   0.0000000   0.0000000
 NMagM=    0.0000000   0.0000000   2.7928460   2.7928460   0.0000000   0.0000000   0.0000000   0.0000000   0.0000000   0.0000000
 AtZNuc=   8.0000000   6.0000000   1.0000000   1.0000000   6.0000000   6.0000000   6.0000000   6.0000000   6.0000000   6.0000000

  Atom        21          22          23          24          25          26          27          28          29          30
 IAtWgt=          12           1           1           1          12          12           1           1           1           1
 AtmWgt=  12.0000000   1.0078250   1.0078250   1.0078250  12.0000000  12.0000000   1.0078250   1.0078250   1.0078250   1.0078250
 NucSpn=           0           1           1           1           0           0           1           1           1           1
 AtZEff=  -0.0000000  -0.0000000  -0.0000000  -0.0000000  -0.0000000  -0.0000000  -0.0000000  -0.0000000  -0.0000000  -0.0000000
 NQMom=    0.0000000   0.0000000   0.0000000   0.0000000   0.0000000   0.0000000   0.0000000   0.0000000   0.0000000   0.0000000
 NMagM=    0.0000000   2.7928460   2.7928460   2.7928460   0.0000000   0.0000000   2.7928460   2.7928460   2.7928460   2.7928460
 AtZNuc=   6.0000000   1.0000000   1.0000000   1.0000000   6.0000000   6.0000000   1.0000000   1.0000000   1.0000000   1.0000000

  Atom        31          32          33          34          35          36          37          38          39          40
 IAtWgt=          14          12          12           1          12           1          12          12           1           1
 AtmWgt=  14.0030740  12.0000000  12.0000000   1.0078250  12.0000000   1.0078250  12.0000000  12.0000000   1.0078250   1.0078250
 NucSpn=           2           0           0           1           0           1           0           0           1           1
 AtZEff=  -0.0000000  -0.0000000  -0.0000000  -0.0000000  -0.0000000  -0.0000000  -0.0000000  -0.0000000  -0.0000000  -0.0000000
 NQMom=    2.0440000   0.0000000   0.0000000   0.0000000   0.0000000   0.0000000   0.0000000   0.0000000   0.0000000   0.0000000
 NMagM=    0.4037610   0.0000000   0.0000000   2.7928460   0.0000000   2.7928460   0.0000000   0.0000000   2.7928460   2.7928460
 AtZNuc=   7.0000000   6.0000000   6.0000000   1.0000000   6.0000000   1.0000000   6.0000000   6.0000000   1.0000000   1.0000000

  Atom        41          42          43          44          45
 IAtWgt=           1          12           1          14           1
 AtmWgt=   1.0078250  12.0000000   1.0078250  14.0030740   1.0078250
 NucSpn=           1           0           1           2           1
 AtZEff=  -0.0000000  -0.0000000  -0.0000000  -0.0000000  -0.0000000
 NQMom=    0.0000000   0.0000000   0.0000000   2.0440000   0.0000000
 NMagM=    2.7928460   0.0000000   2.7928460   0.4037610   2.7928460
 AtZNuc=   1.0000000   6.0000000   1.0000000   7.0000000   1.0000000
 Leave Link  101 at Sun Jul 18 13:40:52 2021, MaxMem=   104857600 cpu:               0.1 elap:               0.1
 (Enter /dades/curu/g16A03_MST/g16/l103.exe)

 GradGradGradGradGradGradGradGradGradGradGradGradGradGradGradGradGradGrad
 Berny optimization.
 Initialization pass.
                           ----------------------------
                           !    Initial Parameters    !
                           ! (Angstroms and Degrees)  !
 --------------------------                            --------------------------
 ! Name  Definition              Value          Derivative Info.                !
 --------------------------------------------------------------------------------
 ! R1    R(1,2)                  1.0924         estimate D2E/DX2                !
 ! R2    R(1,3)                  1.0929         estimate D2E/DX2                !
 ! R3    R(1,4)                  1.0936         estimate D2E/DX2                !
 ! R4    R(1,5)                  1.5042         estimate D2E/DX2                !
 ! R5    R(5,6)                  1.4588         estimate D2E/DX2                !
 ! R6    R(5,10)                 1.3863         estimate D2E/DX2                !
 ! R7    R(6,7)                  1.0925         estimate D2E/DX2                !
 ! R8    R(6,8)                  1.0933         estimate D2E/DX2                !
 ! R9    R(6,9)                  1.0938         estimate D2E/DX2                !
 ! R10   R(10,11)                1.2012         estimate D2E/DX2                !
 ! R11   R(10,12)                1.4658         estimate D2E/DX2                !
 ! R12   R(12,13)                1.0918         estimate D2E/DX2                !
 ! R13   R(12,14)                1.0915         estimate D2E/DX2                !
 ! R14   R(12,15)                1.5043         estimate D2E/DX2                !
 ! R15   R(15,16)                1.3625         estimate D2E/DX2                !
 ! R16   R(15,44)                1.3949         estimate D2E/DX2                !
 ! R17   R(16,17)                1.4308         estimate D2E/DX2                !
 ! R18   R(16,31)                1.439          estimate D2E/DX2                !
 ! R19   R(17,18)                1.343          estimate D2E/DX2                !
 ! R20   R(17,26)                1.3546         estimate D2E/DX2                !
 ! R21   R(18,19)                1.3645         estimate D2E/DX2                !
 ! R22   R(18,30)                1.0866         estimate D2E/DX2                !
 ! R23   R(19,20)                1.42           estimate D2E/DX2                !
 ! R24   R(19,29)                1.0868         estimate D2E/DX2                !
 ! R25   R(20,21)                1.4843         estimate D2E/DX2                !
 ! R26   R(20,25)                1.3761         estimate D2E/DX2                !
 ! R27   R(21,22)                1.092          estimate D2E/DX2                !
 ! R28   R(21,23)                1.0917         estimate D2E/DX2                !
 ! R29   R(21,24)                1.0919         estimate D2E/DX2                !
 ! R30   R(25,26)                1.3652         estimate D2E/DX2                !
 ! R31   R(25,28)                1.0871         estimate D2E/DX2                !
 ! R32   R(26,27)                1.0869         estimate D2E/DX2                !
 ! R33   R(31,32)                1.3322         estimate D2E/DX2                !
 ! R34   R(31,45)                1.0001         estimate D2E/DX2                !
 ! R35   R(32,33)                1.4188         estimate D2E/DX2                !
 ! R36   R(32,44)                1.3805         estimate D2E/DX2                !
 ! R37   R(33,34)                1.0851         estimate D2E/DX2                !
 ! R38   R(33,35)                1.3801         estimate D2E/DX2                !
 ! R39   R(35,36)                1.0848         estimate D2E/DX2                !
 ! R40   R(35,37)                1.4559         estimate D2E/DX2                !
 ! R41   R(37,38)                1.5055         estimate D2E/DX2                !
 ! R42   R(37,42)                1.4139         estimate D2E/DX2                !
 ! R43   R(38,39)                1.0925         estimate D2E/DX2                !
 ! R44   R(38,40)                1.0919         estimate D2E/DX2                !
 ! R45   R(38,41)                1.0912         estimate D2E/DX2                !
 ! R46   R(42,43)                1.0833         estimate D2E/DX2                !
 ! R47   R(42,44)                1.3986         estimate D2E/DX2                !
 ! A1    A(2,1,3)              101.975          estimate D2E/DX2                !
 ! A2    A(2,1,4)              109.9205         estimate D2E/DX2                !
 ! A3    A(2,1,5)              107.1645         estimate D2E/DX2                !
 ! A4    A(3,1,4)              107.5069         estimate D2E/DX2                !
 ! A5    A(3,1,5)              111.0669         estimate D2E/DX2                !
 ! A6    A(4,1,5)              118.0295         estimate D2E/DX2                !
 ! A7    A(1,5,6)              115.1801         estimate D2E/DX2                !
 ! A8    A(1,5,10)             115.6805         estimate D2E/DX2                !
 ! A9    A(6,5,10)             129.058          estimate D2E/DX2                !
 ! A10   A(5,6,7)              109.0371         estimate D2E/DX2                !
 ! A11   A(5,6,8)              105.6184         estimate D2E/DX2                !
 ! A12   A(5,6,9)              112.9333         estimate D2E/DX2                !
 ! A13   A(7,6,8)              116.0594         estimate D2E/DX2                !
 ! A14   A(7,6,9)              106.088          estimate D2E/DX2                !
 ! A15   A(8,6,9)              107.2862         estimate D2E/DX2                !
 ! A16   A(5,10,11)            124.6873         estimate D2E/DX2                !
 ! A17   A(5,10,12)            118.6106         estimate D2E/DX2                !
 ! A18   A(11,10,12)           116.2916         estimate D2E/DX2                !
 ! A19   A(10,12,13)           115.5297         estimate D2E/DX2                !
 ! A20   A(10,12,14)           101.4256         estimate D2E/DX2                !
 ! A21   A(10,12,15)           114.1181         estimate D2E/DX2                !
 ! A22   A(13,12,14)           110.9461         estimate D2E/DX2                !
 ! A23   A(13,12,15)           109.6344         estimate D2E/DX2                !
 ! A24   A(14,12,15)           104.2998         estimate D2E/DX2                !
 ! A25   A(12,15,16)           130.525          estimate D2E/DX2                !
 ! A26   A(12,15,44)           126.2431         estimate D2E/DX2                !
 ! A27   A(16,15,44)           102.8017         estimate D2E/DX2                !
 ! A28   A(15,16,17)           119.8377         estimate D2E/DX2                !
 ! A29   A(15,16,31)           115.5555         estimate D2E/DX2                !
 ! A30   A(17,16,31)           122.4394         estimate D2E/DX2                !
 ! A31   A(16,17,18)           120.1582         estimate D2E/DX2                !
 ! A32   A(16,17,26)           119.4785         estimate D2E/DX2                !
 ! A33   A(18,17,26)           120.2267         estimate D2E/DX2                !
 ! A34   A(17,18,19)           122.4156         estimate D2E/DX2                !
 ! A35   A(17,18,30)           115.1489         estimate D2E/DX2                !
 ! A36   A(19,18,30)           122.0984         estimate D2E/DX2                !
 ! A37   A(18,19,20)           115.2553         estimate D2E/DX2                !
 ! A38   A(18,19,29)           122.2293         estimate D2E/DX2                !
 ! A39   A(20,19,29)           122.305          estimate D2E/DX2                !
 ! A40   A(19,20,21)           117.2212         estimate D2E/DX2                !
 ! A41   A(19,20,25)           122.4864         estimate D2E/DX2                !
 ! A42   A(21,20,25)           119.0589         estimate D2E/DX2                !
 ! A43   A(20,21,22)           110.0773         estimate D2E/DX2                !
 ! A44   A(20,21,23)           107.893          estimate D2E/DX2                !
 ! A45   A(20,21,24)           112.8264         estimate D2E/DX2                !
 ! A46   A(22,21,23)           111.0105         estimate D2E/DX2                !
 ! A47   A(22,21,24)           108.9631         estimate D2E/DX2                !
 ! A48   A(23,21,24)           106.0155         estimate D2E/DX2                !
 ! A49   A(20,25,26)           116.8107         estimate D2E/DX2                !
 ! A50   A(20,25,28)           126.942          estimate D2E/DX2                !
 ! A51   A(26,25,28)           116.1208         estimate D2E/DX2                !
 ! A52   A(17,26,25)           121.462          estimate D2E/DX2                !
 ! A53   A(17,26,27)           118.6467         estimate D2E/DX2                !
 ! A54   A(25,26,27)           119.76           estimate D2E/DX2                !
 ! A55   A(16,31,32)            98.3893         estimate D2E/DX2                !
 ! A56   A(16,31,45)           130.8138         estimate D2E/DX2                !
 ! A57   A(32,31,45)           130.7969         estimate D2E/DX2                !
 ! A58   A(31,32,33)           120.3437         estimate D2E/DX2                !
 ! A59   A(31,32,44)           115.4084         estimate D2E/DX2                !
 ! A60   A(33,32,44)           119.6116         estimate D2E/DX2                !
 ! A61   A(32,33,34)           121.2844         estimate D2E/DX2                !
 ! A62   A(32,33,35)           118.8283         estimate D2E/DX2                !
 ! A63   A(34,33,35)           119.5144         estimate D2E/DX2                !
 ! A64   A(33,35,36)           123.0725         estimate D2E/DX2                !
 ! A65   A(33,35,37)           117.0203         estimate D2E/DX2                !
 ! A66   A(36,35,37)           118.6942         estimate D2E/DX2                !
 ! A67   A(35,37,38)           114.9164         estimate D2E/DX2                !
 ! A68   A(35,37,42)           125.5926         estimate D2E/DX2                !
 ! A69   A(38,37,42)           119.2364         estimate D2E/DX2                !
 ! A70   A(37,38,39)           114.8715         estimate D2E/DX2                !
 ! A71   A(37,38,40)           106.5643         estimate D2E/DX2                !
 ! A72   A(37,38,41)           106.0311         estimate D2E/DX2                !
 ! A73   A(39,38,40)           112.0206         estimate D2E/DX2                !
 ! A74   A(39,38,41)           107.0419         estimate D2E/DX2                !
 ! A75   A(40,38,41)           110.1315         estimate D2E/DX2                !
 ! A76   A(37,42,43)           123.1867         estimate D2E/DX2                !
 ! A77   A(37,42,44)           111.2104         estimate D2E/DX2                !
 ! A78   A(43,42,44)           125.5108         estimate D2E/DX2                !
 ! A79   A(15,44,32)           106.7382         estimate D2E/DX2                !
 ! A80   A(15,44,42)           127.5361         estimate D2E/DX2                !
 ! A81   A(32,44,42)           125.6362         estimate D2E/DX2                !
 ! D1    D(2,1,5,6)            107.9422         estimate D2E/DX2                !
 ! D2    D(2,1,5,10)           -75.0365         estimate D2E/DX2                !
 ! D3    D(3,1,5,6)             -2.6485         estimate D2E/DX2                !
 ! D4    D(3,1,5,10)           174.3728         estimate D2E/DX2                !
 ! D5    D(4,1,5,6)           -127.4178         estimate D2E/DX2                !
 ! D6    D(4,1,5,10)            49.6035         estimate D2E/DX2                !
 ! D7    D(1,5,6,7)             19.344          estimate D2E/DX2                !
 ! D8    D(1,5,6,8)           -106.0359         estimate D2E/DX2                !
 ! D9    D(1,5,6,9)            137.0087         estimate D2E/DX2                !
 ! D10   D(10,5,6,7)          -157.1983         estimate D2E/DX2                !
 ! D11   D(10,5,6,8)            77.4218         estimate D2E/DX2                !
 ! D12   D(10,5,6,9)           -39.5336         estimate D2E/DX2                !
 ! D13   D(1,5,10,11)           -2.0883         estimate D2E/DX2                !
 ! D14   D(1,5,10,12)          170.2691         estimate D2E/DX2                !
 ! D15   D(6,5,10,11)          174.4396         estimate D2E/DX2                !
 ! D16   D(6,5,10,12)          -13.203          estimate D2E/DX2                !
 ! D17   D(5,10,12,13)         171.4124         estimate D2E/DX2                !
 ! D18   D(5,10,12,14)          51.3657         estimate D2E/DX2                !
 ! D19   D(5,10,12,15)         -60.1386         estimate D2E/DX2                !
 ! D20   D(11,10,12,13)        -15.5937         estimate D2E/DX2                !
 ! D21   D(11,10,12,14)       -135.6404         estimate D2E/DX2                !
 ! D22   D(11,10,12,15)        112.8553         estimate D2E/DX2                !
 ! D23   D(10,12,15,16)        -53.8081         estimate D2E/DX2                !
 ! D24   D(10,12,15,44)        135.052          estimate D2E/DX2                !
 ! D25   D(13,12,15,16)         77.5735         estimate D2E/DX2                !
 ! D26   D(13,12,15,44)        -93.5664         estimate D2E/DX2                !
 ! D27   D(14,12,15,16)       -163.5691         estimate D2E/DX2                !
 ! D28   D(14,12,15,44)         25.291          estimate D2E/DX2                !
 ! D29   D(12,15,16,17)         -8.7364         estimate D2E/DX2                !
 ! D30   D(12,15,16,31)       -172.4162         estimate D2E/DX2                !
 ! D31   D(44,15,16,17)        163.9449         estimate D2E/DX2                !
 ! D32   D(44,15,16,31)          0.2651         estimate D2E/DX2                !
 ! D33   D(12,15,44,32)        178.9584         estimate D2E/DX2                !
 ! D34   D(12,15,44,42)         -4.3546         estimate D2E/DX2                !
 ! D35   D(16,15,44,32)          5.8539         estimate D2E/DX2                !
 ! D36   D(16,15,44,42)       -177.459          estimate D2E/DX2                !
 ! D37   D(15,16,17,18)        122.783          estimate D2E/DX2                !
 ! D38   D(15,16,17,26)        -61.4543         estimate D2E/DX2                !
 ! D39   D(31,16,17,18)        -74.6978         estimate D2E/DX2                !
 ! D40   D(31,16,17,26)        101.0649         estimate D2E/DX2                !
 ! D41   D(15,16,31,32)         -6.2844         estimate D2E/DX2                !
 ! D42   D(15,16,31,45)        173.7582         estimate D2E/DX2                !
 ! D43   D(17,16,31,32)       -169.4969         estimate D2E/DX2                !
 ! D44   D(17,16,31,45)         10.5457         estimate D2E/DX2                !
 ! D45   D(16,17,18,19)       -173.7313         estimate D2E/DX2                !
 ! D46   D(16,17,18,30)         12.8112         estimate D2E/DX2                !
 ! D47   D(26,17,18,19)         10.5379         estimate D2E/DX2                !
 ! D48   D(26,17,18,30)       -162.9196         estimate D2E/DX2                !
 ! D49   D(16,17,26,25)       -179.704          estimate D2E/DX2                !
 ! D50   D(16,17,26,27)         -3.8813         estimate D2E/DX2                !
 ! D51   D(18,17,26,25)         -3.9442         estimate D2E/DX2                !
 ! D52   D(18,17,26,27)        171.8785         estimate D2E/DX2                !
 ! D53   D(17,18,19,20)         -5.8308         estimate D2E/DX2                !
 ! D54   D(17,18,19,29)        179.3292         estimate D2E/DX2                !
 ! D55   D(30,18,19,20)        167.1761         estimate D2E/DX2                !
 ! D56   D(30,18,19,29)         -7.6639         estimate D2E/DX2                !
 ! D57   D(18,19,20,21)       -172.4638         estimate D2E/DX2                !
 ! D58   D(18,19,20,25)         -5.2866         estimate D2E/DX2                !
 ! D59   D(29,19,20,21)          2.3719         estimate D2E/DX2                !
 ! D60   D(29,19,20,25)        169.5491         estimate D2E/DX2                !
 ! D61   D(19,20,21,22)         39.6981         estimate D2E/DX2                !
 ! D62   D(19,20,21,23)        -81.5767         estimate D2E/DX2                !
 ! D63   D(19,20,21,24)        161.6509         estimate D2E/DX2                !
 ! D64   D(25,20,21,22)       -127.9353         estimate D2E/DX2                !
 ! D65   D(25,20,21,23)        110.7899         estimate D2E/DX2                !
 ! D66   D(25,20,21,24)         -5.9824         estimate D2E/DX2                !
 ! D67   D(19,20,25,26)         11.28           estimate D2E/DX2                !
 ! D68   D(19,20,25,28)       -172.9914         estimate D2E/DX2                !
 ! D69   D(21,20,25,26)        178.2314         estimate D2E/DX2                !
 ! D70   D(21,20,25,28)         -6.04           estimate D2E/DX2                !
 ! D71   D(20,25,26,17)         -6.6025         estimate D2E/DX2                !
 ! D72   D(20,25,26,27)        177.6205         estimate D2E/DX2                !
 ! D73   D(28,25,26,17)        177.199          estimate D2E/DX2                !
 ! D74   D(28,25,26,27)          1.422          estimate D2E/DX2                !
 ! D75   D(16,31,32,33)        166.0773         estimate D2E/DX2                !
 ! D76   D(16,31,32,44)         10.3044         estimate D2E/DX2                !
 ! D77   D(45,31,32,33)        -13.9653         estimate D2E/DX2                !
 ! D78   D(45,31,32,44)       -169.7381         estimate D2E/DX2                !
 ! D79   D(31,32,33,34)          9.2527         estimate D2E/DX2                !
 ! D80   D(31,32,33,35)       -163.7019         estimate D2E/DX2                !
 ! D81   D(44,32,33,34)        164.0168         estimate D2E/DX2                !
 ! D82   D(44,32,33,35)         -8.9378         estimate D2E/DX2                !
 ! D83   D(31,32,44,15)        -11.1433         estimate D2E/DX2                !
 ! D84   D(31,32,44,42)        172.089          estimate D2E/DX2                !
 ! D85   D(33,32,44,15)       -167.1053         estimate D2E/DX2                !
 ! D86   D(33,32,44,42)         16.127          estimate D2E/DX2                !
 ! D87   D(32,33,35,36)       -170.9281         estimate D2E/DX2                !
 ! D88   D(32,33,35,37)         -3.6974         estimate D2E/DX2                !
 ! D89   D(34,33,35,36)         15.9901         estimate D2E/DX2                !
 ! D90   D(34,33,35,37)       -176.7792         estimate D2E/DX2                !
 ! D91   D(33,35,37,38)       -174.1903         estimate D2E/DX2                !
 ! D92   D(33,35,37,42)         11.6839         estimate D2E/DX2                !
 ! D93   D(36,35,37,38)         -6.3797         estimate D2E/DX2                !
 ! D94   D(36,35,37,42)        179.4944         estimate D2E/DX2                !
 ! D95   D(35,37,38,39)        -25.8649         estimate D2E/DX2                !
 ! D96   D(35,37,38,40)       -150.5487         estimate D2E/DX2                !
 ! D97   D(35,37,38,41)         92.1242         estimate D2E/DX2                !
 ! D98   D(42,37,38,39)        148.6624         estimate D2E/DX2                !
 ! D99   D(42,37,38,40)         23.9785         estimate D2E/DX2                !
 ! D100  D(42,37,38,41)        -93.3486         estimate D2E/DX2                !
 ! D101  D(35,37,42,43)        177.5887         estimate D2E/DX2                !
 ! D102  D(35,37,42,44)         -5.7287         estimate D2E/DX2                !
 ! D103  D(38,37,42,43)          3.6947         estimate D2E/DX2                !
 ! D104  D(38,37,42,44)       -179.6227         estimate D2E/DX2                !
 ! D105  D(37,42,44,15)        175.5123         estimate D2E/DX2                !
 ! D106  D(37,42,44,32)         -8.3921         estimate D2E/DX2                !
 ! D107  D(43,42,44,15)         -7.8985         estimate D2E/DX2                !
 ! D108  D(43,42,44,32)        168.197          estimate D2E/DX2                !
 --------------------------------------------------------------------------------
 Trust Radius=3.00D-01 FncErr=1.00D-07 GrdErr=1.00D-06 EigMax=2.50D+02 EigMin=1.00D-04
 Number of steps in this run=    246 maximum allowed number of steps=    270.
 GradGradGradGradGradGradGradGradGradGradGradGradGradGradGradGradGradGrad

 Leave Link  103 at Sun Jul 18 13:40:53 2021, MaxMem=   104857600 cpu:               0.0 elap:               0.0
 (Enter /dades/curu/g16A03_MST/g16/l202.exe)
                          Input orientation:                          
 ---------------------------------------------------------------------
 Center     Atomic      Atomic             Coordinates (Angstroms)
 Number     Number       Type             X           Y           Z
 ---------------------------------------------------------------------
      1          6           0       -1.679000   -3.110000    1.562000
      2          1           0       -0.934000   -3.539000    0.888000
      3          1           0       -2.602000   -3.573000    1.204000
      4          1           0       -1.507000   -3.465000    2.582000
      5          7           0       -1.691000   -1.625000    1.323000
      6          6           0       -2.868000   -1.118000    0.626000
      7          1           0       -3.674000   -1.851000    0.708000
      8          1           0       -2.532000   -0.885000   -0.388000
      9          1           0       -3.255000   -0.192000    1.061000
     10          6           0       -0.618000   -0.923000    1.850000
     11          8           0        0.269000   -1.413000    2.495000
     12          6           0       -0.448000    0.484000    1.476000
     13          1           0        0.321000    1.028000    2.028000
     14          1           0       -1.440000    0.886000    1.690000
     15          6           0       -0.266000    0.710000    0.000000
     16          6           0        0.624000    0.165000   -0.876000
     17          6           0        1.700000   -0.642000   -0.388000
     18          6           0        1.848000   -1.904000   -0.823000
     19          6           0        2.778000   -2.754000   -0.299000
     20          6           0        3.664000   -2.174000    0.647000
     21          6           0        4.798000   -3.009000    1.116000
     22          1           0        5.212000   -3.581000    0.283000
     23          1           0        4.425000   -3.672000    1.899000
     24          1           0        5.596000   -2.421000    1.574000
     25          6           0        3.662000   -0.828000    0.933000
     26          6           0        2.616000   -0.097000    0.448000
     27          1           0        2.546000    0.963000    0.678000
     28          1           0        4.371000   -0.292000    1.559000
     29          1           0        2.888000   -3.778000   -0.646000
     30          1           0        1.253000   -2.165000   -1.694000
     31          7           0        0.626000    0.738000   -2.196000
     32          6           0       -0.421000    1.550000   -2.057000
     33          6           0       -0.666000    2.573000   -3.009000
     34          1           0       -0.106000    2.625000   -3.937000
     35          6           0       -1.530000    3.597000   -2.678000
     36          1           0       -1.878000    4.333000   -3.395000
     37          6           0       -2.199000    3.507000   -1.388000
     38          6           0       -3.231000    4.573000   -1.133000
     39          1           0       -3.074000    5.505000   -1.681000
     40          1           0       -3.254000    4.732000   -0.053000
     41          1           0       -4.182000    4.159000   -1.472000
     42          6           0       -1.874000    2.599000   -0.354000
     43          1           0       -2.374000    2.591000    0.607000
     44          7           0       -0.895000    1.690000   -0.768000
     45          1           0        1.228000    0.576000   -2.978000
 ---------------------------------------------------------------------
                    Distance matrix (angstroms):
                    1          2          3          4          5
     1  C    0.000000
     2  H    1.092402   0.000000
     3  H    1.092914   1.698009   0.000000
     4  H    1.093622   1.789816   1.763398   0.000000
     5  N    1.504158   2.103728   2.153784   2.237082   0.000000
     6  C    2.501576   3.109701   2.536112   3.344647   1.458831
     7  H    2.508869   3.223251   2.088177   3.288276   2.088442
     8  H    3.079080   3.350447   3.124853   4.065455   2.045092
     9  H    3.354028   4.076687   3.446450   4.010171   2.137342
    10  C    2.447781   2.805130   3.372843   2.790683   1.386312
    11  O    2.746817   2.923959   3.817712   2.715225   2.293497
    12  C    3.799946   4.094688   4.601407   4.235483   2.452823
    13  H    4.619545   4.871562   5.512904   4.882166   3.403466
    14  H    4.005187   4.525468   4.633478   4.441999   2.550061
    15  C    4.362203   4.391898   5.024998   5.063342   3.038615
    16  C    4.687566   4.388471   5.357809   5.447552   3.660454
    17  C    4.616402   4.118099   5.443568   5.203372   3.923352
    18  C    4.425199   3.652433   5.166894   5.028595   4.148214
    19  C    4.843027   3.975442   5.645721   5.212188   4.886459
    20  C    5.500997   4.802386   6.444393   5.670110   5.425348
    21  C    6.493123   5.760964   7.421984   6.489231   6.638179
    22  H    7.024497   6.175849   7.868094   7.102381   7.249755
    23  H    6.139074   5.455153   7.061980   5.974777   6.475140
    24  H    7.307564   6.660437   8.286809   7.249732   7.334643
    25  C    5.842041   5.336175   6.844426   6.032539   5.426041
    26  C    5.363412   4.964218   6.315191   5.735548   4.653027
    27  H    5.934763   5.694076   6.881415   6.297556   5.006589
    28  H    6.674102   6.255899   7.714513   6.757614   6.211315
    29  H    5.116540   4.125283   5.796950   5.462049   5.429513
    30  H    4.482319   3.652064   5.024131   5.252787   4.249826
    31  N    5.851726   5.498853   6.369043   6.711496   4.830695
    32  C    6.032854   5.902043   6.452597   6.917365   4.808110
    33  C    7.363199   7.253618   7.698752   8.271880   6.118828
    34  H    8.099602   7.871538   8.430605   9.030408   6.945670
    35  C    7.936224   7.999629   8.223625   8.805678   6.580517
    36  H    8.944814   9.011305   9.174956   9.832140   7.602122
    37  C    7.263442   7.511759   7.550316   8.052860   5.826235
    38  C    8.288559   8.669786   8.497913   9.021244   6.842422
    39  H    9.310279   9.642266   9.537090  10.054330   7.859619
    40  H    8.160013   8.641604   8.424855   8.785559   6.689379
    41  H    8.264897   8.682068   8.333139   9.039686   6.889975
    42  C    6.025094   6.332551   6.407100   6.747361   4.548406
    43  H    5.822066   6.303131   6.197039   6.428643   4.330566
    44  N    5.392917   5.485098   5.873823   6.178274   3.999390
    45  H    6.530608   6.045943   7.026537   7.397534   5.644782
                    6          7          8          9         10
     6  C    0.000000
     7  H    1.092542   0.000000
     8  H    1.093335   1.854329   0.000000
     9  H    1.093833   1.747126   1.761414   0.000000
    10  C    2.568794   3.391826   2.945078   2.847920   0.000000
    11  O    3.663462   4.351145   4.054143   3.995719   1.201205
    12  C    3.024120   4.055752   3.113152   2.916925   1.465751
    13  H    4.091533   5.098143   4.199552   3.900162   2.172511
    14  H    2.680913   3.666913   2.940576   2.202714   1.993430
    15  C    3.240967   4.321394   2.798093   3.297491   2.492608
    16  C    4.012002   5.004609   3.361693   4.350409   3.187065
    17  C    4.703339   5.616295   4.238971   5.182097   3.234305
    18  C    4.995804   5.730554   4.517963   5.702719   3.766755
    19  C    5.950583   6.592250   5.630025   6.694067   4.416286
    20  C    6.616842   7.345359   6.412734   7.209180   4.620361
    21  C    7.910976   8.560503   7.778322   8.531666   5.850061
    22  H    8.454018   9.062810   8.227283   9.153179   6.596162
    23  H    7.831430   8.386198   7.835661   8.473196   5.743801
    24  H    8.616020   9.327795   8.501360   9.141762   6.397967
    25  C    6.543642   7.410401   6.333556   6.947357   4.378163
    26  C    5.581073   6.535152   5.274632   5.903680   3.620309
    27  H    5.800402   6.826998   5.507953   5.927252   3.865421
    28  H    7.345467   8.238732   7.196796   7.642897   5.037158
    29  H    6.467234   6.971835   6.149180   7.315032   5.164598
    30  H    4.843681   5.490312   4.203601   5.639576   4.195610
    31  N    4.859677   5.798805   3.984464   5.151224   4.547150
    32  C    4.506054   5.458391   3.629202   4.559391   4.628087
    33  C    5.628988   6.514287   4.723279   5.559950   5.986167
    34  H    6.516108   7.371650   5.549863   6.544593   6.807336
    35  C    5.910828   6.763315   5.131903   5.595737   6.462579
    36  H    6.845578   7.635580   6.057829   6.498284   7.531478
    37  C    5.088652   5.939445   4.516697   4.560191   5.710438
    38  C    5.967691   6.697261   5.552782   5.245897   6.777321
    39  H    7.016325   7.757452   6.541996   6.325119   7.734280
    40  H    5.901910   6.640136   5.673112   5.048443   6.522954
    41  H    5.828802   6.413311   5.416594   5.119240   7.040206
    42  C    3.970457   4.916334   3.545755   3.420390   4.340465
    43  H    3.741801   4.629424   3.619056   2.954212   4.120289
    44  N    3.704164   4.737098   3.074865   3.529414   3.709235
    45  H    5.712764   6.595948   4.793769   6.082815   5.381849
                   11         12         13         14         15
    11  O    0.000000
    12  C    2.269594   0.000000
    13  H    2.485815   1.091788   0.000000
    14  H    2.975585   1.091542   1.798758   0.000000
    15  C    3.319394   1.504253   2.135059   2.065273   0.000000
    16  C    3.738950   2.604390   3.044634   3.371097   1.362535
    17  C    3.309666   3.058803   3.244626   4.063554   2.417355
    18  C    3.707215   4.032315   4.365381   4.991013   3.461116
    19  C    3.987455   4.903299   5.074968   5.915847   4.621107
    20  C    3.939575   4.965959   4.830695   6.041710   4.917414
    21  C    4.996068   6.312778   6.096937   7.376527   6.381263
    22  H    5.833217   7.069871   6.943327   8.135284   6.964284
    23  H    4.767665   6.418520   6.240950   7.430832   6.694297
    24  H    5.499203   6.706606   6.318809   7.775281   6.829618
    25  C    3.780809   4.348367   3.975681   5.435186   4.320314
    26  C    3.380898   3.283663   3.004838   4.354307   3.026198
    27  H    3.759201   3.135328   2.603334   4.113182   2.903625
    28  H    4.354210   4.881785   4.285424   5.930646   4.993621
    29  H    4.724221   5.813469   6.069382   6.778007   5.523330
    30  H    4.368235   4.467606   4.991709   5.292665   3.666418
    31  N    5.172981   3.834263   4.244915   4.403550   2.370414
    32  C    5.475050   3.690417   4.184528   3.939450   2.227302
    33  C    6.859769   4.952441   5.360276   5.052291   3.561580
    34  H    7.603729   5.831073   6.189827   6.038775   4.380958
    35  C    7.422697   5.302566   5.672072   5.141697   4.135716
    36  H    8.504012   6.370741   6.720681   6.158805   5.220220
    37  C    6.736105   4.517414   4.915780   4.113369   3.672362
    38  C    7.825892   5.592128   5.930906   4.977045   4.999768
    39  H    8.744904   6.486368   6.732476   5.947164   5.805398
    40  H    7.527606   5.315730   5.552549   4.595689   5.010732
    41  H    8.160617   6.011579   6.506164   5.313129   5.421941
    42  C    5.367066   3.139363   3.599999   2.701974   2.505853
    43  H    5.155774   2.983972   3.424213   2.225370   2.889684
    44  N    4.650879   2.586461   3.120019   2.642954   1.394943
    45  H    5.901655   4.759785   5.107542   5.385587   3.334438
                   16         17         18         19         20
    16  C    0.000000
    17  C    1.430793   0.000000
    18  C    2.404526   1.343046   0.000000
    19  C    3.673310   2.372878   1.364542   0.000000
    20  C    4.126990   2.697322   2.351947   1.419969   0.000000
    21  C    5.609333   4.178793   3.699087   2.479446   1.484298
    22  H    6.035358   4.628402   3.918171   2.635718   2.123311
    23  H    6.072133   4.672996   4.144398   2.895952   2.095383
    24  H    6.116427   4.710955   4.478884   3.400021   2.157073
    25  C    3.672598   2.372568   2.744432   2.451276   1.376051
    26  C    2.406176   1.354613   2.338913   2.764761   2.334916
    27  H    2.597269   2.104304   3.310573   3.850252   3.330413
    28  H    4.492002   3.323785   3.825964   3.471492   2.207604
    29  H    4.552565   3.363392   2.150536   1.086777   2.201554
    30  H    2.548267   2.055474   1.086640   2.149086   3.360548
    31  N    1.439004   2.515301   3.218474   4.519267   5.078566
    32  C    2.098812   3.476933   4.312915   5.643455   6.153618
    33  C    3.465870   4.775335   5.580531   6.897983   7.392513
    34  H    3.994274   5.150760   5.833263   7.105360   7.632585
    35  C    4.434585   5.800528   6.716614   8.034532   8.446165
    36  H    5.475179   6.826035   7.707038   9.027132   9.454765
    37  C    4.404593   5.780692   6.780587   8.071962   8.413665
    38  C    5.861530   7.215678   8.236739   9.512548   9.809762
    39  H    6.545138   7.889774   8.936192  10.216012  10.477942
    40  H    6.047620   7.316708   8.405938   9.616950   9.800080
    41  H    6.277331   7.669588   8.575667   9.879630  10.303241
    42  C    3.526591   4.824802   5.860909   7.092160   7.379226
    43  H    4.131921   5.295261   6.330498   7.478834   7.691831
    44  N    2.155145   3.509508   4.521494   5.784464   6.141433
    45  H    2.225341   2.900760   3.343475   4.546256   5.161126
                   21         22         23         24         25
    21  C    0.000000
    22  H    1.092002   0.000000
    23  H    1.091690   1.799752   0.000000
    24  H    1.091930   1.777565   1.744095   0.000000
    25  C    2.465917   3.225525   3.098977   2.586288   0.000000
    26  C    3.699607   4.347953   4.261280   3.943254   1.365175
    27  H    4.586952   5.283135   5.148272   4.642927   2.125597
    28  H    2.785797   3.626703   3.397487   2.456317   1.087131
    29  H    2.710001   2.510543   2.975001   3.755411   3.434358
    30  H    4.601680   4.646210   5.024170   5.441232   3.806833
    31  N    6.512675   6.769830   7.116848   6.992359   4.632526
    32  C    7.621704   7.970787   8.148800   8.072007   5.591589
    33  C    8.833439   9.124684   9.434340   9.228032   6.770358
    34  H    9.017981   9.198041   9.707784   9.399257   7.059599
    35  C    9.903396  10.283276  10.452240  10.250644   7.718602
    36  H   10.900599  11.243984  11.481911  11.232460   8.721187
    37  C    9.883637  10.390135  10.306298  10.231161   7.650529
    38  C   11.269852  11.822733  11.652784  11.582738   8.997367
    39  H   11.928109  12.452730  12.380175  12.189561   9.607996
    40  H   11.230510  11.869794  11.550089  11.495001   8.928429
    41  H   11.777876  12.297758  12.114811  12.173077   9.601173
    42  C    8.838900   9.423883   9.169452   9.204264   6.636866
    43  H    9.113543   9.784986   9.333854   9.464467   6.944720
    44  N    7.618419   8.135324   8.010389   8.032333   5.477223
    45  H    6.508299   6.617177   7.214669   6.984421   4.815755
                   26         27         28         29         30
    26  C    0.000000
    27  H    1.086922   0.000000
    28  H    2.086234   2.383655   0.000000
    29  H    3.849751   4.934270   4.383322   0.000000
    30  H    3.274532   4.133112   4.879760   2.524539   0.000000
    31  N    3.412926   3.463654   5.402402   5.283313   3.012066
    32  C    4.267435   4.077730   6.279465   6.428685   4.090876
    33  C    5.463632   5.148108   7.378768   7.651790   5.278298
    34  H    5.834963   5.576161   7.665405   7.796995   5.460955
    35  C    6.372349   5.900379   8.240042   8.833933   6.474101
    36  H    7.388477   6.893330   9.218608   9.801024   7.410841
    37  C    6.288397   5.766742   8.141383   8.916241   6.646918
    38  C    7.648259   7.048798   9.418359  10.364291   8.113053
    39  H    8.263846   7.601253   9.976514  11.081099   8.806361
    40  H    7.617555   6.955553   9.272526  10.511704   8.400865
    41  H    8.246984   7.752606  10.107036  10.661292   8.341552
    42  C    5.298275   4.824720   7.142652   7.964172   5.854009
    43  H    5.670161   5.182839   7.396825   8.356005   6.408531
    44  N    4.123002   3.802621   6.088843   6.650188   4.509147
    45  H    3.757253   3.905538   5.587150   5.210676   3.026939
                   31         32         33         34         35
    31  N    0.000000
    32  C    1.332244   0.000000
    33  C    2.386935   1.418752   0.000000
    34  H    2.669770   2.188436   1.085121   0.000000
    35  C    3.613107   2.409508   1.380084   2.134863   0.000000
    36  H    4.542207   3.414408   2.171529   2.520121   1.084845
    37  C    4.037431   2.727397   2.418695   3.414085   1.455940
    38  C    5.541989   4.229469   3.754810   4.628471   2.496598
    39  H    6.056361   4.777218   4.019785   4.710940   2.649228
    40  H    5.966480   4.708187   4.482963   5.425386   3.339315
    41  H    5.945106   4.614567   4.152110   5.004314   2.967050
    42  C    3.620260   2.472209   2.917013   3.995546   2.552512
    43  H    4.504489   3.463349   3.999130   5.078673   3.537739
    44  N    2.293235   1.380506   2.419548   3.396956   2.772720
    45  H    1.000086   2.125116   2.752491   2.626335   4.101586
                   36         37         38         39         40
    36  H    0.000000
    37  C    2.193938   0.000000
    38  C    2.646668   1.505458   0.000000
    39  H    2.396204   2.200790   1.092509   0.000000
    40  H    3.636144   2.096634   1.091884   1.811163   0.000000
    41  H    3.006097   2.089126   1.091200   1.755865   1.789713
    42  C    3.500636   1.413947   2.518922   3.412589   2.558259
    43  H    4.392788   2.202205   2.773152   3.770456   2.407048
    44  N    3.853942   2.320841   3.728513   4.487297   3.915338
    45  H    4.892461   4.781547   6.265997   6.669667   6.776156
                   41         42         43         44         45
    41  H    0.000000
    42  C    3.001731   0.000000
    43  H    3.170131   1.083321   0.000000
    44  N    4.170845   1.398613   2.211304   0.000000
    45  H    6.661383   4.538756   5.466887   3.260709   0.000000
 Stoichiometry    C19H22N3O(1+)
 Framework group  C1[X(C19H22N3O)]
 Deg. of freedom   129
 Full point group                 C1      NOp   1
 Largest Abelian subgroup         C1      NOp   1
 Largest concise Abelian subgroup C1      NOp   1
                         Standard orientation:                         
 ---------------------------------------------------------------------
 Center     Atomic      Atomic             Coordinates (Angstroms)
 Number     Number       Type             X           Y           Z
 ---------------------------------------------------------------------
      1          6           0       -1.635003    3.512872   -1.062638
      2          1           0       -2.198791    2.765929   -1.626163
      3          1           0       -1.267771    4.166978   -1.857465
      4          1           0       -2.314863    4.101322   -0.440122
      5          7           0       -0.499874    2.794647   -0.385790
      6          6           0        0.821675    3.055770   -0.945709
      7          1           0        0.785742    3.979323   -1.528297
      8          1           0        1.092138    2.150762   -1.496337
      9          1           0        1.586399    3.210541   -0.179085
     10          6           0       -0.845417    2.030937    0.718389
     11          8           0       -1.955358    1.944334    1.169415
     12          6           0        0.161692    1.136149    1.295892
     13          1           0       -0.111569    0.670147    2.244666
     14          1           0        1.006528    1.815381    1.423797
     15          6           0        0.669234    0.086834    0.345043
     16          6           0       -0.005142   -0.832187   -0.401361
     17          6           0       -1.410057   -1.017317   -0.203597
     18          6           0       -2.261924   -0.864472   -1.230599
     19          6           0       -3.616332   -0.906312   -1.069956
     20          6           0       -4.061432   -1.250838    0.233692
     21          6           0       -5.516897   -1.477520    0.416389
     22          1           0       -5.923070   -2.016247   -0.442253
     23          1           0       -5.996433   -0.503372    0.529823
     24          1           0       -5.747849   -2.034805    1.326558
     25          6           0       -3.195611   -1.626659    1.235006
     26          6           0       -1.864469   -1.431268    1.003519
     27          1           0       -1.140871   -1.674908    1.777112
     28          1           0       -3.459806   -2.004464    2.219545
     29          1           0       -4.303038   -0.771630   -1.901448
     30          1           0       -1.798087   -0.816485   -2.212097
     31          7           0        0.813266   -1.802048   -1.079824
     32          6           0        2.006992   -1.288656   -0.786020
     33          6           0        3.185213   -2.052793   -0.987885
     34          1           0        3.158871   -2.999886   -1.516856
     35          6           0        4.353429   -1.649284   -0.373813
     36          1           0        5.319681   -2.092396   -0.590370
     37          6           0        4.308322   -0.405092    0.380981
     38          6           0        5.636286    0.060975    0.915487
     39          1           0        6.369400   -0.732183    1.079871
     40          1           0        5.425225    0.619286    1.829791
     41          1           0        6.049996    0.726477    0.156099
     42          6           0        3.135379    0.301010    0.734349
     43          1           0        3.144657    1.205481    1.330530
     44          7           0        2.002008   -0.278380    0.154784
     45          1           0        0.562948   -2.612357   -1.609836
 ---------------------------------------------------------------------
 Rotational constants (GHZ):           0.4382633           0.1782571           0.1446787
 Leave Link  202 at Sun Jul 18 13:40:53 2021, MaxMem=   104857600 cpu:               0.1 elap:               0.0
 (Enter /dades/curu/g16A03_MST/g16/l301.exe)
 Standard basis: 6-31G(d) (6D, 7F)
 Ernie: Thresh=  0.10000D-02 Tol=  0.10000D-05 Strict=F.
 There are   389 symmetry adapted cartesian basis functions of A   symmetry.
 There are   389 symmetry adapted basis functions of A   symmetry.
   389 basis functions,   732 primitive gaussians,   389 cartesian basis functions
    82 alpha electrons       82 beta electrons
       nuclear repulsion energy      1934.8637301934 Hartrees.
 IExCor=  402 DFT=T Ex+Corr=B3LYP ExCW=0 ScaHFX=  0.200000
 ScaDFX=  0.800000  0.720000  1.000000  0.810000 ScalE2=  1.000000  1.000000
 IRadAn=      5 IRanWt=     -1 IRanGd=            0 ICorTp=0 IEmpDi=  4
 NAtoms=   45 NActive=   45 NUniq=   45 SFac= 1.00D+00 NAtFMM=   60 NAOKFM=F Big=F
 Integral buffers will be    131072 words long.
 Raffenetti 2 integral format.
 Two-electron integral symmetry is turned on.
 Using the following non-standard input for PCM:
 MSTModel=DFT cav MSTCharged
 --- end of non-standard input.
 MST model for solvation energy: B3LYP parametrization.
 MST cavity parameters:
 ISph   IAn     Re0     Alpha   Atom Type   QCorr
 ------------------------------------------------
   1      6     1.50     1.50      CH3        F
   2      1     1.20     1.50      CH3        F
   3      1     1.20     1.50      CH3        F
   4      1     1.20     1.50      CH3        F
   5      7     1.50     1.50      N          F
   6      6     1.50     1.50      CH3        F
   7      1     1.20     1.50      CH3        F
   8      1     1.20     1.50      CH3        F
   9      1     1.20     1.50      CH3        F
  10      6     1.50     1.50      C          F
  11      8     1.40     1.50      O          F
  12      6     1.50     1.50      CH2        F
  13      1     1.20     1.50      CH2        F
  14      1     1.20     1.50      CH2        F
  15      6     1.50     1.50      C          F
  16      6     1.50     1.50      C          F
  17      6     1.50     1.50      C          F
  18      6     1.50     1.50      CH         F
  19      6     1.50     1.50      CH         F
  20      6     1.50     1.50      C          F
  21      6     1.50     1.50      CH3        F
  22      1     1.20     1.50      CH3        F
  23      1     1.20     1.50      CH3        F
  24      1     1.20     1.50      CH3        F
  25      6     1.50     1.50      CH         F
  26      6     1.50     1.50      CH         F
  27      1     1.20     1.50      CH         F
  28      1     1.20     1.50      CH         F
  29      1     1.20     1.50      CH         F
  30      1     1.20     1.50      CH         F
  31      7     1.50     1.15      NHc        T
  32      6     1.50     1.50      C          F
  33      6     1.50     1.50      CH         F
  34      1     1.20     1.50      CH         F
  35      6     1.50     1.50      CH         F
  36      1     1.20     1.50      CH         F
  37      6     1.50     1.50      C          F
  38      6     1.50     1.50      CH3        F
  39      1     1.20     1.50      CH3        F
  40      1     1.20     1.50      CH3        F
  41      1     1.20     1.50      CH3        F
  42      6     1.50     1.50      CH         F
  43      1     1.20     1.50      CH         F
  44      7     1.50     1.50      Nc         F
  45      1     0.90     1.15      NHc        T
 ------------------------------------------------------------------------------
 Polarizable Continuum Model (PCM)
 =================================
 Model                : PCM.
 Atomic radii         : MST.
 Polarization charges : Total charges.
 Charge compensation  : None.
 Solution method      : On-the-fly selection.
 Cavity type          : Scaled VdW (van der Waals Surface) (Alpha=1.500).
 Cavity algorithm     : GePol (No added spheres)
                        Default sphere list used, NSphG=   45.
                        Lebedev-Laikov grids with approx.  5.0 points / Ang**2.
                        Smoothing algorithm: York/Karplus (Gamma=1.0000).
                        Polarization charges: spherical gaussians, with
                                              point-specific exponents (IZeta= 3).
                        Self-potential: point-specific (ISelfS= 7).
                        Self-field    : sphere-specific E.n sum rule (ISelfD= 2).
 1st derivatives      : Analytical E(r).r(x)/FMM algorithm (CHGder, D1EAlg=3).
                        Cavity 1st derivative terms included.
 Solvent              : n-Octanol, Eps=   9.862900 Eps(inf)=   2.043470
 ------------------------------------------------------------------------------
 GePol: Number of generator spheres                  =      45
 GePol: Total number of spheres                      =      45
 GePol: Number of exposed spheres                    =      45 (100.00%)
 GePol: Number of points                             =    4141
 GePol: Average weight of points                     =       0.10
 GePol: Minimum weight of points                     =   0.27D-11
 GePol: Maximum weight of points                     =    0.20676
 GePol: Number of points with low weight             =     242
 GePol: Fraction of low-weight points (<1% of avg)   =       5.84%
 GePol: Cavity surface area                          =    427.447 Ang**2
 GePol: Cavity volume                                =    516.530 Ang**3
 Surface areas from nonelectrostatic (unscaled) cavity and vdw tensions:
 Sphere =    1 Type =  CH3 Surf =        5.037 Tension =       -0.183
 Sphere =    2 Type =  CH3 Surf =       10.010 Tension =       -0.183
 Sphere =    3 Type =  CH3 Surf =        9.136 Tension =       -0.183
 Sphere =    4 Type =  CH3 Surf =       10.215 Tension =       -0.183
 Sphere =    5 Type =  N   Surf =        6.068 Tension =       -0.115
 Sphere =    6 Type =  CH3 Surf =        5.124 Tension =       -0.183
 Sphere =    7 Type =  CH3 Surf =        9.158 Tension =       -0.183
 Sphere =    8 Type =  CH3 Surf =       10.053 Tension =       -0.183
 Sphere =    9 Type =  CH3 Surf =        9.464 Tension =       -0.183
 Sphere =   10 Type =  C   Surf =        6.037 Tension =       -0.205
 Sphere =   11 Type =  O   Surf =       15.972 Tension =       -0.185
 Sphere =   12 Type =  CH2 Surf =        3.943 Tension =       -0.194
 Sphere =   13 Type =  CH2 Surf =       10.081 Tension =       -0.194
 Sphere =   14 Type =  CH2 Surf =        7.999 Tension =       -0.194
 Sphere =   15 Type =  C   Surf =        6.188 Tension =       -0.205
 Sphere =   16 Type =  C   Surf =        5.730 Tension =       -0.205
 Sphere =   17 Type =  C   Surf =        5.571 Tension =       -0.205
 Sphere =   18 Type =  CH  Surf =        7.317 Tension =       -0.195
 Sphere =   19 Type =  CH  Surf =        7.792 Tension =       -0.195
 Sphere =   20 Type =  C   Surf =        6.062 Tension =       -0.205
 Sphere =   21 Type =  CH3 Surf =        5.184 Tension =       -0.183
 Sphere =   22 Type =  CH3 Surf =       10.081 Tension =       -0.183
 Sphere =   23 Type =  CH3 Surf =       10.071 Tension =       -0.183
 Sphere =   24 Type =  CH3 Surf =        9.998 Tension =       -0.183
 Sphere =   25 Type =  CH  Surf =        7.574 Tension =       -0.195
 Sphere =   26 Type =  CH  Surf =        7.315 Tension =       -0.195
 Sphere =   27 Type =  CH  Surf =       10.152 Tension =       -0.195
 Sphere =   28 Type =  CH  Surf =       10.205 Tension =       -0.195
 Sphere =   29 Type =  CH  Surf =       10.253 Tension =       -0.195
 Sphere =   30 Type =  CH  Surf =       10.097 Tension =       -0.195
 Sphere =   31 Type =  NHc Surf =       11.194 Tension =       -0.295
 Sphere =   32 Type =  C   Surf =        5.835 Tension =       -0.205
 Sphere =   33 Type =  CH  Surf =        7.757 Tension =       -0.195
 Sphere =   34 Type =  CH  Surf =       10.221 Tension =       -0.195
 Sphere =   35 Type =  CH  Surf =        7.875 Tension =       -0.195
 Sphere =   36 Type =  CH  Surf =       10.117 Tension =       -0.195
 Sphere =   37 Type =  C   Surf =        6.242 Tension =       -0.205
 Sphere =   38 Type =  CH3 Surf =        5.277 Tension =       -0.183
 Sphere =   39 Type =  CH3 Surf =       10.065 Tension =       -0.183
 Sphere =   40 Type =  CH3 Surf =        9.877 Tension =       -0.183
 Sphere =   41 Type =  CH3 Surf =       10.042 Tension =       -0.183
 Sphere =   42 Type =  CH  Surf =        7.926 Tension =       -0.195
 Sphere =   43 Type =  CH  Surf =        9.636 Tension =       -0.195
 Sphere =   44 Type =  Nc  Surf =        5.966 Tension =       -0.161
 Sphere =   45 Type =  NHc Surf =        3.865 Tension =       -0.295
 PCM non-electrostatic energy =        -0.0172696196 Hartrees.
 Nuclear repulsion after PCM non-electrostatic terms =     1934.8464605738 Hartrees.
 Leave Link  301 at Sun Jul 18 13:40:53 2021, MaxMem=   104857600 cpu:               0.2 elap:               0.7
 (Enter /dades/curu/g16A03_MST/g16/l302.exe)
 NPDir=0 NMtPBC=     1 NCelOv=     1 NCel=       1 NClECP=     1 NCelD=      1
         NCelK=      1 NCelE2=     1 NClLst=     1 CellRange=     0.0.
 One-electron integrals computed using PRISM.
 One-electron integral symmetry used in STVInt
 NBasis=   389 RedAO= T EigKep=  4.19D-04  NBF=   389
 NBsUse=   389 1.00D-06 EigRej= -1.00D+00 NBFU=   389
 Precomputing XC quadrature grid using
 IXCGrd= 4 IRadAn=           5 IRanWt=          -1 IRanGd=           0 AccXCQ= 0.00D+00.
 Generated NRdTot=       0 NPtTot=           0 NUsed=           0 NTot=          32
 NSgBfM=   386   386   386   386   386 MxSgAt=    45 MxSgA2=    45.
 Leave Link  302 at Sun Jul 18 13:40:56 2021, MaxMem=   104857600 cpu:               8.1 elap:               2.3
 (Enter /dades/curu/g16A03_MST/g16/l303.exe)
 DipDrv:  MaxL=1.
 Leave Link  303 at Sun Jul 18 13:40:56 2021, MaxMem=   104857600 cpu:               0.1 elap:               0.1
 (Enter /dades/curu/g16A03_MST/g16/l401.exe)
 ExpMin= 1.61D-01 ExpMax= 5.48D+03 ExpMxC= 8.25D+02 IAcc=3 IRadAn=         5 AccDes= 0.00D+00
 Harris functional with IExCor=  402 and IRadAn=       5 diagonalized for initial guess.
 HarFok:  IExCor=  402 AccDes= 0.00D+00 IRadAn=         5 IDoV= 1 UseB2=F ITyADJ=14
 ICtDFT=  3500011 ScaDFX=  1.000000  1.000000  1.000000  1.000000
 FoFCou: FMM=F IPFlag=           0 FMFlag=      100000 FMFlg1=           0
         NFxFlg=           0 DoJE=T BraDBF=F KetDBF=T FulRan=T
         wScrn=  0.000000 ICntrl=       500 IOpCl=  0 I1Cent=   200000004 NGrid=           0
         NMat0=    1 NMatS0=      1 NMatT0=    0 NMatD0=    1 NMtDS0=    0 NMtDT0=    0
 Petite list used in FoFCou.
 Harris En= -976.522643147280    
 JPrj=0 DoOrth=F DoCkMO=F.
 Leave Link  401 at Sun Jul 18 13:41:11 2021, MaxMem=   104857600 cpu:              55.2 elap:              14.3
 (Enter /dades/curu/g16A03_MST/g16/l502.exe)
 Integral symmetry usage will be decided dynamically.
 Closed shell SCF:
 Using DIIS extrapolation, IDIIS=  1040.
 NGot=   104857600 LenX=   104548198 LenY=   104396436
 Requested convergence on RMS density matrix=1.00D-08 within 128 cycles.
 Requested convergence on MAX density matrix=1.00D-06.
 Requested convergence on             energy=1.00D-06.
 No special actions if energy rises.
 Fock matrices will be formed incrementally for  20 cycles.

 Cycle   1  Pass 1  IDiag  1:
 FoFJK:  IHMeth= 1 ICntrl=       0 DoSepK=F KAlg= 0 I1Cent=           0 FoldK=F
 IRaf= 770000000 NMat=       1 IRICut=       1 DoRegI=T DoRafI=F ISym2E= 0 IDoP0=0 IntGTp=1.
 FoFCou: FMM=F IPFlag=           0 FMFlag=      100000 FMFlg1=           0
         NFxFlg=           0 DoJE=F BraDBF=F KetDBF=F FulRan=T
         wScrn=  0.000000 ICntrl=         0 IOpCl=  0 I1Cent=           0 NGrid=           0
         NMat0=    1 NMatS0=      1 NMatT0=    0 NMatD0=    1 NMtDS0=    0 NMtDT0=    0
 Symmetry not used in FoFCou.
 Inv3:  Mode=1 IEnd=    51443643.
 Iteration    1 A*A^-1 deviation from unit magnitude is 8.88D-15 for   4126.
 Iteration    1 A*A^-1 deviation from orthogonality  is 3.61D-15 for   4137   2262.
 Iteration    1 A^-1*A deviation from unit magnitude is 8.66D-15 for   4126.
 Iteration    1 A^-1*A deviation from orthogonality  is 2.53D-15 for   4128   2105.
 E= -976.002041897048    
 DIIS: error= 3.10D-02 at cycle   1 NSaved=   1.
 NSaved= 1 IEnMin= 1 EnMin= -976.002041897048     IErMin= 1 ErrMin= 3.10D-02
 ErrMax= 3.10D-02  0.00D+00 EMaxC= 1.00D-01 BMatC= 5.52D-01 BMatP= 5.52D-01
 IDIUse=3 WtCom= 6.90D-01 WtEn= 3.10D-01
 Coeff-Com:  0.100D+01
 Coeff-En:   0.100D+01
 Coeff:      0.100D+01
 Gap=     0.253 Goal=   None    Shift=    0.000
 GapD=    0.253 DampG=1.000 DampE=0.500 DampFc=0.5000 IDamp=-1.
 Damping current iteration by 5.00D-01
 RMSDP=4.99D-03 MaxDP=2.18D-01              OVMax= 3.14D-01

 Cycle   2  Pass 1  IDiag  1:
 RMSU=  2.47D-03    CP:  9.79D-01
 E= -976.199097856958     Delta-E=       -0.197055959910 Rises=F Damp=T
 DIIS: error= 1.13D-02 at cycle   2 NSaved=   2.
 NSaved= 2 IEnMin= 2 EnMin= -976.199097856958     IErMin= 2 ErrMin= 1.13D-02
 ErrMax= 1.13D-02  0.00D+00 EMaxC= 1.00D-01 BMatC= 7.08D-02 BMatP= 5.52D-01
 IDIUse=3 WtCom= 8.87D-01 WtEn= 1.13D-01
 Coeff-Com:  0.155D+00 0.845D+00
 Coeff-En:   0.247D+00 0.753D+00
 Coeff:      0.166D+00 0.834D+00
 Gap=     0.235 Goal=   None    Shift=    0.000
 RMSDP=1.67D-03 MaxDP=1.02D-01 DE=-1.97D-01 OVMax= 1.85D-01

 Cycle   3  Pass 1  IDiag  1:
 RMSU=  1.48D-03    CP:  9.63D-01  7.02D-01
 E= -976.484594550371     Delta-E=       -0.285496693413 Rises=F Damp=F
 DIIS: error= 1.60D-02 at cycle   3 NSaved=   3.
 NSaved= 3 IEnMin= 3 EnMin= -976.484594550371     IErMin= 2 ErrMin= 1.13D-02
 ErrMax= 1.60D-02  0.00D+00 EMaxC= 1.00D-01 BMatC= 7.90D-02 BMatP= 7.08D-02
 IDIUse=2 WtCom= 0.00D+00 WtEn= 1.00D+00
 Coeff-En:   0.000D+00 0.000D+00 0.100D+01
 Coeff:      0.000D+00 0.000D+00 0.100D+01
 Gap=     0.193 Goal=   None    Shift=    0.000
 RMSDP=2.37D-03 MaxDP=1.71D-01 DE=-2.85D-01 OVMax= 2.33D-01

 Cycle   4  Pass 1  IDiag  1:
 RMSU=  1.32D-03    CP:  9.72D-01  1.19D+00 -5.25D-02
 E= -976.206806804253     Delta-E=        0.277787746118 Rises=F Damp=F
 DIIS: error= 3.97D-02 at cycle   4 NSaved=   4.
 NSaved= 4 IEnMin= 3 EnMin= -976.484594550371     IErMin= 2 ErrMin= 1.13D-02
 ErrMax= 3.97D-02  0.00D+00 EMaxC= 1.00D-01 BMatC= 4.05D-01 BMatP= 7.08D-02
 IDIUse=2 WtCom= 0.00D+00 WtEn= 1.00D+00
 Coeff-En:   0.000D+00 0.000D+00 0.779D+00 0.221D+00
 Coeff:      0.000D+00 0.000D+00 0.779D+00 0.221D+00
 Gap=     0.157 Goal=   None    Shift=    0.000
 RMSDP=1.31D-03 MaxDP=1.11D-01 DE= 2.78D-01 OVMax= 1.04D-01

 Cycle   5  Pass 1  IDiag  1:
 RMSU=  2.37D-04    CP:  9.69D-01  8.84D-01  4.91D-01  4.89D-01
 E= -976.533104464712     Delta-E=       -0.326297660459 Rises=F Damp=F
 DIIS: error= 8.56D-03 at cycle   5 NSaved=   5.
 NSaved= 5 IEnMin= 5 EnMin= -976.533104464712     IErMin= 5 ErrMin= 8.56D-03
 ErrMax= 8.56D-03  0.00D+00 EMaxC= 1.00D-01 BMatC= 2.52D-02 BMatP= 7.08D-02
 IDIUse=3 WtCom= 9.14D-01 WtEn= 8.56D-02
 Coeff-Com:  0.198D-02 0.112D-01 0.343D+00-0.170D-01 0.661D+00
 Coeff-En:   0.000D+00 0.000D+00 0.289D+00 0.000D+00 0.711D+00
 Coeff:      0.181D-02 0.103D-01 0.338D+00-0.156D-01 0.666D+00
 Gap=     0.174 Goal=   None    Shift=    0.000
 RMSDP=4.34D-04 MaxDP=2.32D-02 DE=-3.26D-01 OVMax= 4.06D-02

 Cycle   6  Pass 1  IDiag  1:
 RMSU=  9.09D-05    CP:  9.67D-01  8.07D-01  6.81D-01  3.09D-01  6.37D-01
 E= -976.555580247668     Delta-E=       -0.022475782956 Rises=F Damp=F
 DIIS: error= 6.47D-04 at cycle   6 NSaved=   6.
 NSaved= 6 IEnMin= 6 EnMin= -976.555580247668     IErMin= 6 ErrMin= 6.47D-04
 ErrMax= 6.47D-04  0.00D+00 EMaxC= 1.00D-01 BMatC= 4.15D-04 BMatP= 2.52D-02
 IDIUse=3 WtCom= 9.94D-01 WtEn= 6.47D-03
 Coeff-Com: -0.411D-02 0.972D-02 0.137D+00-0.469D-01 0.426D+00 0.478D+00
 Coeff-En:   0.000D+00 0.000D+00 0.000D+00 0.000D+00 0.000D+00 0.100D+01
 Coeff:     -0.408D-02 0.966D-02 0.136D+00-0.466D-01 0.423D+00 0.481D+00
 Gap=     0.164 Goal=   None    Shift=    0.000
 RMSDP=5.54D-05 MaxDP=2.59D-03 DE=-2.25D-02 OVMax= 6.99D-03

 Cycle   7  Pass 1  IDiag  1:
 RMSU=  2.27D-05    CP:  9.67D-01  8.14D-01  6.74D-01  3.15D-01  7.40D-01
                    CP:  5.69D-01
 E= -976.555976180227     Delta-E=       -0.000395932559 Rises=F Damp=F
 DIIS: error= 1.20D-04 at cycle   7 NSaved=   7.
 NSaved= 7 IEnMin= 7 EnMin= -976.555976180227     IErMin= 7 ErrMin= 1.20D-04
 ErrMax= 1.20D-04  0.00D+00 EMaxC= 1.00D-01 BMatC= 1.71D-05 BMatP= 4.15D-04
 IDIUse=3 WtCom= 9.99D-01 WtEn= 1.20D-03
 Coeff-Com: -0.240D-02 0.543D-02 0.536D-01-0.269D-01 0.194D+00 0.254D+00
 Coeff-Com:  0.522D+00
 Coeff-En:   0.000D+00 0.000D+00 0.000D+00 0.000D+00 0.000D+00 0.000D+00
 Coeff-En:   0.100D+01
 Coeff:     -0.239D-02 0.543D-02 0.536D-01-0.269D-01 0.194D+00 0.254D+00
 Coeff:      0.523D+00
 Gap=     0.164 Goal=   None    Shift=    0.000
 RMSDP=1.21D-05 MaxDP=5.17D-04 DE=-3.96D-04 OVMax= 1.28D-03

 Cycle   8  Pass 1  IDiag  1:
 RMSU=  7.75D-06    CP:  9.67D-01  8.13D-01  6.75D-01  3.13D-01  7.44D-01
                    CP:  5.88D-01  6.24D-01
 E= -976.555990979648     Delta-E=       -0.000014799421 Rises=F Damp=F
 DIIS: error= 5.54D-05 at cycle   8 NSaved=   8.
 NSaved= 8 IEnMin= 8 EnMin= -976.555990979648     IErMin= 8 ErrMin= 5.54D-05
 ErrMax= 5.54D-05  0.00D+00 EMaxC= 1.00D-01 BMatC= 1.71D-06 BMatP= 1.71D-05
 IDIUse=1 WtCom= 1.00D+00 WtEn= 0.00D+00
 Coeff-Com: -0.552D-03 0.115D-02 0.134D-01-0.781D-02 0.498D-01 0.716D-01
 Coeff-Com:  0.273D+00 0.600D+00
 Coeff:     -0.552D-03 0.115D-02 0.134D-01-0.781D-02 0.498D-01 0.716D-01
 Coeff:      0.273D+00 0.600D+00
 Gap=     0.164 Goal=   None    Shift=    0.000
 RMSDP=4.52D-06 MaxDP=2.30D-04 DE=-1.48D-05 OVMax= 4.52D-04

 Cycle   9  Pass 1  IDiag  1:
 RMSU=  3.20D-06    CP:  9.67D-01  8.13D-01  6.76D-01  3.13D-01  7.47D-01
                    CP:  5.86D-01  6.59D-01  6.50D-01
 E= -976.555992220304     Delta-E=       -0.000001240656 Rises=F Damp=F
 DIIS: error= 1.96D-05 at cycle   9 NSaved=   9.
 NSaved= 9 IEnMin= 9 EnMin= -976.555992220304     IErMin= 9 ErrMin= 1.96D-05
 ErrMax= 1.96D-05  0.00D+00 EMaxC= 1.00D-01 BMatC= 3.57D-07 BMatP= 1.71D-06
 IDIUse=1 WtCom= 1.00D+00 WtEn= 0.00D+00
 Coeff-Com:  0.859D-05-0.176D-03 0.211D-02-0.136D-02 0.687D-02 0.133D-01
 Coeff-Com:  0.104D+00 0.383D+00 0.492D+00
 Coeff:      0.859D-05-0.176D-03 0.211D-02-0.136D-02 0.687D-02 0.133D-01
 Coeff:      0.104D+00 0.383D+00 0.492D+00
 Gap=     0.164 Goal=   None    Shift=    0.000
 RMSDP=1.81D-06 MaxDP=7.04D-05 DE=-1.24D-06 OVMax= 1.64D-04

 Cycle  10  Pass 1  IDiag  1:
 RMSU=  8.58D-07    CP:  9.67D-01  8.13D-01  6.76D-01  3.13D-01  7.46D-01
                    CP:  5.86D-01  6.72D-01  7.45D-01  6.05D-01
 E= -976.555992565665     Delta-E=       -0.000000345361 Rises=F Damp=F
 DIIS: error= 4.13D-06 at cycle  10 NSaved=  10.
 NSaved=10 IEnMin=10 EnMin= -976.555992565665     IErMin=10 ErrMin= 4.13D-06
 ErrMax= 4.13D-06  0.00D+00 EMaxC= 1.00D-01 BMatC= 1.83D-08 BMatP= 3.57D-07
 IDIUse=1 WtCom= 1.00D+00 WtEn= 0.00D+00
 Coeff-Com:  0.512D-04-0.207D-03 0.123D-03-0.106D-03-0.198D-03 0.187D-02
 Coeff-Com:  0.334D-01 0.158D+00 0.257D+00 0.550D+00
 Coeff:      0.512D-04-0.207D-03 0.123D-03-0.106D-03-0.198D-03 0.187D-02
 Coeff:      0.334D-01 0.158D+00 0.257D+00 0.550D+00
 Gap=     0.164 Goal=   None    Shift=    0.000
 RMSDP=4.19D-07 MaxDP=2.67D-05 DE=-3.45D-07 OVMax= 4.02D-05

 Cycle  11  Pass 1  IDiag  1:
 RMSU=  2.94D-07    CP:  9.67D-01  8.13D-01  6.76D-01  3.13D-01  7.45D-01
                    CP:  5.87D-01  6.76D-01  7.45D-01  6.35D-01  7.22D-01
 E= -976.555992582570     Delta-E=       -0.000000016905 Rises=F Damp=F
 DIIS: error= 1.34D-06 at cycle  11 NSaved=  11.
 NSaved=11 IEnMin=11 EnMin= -976.555992582570     IErMin=11 ErrMin= 1.34D-06
 ErrMax= 1.34D-06  0.00D+00 EMaxC= 1.00D-01 BMatC= 1.33D-09 BMatP= 1.83D-08
 IDIUse=1 WtCom= 1.00D+00 WtEn= 0.00D+00
 Coeff-Com:  0.173D-04-0.527D-04-0.260D-03 0.102D-03-0.966D-03-0.581D-03
 Coeff-Com:  0.128D-02 0.227D-01 0.441D-01 0.234D+00 0.700D+00
 Coeff:      0.173D-04-0.527D-04-0.260D-03 0.102D-03-0.966D-03-0.581D-03
 Coeff:      0.128D-02 0.227D-01 0.441D-01 0.234D+00 0.700D+00
 Gap=     0.164 Goal=   None    Shift=    0.000
 RMSDP=1.37D-07 MaxDP=5.61D-06 DE=-1.69D-08 OVMax= 1.63D-05

 Cycle  12  Pass 1  IDiag  1:
 RMSU=  1.02D-07    CP:  9.67D-01  8.13D-01  6.76D-01  3.13D-01  7.45D-01
                    CP:  5.87D-01  6.76D-01  7.48D-01  6.43D-01  7.99D-01
                    CP:  8.36D-01
 E= -976.555992583639     Delta-E=       -0.000000001069 Rises=F Damp=F
 DIIS: error= 6.73D-07 at cycle  12 NSaved=  12.
 NSaved=12 IEnMin=12 EnMin= -976.555992583639     IErMin=12 ErrMin= 6.73D-07
 ErrMax= 6.73D-07  0.00D+00 EMaxC= 1.00D-01 BMatC= 3.56D-10 BMatP= 1.33D-09
 IDIUse=1 WtCom= 1.00D+00 WtEn= 0.00D+00
 Coeff-Com:  0.516D-05-0.991D-05-0.174D-03 0.721D-04-0.574D-03-0.477D-03
 Coeff-Com: -0.251D-02-0.767D-03 0.762D-03 0.920D-01 0.429D+00 0.483D+00
 Coeff:      0.516D-05-0.991D-05-0.174D-03 0.721D-04-0.574D-03-0.477D-03
 Coeff:     -0.251D-02-0.767D-03 0.762D-03 0.920D-01 0.429D+00 0.483D+00
 Gap=     0.164 Goal=   None    Shift=    0.000
 RMSDP=6.26D-08 MaxDP=2.50D-06 DE=-1.07D-09 OVMax= 5.74D-06

 Cycle  13  Pass 1  IDiag  1:
 RMSU=  3.68D-08    CP:  9.67D-01  8.13D-01  6.76D-01  3.13D-01  7.45D-01
                    CP:  5.87D-01  6.75D-01  7.49D-01  6.44D-01  8.02D-01
                    CP:  9.07D-01  5.85D-01
 E= -976.555992584068     Delta-E=       -0.000000000429 Rises=F Damp=F
 DIIS: error= 1.67D-07 at cycle  13 NSaved=  13.
 NSaved=13 IEnMin=13 EnMin= -976.555992584068     IErMin=13 ErrMin= 1.67D-07
 ErrMax= 1.67D-07  0.00D+00 EMaxC= 1.00D-01 BMatC= 2.37D-11 BMatP= 3.56D-10
 IDIUse=1 WtCom= 1.00D+00 WtEn= 0.00D+00
 Coeff-Com: -0.360D-06 0.367D-05-0.516D-04 0.197D-04-0.144D-03-0.125D-03
 Coeff-Com: -0.141D-02-0.315D-02-0.693D-02 0.111D-01 0.108D+00 0.230D+00
 Coeff-Com:  0.663D+00
 Coeff:     -0.360D-06 0.367D-05-0.516D-04 0.197D-04-0.144D-03-0.125D-03
 Coeff:     -0.141D-02-0.315D-02-0.693D-02 0.111D-01 0.108D+00 0.230D+00
 Coeff:      0.663D+00
 Gap=     0.164 Goal=   None    Shift=    0.000
 RMSDP=1.92D-08 MaxDP=1.00D-06 DE=-4.29D-10 OVMax= 2.20D-06

 Cycle  14  Pass 1  IDiag  1:
 RMSU=  1.23D-08    CP:  9.67D-01  8.13D-01  6.76D-01  3.13D-01  7.45D-01
                    CP:  5.87D-01  6.75D-01  7.49D-01  6.44D-01  8.08D-01
                    CP:  9.13D-01  6.82D-01  7.63D-01
 E= -976.555992583981     Delta-E=        0.000000000086 Rises=F Damp=F
 DIIS: error= 7.02D-08 at cycle  14 NSaved=  14.
 NSaved=14 IEnMin=13 EnMin= -976.555992584068     IErMin=14 ErrMin= 7.02D-08
 ErrMax= 7.02D-08  0.00D+00 EMaxC= 1.00D-01 BMatC= 4.42D-12 BMatP= 2.37D-11
 IDIUse=1 WtCom= 1.00D+00 WtEn= 0.00D+00
 Coeff-Com: -0.808D-06 0.278D-05-0.838D-05 0.328D-05-0.151D-04-0.124D-04
 Coeff-Com: -0.520D-03-0.160D-02-0.420D-02-0.345D-02 0.146D-01 0.726D-01
 Coeff-Com:  0.377D+00 0.546D+00
 Coeff:     -0.808D-06 0.278D-05-0.838D-05 0.328D-05-0.151D-04-0.124D-04
 Coeff:     -0.520D-03-0.160D-02-0.420D-02-0.345D-02 0.146D-01 0.726D-01
 Coeff:      0.377D+00 0.546D+00
 Gap=     0.164 Goal=   None    Shift=    0.000
 RMSDP=7.36D-09 MaxDP=2.73D-07 DE= 8.64D-11 OVMax= 7.11D-07

 Error on total polarization charges =  0.00701
 SCF Done:  E(RB3LYP) =  -976.555992584     A.U. after   14 cycles
            NFock= 14  Conv=0.74D-08     -V/T= 2.0090
 KE= 9.678215057927D+02 PE=-6.114049690636D+03 EE= 2.234825731685D+03
 Leave Link  502 at Sun Jul 18 13:49:41 2021, MaxMem=   104857600 cpu:            1990.1 elap:             510.6
 (Enter /dades/curu/g16A03_MST/g16/l601.exe)
 Copying SCF densities to generalized density rwf, IOpCl= 0 IROHF=0.

 **********************************************************************

            Population analysis using the SCF density.

 **********************************************************************

 Orbital symmetries:
       Occupied  (A) (A) (A) (A) (A) (A) (A) (A) (A) (A) (A) (A)
                 (A) (A) (A) (A) (A) (A) (A) (A) (A) (A) (A) (A)
                 (A) (A) (A) (A) (A) (A) (A) (A) (A) (A) (A) (A)
                 (A) (A) (A) (A) (A) (A) (A) (A) (A) (A) (A) (A)
                 (A) (A) (A) (A) (A) (A) (A) (A) (A) (A) (A) (A)
                 (A) (A) (A) (A) (A) (A) (A) (A) (A) (A) (A) (A)
                 (A) (A) (A) (A) (A) (A) (A) (A) (A) (A)
       Virtual   (A) (A) (A) (A) (A) (A) (A) (A) (A) (A) (A) (A)
                 (A) (A) (A) (A) (A) (A) (A) (A) (A) (A) (A) (A)
                 (A) (A) (A) (A) (A) (A) (A) (A) (A) (A) (A) (A)
                 (A) (A) (A) (A) (A) (A) (A) (A) (A) (A) (A) (A)
                 (A) (A) (A) (A) (A) (A) (A) (A) (A) (A) (A) (A)
                 (A) (A) (A) (A) (A) (A) (A) (A) (A) (A) (A) (A)
                 (A) (A) (A) (A) (A) (A) (A) (A) (A) (A) (A) (A)
                 (A) (A) (A) (A) (A) (A) (A) (A) (A) (A) (A) (A)
                 (A) (A) (A) (A) (A) (A) (A) (A) (A) (A) (A) (A)
                 (A) (A) (A) (A) (A) (A) (A) (A) (A) (A) (A) (A)
[...]
    31  N    0.271835  -0.080749  -0.016198  -0.001342  -0.000085   0.000014
    32  C    0.325578  -0.012598   0.006010  -0.000912   0.001258   0.000142
    33  C   -0.033046   0.021969   0.004123   0.000032   0.000272   0.000068
    34  H   -0.005938  -0.000202   0.000294   0.000002   0.000021   0.000010
    35  C   -0.006542  -0.001650   0.000057  -0.000004  -0.000005   0.000011
    36  H    0.000237  -0.000116  -0.000015  -0.000000  -0.000001  -0.000000
    37  C    0.003475   0.002946   0.000025   0.000014   0.000010  -0.000019
    38  C    0.000031  -0.000055  -0.000007  -0.000000  -0.000001  -0.000000
    39  H    0.000002   0.000006   0.000001   0.000000   0.000000   0.000000
    40  H    0.000148  -0.000024  -0.000001   0.000000  -0.000000  -0.000000
    41  H   -0.000043  -0.000002  -0.000001  -0.000000   0.000000  -0.000000
    42  C   -0.004382  -0.029890  -0.004943  -0.000091  -0.000432  -0.000037
    43  H   -0.004814   0.001950  -0.000031  -0.000002  -0.000002   0.000005
    44  N    0.046819  -0.023833  -0.002389  -0.000048  -0.000369  -0.000041
    45  H    0.023911   0.002787  -0.004827   0.000290  -0.000393  -0.000170
              25         26         27         28         29         30
     1  C    0.045869   0.052065  -0.009001  -0.000980  -0.001995   0.007568
     2  H    0.036332  -0.028251  -0.005170   0.002511  -0.000931   0.001043
     3  H   -0.011077   0.025830   0.003110  -0.000169  -0.000423   0.000423
     4  H   -0.022389  -0.027711  -0.004663  -0.003097   0.000207  -0.000621
     5  N    0.045239   0.148865  -0.009789  -0.004879   0.000294   0.001102
     6  C   -0.017710  -0.046654   0.003037   0.000424   0.001276  -0.003664
     7  H    0.000379   0.006164   0.000996  -0.000151   0.000058  -0.000154
     8  H   -0.005587   0.004849   0.003746   0.000007  -0.000332  -0.001404
     9  H   -0.013678  -0.074667  -0.002959   0.000675   0.000340   0.001247
    10  C    0.369966  -0.838326   0.082255   0.020419   0.003579  -0.009003
    11  O    0.029378   0.141827   0.013582   0.000674  -0.000065   0.001333
    12  C    0.066501   0.149317  -0.029128   0.000615   0.000439  -0.018096
    13  H    0.064248  -0.087179   0.004937   0.001260   0.000327  -0.001948
    14  H    0.007993  -0.058868   0.000989   0.000012   0.000052  -0.001566
    15  C   -0.449224   0.923692  -0.181393   0.022332  -0.017363   0.142564
    16  C    0.255083  -2.876231  -0.045646  -0.039111   0.070632  -0.039874
    17  C    3.342361 -12.963769   1.386621  -0.433433  -0.422304   1.288028
    18  C   -6.492392   1.329128  -0.129949   0.036325   0.863546  -2.494495
    19  C    3.108778  -5.910646   0.158517   0.146130  -1.672620   0.910382
    20  C   -6.041169   4.443179  -0.617490   1.255104   0.725978  -0.514116
    21  C   -0.805414   0.003358  -0.010722   0.065857   0.006664   0.019055
    22  H    0.020836  -0.021675  -0.002302   0.006984  -0.007901  -0.002055
    23  H   -0.074177  -0.028011   0.000043   0.002156  -0.006018  -0.000361
    24  H    0.039188   0.113041   0.002499  -0.053958   0.007773  -0.000444
    25  C   24.630259 -11.337877   1.216925  -2.045054   0.147204  -0.027536
    26  C  -11.337877  34.253686  -2.561565   0.603187   0.011584   0.296180
    27  H    1.216925  -2.561565   2.470771  -0.168125   0.011352  -0.024174
    28  H   -2.045054   0.603187  -0.168125   2.308651  -0.025314   0.006003
    29  H    0.147204   0.011584   0.011352  -0.025314   2.086291  -0.130885
    30  H   -0.027536   0.296180  -0.024174   0.006003  -0.130885   2.377307
    31  N    0.017042   0.178238   0.040008  -0.004564  -0.002102   0.001835
    32  C   -0.006271   0.372722   0.070647  -0.004116   0.010523   0.059773
    33  C    0.022917  -0.188468  -0.015889   0.000922  -0.000498   0.006149
    34  H    0.002653   0.015617   0.000083   0.000015   0.000004   0.001488
    35  C    0.001537   0.042429   0.007157  -0.000526  -0.000240   0.004969
    36  H   -0.000226  -0.000766   0.000062  -0.000013   0.000007  -0.000270
    37  C    0.001455  -0.000495  -0.002385   0.000582   0.000303  -0.002236
    38  C   -0.000001  -0.000644  -0.000111   0.000003   0.000010   0.000224
    39  H    0.000015   0.000206   0.000052  -0.000001   0.000001   0.000016
    40  H   -0.000021  -0.000824  -0.000130   0.000006   0.000004  -0.000036
    41  H    0.000023   0.000012  -0.000050   0.000002  -0.000001   0.000009
    42  C   -0.033798   0.022622   0.015281  -0.002463   0.000009  -0.000548
    43  H   -0.005604   0.049630   0.002782  -0.000345  -0.000125   0.001273
    44  N    0.010990  -0.335738   0.031156   0.000960   0.001994  -0.007286
    45  H   -0.011192  -0.050976   0.003951   0.000417  -0.003854  -0.029561
              31         32         33         34         35         36
     1  C    0.014685   0.038151  -0.007738  -0.000211   0.003427   0.000121
     2  H   -0.000175   0.005530  -0.000101   0.000005   0.000577   0.000016
     3  H    0.000174   0.002483   0.000058  -0.000011   0.000090   0.000006
     4  H    0.000220  -0.004014  -0.000933  -0.000012   0.000131   0.000003
     5  N    0.028534   0.075220  -0.020042  -0.000105   0.003971   0.000049
     6  C    0.001604   0.023715  -0.056812  -0.000723   0.023396   0.000433
     7  H    0.000900  -0.002839  -0.005111   0.000075   0.000836   0.000005
     8  H    0.008039  -0.009061   0.007203   0.000005  -0.003572  -0.000044
     9  H   -0.002740   0.056568   0.039287  -0.001836  -0.001039   0.000128
    10  C   -0.121569  -0.118396  -0.015717   0.001970   0.022502   0.002009
    11  O    0.006106   0.010927   0.000854   0.000004  -0.000719  -0.000021
    12  C    0.030534   0.880326  -0.066674   0.004126   0.097765   0.011423
    13  H    0.008849  -0.030528   0.001198  -0.000159  -0.005205   0.000623
    14  H   -0.006366  -0.035989   0.024216   0.001334  -0.023799   0.001066
    15  C   -0.314500  -7.555423   2.351303   0.041956  -2.512007   0.039911
    16  C    0.300370  -3.371301  -2.132924   0.200647   0.430916  -0.035098
    17  C   -1.649871  -3.147838  -0.059682  -0.043137  -0.134465  -0.001346
    18  C    0.691191   0.699133  -0.168139  -0.033245  -0.048737   0.002625
    19  C    0.271835   0.325578  -0.033046  -0.005938  -0.006542   0.000237
    20  C   -0.080749  -0.012598   0.021969  -0.000202  -0.001650  -0.000116
    21  C   -0.016198   0.006010   0.004123   0.000294   0.000057  -0.000015
    22  H   -0.001342  -0.000912   0.000032   0.000002  -0.000004  -0.000000
    23  H   -0.000085   0.001258   0.000272   0.000021  -0.000005  -0.000001
    24  H    0.000014   0.000142   0.000068   0.000010   0.000011  -0.000000
    25  C    0.017042  -0.006271   0.022917   0.002653   0.001537  -0.000226
    26  C    0.178238   0.372722  -0.188468   0.015617   0.042429  -0.000766
    27  H    0.040008   0.070647  -0.015889   0.000083   0.007157   0.000062
    28  H   -0.004564  -0.004116   0.000922   0.000015  -0.000526  -0.000013
    29  H   -0.002102   0.010523  -0.000498   0.000004  -0.000240   0.000007
    30  H    0.001835   0.059773   0.006149   0.001488   0.004969  -0.000270
    31  N    9.085923  -0.420772  -0.301295  -0.056078  -0.045246  -0.028650
    32  C   -0.420772  24.869523  -9.711939   1.262407   4.447326  -0.366927
    33  C   -0.301295  -9.711939  21.698358  -1.960777  -7.498766   0.842298
    34  H   -0.056078   1.262407  -1.960777   1.791025   0.883857  -0.082066
    35  C   -0.045246   4.447326  -7.498766   0.883857  16.636822  -1.176721
    36  H   -0.028650  -0.366927   0.842298  -0.082066  -1.176721   1.847326
    37  C    0.028761  -2.471738   3.400692  -0.548758  -4.341391   0.376078
    38  C   -0.029816  -0.502067   0.800142  -0.001983  -1.190897   0.022584
    39  H   -0.000311  -0.029619   0.048359  -0.001063  -0.102654  -0.010647
    40  H    0.000191   0.098412  -0.101295  -0.002222   0.091828   0.009536
    41  H    0.000140  -0.011581   0.011690  -0.001304  -0.085130  -0.009994
    42  C   -0.270666   1.377996  -2.654128   0.073178   1.017387   0.148143
    43  H    0.043953  -0.600434   0.125484   0.002890   0.021002  -0.026544
    44  N    0.090684   0.009670   0.267272  -0.021519  -0.714229   0.041064
    45  H    0.379035   0.210325  -0.114470  -0.008528  -0.011054   0.003076
              37         38         39         40         41         42
     1  C   -0.003866   0.000092  -0.000025   0.000219  -0.000002   0.013042
     2  H   -0.001525  -0.000025  -0.000007   0.000023  -0.000001  -0.004757
     3  H   -0.000366  -0.000027  -0.000001   0.000012  -0.000006   0.001996
     4  H    0.000665   0.000033   0.000001   0.000022   0.000003   0.002050
     5  N    0.008389   0.001857   0.000048  -0.000219   0.000096   0.022648
     6  C   -0.019305  -0.003986  -0.000157  -0.000906   0.000044   0.151763
     7  H    0.008884   0.000294   0.000065  -0.000023  -0.000025   0.013449
     8  H    0.002147  -0.000819   0.000007  -0.000197  -0.000022  -0.011221
     9  H   -0.062573   0.000262  -0.000481   0.001095   0.000111   0.005231
    10  C   -0.176775  -0.011779  -0.001571   0.007430  -0.000636  -0.148412
    11  O    0.001738  -0.000210  -0.000013  -0.000013  -0.000005  -0.019382
    12  C   -0.503752  -0.051805  -0.008230   0.015492  -0.002164   0.621035
    13  H    0.001932   0.004317   0.000388   0.002287  -0.000060   0.074802
    14  H   -0.052862   0.002974  -0.000786   0.002112   0.001490  -0.082811
    15  C    1.722177   0.121997   0.013747  -0.041364   0.016682  -5.807546
    16  C    0.082652  -0.133041  -0.004203   0.012572  -0.008347  -1.335229
    17  C    0.147996  -0.008437  -0.000144   0.000287  -0.001021   0.171235
    18  C    0.071736   0.001313  -0.000088   0.000991  -0.000121  -0.180470
    19  C    0.003475   0.000031   0.000002   0.000148  -0.000043  -0.004382
    20  C    0.002946  -0.000055   0.000006  -0.000024  -0.000002  -0.029890
    21  C    0.000025  -0.000007   0.000001  -0.000001  -0.000001  -0.004943
    22  H    0.000014  -0.000000   0.000000   0.000000  -0.000000  -0.000091
    23  H    0.000010  -0.000001   0.000000  -0.000000   0.000000  -0.000432
    24  H   -0.000019  -0.000000   0.000000  -0.000000  -0.000000  -0.000037
    25  C    0.001455  -0.000001   0.000015  -0.000021   0.000023  -0.033798
    26  C   -0.000495  -0.000644   0.000206  -0.000824   0.000012   0.022622
    27  H   -0.002385  -0.000111   0.000052  -0.000130  -0.000050   0.015281
    28  H    0.000582   0.000003  -0.000001   0.000006   0.000002  -0.002463
    29  H    0.000303   0.000010   0.000001   0.000004  -0.000001   0.000009
    30  H   -0.002236   0.000224   0.000016  -0.000036   0.000009  -0.000548
    31  N    0.028761  -0.029816  -0.000311   0.000191   0.000140  -0.270666
    32  C   -2.471738  -0.502067  -0.029619   0.098412  -0.011581   1.377996
    33  C    3.400692   0.800142   0.048359  -0.101295   0.011690  -2.654128
    34  H   -0.548758  -0.001983  -0.001063  -0.002222  -0.001304   0.073178
    35  C   -4.341391  -1.190897  -0.102654   0.091828  -0.085130   1.017387
    36  H    0.376078   0.022584  -0.010647   0.009536  -0.009994   0.148143
    37  C   11.338650  -0.096949   0.103708   0.410409   0.043260  -4.325499
    38  C   -0.096949   5.958591   0.357302  -0.107189   0.358650  -0.002518
    39  H    0.103708   0.357302   0.758939  -0.091564  -0.109131  -0.031226
    40  H    0.410409  -0.107189  -0.091564   1.098201  -0.081672  -0.203726
    41  H    0.043260   0.358650  -0.109131  -0.081672   0.755686   0.019218
    42  C   -4.325499  -0.002518  -0.031226  -0.203726   0.019218  17.557090
    43  H    0.732840   0.026051   0.004471  -0.040462  -0.009699  -1.981941
    44  N    0.179351  -0.044426  -0.007216   0.065864  -0.003053   0.030553
    45  H   -0.002369  -0.006615  -0.000473   0.000391  -0.000320  -0.017818
              43         44         45
     1  C   -0.007501   0.027348  -0.001245
     2  H   -0.000963  -0.001479  -0.000491
     3  H    0.000741   0.001221   0.000067
     4  H   -0.002307   0.000936   0.000022
     5  N    0.024846   0.028874  -0.000986
     6  C    0.032410   0.028357   0.002882
     7  H    0.001295  -0.011637   0.000297
     8  H    0.002276  -0.004122   0.001194
     9  H   -0.014383   0.051654  -0.000424
    10  C   -0.298301  -0.051926  -0.010184
    11  O    0.004644  -0.005919  -0.000190
    12  C   -0.320201  -0.017619  -0.019700
    13  H   -0.054650  -0.030056   0.001249
    14  H   -0.098463  -0.062225  -0.001833
    15  C    1.481176  -4.174453  -0.189630
    16  C    0.110058   0.402193  -0.220560
    17  C    0.019321   1.364606   0.187846
    18  C   -0.019130  -0.040970   0.068575
    19  C   -0.004814   0.046819   0.023911
    20  C    0.001950  -0.023833   0.002787
    21  C   -0.000031  -0.002389  -0.004827
    22  H   -0.000002  -0.000048   0.000290
    23  H   -0.000002  -0.000369  -0.000393
    24  H    0.000005  -0.000041  -0.000170
    25  C   -0.005604   0.010990  -0.011192
    26  C    0.049630  -0.335738  -0.050976
    27  H    0.002782   0.031156   0.003951
    28  H   -0.000345   0.000960   0.000417
    29  H   -0.000125   0.001994  -0.003854
    30  H    0.001273  -0.007286  -0.029561
    31  N    0.043953   0.090684   0.379035
    32  C   -0.600434   0.009670   0.210325
    33  C    0.125484   0.267272  -0.114470
    34  H    0.002890  -0.021519  -0.008528
    35  C    0.021002  -0.714229  -0.011054
    36  H   -0.026544   0.041064   0.003076
    37  C    0.732840   0.179351  -0.002369
    38  C    0.026051  -0.044426  -0.006615
    39  H    0.004471  -0.007216  -0.000473
    40  H   -0.040462   0.065864   0.000391
    41  H   -0.009699  -0.003053  -0.000320
    42  C   -1.981941   0.030553  -0.017818
    43  H    2.582127  -0.104391  -0.002722
    44  N   -0.104391  10.993887  -0.027589
    45  H   -0.002722  -0.027589   0.949751
 Mulliken charges:
               1
     1  C    0.888401
     2  H   -0.067745
     3  H   -0.138462
     4  H   -0.269762
     5  N   -0.438881
     6  C    1.093309
     7  H   -0.159548
     8  H   -0.144737
     9  H   -0.422976
    10  C    0.842693
    11  O   -0.967369
    12  C    0.466698
    13  H   -0.105727
    14  H    0.019071
    15  C   -0.286743
    16  C    0.077644
    17  C    2.247397
    18  C    0.378697
    19  C    0.284839
    20  C   -0.064943
    21  C    0.695117
    22  H    0.072568
    23  H    0.137517
    24  H   -0.151248
    25  C   -0.082774
    26  C    0.251915
    27  H   -0.709917
    28  H   -0.695931
    29  H   -0.657478
    30  H   -0.817638
    31  N   -0.875770
    32  C   -0.500000
    33  C    1.439578
    34  H   -0.513790
    35  C    0.166605
    36  H   -0.609365
    37  C   -0.058013
    38  C    0.536680
    39  H    0.112275
    40  H   -0.145642
    41  H    0.117275
    42  C    1.815206
    43  H   -0.678211
    44  N   -0.982920
    45  H   -0.097893
 Sum of Mulliken charges =   1.00000
 Mulliken charges with hydrogens summed into heavy atoms:
               1
     1  C    0.412432
     5  N   -0.438881
     6  C    0.366048
    10  C    0.842693
    11  O   -0.967369
    12  C    0.380041
    15  C   -0.286743
    16  C    0.077644
    17  C    2.247397
    18  C   -0.438941
    19  C   -0.372640
    20  C   -0.064943
    21  C    0.753954
    25  C   -0.778705
    26  C   -0.458002
    31  N   -0.973663
    32  C   -0.500000
    33  C    0.925788
    35  C   -0.442760
    37  C   -0.058013
    38  C    0.620589
    42  C    1.136995
    44  N   -0.982920
 Electronic spatial extent (au):  <R**2>=           8116.1590
 Charge=              1.0000 electrons
 Dipole moment (field-independent basis, Debye):
    X=              8.1975    Y=             -4.3202    Z=             -3.3644  Tot=              9.8581
 Quadrupole moment (field-independent basis, Debye-Ang):
   XX=            -58.8273   YY=           -114.3647   ZZ=           -132.9039
   XY=              0.6997   XZ=              4.8941   YZ=             -2.1859
 Traceless Quadrupole moment (field-independent basis, Debye-Ang):
   XX=             43.2046   YY=            -12.3327   ZZ=            -30.8719
   XY=              0.6997   XZ=              4.8941   YZ=             -2.1859
 Octapole moment (field-independent basis, Debye-Ang**2):
  XXX=            150.3444  YYY=            -25.4445  ZZZ=             -8.2856  XYY=             40.8376
  XXY=            -52.0096  XXZ=              0.9164  XZZ=            -10.1040  YZZ=              1.8748
  YYZ=            -48.4749  XYZ=             22.9753
 Hexadecapole moment (field-independent basis, Debye-Ang**3):
 XXXX=          -5673.2184 YYYY=          -2258.3553 ZZZZ=           -756.3513 XXXY=              7.7114
 XXXZ=            -24.9925 YYYX=           -107.1886 YYYZ=            -20.3928 ZZZX=              7.6712
 ZZZY=            -16.6189 XXYY=          -1496.3172 XXZZ=          -1411.4209 YYZZ=           -535.3017
 XXYZ=             47.2074 YYXZ=             55.3584 ZZXY=             19.4684
 N-N= 1.913031316220D+03 E-N=-6.068357568284D+03  KE= 9.693544899322D+02
 Leave Link  601 at Mon Jul 19 00:56:21 2021, MaxMem=   262144000 cpu:               0.8 elap:               0.8
 (Enter /dades/curu/g16A03_MST/g16/l9999.exe)
 1\1\GINC-PIRINEUS36\SP\RMP2-FC\Aug-CC-pVDZ\C19H22N3O1(1+)\UBATOR02\19-
 Jul-2021\0\\#p mp2/aug-cc-pVDZ scf=tight maxdisk=180GB geom=allcheck\\
 SET_328_BBB268_conf1.geo_300_135_285 geometry\\1,1\C,0,-0.8975769116,-
 2.8759102842,2.2924075055\H,0,-0.3748799049,-3.5491045699,1.6051666185
 \H,0,-1.8248474481,-3.3595128464,2.615366663\H,0,-0.2687523918,-2.6708
 131523,3.1555362794\N,0,-1.1970518289,-1.6127572882,1.6282232714\C,0,-
 2.0279384668,-1.7197796563,0.4379951812\H,0,-2.9414695557,-2.273099595
 3,0.6778449282\H,0,-1.4985932705,-2.2574052925,-0.3552465339\H,0,-2.30
 95009022,-0.7382239056,0.0631071468\C,0,-0.6785635383,-0.4611306124,2.
 1359091971\O,0,-0.0040020946,-0.4225259486,3.164011208\C,0,-0.99307560
 98,0.8570067789,1.4082404782\H,0,-0.6374512583,1.6386124658,2.08435843
 69\H,0,-2.0806418154,0.9728461514,1.341139367\C,0,-0.408291668,1.04372
 1288,0.0425183982\C,0,0.6313603325,0.4615916653,-0.6500114688\C,0,1.60
 06478772,-0.5772587647,-0.2824509265\C,0,1.8949081888,-1.6125864614,-1
 .1867412651\C,0,2.8372729015,-2.5812317051,-0.86441177\C,0,3.516144334
 6,-2.5507650869,0.362077567\C,0,4.5273986839,-3.6113426721,0.713662211
 2\H,0,5.2467541169,-3.7613534276,-0.0978294511\H,0,4.0384447116,-4.576
 4418976,0.8931131819\H,0,5.0805695511,-3.3443327709,1.6177335667\C,0,3
 .2192738304,-1.5149228278,1.253388092\C,0,2.2783674183,-0.5368961663,0
 .9434384887\H,0,2.073165875,0.2548118215,1.6543691963\H,0,3.7390291275
 ,-1.4683354907,2.2047759328\H,0,3.0465527744,-3.3761149243,-1.57321075
 91\H,0,1.3708746959,-1.6688752444,-2.1349301114\N,0,0.6633616765,1.038
 0875711,-1.9112326292\C,0,-0.2979694884,1.9772647048,-2.0204608693\C,0
 ,-0.6609822502,2.8391076487,-3.0611596133\H,0,-0.1181819795,2.80929163
 79,-3.996553309\C,0,-1.7093805774,3.7016026493,-2.8433391892\H,0,-2.01
 22374952,4.3812828987,-3.6307395203\C,0,-2.4082250319,3.7251413042,-1.
 6038362036\C,0,-3.5518153947,4.6754840605,-1.3804671358\H,0,-3.2224827
 553,5.7114144314,-1.4923234737\H,0,-3.9758355147,4.5576409841,-0.38183
 18484\H,0,-4.3458732153,4.5043939748,-2.1112976357\C,0,-2.0135959643,2
 .8655564504,-0.6114911548\H,0,-2.4775059922,2.8250631699,0.3625566092\
 N,0,-0.9672806649,1.9986082794,-0.8223187966\H,0,1.3668768928,0.855190
 6555,-2.6210558603\\Version=ES64L-G16RevA.03\State=1-A\HF=-970.4601819
 \MP2=-973.8001473\RMSD=5.352e-09\PG=C01 [X(C19H22N3O1)]\\@


 IT IS THE BEHAVIOR AND DISTRIBUTION OF THE ELECTRONS 
 AROUND THE NUCLEUS THAT GIVES THE FUNDAMENTAL 
 CHARACTER OF AN ATOM:  IT MUST BE THE SAME FOR MOLECULES.

                               -- C. A. COULSON, 1951
 Job cpu time:       0 days 10 hours 55 minutes 43.9 seconds.
 Elapsed time:       0 days  3 hours 36 minutes 17.8 seconds.
 File lengths (MBytes):  RWF= 118449 Int=      0 D2E=      0 Chk=     42 Scr=      1
 Normal termination of Gaussian 16 at Mon Jul 19 00:56:24 2021.
