 Entering Gaussian System, Link 0=g16
 Input=SET_328_BBB29_conf1.geo_135_285_180_OCTANOL.dat
 Output=SET_328_BBB29_conf1.geo_135_285_180_OCTANOL.log
 Initial command:
 /dades/curu/g16A03_MST/g16/l1.exe "/tmp/ubator02/1839608/Gau-186843.inp" -scrdir="/tmp/ubator02/1839608/"
 Entering Link 1 = /dades/curu/g16A03_MST/g16/l1.exe PID=    186844.
  
 Copyright (c) 1988,1990,1992,1993,1995,1998,2003,2009,2016,
            Gaussian, Inc.  All Rights Reserved.
  
 This is part of the Gaussian(R) 16 program.  It is based on
 the Gaussian(R) 09 system (copyright 2009, Gaussian, Inc.),
 the Gaussian(R) 03 system (copyright 2003, Gaussian, Inc.),
 the Gaussian(R) 98 system (copyright 1998, Gaussian, Inc.),
 the Gaussian(R) 94 system (copyright 1995, Gaussian, Inc.),
 the Gaussian 92(TM) system (copyright 1992, Gaussian, Inc.),
 the Gaussian 90(TM) system (copyright 1990, Gaussian, Inc.),
 the Gaussian 88(TM) system (copyright 1988, Gaussian, Inc.),
 the Gaussian 86(TM) system (copyright 1986, Carnegie Mellon
 University), and the Gaussian 82(TM) system (copyright 1983,
 Carnegie Mellon University). Gaussian is a federally registered
 trademark of Gaussian, Inc.
  
 This software contains proprietary and confidential information,
 including trade secrets, belonging to Gaussian, Inc.
  
 This software is provided under written license and may be
 used, copied, transmitted, or stored only in accord with that
 written license.
  
 The following legend is applicable only to US Government
 contracts under FAR:
  
                    RESTRICTED RIGHTS LEGEND
  
 Use, reproduction and disclosure by the US Government is
 subject to restrictions as set forth in subparagraphs (a)
 and (c) of the Commercial Computer Software - Restricted
 Rights clause in FAR 52.227-19.
  
 Gaussian, Inc.
 340 Quinnipiac St., Bldg. 40, Wallingford CT 06492
  
  
 ---------------------------------------------------------------
 Warning -- This program may not be used in any manner that
 competes with the business of Gaussian, Inc. or will provide
 assistance to any competitor of Gaussian, Inc.  The licensee
 of this program is prohibited from giving any competitor of
 Gaussian, Inc. access to this program.  By using this program,
 the user acknowledges that Gaussian, Inc. is engaged in the
 business of creating and licensing software in the field of
 computational chemistry and represents and warrants to the
 licensee that it is not a competitor of Gaussian, Inc. and that
 it will not use this program in any manner prohibited above.
 ---------------------------------------------------------------
  

 Cite this work as:
 Gaussian 16, Revision A.03,
 M. J. Frisch, G. W. Trucks, H. B. Schlegel, G. E. Scuseria, 
 M. A. Robb, J. R. Cheeseman, G. Scalmani, V. Barone, 
 G. A. Petersson, H. Nakatsuji, X. Li, M. Caricato, A. V. Marenich, 
 J. Bloino, B. G. Janesko, R. Gomperts, B. Mennucci, H. P. Hratchian, 
 J. V. Ortiz, A. F. Izmaylov, J. L. Sonnenberg, D. Williams-Young, 
 F. Ding, F. Lipparini, F. Egidi, J. Goings, B. Peng, A. Petrone, 
 T. Henderson, D. Ranasinghe, V. G. Zakrzewski, J. Gao, N. Rega, 
 G. Zheng, W. Liang, M. Hada, M. Ehara, K. Toyota, R. Fukuda, 
 J. Hasegawa, M. Ishida, T. Nakajima, Y. Honda, O. Kitao, H. Nakai, 
 T. Vreven, K. Throssell, J. A. Montgomery, Jr., J. E. Peralta, 
 F. Ogliaro, M. J. Bearpark, J. J. Heyd, E. N. Brothers, K. N. Kudin, 
 V. N. Staroverov, T. A. Keith, R. Kobayashi, J. Normand, 
 K. Raghavachari, A. P. Rendell, J. C. Burant, S. S. Iyengar, 
 J. Tomasi, M. Cossi, J. M. Millam, M. Klene, C. Adamo, R. Cammi, 
 J. W. Ochterski, R. L. Martin, K. Morokuma, O. Farkas, 
 J. B. Foresman, and D. J. Fox, Gaussian, Inc., Wallingford CT, 2016.
 
 ******************************************
 Gaussian 16:  ES64L-G16RevA.03 25-Dec-2016
                18-Jul-2021 
 ******************************************
 %mem=800MB
 %nproc=4
 Will use up to    4 processors via shared memory.
 %chk=SET_328_BBB29_conf1.geo_135_285_180.chk
 ---------------------------------------------------------------
 #p b3lyp/6-31G(d) opt freq scrf=(iefpcm,read,solvent=n-octanol)
 ---------------------------------------------------------------
 1/18=20,19=15,26=3,38=1,40=2/1,3;
 2/9=110,12=2,17=6,18=5,40=1/2;
 3/5=1,6=6,7=1,11=2,25=1,30=1,70=2203,71=1,72=25,74=-5/1,2,3;
 4//1;
 5/5=2,38=5,53=25/2;
 6/7=2,8=2,9=2,10=2,28=1/1;
 7//1,2,3,16;
 1/18=20,19=15,26=3/3(2);
 2/9=110/2;
 99//99;
 2/9=110/2;
 3/5=1,6=6,7=1,11=2,25=1,30=1,70=2205,71=1,72=25,74=-5/1,2,3;
 4/5=5,16=3,69=1/1;
 5/5=2,38=5,53=25/2;
 7//1,2,3,16;
 1/18=20,19=15,26=3/3(-5);
 2/9=110/2;
 6/7=2,8=2,9=2,10=2,19=2,28=1/1;
 99/9=1/99;
 Leave Link    1 at Sun Jul 18 13:52:36 2021, MaxMem=   104857600 cpu:               0.0 elap:               0.0
 (Enter /dades/curu/g16A03_MST/g16/l101.exe)
 --------------------------------------------
 SET_328_BBB29_conf1.geo_135_285_180 geometry
 --------------------------------------------
 Symbolic Z-matrix:
 Charge =  1 Multiplicity = 1
 N                    -0.153    -2.549     2.93 
 H                     0.337    -2.326     3.773 
 H                    -0.138    -3.539     2.788 
 C                     0.51     -1.867     1.77 
 H                     1.519    -2.286     1.783 
 H                     0.438    -0.817     2.066 
 C                    -0.183    -2.246     0.473 
 H                    -1.24     -1.982     0.549 
 H                    -0.248    -3.317     0.27 
 C                     0.458    -1.534    -0.731 
 H                     0.054    -1.95     -1.657 
 H                     1.517    -1.801    -0.697 
 N                     0.166    -0.075    -0.915 
 C                     1.167     0.805    -0.63 
 C                     2.39      0.695    -1.381 
 H                     2.501     0.035    -2.238 
 C                     3.418     1.605    -1.066 
 Cl                    4.938     1.328    -1.872 
 C                     3.267     2.502    -0.002 
 H                     4.194     3.012     0.248 
 C                     2.059     2.645     0.666 
 H                     1.878     3.313     1.504 
 C                     1.        1.714     0.435 
 S                    -0.552     1.828     1.333 
 C                    -1.678     1.167     0.108 
 C                    -1.162     0.379    -0.921 
 C                    -2.125    -0.142    -1.727 
 H                    -1.81     -0.914    -2.424 
 C                    -3.494     0.253    -1.679 
 H                    -4.166    -0.243    -2.375 
 C                    -3.905     1.116    -0.73 
 H                    -4.947     1.421    -0.661 
 C                    -2.993     1.533     0.149 
 H                    -3.239     2.298     0.881 
 H                    -1.1      -2.237     3.003 
 
 ITRead=  0  0  0  0  0  0  0  0  0  0  0  0  0  0  0  0  0  0  0  0
 ITRead=  0  0  0  0  0  0  0  0  0  0  0  0  0  0  0
 MicOpt= -1 -1 -1 -1 -1 -1 -1 -1 -1 -1 -1 -1 -1 -1 -1 -1 -1 -1 -1 -1
 MicOpt= -1 -1 -1 -1 -1 -1 -1 -1 -1 -1 -1 -1 -1 -1 -1
 NAtoms=     35 NQM=       35 NQMF=       0 NMMI=      0 NMMIF=      0
                NMic=       0 NMicF=      0.
                    Isotopes and Nuclear Properties:
 (Nuclear quadrupole moments (NQMom) in fm**2, nuclear magnetic moments (NMagM)
  in nuclear magnetons)

  Atom         1           2           3           4           5           6           7           8           9          10
 IAtWgt=          14           1           1          12           1           1          12           1           1          12
 AtmWgt=  14.0030740   1.0078250   1.0078250  12.0000000   1.0078250   1.0078250  12.0000000   1.0078250   1.0078250  12.0000000
 NucSpn=           2           1           1           0           1           1           0           1           1           0
 AtZEff=  -0.0000000  -0.0000000  -0.0000000  -0.0000000  -0.0000000  -0.0000000  -0.0000000  -0.0000000  -0.0000000  -0.0000000
 NQMom=    2.0440000   0.0000000   0.0000000   0.0000000   0.0000000   0.0000000   0.0000000   0.0000000   0.0000000   0.0000000
 NMagM=    0.4037610   2.7928460   2.7928460   0.0000000   2.7928460   2.7928460   0.0000000   2.7928460   2.7928460   0.0000000
 AtZNuc=   7.0000000   1.0000000   1.0000000   6.0000000   1.0000000   1.0000000   6.0000000   1.0000000   1.0000000   6.0000000

  Atom        11          12          13          14          15          16          17          18          19          20
 IAtWgt=           1           1          14          12          12           1          12          35          12           1
 AtmWgt=   1.0078250   1.0078250  14.0030740  12.0000000  12.0000000   1.0078250  12.0000000  34.9688527  12.0000000   1.0078250
 NucSpn=           1           1           2           0           0           1           0           3           0           1
 AtZEff=  -0.0000000  -0.0000000  -0.0000000  -0.0000000  -0.0000000  -0.0000000  -0.0000000  -0.0000000  -0.0000000  -0.0000000
 NQMom=    0.0000000   0.0000000   2.0440000   0.0000000   0.0000000   0.0000000   0.0000000  -8.1650000   0.0000000   0.0000000
 NMagM=    2.7928460   2.7928460   0.4037610   0.0000000   0.0000000   2.7928460   0.0000000   0.8218740   0.0000000   2.7928460
 AtZNuc=   1.0000000   1.0000000   7.0000000   6.0000000   6.0000000   1.0000000   6.0000000  17.0000000   6.0000000   1.0000000

  Atom        21          22          23          24          25          26          27          28          29          30
 IAtWgt=          12           1          12          32          12          12          12           1          12           1
 AtmWgt=  12.0000000   1.0078250  12.0000000  31.9720718  12.0000000  12.0000000  12.0000000   1.0078250  12.0000000   1.0078250
 NucSpn=           0           1           0           0           0           0           0           1           0           1
 AtZEff=  -0.0000000  -0.0000000  -0.0000000  -0.0000000  -0.0000000  -0.0000000  -0.0000000  -0.0000000  -0.0000000  -0.0000000
 NQMom=    0.0000000   0.0000000   0.0000000   0.0000000   0.0000000   0.0000000   0.0000000   0.0000000   0.0000000   0.0000000
 NMagM=    0.0000000   2.7928460   0.0000000   0.0000000   0.0000000   0.0000000   0.0000000   2.7928460   0.0000000   2.7928460
 AtZNuc=   6.0000000   1.0000000   6.0000000  16.0000000   6.0000000   6.0000000   6.0000000   1.0000000   6.0000000   1.0000000

  Atom        31          32          33          34          35
 IAtWgt=          12           1          12           1           1
 AtmWgt=  12.0000000   1.0078250  12.0000000   1.0078250   1.0078250
 NucSpn=           0           1           0           1           1
 AtZEff=  -0.0000000  -0.0000000  -0.0000000  -0.0000000  -0.0000000
 NQMom=    0.0000000   0.0000000   0.0000000   0.0000000   0.0000000
 NMagM=    0.0000000   2.7928460   0.0000000   2.7928460   2.7928460
 AtZNuc=   6.0000000   1.0000000   6.0000000   1.0000000   1.0000000
 Leave Link  101 at Sun Jul 18 13:52:36 2021, MaxMem=   104857600 cpu:               0.1 elap:               0.1
 (Enter /dades/curu/g16A03_MST/g16/l103.exe)

 GradGradGradGradGradGradGradGradGradGradGradGradGradGradGradGradGradGrad
 Berny optimization.
 Initialization pass.
                           ----------------------------
                           !    Initial Parameters    !
                           ! (Angstroms and Degrees)  !
 --------------------------                            --------------------------
 ! Name  Definition              Value          Derivative Info.                !
 --------------------------------------------------------------------------------
 ! R1    R(1,2)                  1.0002         estimate D2E/DX2                !
 ! R2    R(1,3)                  1.0002         estimate D2E/DX2                !
 ! R3    R(1,4)                  1.5001         estimate D2E/DX2                !
 ! R4    R(1,35)                 0.9997         estimate D2E/DX2                !
 ! R5    R(4,5)                  1.0926         estimate D2E/DX2                !
 ! R6    R(4,6)                  1.0933         estimate D2E/DX2                !
 ! R7    R(4,7)                  1.5186         estimate D2E/DX2                !
 ! R8    R(7,8)                  1.0921         estimate D2E/DX2                !
 ! R9    R(7,9)                  1.092          estimate D2E/DX2                !
 ! R10   R(7,10)                 1.5386         estimate D2E/DX2                !
 ! R11   R(10,11)                1.0926         estimate D2E/DX2                !
 ! R12   R(10,12)                1.0927         estimate D2E/DX2                !
 ! R13   R(10,13)                1.4993         estimate D2E/DX2                !
 ! R14   R(13,14)                1.3629         estimate D2E/DX2                !
 ! R15   R(13,26)                1.4035         estimate D2E/DX2                !
 ! R16   R(14,15)                1.4394         estimate D2E/DX2                !
 ! R17   R(14,23)                1.4101         estimate D2E/DX2                !
 ! R18   R(15,16)                1.0874         estimate D2E/DX2                !
 ! R19   R(15,17)                1.4086         estimate D2E/DX2                !
 ! R20   R(17,18)                1.7426         estimate D2E/DX2                !
 ! R21   R(17,19)                1.3998         estimate D2E/DX2                !
 ! R22   R(19,20)                1.0872         estimate D2E/DX2                !
 ! R23   R(19,21)                1.3878         estimate D2E/DX2                !
 ! R24   R(21,22)                1.0868         estimate D2E/DX2                !
 ! R25   R(21,23)                1.4288         estimate D2E/DX2                !
 ! R26   R(23,24)                1.7967         estimate D2E/DX2                !
 ! R27   R(24,25)                1.7904         estimate D2E/DX2                !
 ! R28   R(25,26)                1.395          estimate D2E/DX2                !
 ! R29   R(25,33)                1.3656         estimate D2E/DX2                !
 ! R30   R(26,27)                1.3596         estimate D2E/DX2                !
 ! R31   R(27,28)                1.0867         estimate D2E/DX2                !
 ! R32   R(27,29)                1.4257         estimate D2E/DX2                !
 ! R33   R(29,30)                1.0872         estimate D2E/DX2                !
 ! R34   R(29,31)                1.347          estimate D2E/DX2                !
 ! R35   R(31,32)                1.0879         estimate D2E/DX2                !
 ! R36   R(31,33)                1.3335         estimate D2E/DX2                !
 ! R37   R(33,34)                1.087          estimate D2E/DX2                !
 ! A1    A(2,1,3)              109.4488         estimate D2E/DX2                !
 ! A2    A(2,1,4)              109.5025         estimate D2E/DX2                !
 ! A3    A(2,1,35)             109.4462         estimate D2E/DX2                !
 ! A4    A(3,1,4)              109.4858         estimate D2E/DX2                !
 ! A5    A(3,1,35)             109.4787         estimate D2E/DX2                !
 ! A6    A(4,1,35)             109.4653         estimate D2E/DX2                !
 ! A7    A(1,4,5)              102.9794         estimate D2E/DX2                !
 ! A8    A(1,4,6)              101.4298         estimate D2E/DX2                !
 ! A9    A(1,4,7)              110.1996         estimate D2E/DX2                !
 ! A10   A(5,4,6)              115.2071         estimate D2E/DX2                !
 ! A11   A(5,4,7)              109.6259         estimate D2E/DX2                !
 ! A12   A(6,4,7)              116.1596         estimate D2E/DX2                !
 ! A13   A(4,7,8)              108.7783         estimate D2E/DX2                !
 ! A14   A(4,7,9)              115.5125         estimate D2E/DX2                !
 ! A15   A(4,7,10)             111.2675         estimate D2E/DX2                !
 ! A16   A(8,7,9)              101.0934         estimate D2E/DX2                !
 ! A17   A(8,7,10)             110.2305         estimate D2E/DX2                !
 ! A18   A(9,7,10)             109.4616         estimate D2E/DX2                !
 ! A19   A(7,10,11)            109.4487         estimate D2E/DX2                !
 ! A20   A(7,10,12)            105.4466         estimate D2E/DX2                !
 ! A21   A(7,10,13)            117.7239         estimate D2E/DX2                !
 ! A22   A(11,10,12)           106.96           estimate D2E/DX2                !
 ! A23   A(11,10,13)           101.215          estimate D2E/DX2                !
 ! A24   A(12,10,13)           115.4912         estimate D2E/DX2                !
 ! A25   A(10,13,14)           117.3623         estimate D2E/DX2                !
 ! A26   A(10,13,26)           119.9741         estimate D2E/DX2                !
 ! A27   A(14,13,26)           119.1421         estimate D2E/DX2                !
 ! A28   A(13,14,15)           117.7481         estimate D2E/DX2                !
 ! A29   A(13,14,23)           119.1543         estimate D2E/DX2                !
 ! A30   A(15,14,23)           122.9529         estimate D2E/DX2                !
 ! A31   A(14,15,16)           122.9792         estimate D2E/DX2                !
 ! A32   A(14,15,17)           117.0037         estimate D2E/DX2                !
 ! A33   A(16,15,17)           119.5957         estimate D2E/DX2                !
 ! A34   A(15,17,18)           115.4961         estimate D2E/DX2                !
 ! A35   A(15,17,19)           120.3468         estimate D2E/DX2                !
 ! A36   A(18,17,19)           123.1961         estimate D2E/DX2                !
 ! A37   A(17,19,20)           112.5452         estimate D2E/DX2                !
 ! A38   A(17,19,21)           121.7216         estimate D2E/DX2                !
 ! A39   A(20,19,21)           125.6752         estimate D2E/DX2                !
 ! A40   A(19,21,22)           125.4105         estimate D2E/DX2                !
 ! A41   A(19,21,23)           120.0123         estimate D2E/DX2                !
 ! A42   A(22,21,23)           113.6842         estimate D2E/DX2                !
 ! A43   A(14,23,21)           117.0233         estimate D2E/DX2                !
 ! A44   A(14,23,24)           121.3785         estimate D2E/DX2                !
 ! A45   A(21,23,24)           121.2031         estimate D2E/DX2                !
 ! A46   A(23,24,25)           100.2455         estimate D2E/DX2                !
 ! A47   A(24,25,26)           118.7257         estimate D2E/DX2                !
 ! A48   A(24,25,33)           119.0862         estimate D2E/DX2                !
 ! A49   A(26,25,33)           121.9869         estimate D2E/DX2                !
 ! A50   A(13,26,25)           121.9766         estimate D2E/DX2                !
 ! A51   A(13,26,27)           123.2842         estimate D2E/DX2                !
 ! A52   A(25,26,27)           113.0639         estimate D2E/DX2                !
 ! A53   A(26,27,28)           116.56           estimate D2E/DX2                !
 ! A54   A(26,27,29)           123.6438         estimate D2E/DX2                !
 ! A55   A(28,27,29)           119.7854         estimate D2E/DX2                !
 ! A56   A(27,29,30)           116.4605         estimate D2E/DX2                !
 ! A57   A(27,29,31)           119.62           estimate D2E/DX2                !
 ! A58   A(30,29,31)           123.6923         estimate D2E/DX2                !
 ! A59   A(29,31,32)           121.1021         estimate D2E/DX2                !
 ! A60   A(29,31,33)           117.1345         estimate D2E/DX2                !
 ! A61   A(32,31,33)           121.7065         estimate D2E/DX2                !
 ! A62   A(25,33,31)           123.7082         estimate D2E/DX2                !
 ! A63   A(25,33,34)           115.2624         estimate D2E/DX2                !
 ! A64   A(31,33,34)           120.6096         estimate D2E/DX2                !
 ! D1    D(2,1,4,5)             60.5291         estimate D2E/DX2                !
 ! D2    D(2,1,4,6)            -58.976          estimate D2E/DX2                !
 ! D3    D(2,1,4,7)            177.4059         estimate D2E/DX2                !
 ! D4    D(3,1,4,5)            -59.4716         estimate D2E/DX2                !
 ! D5    D(3,1,4,6)           -178.9766         estimate D2E/DX2                !
 ! D6    D(3,1,4,7)             57.4052         estimate D2E/DX2                !
 ! D7    D(35,1,4,5)          -179.4861         estimate D2E/DX2                !
 ! D8    D(35,1,4,6)            61.0089         estimate D2E/DX2                !
 ! D9    D(35,1,4,7)           -62.6092         estimate D2E/DX2                !
 ! D10   D(1,4,7,8)             57.0854         estimate D2E/DX2                !
 ! D11   D(1,4,7,9)            -55.7105         estimate D2E/DX2                !
 ! D12   D(1,4,7,10)           178.7045         estimate D2E/DX2                !
 ! D13   D(5,4,7,8)            169.7465         estimate D2E/DX2                !
 ! D14   D(5,4,7,9)             56.9506         estimate D2E/DX2                !
 ! D15   D(5,4,7,10)           -68.6344         estimate D2E/DX2                !
 ! D16   D(6,4,7,8)            -57.4949         estimate D2E/DX2                !
 ! D17   D(6,4,7,9)           -170.2908         estimate D2E/DX2                !
 ! D18   D(6,4,7,10)            64.1242         estimate D2E/DX2                !
 ! D19   D(4,7,10,11)          170.5722         estimate D2E/DX2                !
 ! D20   D(4,7,10,12)           55.8309         estimate D2E/DX2                !
 ! D21   D(4,7,10,13)          -74.6824         estimate D2E/DX2                !
 ! D22   D(8,7,10,11)          -68.6582         estimate D2E/DX2                !
 ! D23   D(8,7,10,12)          176.6005         estimate D2E/DX2                !
 ! D24   D(8,7,10,13)           46.0871         estimate D2E/DX2                !
 ! D25   D(9,7,10,11)           41.6892         estimate D2E/DX2                !
 ! D26   D(9,7,10,12)          -73.0521         estimate D2E/DX2                !
 ! D27   D(9,7,10,13)          156.4346         estimate D2E/DX2                !
 ! D28   D(7,10,13,14)         106.8054         estimate D2E/DX2                !
 ! D29   D(7,10,13,26)         -51.8583         estimate D2E/DX2                !
 ! D30   D(11,10,13,14)       -134.007          estimate D2E/DX2                !
 ! D31   D(11,10,13,26)         67.3293         estimate D2E/DX2                !
 ! D32   D(12,10,13,14)        -18.9201         estimate D2E/DX2                !
 ! D33   D(12,10,13,26)       -177.5838         estimate D2E/DX2                !
 ! D34   D(10,13,14,15)         60.2677         estimate D2E/DX2                !
 ! D35   D(10,13,14,23)       -115.4903         estimate D2E/DX2                !
 ! D36   D(26,13,14,15)       -140.8852         estimate D2E/DX2                !
 ! D37   D(26,13,14,23)         43.3569         estimate D2E/DX2                !
 ! D38   D(10,13,26,25)        111.2761         estimate D2E/DX2                !
 ! D39   D(10,13,26,27)        -52.9421         estimate D2E/DX2                !
 ! D40   D(14,13,26,25)        -47.0103         estimate D2E/DX2                !
 ! D41   D(14,13,26,27)        148.7715         estimate D2E/DX2                !
 ! D42   D(13,14,15,16)          8.0078         estimate D2E/DX2                !
 ! D43   D(13,14,15,17)       -179.4852         estimate D2E/DX2                !
 ! D44   D(23,14,15,16)       -176.4074         estimate D2E/DX2                !
 ! D45   D(23,14,15,17)         -3.9004         estimate D2E/DX2                !
 ! D46   D(13,14,23,21)       -178.0006         estimate D2E/DX2                !
 ! D47   D(13,14,23,24)         -5.1333         estimate D2E/DX2                !
 ! D48   D(15,14,23,21)          6.4739         estimate D2E/DX2                !
 ! D49   D(15,14,23,24)        179.3412         estimate D2E/DX2                !
 ! D50   D(14,15,17,18)        173.5638         estimate D2E/DX2                !
 ! D51   D(14,15,17,19)          4.4268         estimate D2E/DX2                !
 ! D52   D(16,15,17,18)        -13.6636         estimate D2E/DX2                !
 ! D53   D(16,15,17,19)        177.1995         estimate D2E/DX2                !
 ! D54   D(15,17,19,20)        169.2591         estimate D2E/DX2                !
 ! D55   D(15,17,19,21)         -8.1211         estimate D2E/DX2                !
 ! D56   D(18,17,19,20)          0.9882         estimate D2E/DX2                !
 ! D57   D(18,17,19,21)       -176.392          estimate D2E/DX2                !
 ! D58   D(17,19,21,22)        179.3025         estimate D2E/DX2                !
 ! D59   D(17,19,21,23)         10.825          estimate D2E/DX2                !
 ! D60   D(20,19,21,22)          2.2814         estimate D2E/DX2                !
 ! D61   D(20,19,21,23)       -166.1961         estimate D2E/DX2                !
 ! D62   D(19,21,23,14)         -9.7158         estimate D2E/DX2                !
 ! D63   D(19,21,23,24)        177.4036         estimate D2E/DX2                !
 ! D64   D(22,21,23,14)       -179.4755         estimate D2E/DX2                !
 ! D65   D(22,21,23,24)          7.6439         estimate D2E/DX2                !
 ! D66   D(14,23,24,25)        -23.0796         estimate D2E/DX2                !
 ! D67   D(21,23,24,25)        149.4901         estimate D2E/DX2                !
 ! D68   D(23,24,25,26)         20.2682         estimate D2E/DX2                !
 ! D69   D(23,24,25,33)       -154.6811         estimate D2E/DX2                !
 ! D70   D(24,25,26,13)          9.7532         estimate D2E/DX2                !
 ! D71   D(24,25,26,27)        175.4466         estimate D2E/DX2                !
 ! D72   D(33,25,26,13)       -175.451          estimate D2E/DX2                !
 ! D73   D(33,25,26,27)         -9.7577         estimate D2E/DX2                !
 ! D74   D(24,25,33,31)        178.764          estimate D2E/DX2                !
 ! D75   D(24,25,33,34)          6.1791         estimate D2E/DX2                !
 ! D76   D(26,25,33,31)          3.9864         estimate D2E/DX2                !
 ! D77   D(26,25,33,34)       -168.5985         estimate D2E/DX2                !
 ! D78   D(13,26,27,28)         -3.0079         estimate D2E/DX2                !
 ! D79   D(13,26,27,29)        175.7921         estimate D2E/DX2                !
 ! D80   D(25,26,27,28)       -168.4861         estimate D2E/DX2                !
 ! D81   D(25,26,27,29)         10.3139         estimate D2E/DX2                !
 ! D82   D(26,27,29,30)       -179.7742         estimate D2E/DX2                !
 ! D83   D(26,27,29,31)         -5.0492         estimate D2E/DX2                !
 ! D84   D(28,27,29,30)         -1.0109         estimate D2E/DX2                !
 ! D85   D(28,27,29,31)        173.7141         estimate D2E/DX2                !
 ! D86   D(27,29,31,32)       -178.986          estimate D2E/DX2                !
 ! D87   D(27,29,31,33)         -1.6826         estimate D2E/DX2                !
 ! D88   D(30,29,31,32)         -4.6631         estimate D2E/DX2                !
 ! D89   D(30,29,31,33)        172.6403         estimate D2E/DX2                !
 ! D90   D(29,31,33,25)          2.1285         estimate D2E/DX2                !
 ! D91   D(29,31,33,34)        174.3346         estimate D2E/DX2                !
 ! D92   D(32,31,33,25)        179.4144         estimate D2E/DX2                !
 ! D93   D(32,31,33,34)         -8.3795         estimate D2E/DX2                !
 --------------------------------------------------------------------------------
 Trust Radius=3.00D-01 FncErr=1.00D-07 GrdErr=1.00D-06 EigMax=2.50D+02 EigMin=1.00D-04
 Number of steps in this run=    204 maximum allowed number of steps=    210.
 GradGradGradGradGradGradGradGradGradGradGradGradGradGradGradGradGradGrad

 Leave Link  103 at Sun Jul 18 13:52:36 2021, MaxMem=   104857600 cpu:               0.0 elap:               0.0
 (Enter /dades/curu/g16A03_MST/g16/l202.exe)
                          Input orientation:                          
 ---------------------------------------------------------------------
 Center     Atomic      Atomic             Coordinates (Angstroms)
 Number     Number       Type             X           Y           Z
 ---------------------------------------------------------------------
      1          7           0       -0.153000   -2.549000    2.930000
      2          1           0        0.337000   -2.326000    3.773000
      3          1           0       -0.138000   -3.539000    2.788000
      4          6           0        0.510000   -1.867000    1.770000
      5          1           0        1.519000   -2.286000    1.783000
      6          1           0        0.438000   -0.817000    2.066000
      7          6           0       -0.183000   -2.246000    0.473000
      8          1           0       -1.240000   -1.982000    0.549000
      9          1           0       -0.248000   -3.317000    0.270000
     10          6           0        0.458000   -1.534000   -0.731000
     11          1           0        0.054000   -1.950000   -1.657000
     12          1           0        1.517000   -1.801000   -0.697000
     13          7           0        0.166000   -0.075000   -0.915000
     14          6           0        1.167000    0.805000   -0.630000
     15          6           0        2.390000    0.695000   -1.381000
     16          1           0        2.501000    0.035000   -2.238000
     17          6           0        3.418000    1.605000   -1.066000
     18         17           0        4.938000    1.328000   -1.872000
     19          6           0        3.267000    2.502000   -0.002000
     20          1           0        4.194000    3.012000    0.248000
     21          6           0        2.059000    2.645000    0.666000
     22          1           0        1.878000    3.313000    1.504000
     23          6           0        1.000000    1.714000    0.435000
     24         16           0       -0.552000    1.828000    1.333000
     25          6           0       -1.678000    1.167000    0.108000
     26          6           0       -1.162000    0.379000   -0.921000
     27          6           0       -2.125000   -0.142000   -1.727000
     28          1           0       -1.810000   -0.914000   -2.424000
     29          6           0       -3.494000    0.253000   -1.679000
     30          1           0       -4.166000   -0.243000   -2.375000
     31          6           0       -3.905000    1.116000   -0.730000
     32          1           0       -4.947000    1.421000   -0.661000
     33          6           0       -2.993000    1.533000    0.149000
     34          1           0       -3.239000    2.298000    0.881000
     35          1           0       -1.100000   -2.237000    3.003000
 ---------------------------------------------------------------------
                    Distance matrix (angstroms):
                    1          2          3          4          5
     1  N    0.000000
     2  H    1.000239   0.000000
     3  H    1.000244   1.633162   0.000000
     4  C    1.500098   2.062188   2.061992   0.000000
     5  H    2.044593   2.314913   2.307744   1.092617   0.000000
     6  H    2.023759   2.280599   2.874429   1.093298   1.845701
     7  C    2.475794   3.341676   2.651999   1.518585   2.148140
     8  H    2.678100   3.605474   2.941390   2.136953   3.037639
     9  H    2.770280   3.687183   2.530160   2.219699   2.544488
    10  C    3.847917   4.574704   4.093727   2.523607   2.830445
    11  H    4.630574   5.450355   4.724385   3.458201   3.754027
    12  H    4.062454   4.652841   4.231417   2.665426   2.526980
    13  N    4.583281   5.203228   5.079756   3.246356   3.741435
    14  C    5.066095   5.466120   5.679444   3.651196   3.937100
    15  C    5.964487   6.317038   6.457407   4.475159   4.433497
    16  H    6.358380   6.810972   6.708090   4.862689   4.745504
    17  C    6.780544   6.954225   7.345692   5.343608   5.182942
    18  Cl   8.000538   8.147818   8.436176   6.563488   6.173296
    19  C    6.767985   6.793019   7.474745   5.461611   5.400618
    20  H    7.550778   7.469693   8.254297   6.300237   6.130306
    21  C    6.082456   6.109793   6.897213   4.896566   5.084688
    22  H    6.365649   6.270675   7.256915   5.364194   5.617430
    23  C    5.072238   5.282368   5.867339   3.853036   4.252818
    24  S    4.676295   4.898942   5.576120   3.869346   4.627800
    25  C    4.908968   5.449174   5.630314   4.093256   4.994962
    26  C    4.941808   5.621180   5.491446   3.883501   4.647752
    27  C    5.600900   6.409470   5.989408   4.706151   5.495050
    28  H    5.838167   6.708663   6.070515   4.886742   5.537461
    29  C    6.344790   7.145076   6.752488   5.694033   6.600162
    30  H    7.040229   7.900241   7.331096   6.456266   7.333624
    31  C    6.395727   7.079473   6.945188   5.885619   6.878121
    32  H    7.186001   7.849906   7.721637   6.819058   7.843733
    33  C    5.697568   6.254131   6.390660   5.143797   6.132932
    34  H    6.100427   6.521719   6.879202   5.673848   6.668225
    35  H    0.999741   1.632725   1.633056   2.061380   2.889630
                    6          7          8          9         10
     6  H    0.000000
     7  C    2.228302   0.000000
     8  H    2.544445   1.092118   0.000000
     9  H    3.153762   1.092005   1.686455   0.000000
    10  C    2.887507   1.538649   2.173087   2.163221   0.000000
    11  H    3.910483   2.163489   2.557713   2.381853   1.092588
    12  H    3.125167   2.111143   3.030895   2.519637   1.092669
    13  N    3.083976   2.600305   2.785100   3.476519   1.499267
    14  C    3.229666   3.513931   3.866660   4.450068   2.446181
    15  C    4.240077   4.325174   4.905928   5.077498   3.020524
    16  H    4.848328   4.444810   5.082395   5.008290   2.984403
    17  C    4.955392   5.492351   6.096865   6.280966   4.327487
    18  Cl   6.352863   6.670618   7.415189   7.284146   5.437217
    19  C    4.826554   5.888262   6.381450   6.803673   4.971038
    20  H    5.663382   6.845094   7.386406   7.732276   5.965086
    21  C    4.071005   5.383836   5.683856   6.405038   4.688161
    22  H    4.409801   6.017737   6.218599   7.071035   5.523136
    23  C    3.063000   4.133102   4.323310   5.186105   3.493254
    24  S    2.917776   4.180100   3.950203   5.262453   4.072252
    25  C    3.499639   3.743904   3.209755   4.709289   3.544266
    26  C    3.593409   3.129265   2.782320   3.989272   2.513975
    27  C    4.627250   3.610842   3.057614   4.194254   3.098640
    28  H    5.022252   3.579659   3.210024   3.933432   2.897322
    29  C    5.534487   4.673203   3.878108   5.203846   4.439637
    30  H    6.422521   5.290312   4.487246   5.638814   5.074524
    31  C    5.515048   5.157862   4.282017   5.833107   5.104730
    32  H    6.437655   6.117887   5.175554   6.737656   6.160434
    33  C    4.579208   4.720373   3.948194   5.574241   4.700031
    34  H    4.962638   5.491224   4.735465   6.391215   5.563324
    35  H    2.293428   2.691072   2.471182   3.059672   4.106620
                   11         12         13         14         15
    11  H    0.000000
    12  H    1.756181   0.000000
    13  N    2.019587   2.202680   0.000000
    14  C    3.143807   2.630252   1.362948   0.000000
    15  C    3.539646   2.731300   2.399215   1.439385   0.000000
    16  H    3.203997   2.591107   2.686011   2.226684   1.087368
    17  C    4.929889   3.918009   3.663428   2.428394   1.408584
    18  Cl   5.885997   4.782730   5.065199   4.004564   2.670969
    19  C    5.734344   4.696949   4.134090   2.772038   2.436395
    20  H    6.737215   5.587873   5.206431   3.847657   3.358057
    21  C    5.525430   4.681714   3.671704   2.420925   2.846449
    22  H    6.404535   5.579222   4.501227   3.368908   3.929287
    23  C    4.323919   3.728798   2.391355   1.410105   2.503661
    24  S    4.855988   4.644492   3.031573   2.802652   4.159910
    25  C    3.978786   4.434532   2.447331   2.961370   4.357583
    26  C    2.728478   3.461158   1.403473   2.385456   3.595575
    27  C    2.832279   4.132474   2.431566   3.596871   4.604944
    28  H    2.266292   3.852042   2.624038   3.877619   4.617004
    29  C    4.176362   5.503940   3.753249   4.809369   5.908098
    30  H    4.608446   6.126952   4.574500   5.708259   6.696941
    31  C    5.092481   6.156952   4.245674   5.082510   6.342560
    32  H    6.112746   7.222595   5.333414   6.145032   7.407904
    33  C    4.967608   5.671981   3.700951   4.294464   5.658607
    34  H    5.943971   6.473903   4.522253   4.891319   6.274703
    35  H    4.809333   4.552888   4.650562   5.252784   6.324253
                   16         17         18         19         20
    16  H    0.000000
    17  C    2.163186   0.000000
    18  Cl   2.782943   1.742632   0.000000
    19  C    3.416510   1.399824   2.769010   0.000000
    20  H    4.231900   2.075674   2.807809   1.087166   0.000000
    21  C    3.929463   2.434811   4.057656   1.387781   2.206272
    22  H    5.013579   3.448734   4.970030   2.203424   2.651791
    23  C    3.495278   2.848088   4.580294   2.439509   3.452739
    24  S    5.028688   4.643902   6.376686   4.101373   5.010349
    25  C    4.924346   5.247793   6.907806   5.123217   6.156623
    26  C    3.907735   4.743469   6.246199   4.996772   6.081610
    27  C    4.657502   5.849255   7.215809   6.248202   7.333355
    28  H    4.418135   5.959992   7.132095   6.581115   7.655134
    29  C    6.024951   7.069612   8.502441   7.319935   8.392303
    30  H    6.674200   7.914900   9.252236   8.271375   9.346911
    31  C    6.669292   7.346996   8.918955   7.340883   8.375267
    32  H    7.738257   8.376820   9.959337   8.310995   9.322845
    33  C    6.174610   6.525514   8.187016   6.336352   7.338270
    34  H    6.913532   6.970417   8.682352   6.568816   7.493996
    35  H    6.752575   7.192360   8.540041   7.110474   7.947859
                   21         22         23         24         25
    21  C    0.000000
    22  H    1.086844   0.000000
    23  C    1.428847   2.114343   0.000000
    24  S    2.815972   2.852957   1.796693   0.000000
    25  C    4.057218   4.381697   2.752784   1.790369   0.000000
    26  C    4.245959   4.871404   2.880140   2.748130   1.395006
    27  C    5.567735   6.196805   4.229019   3.964698   2.297937
    28  H    6.097847   6.848216   4.793367   4.818317   3.280093
    29  C    6.485098   6.953666   5.176828   4.495346   2.706773
    30  H    7.505921   8.013845   6.197863   5.576675   3.787286
    31  C    6.313157   6.577283   5.076796   4.000690   2.379995
    32  H    7.234856   7.405911   6.054244   4.843316   3.367824
    33  C    5.198705   5.360137   4.007319   2.728986   1.365600
    34  H    5.313703   5.253765   4.302220   2.764991   2.076875
    35  H    6.266959   6.474410   5.158975   4.428705   4.505810
                   26         27         28         29         30
    26  C    0.000000
    27  C    1.359576   0.000000
    28  H    2.085848   1.086747   0.000000
    29  C    2.455334   1.425654   2.180085   0.000000
    30  H    3.394851   2.143778   2.450179   1.087206   0.000000
    31  C    2.846700   2.396867   3.373360   1.346956   2.149657
    32  H    3.934411   3.397500   4.289658   2.124090   2.513295
    33  C    2.414369   2.660531   3.742676   2.287135   3.301618
    34  H    3.353162   3.741158   4.825144   3.286434   4.232912
    35  H    4.716469   5.273761   5.630875   5.818287   6.503789
                   31         32         33         34         35
    31  C    0.000000
    32  H    1.087911   0.000000
    33  C    1.333519   2.118197   0.000000
    34  H    2.106182   2.462551   1.086998   0.000000
    35  H    5.748558   6.450215   5.093296   5.444670   0.000000
 Stoichiometry    C15H16ClN2S(1+)
 Framework group  C1[X(C15H16ClN2S)]
 Deg. of freedom    99
 Full point group                 C1      NOp   1
 Largest Abelian subgroup         C1      NOp   1
 Largest concise Abelian subgroup C1      NOp   1
                         Standard orientation:                         
 ---------------------------------------------------------------------
 Center     Atomic      Atomic             Coordinates (Angstroms)
 Number     Number       Type             X           Y           Z
 ---------------------------------------------------------------------
      1          7           0        1.776354    3.839415    1.015083
      2          1           0        1.402831    4.213121    1.864378
      3          1           0        1.965765    4.586432    0.377448
      4          6           0        0.781992    2.898271    0.402070
      5          1           0       -0.084872    3.539059    0.223890
      6          1           0        0.660147    2.161542    1.200621
      7          6           0        1.306677    2.370304   -0.921583
      8          1           0        2.270788    1.886839   -0.749910
      9          1           0        1.580728    3.130708   -1.655856
     10          6           0        0.318776    1.376500   -1.557073
     11          1           0        0.640055    1.145055   -2.575386
     12          1           0       -0.627375    1.917253   -1.636504
     13          7           0        0.229408    0.003964   -0.960451
     14          6           0       -0.882229   -0.289807   -0.228612
     15          6           0       -2.158497   -0.217883   -0.890273
     16          1           0       -2.261839   -0.066767   -1.962120
     17          6           0       -3.297673   -0.513716   -0.116407
     18         17           0       -4.829282   -0.246339   -0.903458
     19          6           0       -3.174655   -0.768820    1.254467
     20          1           0       -4.136148   -0.797403    1.761066
     21          6           0       -1.934836   -0.904451    1.863065
     22          1           0       -1.769648   -1.091652    2.920844
     23          6           0       -0.746490   -0.558874    1.148912
     24         16           0        0.869420   -0.656276    1.928304
     25          6           0        1.886241   -1.041852    0.506043
     26          6           0        1.394772   -0.753917   -0.767375
     27          6           0        2.296311   -1.000871   -1.754638
     28          1           0        2.051447   -0.620188   -2.742636
     29          6           0        3.523958   -1.695486   -1.547556
     30          1           0        4.160351   -1.824960   -2.419483
     31          6           0        3.883653   -2.054224   -0.300072
     32          1           0        4.822721   -2.570483   -0.112512
     33          6           0        3.067671   -1.700569    0.693596
     34          1           0        3.254204   -2.038386    1.709790
     35          1           0        2.623566    3.346725    1.212492
 ---------------------------------------------------------------------
 Rotational constants (GHZ):           0.4478797           0.2112219           0.1908418
 Leave Link  202 at Sun Jul 18 13:52:36 2021, MaxMem=   104857600 cpu:               0.0 elap:               0.0
 (Enter /dades/curu/g16A03_MST/g16/l301.exe)
 Standard basis: 6-31G(d) (6D, 7F)
 Ernie: Thresh=  0.10000D-02 Tol=  0.10000D-05 Strict=F.
 There are   325 symmetry adapted cartesian basis functions of A   symmetry.
 There are   325 symmetry adapted basis functions of A   symmetry.
   325 basis functions,   644 primitive gaussians,   325 cartesian basis functions
    76 alpha electrons       76 beta electrons
       nuclear repulsion energy      1675.0443310213 Hartrees.
 IExCor=  402 DFT=T Ex+Corr=B3LYP ExCW=0 ScaHFX=  0.200000
 ScaDFX=  0.800000  0.720000  1.000000  0.810000 ScalE2=  1.000000  1.000000
 IRadAn=      5 IRanWt=     -1 IRanGd=            0 ICorTp=0 IEmpDi=  4
 NAtoms=   35 NActive=   35 NUniq=   35 SFac= 1.00D+00 NAtFMM=   60 NAOKFM=F Big=F
 Integral buffers will be    131072 words long.
 Raffenetti 2 integral format.
 Two-electron integral symmetry is turned on.
 Using the following non-standard input for PCM:
 MSTModel=DFT cav MSTCharged
 --- end of non-standard input.
 MST model for solvation energy: B3LYP parametrization.
 MST cavity parameters:
 ISph   IAn     Re0     Alpha   Atom Type   QCorr
 ------------------------------------------------
   1      7     1.50     1.15      NH+        T
   2      1     0.90     1.15      NH+        T
   3      1     0.90     1.15      NH+        T
   4      6     1.50     1.50      CN+        F
   5      1     1.20     1.50      CN+        F
   6      1     1.20     1.50      CN+        F
   7      6     1.50     1.50      CH2        F
   8      1     1.20     1.50      CH2        F
   9      1     1.20     1.50      CH2        F
  10      6     1.50     1.50      CH2        F
  11      1     1.20     1.50      CH2        F
  12      1     1.20     1.50      CH2        F
  13      7     1.50     1.50      Nc         F
  14      6     1.50     1.50      C          F
  15      6     1.50     1.50      CH         F
  16      1     1.20     1.50      CH         F
  17      6     1.50     1.50      C          F
  18     17     1.80     1.50      Cl         F
  19      6     1.50     1.50      CH         F
  20      1     1.20     1.50      CH         F
  21      6     1.50     1.50      CH         F
  22      1     1.20     1.50      CH         F
  23      6     1.50     1.50      C          F
  24     16     1.75     1.50      S          F
  25      6     1.50     1.50      C          F
  26      6     1.50     1.50      C          F
  27      6     1.50     1.50      CH         F
  28      1     1.20     1.50      CH         F
  29      6     1.50     1.50      CH         F
  30      1     1.20     1.50      CH         F
  31      6     1.50     1.50      CH         F
  32      1     1.20     1.50      CH         F
  33      6     1.50     1.50      CH         F
  34      1     1.20     1.50      CH         F
  35      1     0.90     1.15      NH+        T
 ------------------------------------------------------------------------------
 Polarizable Continuum Model (PCM)
 =================================
 Model                : PCM.
 Atomic radii         : MST.
 Polarization charges : Total charges.
 Charge compensation  : None.
 Solution method      : On-the-fly selection.
 Cavity type          : Scaled VdW (van der Waals Surface) (Alpha=1.500).
 Cavity algorithm     : GePol (No added spheres)
                        Default sphere list used, NSphG=   35.
                        Lebedev-Laikov grids with approx.  5.0 points / Ang**2.
                        Smoothing algorithm: York/Karplus (Gamma=1.0000).
                        Polarization charges: spherical gaussians, with
                                              point-specific exponents (IZeta= 3).
                        Self-potential: point-specific (ISelfS= 7).
                        Self-field    : sphere-specific E.n sum rule (ISelfD= 2).
 1st derivatives      : Analytical E(r).r(x)/FMM algorithm (CHGder, D1EAlg=3).
                        Cavity 1st derivative terms included.
 Solvent              : n-Octanol, Eps=   9.862900 Eps(inf)=   2.043470
 ------------------------------------------------------------------------------
 GePol: Number of generator spheres                  =      35
 GePol: Total number of spheres                      =      35
 GePol: Number of exposed spheres                    =      35 (100.00%)
 GePol: Number of points                             =    3268
 GePol: Average weight of points                     =       0.11
 GePol: Minimum weight of points                     =   0.86D-09
 GePol: Maximum weight of points                     =    0.22065
 GePol: Number of points with low weight             =     181
 GePol: Fraction of low-weight points (<1% of avg)   =       5.54%
 GePol: Cavity surface area                          =    369.550 Ang**2
 GePol: Cavity volume                                =    451.581 Ang**3
 Surface areas from nonelectrostatic (unscaled) cavity and vdw tensions:
 Sphere =    1 Type =  NH+ Surf =       12.370 Tension =       -0.274
 Sphere =    2 Type =  NH+ Surf =        3.860 Tension =       -0.274
 Sphere =    3 Type =  NH+ Surf =        3.861 Tension =       -0.274
 Sphere =    4 Type =  CN+ Surf =        4.129 Tension =       -0.227
 Sphere =    5 Type =  CN+ Surf =        9.941 Tension =       -0.227
 Sphere =    6 Type =  CN+ Surf =        9.757 Tension =       -0.227
 Sphere =    7 Type =  CH2 Surf =        3.758 Tension =       -0.194
 Sphere =    8 Type =  CH2 Surf =        9.927 Tension =       -0.194
 Sphere =    9 Type =  CH2 Surf =       10.017 Tension =       -0.194
 Sphere =   10 Type =  CH2 Surf =        3.791 Tension =       -0.194
 Sphere =   11 Type =  CH2 Surf =        9.300 Tension =       -0.194
 Sphere =   12 Type =  CH2 Surf =        9.876 Tension =       -0.194
 Sphere =   13 Type =  Nc  Surf =        5.447 Tension =       -0.161
 Sphere =   14 Type =  C   Surf =        5.671 Tension =       -0.205
 Sphere =   15 Type =  CH  Surf =        7.530 Tension =       -0.195
 Sphere =   16 Type =  CH  Surf =        9.973 Tension =       -0.195
 Sphere =   17 Type =  C   Surf =        5.410 Tension =       -0.205
 Sphere =   18 Type =  Cl  Surf =       32.193 Tension =       -0.163
 Sphere =   19 Type =  CH  Surf =        7.672 Tension =       -0.195
 Sphere =   20 Type =  CH  Surf =        9.949 Tension =       -0.195
 Sphere =   21 Type =  CH  Surf =        7.847 Tension =       -0.195
 Sphere =   22 Type =  CH  Surf =       10.107 Tension =       -0.195
 Sphere =   23 Type =  C   Surf =        5.924 Tension =       -0.205
 Sphere =   24 Type =  S   Surf =       23.374 Tension =       -0.186
 Sphere =   25 Type =  C   Surf =        5.591 Tension =       -0.205
 Sphere =   26 Type =  C   Surf =        5.706 Tension =       -0.205
 Sphere =   27 Type =  CH  Surf =        7.500 Tension =       -0.195
 Sphere =   28 Type =  CH  Surf =        9.683 Tension =       -0.195
 Sphere =   29 Type =  CH  Surf =        7.730 Tension =       -0.195
 Sphere =   30 Type =  CH  Surf =       10.232 Tension =       -0.195
 Sphere =   31 Type =  CH  Surf =        7.525 Tension =       -0.195
 Sphere =   32 Type =  CH  Surf =       10.248 Tension =       -0.195
 Sphere =   33 Type =  CH  Surf =        7.187 Tension =       -0.195
 Sphere =   34 Type =  CH  Surf =        9.928 Tension =       -0.195
 Sphere =   35 Type =  NH+ Surf =        3.856 Tension =       -0.274
 PCM non-electrostatic energy =        -0.0195586628 Hartrees.
 Nuclear repulsion after PCM non-electrostatic terms =     1675.0247723585 Hartrees.
 Leave Link  301 at Sun Jul 18 13:52:36 2021, MaxMem=   104857600 cpu:               0.2 elap:               0.4
 (Enter /dades/curu/g16A03_MST/g16/l302.exe)
 NPDir=0 NMtPBC=     1 NCelOv=     1 NCel=       1 NClECP=     1 NCelD=      1
         NCelK=      1 NCelE2=     1 NClLst=     1 CellRange=     0.0.
 One-electron integrals computed using PRISM.
 One-electron integral symmetry used in STVInt
 NBasis=   325 RedAO= T EigKep=  4.16D-04  NBF=   325
 NBsUse=   325 1.00D-06 EigRej= -1.00D+00 NBFU=   325
 Precomputing XC quadrature grid using
 IXCGrd= 4 IRadAn=           5 IRanWt=          -1 IRanGd=           0 AccXCQ= 0.00D+00.
 Generated NRdTot=       0 NPtTot=           0 NUsed=           0 NTot=          32
 NSgBfM=   323   322   322   323   323 MxSgAt=    35 MxSgA2=    35.
 Leave Link  302 at Sun Jul 18 13:52:37 2021, MaxMem=   104857600 cpu:               4.4 elap:               1.2
 (Enter /dades/curu/g16A03_MST/g16/l303.exe)
 DipDrv:  MaxL=1.
 Leave Link  303 at Sun Jul 18 13:52:37 2021, MaxMem=   104857600 cpu:               0.1 elap:               0.1
 (Enter /dades/curu/g16A03_MST/g16/l401.exe)
 ExpMin= 1.17D-01 ExpMax= 2.52D+04 ExpMxC= 3.78D+03 IAcc=3 IRadAn=         5 AccDes= 0.00D+00
 Harris functional with IExCor=  402 and IRadAn=       5 diagonalized for initial guess.
 HarFok:  IExCor=  402 AccDes= 0.00D+00 IRadAn=         5 IDoV= 1 UseB2=F ITyADJ=14
 ICtDFT=  3500011 ScaDFX=  1.000000  1.000000  1.000000  1.000000
 FoFCou: FMM=F IPFlag=           0 FMFlag=      100000 FMFlg1=           0
         NFxFlg=           0 DoJE=T BraDBF=F KetDBF=T FulRan=T
         wScrn=  0.000000 ICntrl=       500 IOpCl=  0 I1Cent=   200000004 NGrid=           0
         NMat0=    1 NMatS0=      1 NMatT0=    0 NMatD0=    1 NMtDS0=    0 NMtDT0=    0
 Petite list used in FoFCou.
 Harris En= -1548.77258421619    
 JPrj=0 DoOrth=F DoCkMO=F.
 Leave Link  401 at Sun Jul 18 13:52:46 2021, MaxMem=   104857600 cpu:              34.5 elap:               8.7
 (Enter /dades/curu/g16A03_MST/g16/l502.exe)
 Integral symmetry usage will be decided dynamically.
 Closed shell SCF:
 Using DIIS extrapolation, IDIIS=  1040.
 NGot=   104857600 LenX=   104640758 LenY=   104534692
 Requested convergence on RMS density matrix=1.00D-08 within 128 cycles.
 Requested convergence on MAX density matrix=1.00D-06.
 Requested convergence on             energy=1.00D-06.
 No special actions if energy rises.
 Fock matrices will be formed incrementally for  20 cycles.

 Cycle   1  Pass 1  IDiag  1:
 FoFJK:  IHMeth= 1 ICntrl=       0 DoSepK=F KAlg= 0 I1Cent=           0 FoldK=F
 IRaf= 830000000 NMat=       1 IRICut=       1 DoRegI=T DoRafI=F ISym2E= 0 IDoP0=0 IntGTp=1.
 FoFCou: FMM=F IPFlag=           0 FMFlag=      100000 FMFlg1=           0
         NFxFlg=           0 DoJE=F BraDBF=F KetDBF=F FulRan=T
         wScrn=  0.000000 ICntrl=         0 IOpCl=  0 I1Cent=           0 NGrid=           0
         NMat0=    1 NMatS0=      1 NMatT0=    0 NMatD0=    1 NMtDS0=    0 NMtDT0=    0
 Symmetry not used in FoFCou.
 Inv3:  Mode=1 IEnd=    32039472.
 Iteration    1 A*A^-1 deviation from unit magnitude is 8.44D-15 for    801.
 Iteration    1 A*A^-1 deviation from orthogonality  is 1.66D-15 for   3241   3031.
 Iteration    1 A^-1*A deviation from unit magnitude is 8.66D-15 for    801.
 Iteration    1 A^-1*A deviation from orthogonality  is 1.63D-15 for   3262   3259.
 E= -1548.51916280049    
 DIIS: error= 2.61D-02 at cycle   1 NSaved=   1.
 NSaved= 1 IEnMin= 1 EnMin= -1548.51916280049     IErMin= 1 ErrMin= 2.61D-02
 ErrMax= 2.61D-02  0.00D+00 EMaxC= 1.00D-01 BMatC= 4.15D-01 BMatP= 4.15D-01
 IDIUse=3 WtCom= 7.39D-01 WtEn= 2.61D-01
 Coeff-Com:  0.100D+01
 Coeff-En:   0.100D+01
 Coeff:      0.100D+01
 Gap=     0.293 Goal=   None    Shift=    0.000
 GapD=    0.293 DampG=1.000 DampE=0.500 DampFc=0.5000 IDamp=-1.
 Damping current iteration by 5.00D-01
 RMSDP=5.08D-03 MaxDP=1.71D-01              OVMax= 2.62D-01

 Cycle   2  Pass 1  IDiag  1:
 RMSU=  2.52D-03    CP:  9.83D-01
 E= -1548.70031648366     Delta-E=       -0.181153683176 Rises=F Damp=T
 DIIS: error= 8.10D-03 at cycle   2 NSaved=   2.
 NSaved= 2 IEnMin= 2 EnMin= -1548.70031648366     IErMin= 2 ErrMin= 8.10D-03
 ErrMax= 8.10D-03  0.00D+00 EMaxC= 1.00D-01 BMatC= 3.14D-02 BMatP= 4.15D-01
 IDIUse=3 WtCom= 9.19D-01 WtEn= 8.10D-02
 Coeff-Com:  0.825D-01 0.917D+00
 Coeff-En:   0.172D+00 0.828D+00
 Coeff:      0.898D-01 0.910D+00
 Gap=     0.243 Goal=   None    Shift=    0.000
 RMSDP=1.42D-03 MaxDP=8.31D-02 DE=-1.81D-01 OVMax= 1.61D-01

 Cycle   3  Pass 1  IDiag  1:
 RMSU=  1.32D-03    CP:  9.76D-01  7.93D-01
 E= -1548.93805173517     Delta-E=       -0.237735251510 Rises=F Damp=F
 DIIS: error= 4.10D-03 at cycle   3 NSaved=   3.
 NSaved= 3 IEnMin= 3 EnMin= -1548.93805173517     IErMin= 3 ErrMin= 4.10D-03
 ErrMax= 4.10D-03  0.00D+00 EMaxC= 1.00D-01 BMatC= 1.58D-02 BMatP= 3.14D-02
 IDIUse=3 WtCom= 9.59D-01 WtEn= 4.10D-02
 Coeff-Com: -0.147D-01 0.394D+00 0.621D+00
 Coeff-En:   0.000D+00 0.000D+00 0.100D+01
 Coeff:     -0.141D-01 0.378D+00 0.636D+00
 Gap=     0.179 Goal=   None    Shift=    0.000
 RMSDP=8.17D-04 MaxDP=3.48D-02 DE=-2.38D-01 OVMax= 7.74D-02

 Cycle   4  Pass 1  IDiag  1:
 RMSU=  6.83D-04    CP:  9.77D-01  8.76D-01  6.99D-01
 E= -1548.94525351740     Delta-E=       -0.007201782229 Rises=F Damp=F
 DIIS: error= 3.90D-03 at cycle   4 NSaved=   4.
 NSaved= 4 IEnMin= 4 EnMin= -1548.94525351740     IErMin= 4 ErrMin= 3.90D-03
 ErrMax= 3.90D-03  0.00D+00 EMaxC= 1.00D-01 BMatC= 9.26D-03 BMatP= 1.58D-02
 IDIUse=3 WtCom= 9.61D-01 WtEn= 3.90D-02
 Coeff-Com: -0.204D-01 0.112D+00 0.444D+00 0.464D+00
 Coeff-En:   0.000D+00 0.000D+00 0.391D+00 0.609D+00
 Coeff:     -0.196D-01 0.108D+00 0.442D+00 0.470D+00
 Gap=     0.172 Goal=   None    Shift=    0.000
 RMSDP=4.28D-04 MaxDP=1.09D-02 DE=-7.20D-03 OVMax= 3.25D-02

 Cycle   5  Pass 1  IDiag  1:
 RMSU=  1.89D-04    CP:  9.77D-01  8.76D-01  7.91D-01  4.67D-01
 E= -1548.95509965612     Delta-E=       -0.009846138717 Rises=F Damp=F
 DIIS: error= 6.10D-04 at cycle   5 NSaved=   5.
 NSaved= 5 IEnMin= 5 EnMin= -1548.95509965612     IErMin= 5 ErrMin= 6.10D-04
 ErrMax= 6.10D-04  0.00D+00 EMaxC= 1.00D-01 BMatC= 3.46D-04 BMatP= 9.26D-03
 IDIUse=3 WtCom= 9.94D-01 WtEn= 6.10D-03
 Coeff-Com: -0.785D-02 0.226D-01 0.173D+00 0.241D+00 0.572D+00
 Coeff-En:   0.000D+00 0.000D+00 0.000D+00 0.000D+00 0.100D+01
 Coeff:     -0.780D-02 0.225D-01 0.172D+00 0.239D+00 0.575D+00
 Gap=     0.170 Goal=   None    Shift=    0.000
 RMSDP=9.10D-05 MaxDP=7.17D-03 DE=-9.85D-03 OVMax= 5.66D-03

 Cycle   6  Pass 1  IDiag  1:
 RMSU=  4.97D-05    CP:  9.76D-01  8.69D-01  8.07D-01  5.17D-01  6.70D-01
 E= -1548.95544412613     Delta-E=       -0.000344470009 Rises=F Damp=F
 DIIS: error= 1.77D-04 at cycle   6 NSaved=   6.
 NSaved= 6 IEnMin= 6 EnMin= -1548.95544412613     IErMin= 6 ErrMin= 1.77D-04
 ErrMax= 1.77D-04  0.00D+00 EMaxC= 1.00D-01 BMatC= 3.50D-05 BMatP= 3.46D-04
 IDIUse=3 WtCom= 9.98D-01 WtEn= 1.77D-03
 Coeff-Com: -0.249D-02 0.305D-02 0.579D-01 0.916D-01 0.310D+00 0.540D+00
 Coeff-En:   0.000D+00 0.000D+00 0.000D+00 0.000D+00 0.000D+00 0.100D+01
 Coeff:     -0.249D-02 0.305D-02 0.578D-01 0.915D-01 0.309D+00 0.541D+00
 Gap=     0.170 Goal=   None    Shift=    0.000
 RMSDP=2.36D-05 MaxDP=1.20D-03 DE=-3.44D-04 OVMax= 1.63D-03

 Cycle   7  Pass 1  IDiag  1:
 RMSU=  1.50D-05    CP:  9.76D-01  8.69D-01  8.09D-01  5.21D-01  7.02D-01
                    CP:  6.63D-01
 E= -1548.95547625254     Delta-E=       -0.000032126413 Rises=F Damp=F
 DIIS: error= 5.74D-05 at cycle   7 NSaved=   7.
 NSaved= 7 IEnMin= 7 EnMin= -1548.95547625254     IErMin= 7 ErrMin= 5.74D-05
 ErrMax= 5.74D-05  0.00D+00 EMaxC= 1.00D-01 BMatC= 2.84D-06 BMatP= 3.50D-05
 IDIUse=1 WtCom= 1.00D+00 WtEn= 0.00D+00
 Coeff-Com: -0.749D-03-0.439D-04 0.189D-01 0.313D-01 0.121D+00 0.290D+00
 Coeff-Com:  0.539D+00
 Coeff:     -0.749D-03-0.439D-04 0.189D-01 0.313D-01 0.121D+00 0.290D+00
 Coeff:      0.539D+00
 Gap=     0.170 Goal=   None    Shift=    0.000
 RMSDP=7.97D-06 MaxDP=4.48D-04 DE=-3.21D-05 OVMax= 6.61D-04

 Cycle   8  Pass 1  IDiag  1:
 RMSU=  5.21D-06    CP:  9.76D-01  8.70D-01  8.08D-01  5.22D-01  7.10D-01
                    CP:  7.10D-01  6.59D-01
 E= -1548.95547896481     Delta-E=       -0.000002712266 Rises=F Damp=F
 DIIS: error= 1.96D-05 at cycle   8 NSaved=   8.
 NSaved= 8 IEnMin= 8 EnMin= -1548.95547896481     IErMin= 8 ErrMin= 1.96D-05
 ErrMax= 1.96D-05  0.00D+00 EMaxC= 1.00D-01 BMatC= 3.91D-07 BMatP= 2.84D-06
 IDIUse=1 WtCom= 1.00D+00 WtEn= 0.00D+00
 Coeff-Com:  0.205D-04-0.610D-03 0.143D-02 0.233D-02 0.180D-01 0.772D-01
 Coeff-Com:  0.300D+00 0.602D+00
 Coeff:      0.205D-04-0.610D-03 0.143D-02 0.233D-02 0.180D-01 0.772D-01
 Coeff:      0.300D+00 0.602D+00
 Gap=     0.170 Goal=   None    Shift=    0.000
 RMSDP=2.87D-06 MaxDP=1.23D-04 DE=-2.71D-06 OVMax= 2.24D-04

 Cycle   9  Pass 1  IDiag  1:
 RMSU=  2.05D-06    CP:  9.76D-01  8.69D-01  8.09D-01  5.23D-01  7.12D-01
                    CP:  7.11D-01  7.47D-01  7.45D-01
 E= -1548.95547936260     Delta-E=       -0.000000397793 Rises=F Damp=F
 DIIS: error= 5.77D-06 at cycle   9 NSaved=   9.
 NSaved= 9 IEnMin= 9 EnMin= -1548.95547936260     IErMin= 9 ErrMin= 5.77D-06
 ErrMax= 5.77D-06  0.00D+00 EMaxC= 1.00D-01 BMatC= 4.38D-08 BMatP= 3.91D-07
 IDIUse=1 WtCom= 1.00D+00 WtEn= 0.00D+00
 Coeff-Com:  0.124D-03-0.358D-03-0.157D-02-0.301D-02-0.591D-02 0.472D-02
 Coeff-Com:  0.896D-01 0.315D+00 0.602D+00
 Coeff:      0.124D-03-0.358D-03-0.157D-02-0.301D-02-0.591D-02 0.472D-02
 Coeff:      0.896D-01 0.315D+00 0.602D+00
 Gap=     0.170 Goal=   None    Shift=    0.000
 RMSDP=9.78D-07 MaxDP=6.26D-05 DE=-3.98D-07 OVMax= 6.80D-05

 Cycle  10  Pass 1  IDiag  1:
 RMSU=  5.64D-07    CP:  9.76D-01  8.69D-01  8.09D-01  5.22D-01  7.12D-01
                    CP:  7.18D-01  7.59D-01  8.21D-01  7.98D-01
 E= -1548.95547940969     Delta-E=       -0.000000047088 Rises=F Damp=F
 DIIS: error= 2.13D-06 at cycle  10 NSaved=  10.
 NSaved=10 IEnMin=10 EnMin= -1548.95547940969     IErMin=10 ErrMin= 2.13D-06
 ErrMax= 2.13D-06  0.00D+00 EMaxC= 1.00D-01 BMatC= 3.52D-09 BMatP= 4.38D-08
 IDIUse=1 WtCom= 1.00D+00 WtEn= 0.00D+00
 Coeff-Com:  0.613D-04-0.128D-03-0.818D-03-0.166D-02-0.399D-02-0.291D-02
 Coeff-Com:  0.216D-01 0.112D+00 0.301D+00 0.575D+00
 Coeff:      0.613D-04-0.128D-03-0.818D-03-0.166D-02-0.399D-02-0.291D-02
 Coeff:      0.216D-01 0.112D+00 0.301D+00 0.575D+00
 Gap=     0.170 Goal=   None    Shift=    0.000
 RMSDP=2.83D-07 MaxDP=1.47D-05 DE=-4.71D-08 OVMax= 2.44D-05

 Cycle  11  Pass 1  IDiag  1:
 RMSU=  2.11D-07    CP:  9.76D-01  8.69D-01  8.09D-01  5.22D-01  7.12D-01
                    CP:  7.19D-01  7.64D-01  8.27D-01  8.19D-01  7.17D-01
 E= -1548.95547941311     Delta-E=       -0.000000003425 Rises=F Damp=F
 DIIS: error= 7.47D-07 at cycle  11 NSaved=  11.
 NSaved=11 IEnMin=11 EnMin= -1548.95547941311     IErMin=11 ErrMin= 7.47D-07
 ErrMax= 7.47D-07  0.00D+00 EMaxC= 1.00D-01 BMatC= 5.24D-10 BMatP= 3.52D-09
 IDIUse=1 WtCom= 1.00D+00 WtEn= 0.00D+00
 Coeff-Com:  0.149D-04-0.158D-04-0.201D-03-0.468D-03-0.124D-02-0.230D-02
 Coeff-Com: -0.248D-02 0.122D-01 0.707D-01 0.312D+00 0.612D+00
 Coeff:      0.149D-04-0.158D-04-0.201D-03-0.468D-03-0.124D-02-0.230D-02
 Coeff:     -0.248D-02 0.122D-01 0.707D-01 0.312D+00 0.612D+00
 Gap=     0.170 Goal=   None    Shift=    0.000
 RMSDP=1.18D-07 MaxDP=4.32D-06 DE=-3.42D-09 OVMax= 1.08D-05

 Cycle  12  Pass 1  IDiag  1:
 RMSU=  6.91D-08    CP:  9.76D-01  8.69D-01  8.09D-01  5.22D-01  7.12D-01
                    CP:  7.19D-01  7.64D-01  8.36D-01  8.34D-01  7.98D-01
                    CP:  7.25D-01
 E= -1548.95547941371     Delta-E=       -0.000000000594 Rises=F Damp=F
 DIIS: error= 2.34D-07 at cycle  12 NSaved=  12.
 NSaved=12 IEnMin=12 EnMin= -1548.95547941371     IErMin=12 ErrMin= 2.34D-07
 ErrMax= 2.34D-07  0.00D+00 EMaxC= 1.00D-01 BMatC= 5.26D-11 BMatP= 5.24D-10
 IDIUse=1 WtCom= 1.00D+00 WtEn= 0.00D+00
 Coeff-Com:  0.597D-06 0.694D-05-0.468D-05-0.413D-04-0.136D-03-0.838D-03
 Coeff-Com: -0.410D-02-0.781D-02-0.390D-03 0.877D-01 0.307D+00 0.619D+00
 Coeff:      0.597D-06 0.694D-05-0.468D-05-0.413D-04-0.136D-03-0.838D-03
 Coeff:     -0.410D-02-0.781D-02-0.390D-03 0.877D-01 0.307D+00 0.619D+00
 Gap=     0.170 Goal=   None    Shift=    0.000
 RMSDP=4.06D-08 MaxDP=1.69D-06 DE=-5.94D-10 OVMax= 3.62D-06

 Cycle  13  Pass 1  IDiag  1:
 RMSU=  2.37D-08    CP:  9.76D-01  8.69D-01  8.09D-01  5.22D-01  7.12D-01
                    CP:  7.19D-01  7.64D-01  8.36D-01  8.42D-01  8.17D-01
                    CP:  7.99D-01  7.24D-01
 E= -1548.95547941380     Delta-E=       -0.000000000088 Rises=F Damp=F
 DIIS: error= 7.30D-08 at cycle  13 NSaved=  13.
 NSaved=13 IEnMin=13 EnMin= -1548.95547941380     IErMin=13 ErrMin= 7.30D-08
 ErrMax= 7.30D-08  0.00D+00 EMaxC= 1.00D-01 BMatC= 6.04D-12 BMatP= 5.26D-11
 IDIUse=1 WtCom= 1.00D+00 WtEn= 0.00D+00
 Coeff-Com: -0.127D-05 0.496D-05 0.202D-04 0.321D-04 0.750D-04-0.159D-03
 Coeff-Com: -0.177D-02-0.529D-02-0.794D-02 0.941D-02 0.844D-01 0.308D+00
 Coeff-Com:  0.613D+00
 Coeff:     -0.127D-05 0.496D-05 0.202D-04 0.321D-04 0.750D-04-0.159D-03
 Coeff:     -0.177D-02-0.529D-02-0.794D-02 0.941D-02 0.844D-01 0.308D+00
 Coeff:      0.613D+00
 Gap=     0.170 Goal=   None    Shift=    0.000
 RMSDP=1.31D-08 MaxDP=4.36D-07 DE=-8.82D-11 OVMax= 1.10D-06

 Cycle  14  Pass 1  IDiag  1:
 RMSU=  8.72D-09    CP:  9.76D-01  8.69D-01  8.09D-01  5.22D-01  7.12D-01
                    CP:  7.19D-01  7.65D-01  8.36D-01  8.42D-01  8.21D-01
                    CP:  8.12D-01  7.98D-01  7.32D-01
 E= -1548.95547941376     Delta-E=        0.000000000035 Rises=F Damp=F
 DIIS: error= 2.98D-08 at cycle  14 NSaved=  14.
 NSaved=14 IEnMin=13 EnMin= -1548.95547941380     IErMin=14 ErrMin= 2.98D-08
 ErrMax= 2.98D-08  0.00D+00 EMaxC= 1.00D-01 BMatC= 9.35D-13 BMatP= 6.04D-12
 IDIUse=1 WtCom= 1.00D+00 WtEn= 0.00D+00
 Coeff-Com: -0.650D-06 0.165D-05 0.977D-05 0.197D-04 0.502D-04 0.281D-05
 Coeff-Com: -0.449D-03-0.184D-02-0.396D-02-0.470D-02 0.943D-02 0.915D-01
 Coeff-Com:  0.335D+00 0.575D+00
 Coeff:     -0.650D-06 0.165D-05 0.977D-05 0.197D-04 0.502D-04 0.281D-05
 Coeff:     -0.449D-03-0.184D-02-0.396D-02-0.470D-02 0.943D-02 0.915D-01
 Coeff:      0.335D+00 0.575D+00
 Gap=     0.170 Goal=   None    Shift=    0.000
 RMSDP=4.39D-09 MaxDP=2.31D-07 DE= 3.46D-11 OVMax= 3.42D-07

 Error on total polarization charges =  0.00839
 SCF Done:  E(RB3LYP) =  -1548.95547941     A.U. after   14 cycles
            NFock= 14  Conv=0.44D-08     -V/T= 2.0058
 KE= 1.539961419851D+03 PE=-6.971147839821D+03 EE= 2.207206168198D+03
 Leave Link  502 at Sun Jul 18 13:57:30 2021, MaxMem=   104857600 cpu:            1101.4 elap:             283.7
 (Enter /dades/curu/g16A03_MST/g16/l601.exe)
 Copying SCF densities to generalized density rwf, IOpCl= 0 IROHF=0.

 **********************************************************************

            Population analysis using the SCF density.

 **********************************************************************

 Orbital symmetries:
       Occupied  (A) (A) (A) (A) (A) (A) (A) (A) (A) (A) (A) (A)
                 (A) (A) (A) (A) (A) (A) (A) (A) (A) (A) (A) (A)
                 (A) (A) (A) (A) (A) (A) (A) (A) (A) (A) (A) (A)
                 (A) (A) (A) (A) (A) (A) (A) (A) (A) (A) (A) (A)
                 (A) (A) (A) (A) (A) (A) (A) (A) (A) (A) (A) (A)
                 (A) (A) (A) (A) (A) (A) (A) (A) (A) (A) (A) (A)
                 (A) (A) (A) (A)
       Virtual   (A) (A) (A) (A) (A) (A) (A) (A) (A) (A) (A) (A)
                 (A) (A) (A) (A) (A) (A) (A) (A) (A) (A) (A) (A)
                 (A) (A) (A) (A) (A) (A) (A) (A) (A) (A) (A) (A)
                 (A) (A) (A) (A) (A) (A) (A) (A) (A) (A) (A) (A)
                 (A) (A) (A) (A) (A) (A) (A) (A) (A) (A) (A) (A)
                 (A) (A) (A) (A) (A) (A) (A) (A) (A) (A) (A) (A)
                 (A) (A) (A) (A) (A) (A) (A) (A) (A) (A) (A) (A)
                 (A) (A) (A) (A) (A) (A) (A) (A) (A) (A) (A) (A)
                 (A) (A) (A) (A) (A) (A) (A) (A) (A) (A) (A) (A)
                 (A) (A) (A) (A) (A) (A) (A) (A) (A) (A) (A) (A)
                 (A) (A) (A) (A) (A) (A) (A) (A) (A) (A) (A) (A)
                 (A) (A) (A) (A) (A) (A) (A) (A) (A) (A) (A) (A)
                 (A) (A) (A) (A) (A) (A) (A) (A) (A) (A) (A) (A)
                 (A) (A) (A) (A) (A) (A) (A) (A) (A) (A) (A) (A)
                 (A) (A) (A) (A) (A) (A) (A) (A) (A) (A) (A) (A)
                 (A) (A) (A) (A) (A) (A) (A) (A) (A) (A) (A) (A)
                 (A) (A) (A) (A) (A) (A) (A) (A) (A) (A) (A) (A)
                 (A) (A) (A) (A) (A) (A) (A) (A) (A) (A) (A) (A)
                 (A) (A) (A) (A) (A) (A) (A) (A) (A) (A) (A) (A)
                 (A) (A) (A) (A) (A) (A) (A) (A) (A) (A) (A) (A)
                 (A) (A) (A) (A) (A) (A) (A) (A) (A)
 The electronic state is 1-A.
 Alpha  occ. eigenvalues -- -101.56245 -88.91526 -14.45865 -14.37011 -10.27266
 Alpha  occ. eigenvalues --  -10.26609 -10.25447 -10.25033 -10.24509 -10.24507
 Alpha  occ. eigenvalues --  -10.23692 -10.22485 -10.22341 -10.21855 -10.21654
 Alpha  occ. eigenvalues --  -10.20571 -10.20391 -10.20108 -10.19815  -9.47906
 Alpha  occ. eigenvalues --   -7.97542  -7.24296  -7.23334  -7.23299  -5.94045
 Alpha  occ. eigenvalues --   -5.93670  -5.93067  -1.02398  -0.98896  -0.90271
 Alpha  occ. eigenvalues --   -0.88901  -0.85648  -0.82156  -0.81237  -0.78598
 Alpha  occ. eigenvalues --   -0.75743  -0.75238  -0.72473  -0.69467  -0.66054
 Alpha  occ. eigenvalues --   -0.64693  -0.62273  -0.61936  -0.60967  -0.58814
 Alpha  occ. eigenvalues --   -0.57753  -0.55439  -0.52916  -0.51923  -0.50302
 Alpha  occ. eigenvalues --   -0.49845  -0.49577  -0.47908  -0.46722  -0.45873
 Alpha  occ. eigenvalues --   -0.45352  -0.44427  -0.43703  -0.42451  -0.41803
 Alpha  occ. eigenvalues --   -0.41185  -0.40136  -0.39407  -0.38863  -0.38100
 Alpha  occ. eigenvalues --   -0.37542  -0.37011  -0.36235  -0.34284  -0.32628
 Alpha  occ. eigenvalues --   -0.31316  -0.30258  -0.27584  -0.26517  -0.24101
 Alpha  occ. eigenvalues --   -0.20967
 Alpha virt. eigenvalues --   -0.03935  -0.03083  -0.01711  -0.01556   0.00737
 Alpha virt. eigenvalues --    0.02519   0.03219   0.05648   0.06712   0.09015
 Alpha virt. eigenvalues --    0.09911   0.10226   0.10545   0.11331   0.12165
 Alpha virt. eigenvalues --    0.13164   0.13437   0.13738   0.14003   0.14666
 Alpha virt. eigenvalues --    0.15207   0.15804   0.16283   0.16588   0.18070
 Alpha virt. eigenvalues --    0.18960   0.19818   0.20681   0.22258   0.22421
 Alpha virt. eigenvalues --    0.23770   0.25355   0.25948   0.28065   0.29877
 Alpha virt. eigenvalues --    0.30725   0.31026   0.31752   0.35706   0.36370
 Alpha virt. eigenvalues --    0.37145   0.38203   0.39604   0.40762   0.41086
 Alpha virt. eigenvalues --    0.42884   0.43139   0.44897   0.46210   0.47145
 Alpha virt. eigenvalues --    0.48601   0.49513   0.50973   0.51524   0.51837
 Alpha virt. eigenvalues --    0.52259   0.53274   0.54500   0.54681   0.55169
 Alpha virt. eigenvalues --    0.55852   0.57639   0.57935   0.58093   0.58279
 Alpha virt. eigenvalues --    0.59073   0.59638   0.59993   0.61026   0.61532
 Alpha virt. eigenvalues --    0.62120   0.62352   0.63257   0.64073   0.64671
 Alpha virt. eigenvalues --    0.65072   0.67612   0.68110   0.69514   0.71129
 Alpha virt. eigenvalues --    0.72143   0.73503   0.74247   0.75464   0.77026
 Alpha virt. eigenvalues --    0.78366   0.79991   0.80542   0.81613   0.82301
 Alpha virt. eigenvalues --    0.82610   0.82905   0.83322   0.83880   0.84088
 Alpha virt. eigenvalues --    0.84925   0.85454   0.85780   0.86335   0.87301
 Alpha virt. eigenvalues --    0.87847   0.88803   0.89256   0.89423   0.91477
 Alpha virt. eigenvalues --    0.92001   0.92888   0.93790   0.93914   0.95728
 Alpha virt. eigenvalues --    0.95821   0.96925   0.97597   0.98847   0.99396
 Alpha virt. eigenvalues --    1.00234   1.00652   1.02835   1.03631   1.05421
 Alpha virt. eigenvalues --    1.06014   1.08348   1.09358   1.10924   1.12671
 Alpha virt. eigenvalues --    1.13014   1.14541   1.16427   1.17138   1.18377
 Alpha virt. eigenvalues --    1.20161   1.22215   1.26890   1.27672   1.28937
 Alpha virt. eigenvalues --    1.32373   1.32992   1.35502   1.36979   1.37092
 Alpha virt. eigenvalues --    1.39065   1.40309   1.40846   1.44097   1.45903
 Alpha virt. eigenvalues --    1.47861   1.49041   1.50434   1.52794   1.53530
 Alpha virt. eigenvalues --    1.56912   1.57392   1.59322   1.60110   1.61229
 Alpha virt. eigenvalues --    1.66903   1.70040   1.72823   1.74368   1.75640
 Alpha virt. eigenvalues --    1.76503   1.78340   1.80551   1.81980   1.83471
 Alpha virt. eigenvalues --    1.83736   1.84972   1.87933   1.88568   1.90026
 Alpha virt. eigenvalues --    1.91912   1.93825   1.95159   1.95689   1.96429
 Alpha virt. eigenvalues --    1.98155   1.99476   2.01045   2.04423   2.05782
 Alpha virt. eigenvalues --    2.07351   2.08174   2.09926   2.12032   2.12513
 Alpha virt. eigenvalues --    2.13652   2.16175   2.17187   2.18701   2.20476
 Alpha virt. eigenvalues --    2.22233   2.23607   2.24736   2.25569   2.26219
 Alpha virt. eigenvalues --    2.28591   2.29557   2.31950   2.32681   2.34034
 Alpha virt. eigenvalues --    2.38066   2.40211   2.41290   2.46017   2.46757
 Alpha virt. eigenvalues --    2.49000   2.51911   2.55451   2.57310   2.58184
 Alpha virt. eigenvalues --    2.61015   2.61997   2.64747   2.65765   2.67538
 Alpha virt. eigenvalues --    2.68499   2.69947   2.72846   2.74025   2.74877
 Alpha virt. eigenvalues --    2.77189   2.78942   2.80335   2.85130   2.91994
 Alpha virt. eigenvalues --    2.97213   3.08920   3.19501   3.28076   3.42863
 Alpha virt. eigenvalues --    3.74905   3.93992   4.03463   4.05264   4.08823
 Alpha virt. eigenvalues --    4.09640   4.12199   4.14443   4.19087   4.24057
 Alpha virt. eigenvalues --    4.25366   4.33707   4.35550   4.36541   4.39750
 Alpha virt. eigenvalues --    4.41367   4.50293   4.65553   4.72182
          Condensed to atoms (all electrons):
               1          2          3          4          5          6
     1  N    6.692242   0.305913   0.304003   0.227560  -0.040191  -0.041631
     2  H    0.305913   0.268927  -0.010240  -0.016703  -0.002279  -0.002013
     3  H    0.304003  -0.010240   0.277975  -0.018653  -0.003425   0.004048
     4  C    0.227560  -0.016703  -0.018653   5.034490   0.384996   0.376274
     5  H   -0.040191  -0.002279  -0.003425   0.384996   0.508242  -0.022255
     6  H   -0.041631  -0.002013   0.004048   0.376274  -0.022255   0.478207
     7  C   -0.049123   0.003543  -0.001250   0.358431  -0.041230  -0.031033
     8  H   -0.001691  -0.000047  -0.000589  -0.042011   0.004943  -0.004724
     9  H   -0.002398  -0.000022   0.003845  -0.028751  -0.003944   0.003646
    10  C    0.002822  -0.000090  -0.000030  -0.040573  -0.001793  -0.001799
    11  H   -0.000106   0.000002  -0.000003   0.004902  -0.000040   0.000034
    12  H    0.000025   0.000002   0.000004  -0.007061   0.004277  -0.000142
    13  N   -0.000061   0.000005   0.000004  -0.000919  -0.000046   0.003006
    14  C    0.000006   0.000000  -0.000001   0.002719  -0.000040  -0.000683
    15  C    0.000000  -0.000000  -0.000000   0.000110   0.000009  -0.000073
    16  H   -0.000000   0.000000   0.000000   0.000001  -0.000002   0.000000
    17  C   -0.000000   0.000000   0.000000  -0.000022   0.000003  -0.000002
    18  Cl   0.000000   0.000000   0.000000   0.000000  -0.000000   0.000000
    19  C   -0.000000   0.000000   0.000000   0.000005  -0.000000  -0.000017
    20  H   -0.000000   0.000000  -0.000000  -0.000000   0.000000   0.000000
    21  C   -0.000000   0.000000  -0.000000  -0.000039  -0.000001   0.000077
    22  H    0.000000  -0.000000   0.000000  -0.000001  -0.000000   0.000003
    23  C    0.000037  -0.000003  -0.000001  -0.000099  -0.000031   0.000430
    24  S   -0.000029   0.000048  -0.000005  -0.008146   0.000255   0.015507
    25  C   -0.000001  -0.000002  -0.000000   0.000135  -0.000001  -0.000967
    26  C   -0.000006  -0.000001   0.000000   0.000477  -0.000009  -0.000473
    27  C    0.000000  -0.000000  -0.000000   0.000125  -0.000001  -0.000028
    28  H    0.000000  -0.000000  -0.000000  -0.000003  -0.000000  -0.000001
    29  C    0.000000   0.000000  -0.000000  -0.000001  -0.000000   0.000002
    30  H   -0.000000   0.000000   0.000000   0.000000   0.000000   0.000000
    31  C   -0.000000   0.000000   0.000000   0.000001  -0.000000  -0.000002
    32  H   -0.000000   0.000000   0.000000  -0.000000   0.000000   0.000000
    33  C   -0.000001   0.000000   0.000000  -0.000006   0.000000   0.000006
    34  H    0.000000  -0.000000  -0.000000  -0.000001  -0.000000   0.000001
    35  H    0.303184  -0.010035  -0.011459  -0.019119   0.004178  -0.003298
               7          8          9         10         11         12
     1  N   -0.049123  -0.001691  -0.002398   0.002822  -0.000106   0.000025
     2  H    0.003543  -0.000047  -0.000022  -0.000090   0.000002   0.000002
     3  H   -0.001250  -0.000589   0.003845  -0.000030  -0.000003   0.000004
     4  C    0.358431  -0.042011  -0.028751  -0.040573   0.004902  -0.007061
     5  H   -0.041230   0.004943  -0.003944  -0.001793  -0.000040   0.004277
     6  H   -0.031033  -0.004724   0.003646  -0.001799   0.000034  -0.000142
     7  C    5.120187   0.372530   0.364821   0.347126  -0.045820  -0.044302
     8  H    0.372530   0.555045  -0.039921  -0.029480  -0.003271   0.005027
     9  H    0.364821  -0.039921   0.537523  -0.021119  -0.001942  -0.001145
    10  C    0.347126  -0.029480  -0.021119   4.925854   0.383416   0.376261
    11  H   -0.045820  -0.003271  -0.001942   0.383416   0.564336  -0.028388
    12  H   -0.044302   0.005027  -0.001145   0.376261  -0.028388   0.529709
    13  N   -0.052561  -0.008161   0.003462   0.307666  -0.053573  -0.027355
    14  C    0.000241  -0.000023  -0.000135  -0.043453   0.003676  -0.001662
    15  C    0.000273  -0.000007  -0.000014  -0.010212   0.000678   0.004474
    16  H    0.000091  -0.000000  -0.000001   0.001588  -0.000273   0.000606
    17  C    0.000007   0.000000  -0.000000   0.000180  -0.000022   0.000047
    18  Cl  -0.000001  -0.000000   0.000000  -0.000002   0.000001   0.000016
    19  C    0.000000  -0.000000   0.000000  -0.000009   0.000000  -0.000009
    20  H   -0.000000   0.000000  -0.000000  -0.000000   0.000000  -0.000000
    21  C   -0.000017  -0.000001   0.000000  -0.000123   0.000008  -0.000033
    22  H    0.000000   0.000000   0.000000   0.000004  -0.000000   0.000000
    23  C    0.000663   0.000048  -0.000016   0.004968  -0.000369   0.000108
    24  S    0.000123  -0.000149   0.000032   0.001453   0.000044  -0.000055
    25  C    0.000595   0.001467  -0.000014   0.002360  -0.000581  -0.000079
    26  C   -0.002370   0.007158   0.000030  -0.038732  -0.005486   0.003015
    27  C   -0.001807   0.003410  -0.000140  -0.004406   0.003659   0.000095
    28  H    0.000385  -0.000019  -0.000028   0.001016   0.002094  -0.000089
    29  C   -0.000072   0.000066  -0.000007   0.000110  -0.000031   0.000001
    30  H   -0.000003  -0.000003   0.000000   0.000001   0.000006  -0.000000
    31  C    0.000023  -0.000079   0.000000   0.000008   0.000002  -0.000000
    32  H    0.000000  -0.000000   0.000000  -0.000000  -0.000000   0.000000
    33  C   -0.000034  -0.000175   0.000003  -0.000119   0.000024   0.000003
    34  H   -0.000001   0.000001  -0.000000   0.000002  -0.000000  -0.000000
    35  H   -0.001605   0.004393  -0.000382  -0.000040   0.000001   0.000014
              13         14         15         16         17         18
     1  N   -0.000061   0.000006   0.000000  -0.000000  -0.000000   0.000000
     2  H    0.000005   0.000000  -0.000000   0.000000   0.000000   0.000000
     3  H    0.000004  -0.000001  -0.000000   0.000000   0.000000   0.000000
     4  C   -0.000919   0.002719   0.000110   0.000001  -0.000022   0.000000
     5  H   -0.000046  -0.000040   0.000009  -0.000002   0.000003  -0.000000
     6  H    0.003006  -0.000683  -0.000073   0.000000  -0.000002   0.000000
     7  C   -0.052561   0.000241   0.000273   0.000091   0.000007  -0.000001
     8  H   -0.008161  -0.000023  -0.000007  -0.000000   0.000000  -0.000000
     9  H    0.003462  -0.000135  -0.000014  -0.000001  -0.000000   0.000000
    10  C    0.307666  -0.043453  -0.010212   0.001588   0.000180  -0.000002
    11  H   -0.053573   0.003676   0.000678  -0.000273  -0.000022   0.000001
    12  H   -0.027355  -0.001662   0.004474   0.000606   0.000047   0.000016
    13  N    7.110529   0.302993  -0.068598  -0.004753   0.004808  -0.000173
    14  C    0.302993   4.639095   0.496985  -0.031415  -0.007564   0.005169
    15  C   -0.068598   0.496985   5.104811   0.356493   0.485396  -0.074074
    16  H   -0.004753  -0.031415   0.356493   0.536151  -0.042105  -0.001120
    17  C    0.004808  -0.007564   0.485396  -0.042105   4.993393   0.230155
    18  Cl  -0.000173   0.005169  -0.074074  -0.001120   0.230155  16.916530
    19  C    0.000775  -0.034774  -0.045315   0.004512   0.511316  -0.062092
    20  H    0.000001   0.000341   0.005647  -0.000201  -0.046694   0.000529
    21  C    0.006359  -0.005977  -0.038763   0.000121  -0.018047   0.004277
    22  H   -0.000193   0.004008   0.000640   0.000013   0.003613  -0.000103
[...]
    24  S   -0.001520  -0.000657   0.000360  -0.008794  -0.000815   0.034176
    25  C   -0.033774   0.002307  -0.002810   0.251277   0.006395  -0.006867
    26  C   -0.231412   0.002154  -0.001477   0.526998   0.037447  -0.039913
    27  C    0.012995   0.001968  -0.001961  -0.170264   0.002072  -0.001796
    28  H   -0.006717   0.000629  -0.000842   0.017693   0.000411   0.005066
    29  C   -0.019146  -0.002157  -0.000738   0.028497   0.008947  -0.002397
    30  H   -0.000546  -0.000059   0.000094   0.004742   0.000355  -0.000540
    31  C   -0.002696   0.001294  -0.000612   0.024495  -0.001104  -0.006394
    32  H   -0.000185   0.000061  -0.000033   0.001067  -0.000002  -0.000149
    33  C    0.014493  -0.001275   0.000507  -0.072405  -0.002780   0.007224
    34  H    0.000858  -0.000116   0.000076  -0.004502  -0.000266   0.000980
    35  H    0.393146  -0.054274  -0.059255  -0.042117   0.026107  -0.046009
               7          8          9         10         11         12
     1  N    0.101741  -0.022196  -0.002778  -0.021532  -0.010919   0.027613
     2  H    0.025044   0.000269   0.000351  -0.006013  -0.001316   0.000055
     3  H   -0.029784  -0.012404   0.008927   0.004580   0.000972   0.003093
     4  C    0.083706  -0.098081  -0.077705   0.000733   0.035611  -0.070802
     5  H   -0.024266   0.087778  -0.111562   0.076053   0.017979  -0.029279
     6  H   -0.031691  -0.084625   0.079263  -0.088876   0.005894   0.031532
     7  C    5.909769   0.023258   0.013741  -0.173597   0.226980  -0.321477
     8  H    0.023258   1.552213  -0.255668   0.129549  -0.030716   0.048234
     9  H    0.013741  -0.255668   1.495773  -0.008402  -0.148847  -0.004064
    10  C   -0.173597   0.129549  -0.008402   6.366872   0.087679   0.069309
    11  H    0.226980  -0.030716  -0.148847   0.087679   1.910707  -0.499355
    12  H   -0.321477   0.048234  -0.004064   0.069309  -0.499355   2.337607
    13  N    0.013365  -0.087179   0.115502  -0.100453  -0.240468  -0.337603
    14  C    0.326700  -0.137302   0.000249  -1.439640  -0.547115   0.705081
    15  C   -0.195967  -0.004482   0.017764   0.525302   0.068467  -0.063478
    16  H    0.021945   0.001710   0.005004  -0.001346  -0.055745  -0.028452
    17  C   -0.020397  -0.012205   0.002765  -0.191318  -0.023017  -0.015340
    18  Cl  -0.000043   0.000301   0.000011   0.013893  -0.001421   0.002579
    19  C   -0.030250   0.000135   0.001154   0.067124  -0.021015   0.003808
    20  H   -0.001143   0.000052   0.000040  -0.003737  -0.000523   0.001345
    21  C    0.034224   0.009554  -0.000415   0.093967   0.025970  -0.031458
    22  H    0.000246  -0.000044  -0.000077   0.009811   0.000630  -0.001219
    23  C   -0.041172   0.040624   0.003290   0.055157  -0.037260   0.192104
    24  S   -0.023217  -0.001575  -0.003481   0.005384   0.008876   0.020021
    25  C   -0.207821   0.012019   0.021609   0.211894  -0.032844   0.035750
    26  C   -0.434914  -0.109431  -0.058667   0.090172   0.601690  -0.664619
    27  C    0.184279   0.199214   0.037391  -0.056943  -0.098591   0.119533
    28  H    0.042561  -0.025892   0.016007  -0.122824  -0.104230   0.046832
    29  C    0.147967  -0.057465  -0.003204  -0.412609   0.076256  -0.079620
    30  H   -0.011285   0.003747  -0.002371   0.020660   0.005798  -0.000604
    31  C    0.040922   0.060299   0.002861   0.079032  -0.025169   0.015189
    32  H   -0.002388  -0.000549  -0.000089   0.005307   0.000943   0.000420
    33  C   -0.068478  -0.057119   0.000445   0.039286  -0.010615   0.009482
    34  H    0.002294   0.001919   0.000012  -0.007920  -0.002484   0.000557
    35  H    0.001155   0.007724  -0.006283   0.009809   0.000264  -0.003568
              13         14         15         16         17         18
     1  N    0.097469   0.318187  -0.040835   0.000796  -0.002635  -0.000086
     2  H    0.000013  -0.010913   0.002632   0.000080  -0.000457   0.000021
     3  H   -0.000082   0.010114  -0.003140  -0.000291  -0.000162  -0.000021
     4  C   -0.224692  -0.830800   0.135257   0.004262   0.010514  -0.000243
     5  H   -0.038433  -0.042050   0.019098   0.004527  -0.000617   0.000380
     6  H   -0.138188   0.171525  -0.050403  -0.004076   0.006695  -0.001456
     7  C    0.013365   0.326700  -0.195967   0.021945  -0.020397  -0.000043
     8  H   -0.087179  -0.137302  -0.004482   0.001710  -0.012205   0.000301
     9  H    0.115502   0.000249   0.017764   0.005004   0.002765   0.000011
    10  C   -0.100453  -1.439640   0.525302  -0.001346  -0.191318   0.013893
    11  H   -0.240468  -0.547115   0.068467  -0.055745  -0.023017  -0.001421
    12  H   -0.337603   0.705081  -0.063478  -0.028452  -0.015340   0.002579
    13  N   14.023962  -3.632698   0.885190  -0.327149  -0.550351   0.022620
    14  C   -3.632698  39.837131  -9.683456   0.949682   0.513425   0.015669
    15  C    0.885190  -9.683456  18.789490  -1.733836  -2.052101  -0.013344
    16  H   -0.327149   0.949682  -1.733836   2.489085   0.517101  -0.095751
    17  C   -0.550351   0.513425  -2.052101   0.517101  12.332081  -0.108618
    18  Cl   0.022620   0.015669  -0.013344  -0.095751  -0.108618  17.584971
    19  C    0.461707  -3.302523   0.412490   0.169423  -3.376537   0.140963
    20  H    0.002266  -0.089667   0.235752  -0.015586   1.106343  -0.086735
    21  C    0.452727  -2.213605  -3.383615   0.018895   1.173767  -0.131940
    22  H   -0.014276   0.375534   0.137146   0.006060  -0.663633   0.007295
    23  C   -0.465727  -2.837044  -0.776177  -0.087569  -2.572007  -0.000141
    24  S   -0.896997  -0.134803  -0.488855   0.012322   0.337666  -0.011372
    25  C   -1.180034  -2.161264   0.904107  -0.016771  -0.010131  -0.000090
    26  C   -1.280979 -10.524140   0.899746  -0.216532   0.283644   0.004588
    27  C    1.049863  -0.183948   0.176781   0.023503  -0.200711   0.001720
    28  H   -0.175898  -0.287632   0.088460  -0.013945   0.000804   0.000809
    29  C   -0.661219   0.081287  -0.189860   0.013164   0.080754  -0.001223
    30  H    0.002312   0.023977  -0.011378   0.000242   0.002508  -0.000076
    31  C    0.506835  -0.281310   0.160340   0.004754  -0.061304   0.000711
    32  H   -0.002794  -0.022822   0.005529  -0.000058  -0.001487   0.000025
    33  C   -0.238584   2.101166  -0.300524  -0.008503   0.116965  -0.001674
    34  H    0.007730   0.010105  -0.023819   0.000933   0.006695  -0.000194
    35  H    0.001682  -0.010877   0.003467   0.000043   0.000694  -0.000015
              19         20         21         22         23         24
     1  N   -0.001780  -0.000030   0.007775  -0.000011  -0.020785  -0.001520
     2  H    0.000309   0.000006  -0.000294  -0.000036   0.000766  -0.000657
     3  H   -0.000226  -0.000005   0.000474   0.000005   0.000401   0.000360
     4  C    0.010437   0.000005  -0.053720  -0.000555   0.036025  -0.008794
     5  H    0.003390  -0.000060  -0.006242   0.000159  -0.006606  -0.000815
     6  H   -0.015060   0.000057   0.022758  -0.000758   0.021692   0.034176
     7  C   -0.030250  -0.001143   0.034224   0.000246  -0.041172  -0.023217
     8  H    0.000135   0.000052   0.009554  -0.000044   0.040624  -0.001575
     9  H    0.001154   0.000040  -0.000415  -0.000077   0.003290  -0.003481
    10  C    0.067124  -0.003737   0.093967   0.009811   0.055157   0.005384
    11  H   -0.021015  -0.000523   0.025970   0.000630  -0.037260   0.008876
    12  H    0.003808   0.001345  -0.031458  -0.001219   0.192104   0.020021
    13  N    0.461707   0.002266   0.452727  -0.014276  -0.465727  -0.896997
    14  C   -3.302523  -0.089667  -2.213605   0.375534  -2.837044  -0.134803
    15  C    0.412490   0.235752  -3.383615   0.137146  -0.776177  -0.488855
    16  H    0.169423  -0.015586   0.018895   0.006060  -0.087569   0.012322
    17  C   -3.376537   1.106343   1.173767  -0.663633  -2.572007   0.337666
    18  Cl   0.140963  -0.086735  -0.131940   0.007295  -0.000141  -0.011372
    19  C   14.907016  -1.270012  -3.228786   0.257821   0.172188  -0.303744
    20  H   -1.270012   1.778660   0.164881  -0.120696  -0.297142   0.021275
    21  C   -3.228786   0.164881  18.922914  -1.643306  -5.214934   0.268358
    22  H    0.257821  -0.120696  -1.643306   1.855231   1.424353  -0.097806
    23  C    0.172188  -0.297142  -5.214934   1.424353  16.636360   0.287336
    24  S   -0.303744   0.021275   0.268358  -0.097806   0.287336  16.910670
    25  C    0.206895   0.008970  -0.735118   0.033203  -0.117094   0.348928
    26  C   -0.007077  -0.006042   1.289257  -0.028764  -0.969806  -0.166344
    27  C    0.083197   0.004258  -0.041704  -0.022620   0.722153  -0.543347
    28  H    0.010499   0.000250  -0.015945   0.000543  -0.026725   0.016464
    29  C   -0.070031  -0.001391   0.069745   0.009777  -0.110933   0.472285
    30  H   -0.001600  -0.000037   0.002821   0.000095  -0.004267  -0.003392
    31  C    0.065947   0.001488  -0.109730  -0.007115   0.136334  -0.396095
    32  H    0.001788   0.000028  -0.002404   0.000190   0.015177   0.023209
    33  C   -0.100923  -0.001946  -0.491743   0.028312  -0.548023   0.146113
    34  H   -0.003408   0.000301   0.032002  -0.001754   0.010571  -0.067488
    35  H   -0.000145  -0.000003  -0.000766   0.000023  -0.001198   0.001037
              25         26         27         28         29         30
     1  N   -0.033774  -0.231412   0.012995  -0.006717  -0.019146  -0.000546
     2  H    0.002307   0.002154   0.001968   0.000629  -0.002157  -0.000059
     3  H   -0.002810  -0.001477  -0.001961  -0.000842  -0.000738   0.000094
     4  C    0.251277   0.526998  -0.170264   0.017693   0.028497   0.004742
     5  H    0.006395   0.037447   0.002072   0.000411   0.008947   0.000355
     6  H   -0.006867  -0.039913  -0.001796   0.005066  -0.002397  -0.000540
     7  C   -0.207821  -0.434914   0.184279   0.042561   0.147967  -0.011285
     8  H    0.012019  -0.109431   0.199214  -0.025892  -0.057465   0.003747
     9  H    0.021609  -0.058667   0.037391   0.016007  -0.003204  -0.002371
    10  C    0.211894   0.090172  -0.056943  -0.122824  -0.412609   0.020660
    11  H   -0.032844   0.601690  -0.098591  -0.104230   0.076256   0.005798
    12  H    0.035750  -0.664619   0.119533   0.046832  -0.079620  -0.000604
    13  N   -1.180034  -1.280979   1.049863  -0.175898  -0.661219   0.002312
    14  C   -2.161264 -10.524140  -0.183948  -0.287632   0.081287   0.023977
    15  C    0.904107   0.899746   0.176781   0.088460  -0.189860  -0.011378
    16  H   -0.016771  -0.216532   0.023503  -0.013945   0.013164   0.000242
    17  C   -0.010131   0.283644  -0.200711   0.000804   0.080754   0.002508
    18  Cl  -0.000090   0.004588   0.001720   0.000809  -0.001223  -0.000076
    19  C    0.206895  -0.007077   0.083197   0.010499  -0.070031  -0.001600
    20  H    0.008970  -0.006042   0.004258   0.000250  -0.001391  -0.000037
    21  C   -0.735118   1.289257  -0.041704  -0.015945   0.069745   0.002821
    22  H    0.033203  -0.028764  -0.022620   0.000543   0.009777   0.000095
    23  C   -0.117094  -0.969806   0.722153  -0.026725  -0.110933  -0.004267
    24  S    0.348928  -0.166344  -0.543347   0.016464   0.472285  -0.003392
    25  C   15.155356  -2.411253  -0.617319   0.229068  -0.747335  -0.173367
    26  C   -2.411253  27.435090  -7.040342   0.849308   0.555790   0.380736
    27  C   -0.617319  -7.040342  16.973109  -1.619566  -4.126455   0.400244
    28  H    0.229068   0.849308  -1.619566   2.716759   0.437411  -0.128171
    29  C   -0.747335   0.555790  -4.126455   0.437411  12.559678  -0.996915
    30  H   -0.173367   0.380736   0.400244  -0.128171  -0.996915   1.798589
    31  C   -0.197231  -1.880069   2.906624  -0.231112  -3.560314   0.370396
    32  H    0.076671  -0.169203   0.009827  -0.014872   0.519890  -0.054998
    33  C   -3.911009  -0.587084  -3.347262   0.085186   1.961742  -0.112376
    34  H    0.697070   0.246810   0.099190   0.006169  -0.259698  -0.010699
    35  H    0.000831   0.011703  -0.004378  -0.000663   0.005527  -0.000106
              31         32         33         34         35
     1  N   -0.002696  -0.000185   0.014493   0.000858   0.393146
     2  H    0.001294   0.000061  -0.001275  -0.000116  -0.054274
     3  H   -0.000612  -0.000033   0.000507   0.000076  -0.059255
     4  C    0.024495   0.001067  -0.072405  -0.004502  -0.042117
     5  H   -0.001104  -0.000002  -0.002780  -0.000266   0.026107
     6  H   -0.006394  -0.000149   0.007224   0.000980  -0.046009
     7  C    0.040922  -0.002388  -0.068478   0.002294   0.001155
     8  H    0.060299  -0.000549  -0.057119   0.001919   0.007724
     9  H    0.002861  -0.000089   0.000445   0.000012  -0.006283
    10  C    0.079032   0.005307   0.039286  -0.007920   0.009809
    11  H   -0.025169   0.000943  -0.010615  -0.002484   0.000264
    12  H    0.015189   0.000420   0.009482   0.000557  -0.003568
    13  N    0.506835  -0.002794  -0.238584   0.007730   0.001682
    14  C   -0.281310  -0.022822   2.101166   0.010105  -0.010877
    15  C    0.160340   0.005529  -0.300524  -0.023819   0.003467
    16  H    0.004754  -0.000058  -0.008503   0.000933   0.000043
    17  C   -0.061304  -0.001487   0.116965   0.006695   0.000694
    18  Cl   0.000711   0.000025  -0.001674  -0.000194  -0.000015
    19  C    0.065947   0.001788  -0.100923  -0.003408  -0.000145
    20  H    0.001488   0.000028  -0.001946   0.000301  -0.000003
    21  C   -0.109730  -0.002404  -0.491743   0.032002  -0.000766
    22  H   -0.007115   0.000190   0.028312  -0.001754   0.000023
    23  C    0.136334   0.015177  -0.548023   0.010571  -0.001198
    24  S   -0.396095   0.023209   0.146113  -0.067488   0.001037
    25  C   -0.197231   0.076671  -3.911009   0.697070   0.000831
    26  C   -1.880069  -0.169203  -0.587084   0.246810   0.011703
    27  C    2.906624   0.009827  -3.347262   0.099190  -0.004378
    28  H   -0.231112  -0.014872   0.085186   0.006169  -0.000663
    29  C   -3.560314   0.519890   1.961742  -0.259698   0.005527
    30  H    0.370396  -0.054998  -0.112376  -0.010699  -0.000106
    31  C   10.210081  -0.697464  -1.927023   0.085791  -0.003275
    32  H   -0.697464   1.657479   0.165107  -0.076407  -0.000110
    33  C   -1.927023   0.165107  13.793953  -0.929376   0.004149
    34  H    0.085791  -0.076407  -0.929376   1.674252  -0.000126
    35  H   -0.003275  -0.000110   0.004149  -0.000126   0.537581
 Mulliken charges:
               1
     1  N   -0.604592
     2  H    0.175840
     3  H    0.245944
     4  C    1.205880
     5  H   -0.128023
     6  H   -0.170976
     7  C    0.417995
     8  H   -0.181664
     9  H   -0.138548
    10  C    0.673640
    11  H   -0.183067
    12  H   -0.519205
    13  N   -0.049437
    14  C   -1.066222
    15  C    1.548254
    16  H   -0.637920
    17  C   -0.629395
    18  Cl  -0.342112
    19  C    0.756824
    20  H   -0.431220
    21  C    0.715638
    22  H   -0.543767
    23  C    0.380077
    24  S    0.235819
    25  C    0.359781
    26  C   -0.387067
    27  C    1.069283
    28  H   -0.795894
    29  C    0.273991
    30  H   -0.504531
    31  C    0.714623
    32  H   -0.436706
    33  C    0.244590
    34  H   -0.496059
    35  H    0.228226
 Sum of Mulliken charges =   1.00000
 Mulliken charges with hydrogens summed into heavy atoms:
               1
     1  N    0.045417
     4  C    0.906881
     7  C    0.097783
    10  C   -0.028631
    13  N   -0.049437
    14  C   -1.066222
    15  C    0.910333
    17  C   -0.629395
    18  Cl  -0.342112
    19  C    0.325604
    21  C    0.171870
    23  C    0.380077
    24  S    0.235819
    25  C    0.359781
    26  C   -0.387067
    27  C    0.273389
    29  C   -0.230540
    31  C    0.277918
    33  C   -0.251469
 Electronic spatial extent (au):  <R**2>=           6354.6032
 Charge=              1.0000 electrons
 Dipole moment (field-independent basis, Debye):
    X=             12.6258    Y=             13.7409    Z=              4.8144  Tot=             19.2718
 Quadrupole moment (field-independent basis, Debye-Ang):
   XX=            -83.7026   YY=            -63.5109   ZZ=           -109.9694
   XY=             39.4992   XZ=              9.1251   YZ=             17.0275
 Traceless Quadrupole moment (field-independent basis, Debye-Ang):
   XX=              2.0251   YY=             22.2167   ZZ=            -24.2418
   XY=             39.4992   XZ=              9.1251   YZ=             17.0275
 Octapole moment (field-independent basis, Debye-Ang**2):
  XXX=            138.3591  YYY=            222.5267  ZZZ=             24.5972  XYY=            166.0352
  XXY=             85.4642  XXZ=             54.9685  XZZ=             47.2914  YZZ=             61.4299
  YYZ=             89.2055  XYZ=             80.3702
 Hexadecapole moment (field-independent basis, Debye-Ang**3):
 XXXX=          -4584.4627 YYYY=          -1534.0241 ZZZZ=           -994.1604 XXXY=            413.0508
 XXXZ=             94.3840 YYYX=            552.2911 YYYZ=            300.7865 ZZZX=             88.7582
 ZZZY=            115.8743 XXYY=           -680.4228 XXZZ=           -853.6067 YYZZ=           -396.4521
 XXYZ=            190.0803 YYXZ=            227.2653 ZZXY=            156.6749
 N-N= 1.656823088378D+03 E-N=-6.934702337306D+03  KE= 1.542417423677D+03
 Leave Link  601 at Sun Jul 18 20:13:42 2021, MaxMem=   262144000 cpu:               0.5 elap:               0.5
 (Enter /dades/curu/g16A03_MST/g16/l9999.exe)
 1\1\GINC-PIRINEUS22\SP\RMP2-FC\Aug-CC-pVDZ\C15H16Cl1N2S1(1+)\UBATOR02\
 18-Jul-2021\0\\#p mp2/aug-cc-pVDZ scf=tight maxdisk=180GB geom=allchec
 k\\SET_328_BBB29_conf1.geo_135_285_180 geometry\\1,1\N,0,-0.5265408788
 ,-3.1128654882,2.7229759949\H,0,-0.2012913508,-3.0137652939,3.69384485
 04\H,0,-0.4785982025,-4.1147735491,2.493727594\C,0,0.285164969,-2.2730
 821523,1.7772753909\H,0,1.3268997166,-2.5638134262,1.9155118692\H,0,0.
 1665958985,-1.2379141844,2.0929319712\C,0,-0.1629795333,-2.456255316,0
 .3342916116\H,0,-1.2414200457,-2.3023674455,0.2520321135\H,0,0.0496781
 265,-3.4749338412,-0.0047631446\C,0,0.5623055063,-1.4771903211,-0.5974
 519753\H,0,0.3418171595,-1.7308107264,-1.6414220432\H,0,1.6375922629,-
 1.5950783864,-0.4655825056\N,0,0.2361824987,-0.084586427,-0.2878208965
 \C,0,1.252754049,0.8963483001,-0.3677588699\C,0,2.4343017732,0.6893528
 924,-1.091136299\H,0,2.5915130503,-0.2190557878,-1.6558594908\C,0,3.42
 12621658,1.6726675456,-1.0947098626\Cl,0,4.9048821993,1.3691890293,-1.
 988107732\C,0,3.2574595104,2.8853651026,-0.4346713891\H,0,4.0354874678
 ,3.6372605478,-0.4578465638\C,0,2.0600411747,3.1079060956,0.2447850233
 \H,0,1.8955477389,4.0492279223,0.7544266107\C,0,1.0751828426,2.1245957
 895,0.2962635186\S,0,-0.3952854564,2.3743718478,1.2641903536\C,0,-1.53
 97880269,1.5148537759,0.2021281361\C,0,-1.1084890357,0.345610282,-0.44
 8004122\C,0,-2.027165801,-0.359297584,-1.2362872101\H,0,-1.7131000345,
 -1.2528141938,-1.7613454289\C,0,-3.3469907994,0.0792949795,-1.35055020
 74\H,0,-4.04262565,-0.4890853539,-1.9576618076\C,0,-3.7647118781,1.242
 3508399,-0.7065443222\H,0,-4.7875863607,1.5875842261,-0.8010925257\C,0
 ,-2.850373372,1.9693356708,0.0579358534\H,0,-3.1514744847,2.8851075386
 ,0.5553325036\H,0,-1.5182471994,-2.8487329088,2.7139630013\\Version=ES
 64L-G16RevA.03\State=1-A\HF=-1543.1274109\MP2=-1545.8315733\RMSD=6.604
 e-09\PG=C01 [X(C15H16Cl1N2S1)]\\@


      THE ONE-EYED VIEW OF OUR UNIVERSE SAYS YOU MUST NOT LOOK
      FAR AFIELD FOR PROBLEMS.  SUCH PROBLEMS MAY NEVER ARRIVE. 
      INSTEAD, TEND TO THE WOLF WITHIN YOUR FENCES.
      THE PACKS RANGING OUTSIDE MAY NOT EVEN EXIST.

                              -- THE AZHAR BOOK SHAMRA I:4
                                 CHILDREN OF DUNE, BY FRANK HERBERT
 Job cpu time:       0 days  4 hours 13 minutes 28.8 seconds.
 Elapsed time:       0 days  1 hours 17 minutes  7.0 seconds.
 File lengths (MBytes):  RWF= 105718 Int=      0 D2E=      0 Chk=     29 Scr=      1
 Normal termination of Gaussian 16 at Sun Jul 18 20:13:45 2021.
