 Entering Gaussian System, Link 0=g16
 Input=SET_328_BBB321_conf1.geo_180_150_120_OCTANOL.dat
 Output=SET_328_BBB321_conf1.geo_180_150_120_OCTANOL.log
 Initial command:
 /dades/curu/g16A03_MST/g16/l1.exe "/tmp/ubator02/1839690/Gau-14289.inp" -scrdir="/tmp/ubator02/1839690/"
 Entering Link 1 = /dades/curu/g16A03_MST/g16/l1.exe PID=     14290.
  
 Copyright (c) 1988,1990,1992,1993,1995,1998,2003,2009,2016,
            Gaussian, Inc.  All Rights Reserved.
  
 This is part of the Gaussian(R) 16 program.  It is based on
 the Gaussian(R) 09 system (copyright 2009, Gaussian, Inc.),
 the Gaussian(R) 03 system (copyright 2003, Gaussian, Inc.),
 the Gaussian(R) 98 system (copyright 1998, Gaussian, Inc.),
 the Gaussian(R) 94 system (copyright 1995, Gaussian, Inc.),
 the Gaussian 92(TM) system (copyright 1992, Gaussian, Inc.),
 the Gaussian 90(TM) system (copyright 1990, Gaussian, Inc.),
 the Gaussian 88(TM) system (copyright 1988, Gaussian, Inc.),
 the Gaussian 86(TM) system (copyright 1986, Carnegie Mellon
 University), and the Gaussian 82(TM) system (copyright 1983,
 Carnegie Mellon University). Gaussian is a federally registered
 trademark of Gaussian, Inc.
  
 This software contains proprietary and confidential information,
 including trade secrets, belonging to Gaussian, Inc.
  
 This software is provided under written license and may be
 used, copied, transmitted, or stored only in accord with that
 written license.
  
 The following legend is applicable only to US Government
 contracts under FAR:
  
                    RESTRICTED RIGHTS LEGEND
  
 Use, reproduction and disclosure by the US Government is
 subject to restrictions as set forth in subparagraphs (a)
 and (c) of the Commercial Computer Software - Restricted
 Rights clause in FAR 52.227-19.
  
 Gaussian, Inc.
 340 Quinnipiac St., Bldg. 40, Wallingford CT 06492
  
  
 ---------------------------------------------------------------
 Warning -- This program may not be used in any manner that
 competes with the business of Gaussian, Inc. or will provide
 assistance to any competitor of Gaussian, Inc.  The licensee
 of this program is prohibited from giving any competitor of
 Gaussian, Inc. access to this program.  By using this program,
 the user acknowledges that Gaussian, Inc. is engaged in the
 business of creating and licensing software in the field of
 computational chemistry and represents and warrants to the
 licensee that it is not a competitor of Gaussian, Inc. and that
 it will not use this program in any manner prohibited above.
 ---------------------------------------------------------------
  

 Cite this work as:
 Gaussian 16, Revision A.03,
 M. J. Frisch, G. W. Trucks, H. B. Schlegel, G. E. Scuseria, 
 M. A. Robb, J. R. Cheeseman, G. Scalmani, V. Barone, 
 G. A. Petersson, H. Nakatsuji, X. Li, M. Caricato, A. V. Marenich, 
 J. Bloino, B. G. Janesko, R. Gomperts, B. Mennucci, H. P. Hratchian, 
 J. V. Ortiz, A. F. Izmaylov, J. L. Sonnenberg, D. Williams-Young, 
 F. Ding, F. Lipparini, F. Egidi, J. Goings, B. Peng, A. Petrone, 
 T. Henderson, D. Ranasinghe, V. G. Zakrzewski, J. Gao, N. Rega, 
 G. Zheng, W. Liang, M. Hada, M. Ehara, K. Toyota, R. Fukuda, 
 J. Hasegawa, M. Ishida, T. Nakajima, Y. Honda, O. Kitao, H. Nakai, 
 T. Vreven, K. Throssell, J. A. Montgomery, Jr., J. E. Peralta, 
 F. Ogliaro, M. J. Bearpark, J. J. Heyd, E. N. Brothers, K. N. Kudin, 
 V. N. Staroverov, T. A. Keith, R. Kobayashi, J. Normand, 
 K. Raghavachari, A. P. Rendell, J. C. Burant, S. S. Iyengar, 
 J. Tomasi, M. Cossi, J. M. Millam, M. Klene, C. Adamo, R. Cammi, 
 J. W. Ochterski, R. L. Martin, K. Morokuma, O. Farkas, 
 J. B. Foresman, and D. J. Fox, Gaussian, Inc., Wallingford CT, 2016.
 
 ******************************************
 Gaussian 16:  ES64L-G16RevA.03 25-Dec-2016
                18-Jul-2021 
 ******************************************
 %mem=800MB
 %nproc=4
 Will use up to    4 processors via shared memory.
 %chk=SET_328_BBB321_conf1.geo_180_150_120.chk
 ---------------------------------------------------------------
 #p b3lyp/6-31G(d) opt freq scrf=(iefpcm,read,solvent=n-octanol)
 ---------------------------------------------------------------
 1/18=20,19=15,26=3,38=1,40=2/1,3;
 2/9=110,12=2,17=6,18=5,40=1/2;
 3/5=1,6=6,7=1,11=2,25=1,30=1,70=2203,71=1,72=25,74=-5/1,2,3;
 4//1;
 5/5=2,38=5,53=25/2;
 6/7=2,8=2,9=2,10=2,28=1/1;
 7//1,2,3,16;
 1/18=20,19=15,26=3/3(2);
 2/9=110/2;
 99//99;
 2/9=110/2;
 3/5=1,6=6,7=1,11=2,25=1,30=1,70=2205,71=1,72=25,74=-5/1,2,3;
 4/5=5,16=3,69=1/1;
 5/5=2,38=5,53=25/2;
 7//1,2,3,16;
 1/18=20,19=15,26=3/3(-5);
 2/9=110/2;
 6/7=2,8=2,9=2,10=2,19=2,28=1/1;
 99/9=1/99;
 Leave Link    1 at Sun Jul 18 16:08:51 2021, MaxMem=   104857600 cpu:               0.1 elap:               0.0
 (Enter /dades/curu/g16A03_MST/g16/l101.exe)
 ---------------------------------------------
 SET_328_BBB321_conf1.geo_180_150_120 geometry
 ---------------------------------------------
 Symbolic Z-matrix:
 Charge =  1 Multiplicity = 1
 C                     2.605    -4.009     3.562 
 H                     1.541    -4.251     3.611 
 H                     2.769    -3.563     4.545 
 H                     3.195    -4.92      3.447 
 C                     2.783    -3.117     2.431 
 O                     3.571    -3.238     1.533 
 N                     1.924    -2.083     2.515 
 H                     1.305    -2.016     3.309 
 C                     1.738    -1.063     1.522 
 C                     2.743    -0.156     1.329 
 C                     2.504     0.872     0.395 
 C                     1.358     0.968    -0.269 
 H                     1.321     1.721    -1.052 
 H                     3.211     1.691     0.293 
 H                     3.665    -0.277     1.892 
 C                     0.499    -0.943     0.972 
 H                    -0.284    -1.69      1.072 
 C                     0.286     0.077     0.066 
 C                    -0.94      0.152    -0.698 
 N                    -1.564     1.286    -1.167 
 C                    -1.459    -1.035    -1.186 
 H                    -1.247    -2.013    -0.77 
 S                    -2.711    -0.68     -2.398 
 C                    -2.601     0.958    -2.014 
 N                    -3.527     1.808    -2.625 
 C                    -3.597     3.012    -2.505 
 N                    -4.25      3.686    -3.468 
 H                    -4.07      3.075    -4.258 
 H                    -3.74      4.558    -3.559 
 N                    -2.598     3.855    -2.432 
 H                    -2.635     4.057    -1.439 
 H                    -1.796     3.276    -2.655 
 H                    -4.202     1.378    -3.224 
 
 ITRead=  0  0  0  0  0  0  0  0  0  0  0  0  0  0  0  0  0  0  0  0
 ITRead=  0  0  0  0  0  0  0  0  0  0  0  0  0
 MicOpt= -1 -1 -1 -1 -1 -1 -1 -1 -1 -1 -1 -1 -1 -1 -1 -1 -1 -1 -1 -1
 MicOpt= -1 -1 -1 -1 -1 -1 -1 -1 -1 -1 -1 -1 -1
 NAtoms=     33 NQM=       33 NQMF=       0 NMMI=      0 NMMIF=      0
                NMic=       0 NMicF=      0.
                    Isotopes and Nuclear Properties:
 (Nuclear quadrupole moments (NQMom) in fm**2, nuclear magnetic moments (NMagM)
  in nuclear magnetons)

  Atom         1           2           3           4           5           6           7           8           9          10
 IAtWgt=          12           1           1           1          12          16          14           1          12          12
 AtmWgt=  12.0000000   1.0078250   1.0078250   1.0078250  12.0000000  15.9949146  14.0030740   1.0078250  12.0000000  12.0000000
 NucSpn=           0           1           1           1           0           0           2           1           0           0
 AtZEff=  -0.0000000  -0.0000000  -0.0000000  -0.0000000  -0.0000000  -0.0000000  -0.0000000  -0.0000000  -0.0000000  -0.0000000
 NQMom=    0.0000000   0.0000000   0.0000000   0.0000000   0.0000000   0.0000000   2.0440000   0.0000000   0.0000000   0.0000000
 NMagM=    0.0000000   2.7928460   2.7928460   2.7928460   0.0000000   0.0000000   0.4037610   2.7928460   0.0000000   0.0000000
 AtZNuc=   6.0000000   1.0000000   1.0000000   1.0000000   6.0000000   8.0000000   7.0000000   1.0000000   6.0000000   6.0000000

  Atom        11          12          13          14          15          16          17          18          19          20
 IAtWgt=          12          12           1           1           1          12           1          12          12          14
 AtmWgt=  12.0000000  12.0000000   1.0078250   1.0078250   1.0078250  12.0000000   1.0078250  12.0000000  12.0000000  14.0030740
 NucSpn=           0           0           1           1           1           0           1           0           0           2
 AtZEff=  -0.0000000  -0.0000000  -0.0000000  -0.0000000  -0.0000000  -0.0000000  -0.0000000  -0.0000000  -0.0000000  -0.0000000
 NQMom=    0.0000000   0.0000000   0.0000000   0.0000000   0.0000000   0.0000000   0.0000000   0.0000000   0.0000000   2.0440000
 NMagM=    0.0000000   0.0000000   2.7928460   2.7928460   2.7928460   0.0000000   2.7928460   0.0000000   0.0000000   0.4037610
 AtZNuc=   6.0000000   6.0000000   1.0000000   1.0000000   1.0000000   6.0000000   1.0000000   6.0000000   6.0000000   7.0000000

  Atom        21          22          23          24          25          26          27          28          29          30
 IAtWgt=          12           1          32          12          14          12          14           1           1          14
 AtmWgt=  12.0000000   1.0078250  31.9720718  12.0000000  14.0030740  12.0000000  14.0030740   1.0078250   1.0078250  14.0030740
 NucSpn=           0           1           0           0           2           0           2           1           1           2
 AtZEff=  -0.0000000  -0.0000000  -0.0000000  -0.0000000  -0.0000000  -0.0000000  -0.0000000  -0.0000000  -0.0000000  -0.0000000
 NQMom=    0.0000000   0.0000000   0.0000000   0.0000000   2.0440000   0.0000000   2.0440000   0.0000000   0.0000000   2.0440000
 NMagM=    0.0000000   2.7928460   0.0000000   0.0000000   0.4037610   0.0000000   0.4037610   2.7928460   2.7928460   0.4037610
 AtZNuc=   6.0000000   1.0000000  16.0000000   6.0000000   7.0000000   6.0000000   7.0000000   1.0000000   1.0000000   7.0000000

  Atom        31          32          33
 IAtWgt=           1           1           1
 AtmWgt=   1.0078250   1.0078250   1.0078250
 NucSpn=           1           1           1
 AtZEff=  -0.0000000  -0.0000000  -0.0000000
 NQMom=    0.0000000   0.0000000   0.0000000
 NMagM=    2.7928460   2.7928460   2.7928460
 AtZNuc=   1.0000000   1.0000000   1.0000000
 Leave Link  101 at Sun Jul 18 16:08:51 2021, MaxMem=   104857600 cpu:               0.1 elap:               0.1
 (Enter /dades/curu/g16A03_MST/g16/l103.exe)

 GradGradGradGradGradGradGradGradGradGradGradGradGradGradGradGradGradGrad
 Berny optimization.
 Initialization pass.
                           ----------------------------
                           !    Initial Parameters    !
                           ! (Angstroms and Degrees)  !
 --------------------------                            --------------------------
 ! Name  Definition              Value          Derivative Info.                !
 --------------------------------------------------------------------------------
 ! R1    R(1,2)                  1.0923         estimate D2E/DX2                !
 ! R2    R(1,3)                  1.0918         estimate D2E/DX2                !
 ! R3    R(1,4)                  1.0914         estimate D2E/DX2                !
 ! R4    R(1,5)                  1.4514         estimate D2E/DX2                !
 ! R5    R(5,6)                  1.2008         estimate D2E/DX2                !
 ! R6    R(5,7)                  1.3469         estimate D2E/DX2                !
 ! R7    R(7,8)                  1.009          estimate D2E/DX2                !
 ! R8    R(7,9)                  1.4356         estimate D2E/DX2                !
 ! R9    R(9,10)                 1.3675         estimate D2E/DX2                !
 ! R10   R(9,16)                 1.3609         estimate D2E/DX2                !
 ! R11   R(10,11)                1.4093         estimate D2E/DX2                !
 ! R12   R(10,15)                1.0871         estimate D2E/DX2                !
 ! R13   R(11,12)                1.3279         estimate D2E/DX2                !
 ! R14   R(11,14)                1.0867         estimate D2E/DX2                !
 ! R15   R(12,13)                1.087          estimate D2E/DX2                !
 ! R16   R(12,18)                1.4336         estimate D2E/DX2                !
 ! R17   R(16,17)                1.0868         estimate D2E/DX2                !
 ! R18   R(16,18)                1.3808         estimate D2E/DX2                !
 ! R19   R(18,19)                1.4465         estimate D2E/DX2                !
 ! R20   R(19,20)                1.3767         estimate D2E/DX2                !
 ! R21   R(19,21)                1.3844         estimate D2E/DX2                !
 ! R22   R(20,24)                1.3785         estimate D2E/DX2                !
 ! R23   R(21,22)                1.0837         estimate D2E/DX2                !
 ! R24   R(21,23)                1.7783         estimate D2E/DX2                !
 ! R25   R(23,24)                1.686          estimate D2E/DX2                !
 ! R26   R(24,25)                1.3976         estimate D2E/DX2                !
 ! R27   R(25,26)                1.212          estimate D2E/DX2                !
 ! R28   R(25,33)                0.9997         estimate D2E/DX2                !
 ! R29   R(26,27)                1.3446         estimate D2E/DX2                !
 ! R30   R(26,30)                1.3092         estimate D2E/DX2                !
 ! R31   R(27,28)                1.0148         estimate D2E/DX2                !
 ! R32   R(27,29)                1.0143         estimate D2E/DX2                !
 ! R33   R(30,31)                1.014          estimate D2E/DX2                !
 ! R34   R(30,32)                1.014          estimate D2E/DX2                !
 ! A1    A(2,1,3)              101.3284         estimate D2E/DX2                !
 ! A2    A(2,1,4)              110.2658         estimate D2E/DX2                !
 ! A3    A(2,1,5)              106.8933         estimate D2E/DX2                !
 ! A4    A(3,1,4)              110.7701         estimate D2E/DX2                !
 ! A5    A(3,1,5)              115.6015         estimate D2E/DX2                !
 ! A6    A(4,1,5)              111.3816         estimate D2E/DX2                !
 ! A7    A(1,5,6)              126.9626         estimate D2E/DX2                !
 ! A8    A(1,5,7)              110.1819         estimate D2E/DX2                !
 ! A9    A(6,5,7)              122.8545         estimate D2E/DX2                !
 ! A10   A(5,7,8)              119.4268         estimate D2E/DX2                !
 ! A11   A(5,7,9)              125.7982         estimate D2E/DX2                !
 ! A12   A(8,7,9)              114.6853         estimate D2E/DX2                !
 ! A13   A(7,9,10)             118.2718         estimate D2E/DX2                !
 ! A14   A(7,9,16)             117.3965         estimate D2E/DX2                !
 ! A15   A(10,9,16)            123.6137         estimate D2E/DX2                !
 ! A16   A(9,10,11)            116.9175         estimate D2E/DX2                !
 ! A17   A(9,10,15)            118.4521         estimate D2E/DX2                !
 ! A18   A(11,10,15)           124.6285         estimate D2E/DX2                !
 ! A19   A(10,11,12)           122.036          estimate D2E/DX2                !
 ! A20   A(10,11,14)           120.1049         estimate D2E/DX2                !
 ! A21   A(12,11,14)           117.3884         estimate D2E/DX2                !
 ! A22   A(11,12,13)           116.0819         estimate D2E/DX2                !
 ! A23   A(11,12,18)           118.9163         estimate D2E/DX2                !
 ! A24   A(13,12,18)           124.9896         estimate D2E/DX2                !
 ! A25   A(9,16,17)            123.9278         estimate D2E/DX2                !
 ! A26   A(9,16,18)            118.0835         estimate D2E/DX2                !
 ! A27   A(17,16,18)           117.1926         estimate D2E/DX2                !
 ! A28   A(12,18,16)           119.8069         estimate D2E/DX2                !
 ! A29   A(12,18,19)           118.5627         estimate D2E/DX2                !
 ! A30   A(16,18,19)           121.0373         estimate D2E/DX2                !
 ! A31   A(18,19,20)           127.3586         estimate D2E/DX2                !
 ! A32   A(18,19,21)           117.3532         estimate D2E/DX2                !
 ! A33   A(20,19,21)           114.5987         estimate D2E/DX2                !
 ! A34   A(19,20,24)           110.7499         estimate D2E/DX2                !
 ! A35   A(19,21,22)           124.4109         estimate D2E/DX2                !
 ! A36   A(19,21,23)           109.4524         estimate D2E/DX2                !
 ! A37   A(22,21,23)           125.4142         estimate D2E/DX2                !
 ! A38   A(21,23,24)            89.5865         estimate D2E/DX2                !
 ! A39   A(20,24,23)           114.8458         estimate D2E/DX2                !
 ! A40   A(20,24,25)           128.4853         estimate D2E/DX2                !
 ! A41   A(23,24,25)           116.6199         estimate D2E/DX2                !
 ! A42   A(24,25,26)           126.8095         estimate D2E/DX2                !
 ! A43   A(24,25,33)           116.5982         estimate D2E/DX2                !
 ! A44   A(26,25,33)           116.5923         estimate D2E/DX2                !
 ! A45   A(25,26,27)           117.0704         estimate D2E/DX2                !
 ! A46   A(25,26,30)           126.9497         estimate D2E/DX2                !
 ! A47   A(27,26,30)            95.0339         estimate D2E/DX2                !
 ! A48   A(26,27,28)            99.7641         estimate D2E/DX2                !
 ! A49   A(26,27,29)           104.537          estimate D2E/DX2                !
 ! A50   A(28,27,29)           111.0141         estimate D2E/DX2                !
 ! A51   A(26,30,31)            98.9187         estimate D2E/DX2                !
 ! A52   A(26,30,32)           102.9202         estimate D2E/DX2                !
 ! A53   A(31,30,32)           110.976          estimate D2E/DX2                !
 ! D1    D(2,1,5,6)           -128.4787         estimate D2E/DX2                !
 ! D2    D(2,1,5,7)             51.8948         estimate D2E/DX2                !
 ! D3    D(3,1,5,6)            119.6109         estimate D2E/DX2                !
 ! D4    D(3,1,5,7)            -60.0156         estimate D2E/DX2                !
 ! D5    D(4,1,5,6)             -7.9707         estimate D2E/DX2                !
 ! D6    D(4,1,5,7)            172.4027         estimate D2E/DX2                !
 ! D7    D(1,5,7,8)              1.7179         estimate D2E/DX2                !
 ! D8    D(1,5,7,9)           -174.6455         estimate D2E/DX2                !
 ! D9    D(6,5,7,8)           -177.9268         estimate D2E/DX2                !
 ! D10   D(6,5,7,9)              5.7098         estimate D2E/DX2                !
 ! D11   D(5,7,9,10)           -69.9087         estimate D2E/DX2                !
 ! D12   D(5,7,9,16)           119.4434         estimate D2E/DX2                !
 ! D13   D(8,7,9,10)           113.5772         estimate D2E/DX2                !
 ! D14   D(8,7,9,16)           -57.0708         estimate D2E/DX2                !
 ! D15   D(7,9,10,11)         -176.9394         estimate D2E/DX2                !
 ! D16   D(7,9,10,15)            3.5348         estimate D2E/DX2                !
 ! D17   D(16,9,10,11)          -6.9158         estimate D2E/DX2                !
 ! D18   D(16,9,10,15)         173.5584         estimate D2E/DX2                !
 ! D19   D(7,9,16,17)          -13.7781         estimate D2E/DX2                !
 ! D20   D(7,9,16,18)          176.7463         estimate D2E/DX2                !
 ! D21   D(10,9,16,17)         176.1174         estimate D2E/DX2                !
 ! D22   D(10,9,16,18)           6.6417         estimate D2E/DX2                !
 ! D23   D(9,10,11,12)           0.2384         estimate D2E/DX2                !
 ! D24   D(9,10,11,14)         172.1591         estimate D2E/DX2                !
 ! D25   D(15,10,11,12)        179.7317         estimate D2E/DX2                !
 ! D26   D(15,10,11,14)         -8.3476         estimate D2E/DX2                !
 ! D27   D(10,11,12,13)       -172.7281         estimate D2E/DX2                !
 ! D28   D(10,11,12,18)          6.0633         estimate D2E/DX2                !
 ! D29   D(14,11,12,13)         15.1424         estimate D2E/DX2                !
 ! D30   D(14,11,12,18)       -166.0662         estimate D2E/DX2                !
 ! D31   D(11,12,18,16)         -6.2816         estimate D2E/DX2                !
 ! D32   D(11,12,18,19)       -177.5459         estimate D2E/DX2                !
 ! D33   D(13,12,18,16)        172.3934         estimate D2E/DX2                !
 ! D34   D(13,12,18,19)          1.1291         estimate D2E/DX2                !
 ! D35   D(9,16,18,12)           0.107          estimate D2E/DX2                !
 ! D36   D(9,16,18,19)         171.1507         estimate D2E/DX2                !
 ! D37   D(17,16,18,12)       -170.0827         estimate D2E/DX2                !
 ! D38   D(17,16,18,19)          0.9611         estimate D2E/DX2                !
 ! D39   D(12,18,19,20)        -38.9735         estimate D2E/DX2                !
 ! D40   D(12,18,19,21)        130.94           estimate D2E/DX2                !
 ! D41   D(16,18,19,20)        149.8739         estimate D2E/DX2                !
 ! D42   D(16,18,19,21)        -40.2126         estimate D2E/DX2                !
 ! D43   D(18,19,20,24)        171.3127         estimate D2E/DX2                !
 ! D44   D(21,19,20,24)          1.1632         estimate D2E/DX2                !
 ! D45   D(18,19,21,22)         22.904          estimate D2E/DX2                !
 ! D46   D(18,19,21,23)       -166.3986         estimate D2E/DX2                !
 ! D47   D(20,19,21,22)       -165.9026         estimate D2E/DX2                !
 ! D48   D(20,19,21,23)          4.7948         estimate D2E/DX2                !
 ! D49   D(19,20,24,23)         -7.1616         estimate D2E/DX2                !
 ! D50   D(19,20,24,25)        175.4963         estimate D2E/DX2                !
 ! D51   D(19,21,23,24)         -7.2468         estimate D2E/DX2                !
 ! D52   D(22,21,23,24)        163.3352         estimate D2E/DX2                !
 ! D53   D(21,23,24,20)          8.3392         estimate D2E/DX2                !
 ! D54   D(21,23,24,25)       -173.9879         estimate D2E/DX2                !
 ! D55   D(20,24,25,26)         -0.9861         estimate D2E/DX2                !
 ! D56   D(20,24,25,33)        178.9853         estimate D2E/DX2                !
 ! D57   D(23,24,25,26)       -178.2882         estimate D2E/DX2                !
 ! D58   D(23,24,25,33)          1.6832         estimate D2E/DX2                !
 ! D59   D(24,25,26,27)        159.333          estimate D2E/DX2                !
 ! D60   D(24,25,26,30)         38.8207         estimate D2E/DX2                !
 ! D61   D(33,25,26,27)        -20.6385         estimate D2E/DX2                !
 ! D62   D(33,25,26,30)       -141.1507         estimate D2E/DX2                !
 ! D63   D(25,26,27,28)        -29.6533         estimate D2E/DX2                !
 ! D64   D(25,26,27,29)       -144.521          estimate D2E/DX2                !
 ! D65   D(30,26,27,28)        106.6246         estimate D2E/DX2                !
 ! D66   D(30,26,27,29)         -8.2431         estimate D2E/DX2                !
 ! D67   D(25,26,30,31)       -104.9573         estimate D2E/DX2                !
 ! D68   D(25,26,30,32)          9.1076         estimate D2E/DX2                !
 ! D69   D(27,26,30,31)        125.4064         estimate D2E/DX2                !
 ! D70   D(27,26,30,32)       -120.5287         estimate D2E/DX2                !
 --------------------------------------------------------------------------------
 Trust Radius=3.00D-01 FncErr=1.00D-07 GrdErr=1.00D-06 EigMax=2.50D+02 EigMin=1.00D-04
 Number of steps in this run=    167 maximum allowed number of steps=    198.
 GradGradGradGradGradGradGradGradGradGradGradGradGradGradGradGradGradGrad

 Leave Link  103 at Sun Jul 18 16:08:51 2021, MaxMem=   104857600 cpu:               0.1 elap:               0.0
 (Enter /dades/curu/g16A03_MST/g16/l202.exe)
                          Input orientation:                          
 ---------------------------------------------------------------------
 Center     Atomic      Atomic             Coordinates (Angstroms)
 Number     Number       Type             X           Y           Z
 ---------------------------------------------------------------------
      1          6           0        2.605000   -4.009000    3.562000
      2          1           0        1.541000   -4.251000    3.611000
      3          1           0        2.769000   -3.563000    4.545000
      4          1           0        3.195000   -4.920000    3.447000
      5          6           0        2.783000   -3.117000    2.431000
      6          8           0        3.571000   -3.238000    1.533000
      7          7           0        1.924000   -2.083000    2.515000
      8          1           0        1.305000   -2.016000    3.309000
      9          6           0        1.738000   -1.063000    1.522000
     10          6           0        2.743000   -0.156000    1.329000
     11          6           0        2.504000    0.872000    0.395000
     12          6           0        1.358000    0.968000   -0.269000
     13          1           0        1.321000    1.721000   -1.052000
     14          1           0        3.211000    1.691000    0.293000
     15          1           0        3.665000   -0.277000    1.892000
     16          6           0        0.499000   -0.943000    0.972000
     17          1           0       -0.284000   -1.690000    1.072000
     18          6           0        0.286000    0.077000    0.066000
     19          6           0       -0.940000    0.152000   -0.698000
     20          7           0       -1.564000    1.286000   -1.167000
     21          6           0       -1.459000   -1.035000   -1.186000
     22          1           0       -1.247000   -2.013000   -0.770000
     23         16           0       -2.711000   -0.680000   -2.398000
     24          6           0       -2.601000    0.958000   -2.014000
     25          7           0       -3.527000    1.808000   -2.625000
     26          6           0       -3.597000    3.012000   -2.505000
     27          7           0       -4.250000    3.686000   -3.468000
     28          1           0       -4.070000    3.075000   -4.258000
     29          1           0       -3.740000    4.558000   -3.559000
     30          7           0       -2.598000    3.855000   -2.432000
     31          1           0       -2.635000    4.057000   -1.439000
     32          1           0       -1.796000    3.276000   -2.655000
     33          1           0       -4.202000    1.378000   -3.224000
 ---------------------------------------------------------------------
                    Distance matrix (angstroms):
                    1          2          3          4          5
     1  C    0.000000
     2  H    1.092273   0.000000
     3  H    1.091834   1.689285   0.000000
     4  H    1.091442   1.791696   1.796811   0.000000
     5  C    1.451382   2.054488   2.160580   2.110168   0.000000
     6  O    2.375803   3.076549   3.133843   2.575635   1.200828
     7  N    2.295527   2.459294   2.650533   3.245402   1.346883
     8  H    2.392918   2.267625   2.462560   3.467616   2.041462
     9  C    3.686761   3.816553   4.056044   4.550266   2.477342
    10  C    4.455440   4.839561   4.685187   5.233156   3.159672
    11  C    5.819300   6.124962   6.079634   6.583270   4.487233
    12  C    6.403288   6.505832   6.759843   7.200817   5.099789
    13  H    7.467968   7.580023   7.832226   8.237461   6.137995
    14  H    6.598757   7.007524   6.773432   7.324841   5.279308
    15  H    4.223781   4.822760   4.317293   4.918981   3.022258
    16  C    4.532515   4.358090   4.978316   5.404680   3.474423
    17  H    4.463651   4.041765   4.989055   5.308198   3.645504
    18  C    5.856208   5.733553   6.283019   6.698018   4.693599
    19  C    6.930263   6.641480   7.419364   7.746253   5.859841
    20  N    8.232923   7.945356   8.655324   9.080282   7.157403
    21  C    6.921291   6.507985   7.557191   7.630048   5.950796
    22  H    6.130917   5.654622   6.839589   6.779757   5.263660
    23  S    8.652381   8.181664   9.303082   9.328583   7.709880
    24  C    9.103038   8.713809   9.607124   9.897829   8.084003
    25  N   10.474630  10.063985  10.949710  11.283636   9.467569
    26  C   11.160992  10.796095  11.552449  12.019742  10.130801
    27  N   12.474973  12.109661  12.884973  13.315723  11.425502
    28  H   12.485635  12.127438  12.974119  13.269034  11.403824
    29  H   12.820341  12.525827  13.190623  13.675187  11.719013
    30  N   11.173260  10.925036  11.511296  12.046664  10.060453
    31  H   10.841031  10.581320  11.093957  11.766411   9.787640
    32  H   10.539977  10.346693  10.929371  11.371847   9.365099
    33  H   11.018385  10.553905  11.548406  11.784848  10.048596
                    6          7          8          9         10
     6  O    0.000000
     7  N    2.238517   0.000000
     8  H    3.127653   1.009002   0.000000
     9  C    2.844404   1.435634   2.071006   0.000000
    10  C    3.197800   2.406384   3.073735   1.367451   0.000000
    11  C    4.396093   3.682774   4.274288   2.366666   1.409348
    12  C    5.082815   4.168886   4.659308   2.734418   2.394829
    13  H    6.027969   5.249525   5.743148   3.814449   3.348787
    14  H    5.095316   4.564727   5.144992   3.356291   2.168808
    15  H    2.984165   2.584733   3.256011   2.113770   1.087057
    16  C    3.875426   2.389785   2.694909   1.360890   2.404653
    17  H    4.179695   2.666826   2.763217   2.164281   3.403224
    18  C    4.892089   3.653251   3.991999   2.351136   2.772419
    19  C    6.067832   4.849855   5.079006   3.684604   4.215220
    20  N    7.356956   6.088795   6.258509   4.863304   5.182628
    21  C    6.127566   5.122538   5.367223   4.189852   4.975407
    22  H    5.478828   4.566330   4.811544   3.881493   4.875895
    23  S    7.839620   6.898493   7.105139   5.941943   6.626554
    24  C    8.263244   7.087676   7.241260   5.951022   6.401170
    25  N    9.650528   8.442327   8.554739   7.291123   7.668397
    26  C   10.331901   9.035534   9.116632   7.828447   8.058001
    27  N   11.581011  10.353547  10.454595   9.127390   9.309899
    28  H   11.479309  10.411846  10.586236   9.179559   9.384610
    29  H   11.838784  10.633779  10.762849   9.349903   9.388484
    30  N   10.202374   8.954392   9.091817   7.656483   7.665476
    31  H   10.028173   8.609193   8.657276   7.355614   7.371165
    32  H    9.422114   8.323832   8.555160   6.983080   6.946467
    33  H   10.215480   9.079786   9.193823   7.985399   8.444880
                   11         12         13         14         15
    11  C    0.000000
    12  C    1.327941   0.000000
    13  H    2.052827   1.086953   0.000000
    14  H    1.086745   2.066926   2.319919   0.000000
    15  H    2.215656   3.397381   4.260690   2.576032   0.000000
    16  C    2.765353   2.435135   3.445164   3.841086   3.363556
    17  H    3.846442   3.399913   4.326930   4.924736   4.273590
    18  C    2.379031   1.433628   2.241402   3.348455   3.857102
    19  C    3.684316   2.476025   2.774743   4.536673   5.300770
    20  N    4.377198   3.073371   2.919876   5.009616   6.256428
    21  C    4.673498   3.576085   3.916873   5.606016   6.025282
    22  H    4.873443   3.990412   4.540584   5.892652   5.850443
    23  S    6.116026   4.879068   4.881961   6.923381   7.695446
    24  C    5.645503   4.326524   4.109708   6.295942   7.486309
    25  N    6.809512   5.488129   5.097549   7.343641   8.745020
    26  C    7.086029   5.807724   5.288158   7.478149   9.104272
    27  N    8.273928   7.005055   6.382345   8.590208  10.348053
    28  H    8.349916   7.057957   6.416746   8.697127  10.434971
    29  H    8.258828   7.049951   6.320391   8.448313  10.388679
    30  N    6.551383   5.353809   4.670858   6.771484   8.659998
    31  H    6.317998   5.182168   4.610488   6.540145   8.340810
    32  H    5.794110   4.579037   3.834491   6.022705   7.944906
    33  H    7.636991   6.309812   5.944641   8.210958   9.529017
                   16         17         18         19         20
    16  C    0.000000
    17  H    1.086783   0.000000
    18  C    1.380799   2.111688   0.000000
    19  C    2.461432   2.637461   1.446512   0.000000
    20  N    3.714799   3.938032   2.530705   1.376696   0.000000
    21  C    2.915337   2.628348   2.418486   1.384368   2.323452
    22  H    2.688490   2.103488   2.723433   2.187843   3.337888
    23  S    4.661563   4.353312   3.953018   2.592039   2.587687
    24  C    4.705316   4.680148   3.665696   2.267248   1.378536
    25  N    6.059297   6.034970   4.977631   3.626049   2.500323
    26  C    6.671489   6.773456   5.504721   4.301685   2.983691
    27  N    7.980867   8.077260   6.788913   5.578365   4.274248
    28  H    8.023278   8.089989   6.830792   5.569060   4.362893
    29  H    8.292170   8.510441   7.030552   5.952996   4.600285
    30  N    6.648265   6.955547   5.369427   4.412248   3.044527
    31  H    6.374549   6.697786   5.161169   4.321010   2.983197
    32  H    6.018481   6.390448   4.687448   3.784437   2.495610
    33  H    6.715122   6.574113   5.714792   4.303998   3.346454
                   21         22         23         24         25
    21  C    0.000000
    22  H    1.083736   0.000000
    23  S    1.778334   2.563312   0.000000
    24  C    2.441679   3.493951   1.686001   0.000000
    25  N    3.798683   4.820733   2.628218   1.397604   0.000000
    26  C    4.763299   5.812345   3.798330   2.334955   1.211988
    27  N    5.940122   6.983968   4.751355   3.503613   2.181802
    28  H    5.757309   6.784041   4.405282   3.416897   2.137014
    29  H    6.489664   7.561191   5.462912   4.079748   2.912083
    30  N    5.173194   6.246669   4.536535   2.927002   2.256213
    31  H    5.232155   6.262508   4.833697   3.152076   2.694487
    32  H    4.566864   5.641644   4.068564   2.536145   2.269865
    33  H    4.183308   5.123770   2.672213   2.050293   0.999663
                   26         27         28         29         30
    26  C    0.000000
    27  N    1.344639   0.000000
    28  H    1.816785   1.014801   0.000000
    29  H    1.876561   1.014281   1.672361   0.000000
    30  N    1.309190   1.957284   2.471732   1.751714   0.000000
    31  H    1.775901   2.619677   3.312146   2.442627   1.014013
    32  H    1.826416   2.617477   2.789460   2.497974   1.013989
    33  H    1.884925   2.321358   1.991580   3.230800   3.055423
                   31         32         33
    31  H    0.000000
    32  H    1.671089   0.000000
    33  H    3.580329   3.116890   0.000000
 Stoichiometry    C12H14N5OS(1+)
 Framework group  C1[X(C12H14N5OS)]
 Deg. of freedom    93
 Full point group                 C1      NOp   1
 Largest Abelian subgroup         C1      NOp   1
 Largest concise Abelian subgroup C1      NOp   1
                         Standard orientation:                         
 ---------------------------------------------------------------------
 Center     Atomic      Atomic             Coordinates (Angstroms)
 Number     Number       Type             X           Y           Z
 ---------------------------------------------------------------------
      1          6           0        6.177022   -1.144246    0.829375
      2          1           0        5.638929   -1.931086    1.362668
      3          1           0        6.588147   -0.565464    1.658886
      4          1           0        6.976650   -1.576000    0.224867
      5          6           0        5.203936   -0.452873    0.003775
      6          8           0        5.287874   -0.222768   -1.171807
      7          7           0        4.147669   -0.074347    0.748833
      8          1           0        4.145041   -0.267169    1.739237
      9          6           0        2.946160    0.535694    0.253585
     10          6           0        3.017380    1.817196   -0.218223
     11          6           0        1.809531    2.411474   -0.635591
     12          6           0        0.649566    1.768002   -0.573528
     13          1           0       -0.199548    2.268230   -1.032053
     14          1           0        1.783037    3.465559   -0.898683
     15          1           0        3.989401    2.302555   -0.254230
     16          6           0        1.775574   -0.125975    0.463218
     17          1           0        1.713686   -1.163713    0.780025
     18          6           0        0.604194    0.479725    0.053826
     19          6           0       -0.651595   -0.238011    0.069586
     20          7           0       -1.910703    0.285535    0.258893
     21          6           0       -0.632800   -1.561734   -0.335232
     22          1           0        0.247238   -2.194047   -0.321158
     23         16           0       -2.298272   -2.119667   -0.613414
     24          6           0       -2.877209   -0.667385    0.017705
     25          7           0       -4.261338   -0.563011    0.180768
     26          6           0       -4.873964    0.400167    0.588067
     27          7           0       -6.180951    0.469245    0.279737
     28          1           0       -6.175763   -0.028855   -0.604396
     29          1           0       -6.357428    1.458101    0.139076
     30          7           0       -4.627186    1.658671    0.324919
     31          1           0       -4.213079    1.926281    1.210990
     32          1           0       -3.923365    1.604310   -0.402992
     33          1           0       -4.802785   -1.366732   -0.064575
 ---------------------------------------------------------------------
 Rotational constants (GHZ):           0.9525726           0.1309482           0.1197258
 Leave Link  202 at Sun Jul 18 16:08:52 2021, MaxMem=   104857600 cpu:               0.0 elap:               0.0
 (Enter /dades/curu/g16A03_MST/g16/l301.exe)
 Standard basis: 6-31G(d) (6D, 7F)
 Ernie: Thresh=  0.10000D-02 Tol=  0.10000D-05 Strict=F.
 There are   317 symmetry adapted cartesian basis functions of A   symmetry.
 There are   317 symmetry adapted basis functions of A   symmetry.
   317 basis functions,   612 primitive gaussians,   317 cartesian basis functions
    72 alpha electrons       72 beta electrons
       nuclear repulsion energy      1461.8447179943 Hartrees.
 IExCor=  402 DFT=T Ex+Corr=B3LYP ExCW=0 ScaHFX=  0.200000
 ScaDFX=  0.800000  0.720000  1.000000  0.810000 ScalE2=  1.000000  1.000000
 IRadAn=      5 IRanWt=     -1 IRanGd=            0 ICorTp=0 IEmpDi=  4
 NAtoms=   33 NActive=   33 NUniq=   33 SFac= 1.00D+00 NAtFMM=   60 NAOKFM=F Big=F
 Integral buffers will be    131072 words long.
 Raffenetti 2 integral format.
 Two-electron integral symmetry is turned on.
 Using the following non-standard input for PCM:
 MSTModel=DFT cav MSTCharged
 --- end of non-standard input.
 MST model for solvation energy: B3LYP parametrization.
 MST cavity parameters:
 ISph   IAn     Re0     Alpha   Atom Type   QCorr
 ------------------------------------------------
   1      6     1.50     1.50      CH3        F
   2      1     1.20     1.50      CH3        F
   3      1     1.20     1.50      CH3        F
   4      1     1.20     1.50      CH3        F
   5      6     1.50     1.50      C          F
   6      8     1.40     1.50      O          F
   7      7     1.50     1.50      NH         F
   8      1     0.90     1.50      NH         F
   9      6     1.50     1.50      C          F
  10      6     1.50     1.50      CH         F
  11      6     1.50     1.50      CH         F
  12      6     1.50     1.50      CH         F
  13      1     1.20     1.50      CH         F
  14      1     1.20     1.50      CH         F
  15      1     1.20     1.50      CH         F
  16      6     1.50     1.50      CH         F
  17      1     1.20     1.50      CH         F
  18      6     1.50     1.50      C          F
  19      6     1.50     1.50      C          F
  20      7     1.50     1.50      Nc         F
  21      6     1.50     1.50      CH         F
  22      1     1.20     1.50      CH         F
  23     16     1.75     1.50      S          F
  24      6     1.50     1.50      C          F
  25      7     1.50     1.15      NH         T
  26      6     1.50     1.15      CN+        T
  27      7     1.50     1.15      NH+        T
  28      1     0.90     1.15      NH+        T
  29      1     0.90     1.15      NH+        T
  30      7     1.50     1.15      NH+        T
  31      1     0.90     1.15      NH+        T
  32      1     0.90     1.15      NH+        T
  33      1     0.90     1.15      NH         T
 ------------------------------------------------------------------------------
 Polarizable Continuum Model (PCM)
 =================================
 Model                : PCM.
 Atomic radii         : MST.
 Polarization charges : Total charges.
 Charge compensation  : None.
 Solution method      : On-the-fly selection.
 Cavity type          : Scaled VdW (van der Waals Surface) (Alpha=1.500).
 Cavity algorithm     : GePol (No added spheres)
                        Default sphere list used, NSphG=   33.
                        Lebedev-Laikov grids with approx.  5.0 points / Ang**2.
                        Smoothing algorithm: York/Karplus (Gamma=1.0000).
                        Polarization charges: spherical gaussians, with
                                              point-specific exponents (IZeta= 3).
                        Self-potential: point-specific (ISelfS= 7).
                        Self-field    : sphere-specific E.n sum rule (ISelfD= 2).
 1st derivatives      : Analytical E(r).r(x)/FMM algorithm (CHGder, D1EAlg=3).
                        Cavity 1st derivative terms included.
 Solvent              : n-Octanol, Eps=   9.862900 Eps(inf)=   2.043470
 ------------------------------------------------------------------------------
 GePol: Number of generator spheres                  =      33
 GePol: Total number of spheres                      =      33
 GePol: Number of exposed spheres                    =      33 (100.00%)
 GePol: Number of points                             =    2985
 GePol: Average weight of points                     =       0.12
 GePol: Minimum weight of points                     =   0.39D-10
 GePol: Maximum weight of points                     =    0.22065
 GePol: Number of points with low weight             =     168
 GePol: Fraction of low-weight points (<1% of avg)   =       5.63%
 GePol: Cavity surface area                          =    350.279 Ang**2
 GePol: Cavity volume                                =    389.444 Ang**3
 Surface areas from nonelectrostatic (unscaled) cavity and vdw tensions:
 Sphere =    1 Type =  CH3 Surf =        4.995 Tension =       -0.183
 Sphere =    2 Type =  CH3 Surf =        9.802 Tension =       -0.183
 Sphere =    3 Type =  CH3 Surf =       10.094 Tension =       -0.183
 Sphere =    4 Type =  CH3 Surf =       10.132 Tension =       -0.183
 Sphere =    5 Type =  C   Surf =        6.322 Tension =       -0.205
 Sphere =    6 Type =  O   Surf =       16.290 Tension =       -0.185
 Sphere =    7 Type =  NH  Surf =        9.275 Tension =       -0.234
 Sphere =    8 Type =  NH  Surf =        3.898 Tension =       -0.234
 Sphere =    9 Type =  C   Surf =        5.832 Tension =       -0.205
 Sphere =   10 Type =  CH  Surf =        7.721 Tension =       -0.195
 Sphere =   11 Type =  CH  Surf =        7.530 Tension =       -0.195
 Sphere =   12 Type =  CH  Surf =        7.615 Tension =       -0.195
 Sphere =   13 Type =  CH  Surf =       10.191 Tension =       -0.195
 Sphere =   14 Type =  CH  Surf =       10.187 Tension =       -0.195
 Sphere =   15 Type =  CH  Surf =       10.198 Tension =       -0.195
 Sphere =   16 Type =  CH  Surf =        7.348 Tension =       -0.195
 Sphere =   17 Type =  CH  Surf =        9.044 Tension =       -0.195
 Sphere =   18 Type =  C   Surf =        6.107 Tension =       -0.205
 Sphere =   19 Type =  C   Surf =        6.012 Tension =       -0.205
 Sphere =   20 Type =  Nc  Surf =       13.206 Tension =       -0.161
 Sphere =   21 Type =  CH  Surf =        7.552 Tension =       -0.195
 Sphere =   22 Type =  CH  Surf =        9.219 Tension =       -0.195
 Sphere =   23 Type =  S   Surf =       24.084 Tension =       -0.186
 Sphere =   24 Type =  C   Surf =        5.511 Tension =       -0.205
 Sphere =   25 Type =  NH  Surf =        8.745 Tension =       -0.234
 Sphere =   26 Type =  CN+ Surf =        6.045 Tension =       -0.227
 Sphere =   27 Type =  NH+ Surf =       14.071 Tension =       -0.274
 Sphere =   28 Type =  NH+ Surf =        3.781 Tension =       -0.274
 Sphere =   29 Type =  NH+ Surf =        3.197 Tension =       -0.274
 Sphere =   30 Type =  NH+ Surf =       13.110 Tension =       -0.274
 Sphere =   31 Type =  NH+ Surf =        3.852 Tension =       -0.274
 Sphere =   32 Type =  NH+ Surf =        3.864 Tension =       -0.274
 Sphere =   33 Type =  NH  Surf =        3.810 Tension =       -0.234
 PCM non-electrostatic energy =        -0.0206412058 Hartrees.
 Nuclear repulsion after PCM non-electrostatic terms =     1461.8240767885 Hartrees.
 Leave Link  301 at Sun Jul 18 16:08:52 2021, MaxMem=   104857600 cpu:               0.2 elap:               0.2
 (Enter /dades/curu/g16A03_MST/g16/l302.exe)
 NPDir=0 NMtPBC=     1 NCelOv=     1 NCel=       1 NClECP=     1 NCelD=      1
         NCelK=      1 NCelE2=     1 NClLst=     1 CellRange=     0.0.
 One-electron integrals computed using PRISM.
 One-electron integral symmetry used in STVInt
 NBasis=   317 RedAO= T EigKep=  4.62D-04  NBF=   317
 NBsUse=   317 1.00D-06 EigRej= -1.00D+00 NBFU=   317
 Precomputing XC quadrature grid using
 IXCGrd= 4 IRadAn=           5 IRanWt=          -1 IRanGd=           0 AccXCQ= 0.00D+00.
 Generated NRdTot=       0 NPtTot=           0 NUsed=           0 NTot=          32
 NSgBfM=   312   312   312   312   312 MxSgAt=    33 MxSgA2=    33.
 Leave Link  302 at Sun Jul 18 16:08:53 2021, MaxMem=   104857600 cpu:               5.3 elap:               1.4
 (Enter /dades/curu/g16A03_MST/g16/l303.exe)
 DipDrv:  MaxL=1.
 Leave Link  303 at Sun Jul 18 16:08:53 2021, MaxMem=   104857600 cpu:               0.1 elap:               0.1
 (Enter /dades/curu/g16A03_MST/g16/l401.exe)
 ExpMin= 1.17D-01 ExpMax= 2.19D+04 ExpMxC= 3.30D+03 IAcc=3 IRadAn=         5 AccDes= 0.00D+00
 Harris functional with IExCor=  402 and IRadAn=       5 diagonalized for initial guess.
 HarFok:  IExCor=  402 AccDes= 0.00D+00 IRadAn=         5 IDoV= 1 UseB2=F ITyADJ=14
 ICtDFT=  3500011 ScaDFX=  1.000000  1.000000  1.000000  1.000000
 FoFCou: FMM=F IPFlag=           0 FMFlag=      100000 FMFlg1=           0
         NFxFlg=           0 DoJE=T BraDBF=F KetDBF=T FulRan=T
         wScrn=  0.000000 ICntrl=       500 IOpCl=  0 I1Cent=   200000004 NGrid=           0
         NMat0=    1 NMatS0=      1 NMatT0=    0 NMatD0=    1 NMtDS0=    0 NMtDT0=    0
 Petite list used in FoFCou.
 Harris En= -1212.48121077729    
 JPrj=0 DoOrth=F DoCkMO=F.
 Leave Link  401 at Sun Jul 18 16:09:00 2021, MaxMem=   104857600 cpu:              26.1 elap:               6.6
 (Enter /dades/curu/g16A03_MST/g16/l502.exe)
 Integral symmetry usage will be decided dynamically.
 Closed shell SCF:
 Using DIIS extrapolation, IDIIS=  1040.
 NGot=   104857600 LenX=   104651201 LenY=   104550271
 Requested convergence on RMS density matrix=1.00D-08 within 128 cycles.
 Requested convergence on MAX density matrix=1.00D-06.
 Requested convergence on             energy=1.00D-06.
 No special actions if energy rises.
 Fock matrices will be formed incrementally for  20 cycles.

 Cycle   1  Pass 1  IDiag  1:
 FoFJK:  IHMeth= 1 ICntrl=       0 DoSepK=F KAlg= 0 I1Cent=           0 FoldK=F
 IRaf= 720000000 NMat=       1 IRICut=       1 DoRegI=T DoRafI=F ISym2E= 0 IDoP0=0 IntGTp=1.
 FoFCou: FMM=F IPFlag=           0 FMFlag=      100000 FMFlg1=           0
         NFxFlg=           0 DoJE=F BraDBF=F KetDBF=F FulRan=T
         wScrn=  0.000000 ICntrl=         0 IOpCl=  0 I1Cent=           0 NGrid=           0
         NMat0=    1 NMatS0=      1 NMatT0=    0 NMatD0=    1 NMtDS0=    0 NMtDT0=    0
 Symmetry not used in FoFCou.
 Inv3:  Mode=1 IEnd=    26730675.
 Iteration    1 A*A^-1 deviation from unit magnitude is 6.99D-15 for    734.
 Iteration    1 A*A^-1 deviation from orthogonality  is 2.28D-15 for   2983   2882.
 Iteration    1 A^-1*A deviation from unit magnitude is 6.22D-15 for    727.
 Iteration    1 A^-1*A deviation from orthogonality  is 4.45D-15 for   2054    735.
 E= -1212.06216956407    
 DIIS: error= 3.02D-02 at cycle   1 NSaved=   1.
 NSaved= 1 IEnMin= 1 EnMin= -1212.06216956407     IErMin= 1 ErrMin= 3.02D-02
 ErrMax= 3.02D-02  0.00D+00 EMaxC= 1.00D-01 BMatC= 5.45D-01 BMatP= 5.45D-01
 IDIUse=3 WtCom= 6.98D-01 WtEn= 3.02D-01
 Coeff-Com:  0.100D+01
 Coeff-En:   0.100D+01
 Coeff:      0.100D+01
 Gap=     0.301 Goal=   None    Shift=    0.000
 GapD=    0.301 DampG=1.000 DampE=0.500 DampFc=0.5000 IDamp=-1.
 Damping current iteration by 5.00D-01
 RMSDP=6.30D-03 MaxDP=2.47D-01              OVMax= 2.93D-01

 Cycle   2  Pass 1  IDiag  1:
 RMSU=  3.13D-03    CP:  9.85D-01
 E= -1212.20544387045     Delta-E=       -0.143274306383 Rises=F Damp=T
 DIIS: error= 1.03D-02 at cycle   2 NSaved=   2.
 NSaved= 2 IEnMin= 2 EnMin= -1212.20544387045     IErMin= 2 ErrMin= 1.03D-02
 ErrMax= 1.03D-02  0.00D+00 EMaxC= 1.00D-01 BMatC= 7.48D-02 BMatP= 5.45D-01
 IDIUse=3 WtCom= 8.97D-01 WtEn= 1.03D-01
 Coeff-Com:  0.194D+00 0.806D+00
 Coeff-En:   0.341D+00 0.659D+00
 Coeff:      0.209D+00 0.791D+00
 Gap=     0.124 Goal=   None    Shift=    0.000
 RMSDP=2.01D-03 MaxDP=8.55D-02 DE=-1.43D-01 OVMax= 3.00D-01

 Cycle   3  Pass 1  IDiag  1:
 RMSU=  1.66D-03    CP:  9.76D-01  6.43D-01
 E= -1212.50887661344     Delta-E=       -0.303432742991 Rises=F Damp=F
 DIIS: error= 1.02D-02 at cycle   3 NSaved=   3.
 NSaved= 3 IEnMin= 3 EnMin= -1212.50887661344     IErMin= 3 ErrMin= 1.02D-02
 ErrMax= 1.02D-02  0.00D+00 EMaxC= 1.00D-01 BMatC= 7.35D-02 BMatP= 7.48D-02
 IDIUse=3 WtCom= 8.98D-01 WtEn= 1.02D-01
 Coeff-Com:  0.585D-01 0.492D+00 0.449D+00
 Coeff-En:   0.000D+00 0.000D+00 0.100D+01
 Coeff:      0.525D-01 0.442D+00 0.506D+00
 Gap=     0.130 Goal=   None    Shift=    0.000
 RMSDP=1.14D-03 MaxDP=5.48D-02 DE=-3.03D-01 OVMax= 8.42D-02

 Cycle   4  Pass 1  IDiag  1:
 RMSU=  7.92D-04    CP:  9.80D-01  7.52D-01  5.48D-01
 E= -1212.56915094884     Delta-E=       -0.060274335395 Rises=F Damp=F
 DIIS: error= 3.63D-03 at cycle   4 NSaved=   4.
 NSaved= 4 IEnMin= 4 EnMin= -1212.56915094884     IErMin= 4 ErrMin= 3.63D-03
 ErrMax= 3.63D-03  0.00D+00 EMaxC= 1.00D-01 BMatC= 1.14D-02 BMatP= 7.35D-02
 IDIUse=3 WtCom= 9.64D-01 WtEn= 3.63D-02
 Coeff-Com: -0.887D-03 0.808D-01 0.294D+00 0.626D+00
 Coeff-En:   0.000D+00 0.000D+00 0.156D+00 0.844D+00
 Coeff:     -0.855D-03 0.779D-01 0.289D+00 0.633D+00
 Gap=     0.125 Goal=   None    Shift=    0.000
 RMSDP=4.00D-04 MaxDP=1.85D-02 DE=-6.03D-02 OVMax= 3.23D-02

 Cycle   5  Pass 1  IDiag  1:
 RMSU=  2.01D-04    CP:  9.80D-01  7.26D-01  6.76D-01  6.71D-01
 E= -1212.57907217413     Delta-E=       -0.009921225295 Rises=F Damp=F
 DIIS: error= 1.05D-03 at cycle   5 NSaved=   5.
 NSaved= 5 IEnMin= 5 EnMin= -1212.57907217413     IErMin= 5 ErrMin= 1.05D-03
 ErrMax= 1.05D-03  0.00D+00 EMaxC= 1.00D-01 BMatC= 8.34D-04 BMatP= 1.14D-02
 IDIUse=3 WtCom= 9.89D-01 WtEn= 1.05D-02
 Coeff-Com: -0.402D-02 0.123D-01 0.131D+00 0.360D+00 0.500D+00
 Coeff-En:   0.000D+00 0.000D+00 0.000D+00 0.000D+00 0.100D+01
 Coeff:     -0.397D-02 0.122D-01 0.130D+00 0.357D+00 0.505D+00
 Gap=     0.125 Goal=   None    Shift=    0.000
 RMSDP=1.15D-04 MaxDP=4.39D-03 DE=-9.92D-03 OVMax= 9.46D-03

 Cycle   6  Pass 1  IDiag  1:
 RMSU=  7.23D-05    CP:  9.79D-01  7.29D-01  6.70D-01  7.23D-01  6.13D-01
 E= -1212.57982065388     Delta-E=       -0.000748479743 Rises=F Damp=F
 DIIS: error= 4.60D-04 at cycle   6 NSaved=   6.
 NSaved= 6 IEnMin= 6 EnMin= -1212.57982065388     IErMin= 6 ErrMin= 4.60D-04
 ErrMax= 4.60D-04  0.00D+00 EMaxC= 1.00D-01 BMatC= 8.53D-05 BMatP= 8.34D-04
 IDIUse=3 WtCom= 9.95D-01 WtEn= 4.60D-03
 Coeff-Com: -0.189D-02 0.266D-03 0.472D-01 0.142D+00 0.296D+00 0.517D+00
 Coeff-En:   0.000D+00 0.000D+00 0.000D+00 0.000D+00 0.431D-01 0.957D+00
 Coeff:     -0.189D-02 0.265D-03 0.470D-01 0.141D+00 0.295D+00 0.519D+00
 Gap=     0.125 Goal=   None    Shift=    0.000
 RMSDP=3.88D-05 MaxDP=2.30D-03 DE=-7.48D-04 OVMax= 2.54D-03

 Cycle   7  Pass 1  IDiag  1:
 RMSU=  2.43D-05    CP:  9.79D-01  7.27D-01  6.76D-01  7.21D-01  6.37D-01
                    CP:  6.16D-01
 E= -1212.57989814223     Delta-E=       -0.000077488353 Rises=F Damp=F
 DIIS: error= 1.91D-04 at cycle   7 NSaved=   7.
 NSaved= 7 IEnMin= 7 EnMin= -1212.57989814223     IErMin= 7 ErrMin= 1.91D-04
 ErrMax= 1.91D-04  0.00D+00 EMaxC= 1.00D-01 BMatC= 7.43D-06 BMatP= 8.53D-05
 IDIUse=3 WtCom= 9.98D-01 WtEn= 1.91D-03
 Coeff-Com: -0.646D-03-0.147D-02 0.121D-01 0.405D-01 0.113D+00 0.288D+00
 Coeff-Com:  0.548D+00
 Coeff-En:   0.000D+00 0.000D+00 0.000D+00 0.000D+00 0.000D+00 0.000D+00
 Coeff-En:   0.100D+01
 Coeff:     -0.644D-03-0.147D-02 0.121D-01 0.404D-01 0.113D+00 0.288D+00
 Coeff:      0.549D+00
 Gap=     0.125 Goal=   None    Shift=    0.000
 RMSDP=1.14D-05 MaxDP=6.70D-04 DE=-7.75D-05 OVMax= 7.34D-04

 Cycle   8  Pass 1  IDiag  1:
 RMSU=  6.80D-06    CP:  9.79D-01  7.27D-01  6.76D-01  7.23D-01  6.43D-01
                    CP:  6.77D-01  6.88D-01
 E= -1212.57990446717     Delta-E=       -0.000006324941 Rises=F Damp=F
 DIIS: error= 4.15D-05 at cycle   8 NSaved=   8.
 NSaved= 8 IEnMin= 8 EnMin= -1212.57990446717     IErMin= 8 ErrMin= 4.15D-05
 ErrMax= 4.15D-05  0.00D+00 EMaxC= 1.00D-01 BMatC= 6.46D-07 BMatP= 7.43D-06
 IDIUse=1 WtCom= 1.00D+00 WtEn= 0.00D+00
 Coeff-Com: -0.130D-03-0.651D-03 0.170D-02 0.665D-02 0.295D-01 0.938D-01
 Coeff-Com:  0.279D+00 0.590D+00
 Coeff:     -0.130D-03-0.651D-03 0.170D-02 0.665D-02 0.295D-01 0.938D-01
 Coeff:      0.279D+00 0.590D+00
 Gap=     0.125 Goal=   None    Shift=    0.000
 RMSDP=3.75D-06 MaxDP=1.51D-04 DE=-6.32D-06 OVMax= 3.53D-04

 Cycle   9  Pass 1  IDiag  1:
 RMSU=  3.13D-06    CP:  9.79D-01  7.27D-01  6.76D-01  7.24D-01  6.46D-01
                    CP:  6.81D-01  7.39D-01  7.80D-01
 E= -1212.57990497421     Delta-E=       -0.000000507045 Rises=F Damp=F
 DIIS: error= 1.70D-05 at cycle   9 NSaved=   9.
 NSaved= 9 IEnMin= 9 EnMin= -1212.57990497421     IErMin= 9 ErrMin= 1.70D-05
 ErrMax= 1.70D-05  0.00D+00 EMaxC= 1.00D-01 BMatC= 1.34D-07 BMatP= 6.46D-07
 IDIUse=1 WtCom= 1.00D+00 WtEn= 0.00D+00
 Coeff-Com:  0.240D-04-0.193D-03-0.878D-03-0.229D-02 0.299D-03 0.983D-02
 Coeff-Com:  0.760D-01 0.356D+00 0.561D+00
 Coeff:      0.240D-04-0.193D-03-0.878D-03-0.229D-02 0.299D-03 0.983D-02
 Coeff:      0.760D-01 0.356D+00 0.561D+00
 Gap=     0.125 Goal=   None    Shift=    0.000
 RMSDP=1.41D-06 MaxDP=5.18D-05 DE=-5.07D-07 OVMax= 9.63D-05

 Cycle  10  Pass 1  IDiag  1:
 RMSU=  9.84D-07    CP:  9.79D-01  7.27D-01  6.76D-01  7.24D-01  6.47D-01
                    CP:  6.84D-01  7.51D-01  8.66D-01  8.24D-01
 E= -1212.57990509392     Delta-E=       -0.000000119701 Rises=F Damp=F
 DIIS: error= 2.67D-06 at cycle  10 NSaved=  10.
 NSaved=10 IEnMin=10 EnMin= -1212.57990509392     IErMin=10 ErrMin= 2.67D-06
 ErrMax= 2.67D-06  0.00D+00 EMaxC= 1.00D-01 BMatC= 9.00D-09 BMatP= 1.34D-07
 IDIUse=1 WtCom= 1.00D+00 WtEn= 0.00D+00
 Coeff-Com:  0.193D-04-0.326D-04-0.649D-03-0.187D-02-0.263D-02-0.442D-02
 Coeff-Com:  0.115D-01 0.135D+00 0.279D+00 0.584D+00
 Coeff:      0.193D-04-0.326D-04-0.649D-03-0.187D-02-0.263D-02-0.442D-02
 Coeff:      0.115D-01 0.135D+00 0.279D+00 0.584D+00
 Gap=     0.125 Goal=   None    Shift=    0.000
 RMSDP=5.09D-07 MaxDP=1.28D-05 DE=-1.20D-07 OVMax= 4.42D-05

 Cycle  11  Pass 1  IDiag  1:
 RMSU=  3.35D-07    CP:  9.79D-01  7.27D-01  6.76D-01  7.24D-01  6.47D-01
                    CP:  6.86D-01  7.58D-01  8.90D-01  8.71D-01  8.09D-01
 E= -1212.57990510382     Delta-E=       -0.000000009899 Rises=F Damp=F
 DIIS: error= 9.71D-07 at cycle  11 NSaved=  11.
 NSaved=11 IEnMin=11 EnMin= -1212.57990510382     IErMin=11 ErrMin= 9.71D-07
 ErrMax= 9.71D-07  0.00D+00 EMaxC= 1.00D-01 BMatC= 1.29D-09 BMatP= 9.00D-09
 IDIUse=1 WtCom= 1.00D+00 WtEn= 0.00D+00
 Coeff-Com:  0.276D-05 0.186D-04-0.192D-03-0.556D-03-0.117D-02-0.361D-02
 Coeff-Com: -0.543D-02 0.168D-01 0.415D-01 0.280D+00 0.673D+00
 Coeff:      0.276D-05 0.186D-04-0.192D-03-0.556D-03-0.117D-02-0.361D-02
 Coeff:     -0.543D-02 0.168D-01 0.415D-01 0.280D+00 0.673D+00
 Gap=     0.125 Goal=   None    Shift=    0.000
 RMSDP=2.15D-07 MaxDP=8.08D-06 DE=-9.90D-09 OVMax= 3.03D-05

 Cycle  12  Pass 1  IDiag  1:
 RMSU=  1.25D-07    CP:  9.79D-01  7.27D-01  6.76D-01  7.24D-01  6.47D-01
                    CP:  6.86D-01  7.59D-01  9.01D-01  8.98D-01  9.23D-01
                    CP:  9.25D-01
 E= -1212.57990510548     Delta-E=       -0.000000001660 Rises=F Damp=F
 DIIS: error= 6.45D-07 at cycle  12 NSaved=  12.
 NSaved=12 IEnMin=12 EnMin= -1212.57990510548     IErMin=12 ErrMin= 6.45D-07
 ErrMax= 6.45D-07  0.00D+00 EMaxC= 1.00D-01 BMatC= 2.27D-10 BMatP= 1.29D-09
 IDIUse=1 WtCom= 1.00D+00 WtEn= 0.00D+00
 Coeff-Com: -0.248D-05 0.164D-04-0.154D-04-0.295D-04-0.247D-03-0.147D-02
 Coeff-Com: -0.511D-02-0.112D-01-0.252D-01 0.561D-01 0.344D+00 0.643D+00
 Coeff:     -0.248D-05 0.164D-04-0.154D-04-0.295D-04-0.247D-03-0.147D-02
 Coeff:     -0.511D-02-0.112D-01-0.252D-01 0.561D-01 0.344D+00 0.643D+00
 Gap=     0.125 Goal=   None    Shift=    0.000
 RMSDP=8.23D-08 MaxDP=3.19D-06 DE=-1.66D-09 OVMax= 9.43D-06

 Cycle  13  Pass 1  IDiag  1:
 RMSU=  4.09D-08    CP:  9.79D-01  7.27D-01  6.76D-01  7.24D-01  6.47D-01
                    CP:  6.86D-01  7.60D-01  9.05D-01  9.09D-01  9.55D-01
                    CP:  1.03D+00  9.11D-01
 E= -1212.57990510574     Delta-E=       -0.000000000267 Rises=F Damp=F
 DIIS: error= 1.37D-07 at cycle  13 NSaved=  13.
 NSaved=13 IEnMin=13 EnMin= -1212.57990510574     IErMin=13 ErrMin= 1.37D-07
 ErrMax= 1.37D-07  0.00D+00 EMaxC= 1.00D-01 BMatC= 1.54D-11 BMatP= 2.27D-10
 IDIUse=1 WtCom= 1.00D+00 WtEn= 0.00D+00
 Coeff-Com: -0.174D-05 0.479D-05 0.147D-04 0.563D-04 0.696D-04-0.139D-03
 Coeff-Com: -0.117D-02-0.534D-02-0.153D-01-0.837D-02 0.633D-01 0.253D+00
 Coeff-Com:  0.714D+00
 Coeff:     -0.174D-05 0.479D-05 0.147D-04 0.563D-04 0.696D-04-0.139D-03
 Coeff:     -0.117D-02-0.534D-02-0.153D-01-0.837D-02 0.633D-01 0.253D+00
 Coeff:      0.714D+00
 Gap=     0.125 Goal=   None    Shift=    0.000
 RMSDP=2.93D-08 MaxDP=1.06D-06 DE=-2.67D-10 OVMax= 3.56D-06

 Cycle  14  Pass 1  IDiag  1:
 RMSU=  1.43D-08    CP:  9.79D-01  7.27D-01  6.76D-01  7.24D-01  6.47D-01
                    CP:  6.86D-01  7.60D-01  9.06D-01  9.11D-01  9.68D-01
                    CP:  1.07D+00  9.88D-01  8.52D-01
 E= -1212.57990510574     Delta-E=        0.000000000004 Rises=F Damp=F
 DIIS: error= 6.77D-08 at cycle  14 NSaved=  14.
 NSaved=14 IEnMin=13 EnMin= -1212.57990510574     IErMin=14 ErrMin= 6.77D-08
 ErrMax= 6.77D-08  0.00D+00 EMaxC= 1.00D-01 BMatC= 4.45D-12 BMatP= 1.54D-11
 IDIUse=1 WtCom= 1.00D+00 WtEn= 0.00D+00
 Coeff-Com: -0.749D-06 0.999D-06 0.986D-05 0.362D-04 0.689D-04 0.677D-04
 Coeff-Com: -0.142D-03-0.199D-02-0.670D-02-0.114D-01-0.374D-03 0.752D-01
 Coeff-Com:  0.425D+00 0.520D+00
 Coeff:     -0.749D-06 0.999D-06 0.986D-05 0.362D-04 0.689D-04 0.677D-04
 Coeff:     -0.142D-03-0.199D-02-0.670D-02-0.114D-01-0.374D-03 0.752D-01
 Coeff:      0.425D+00 0.520D+00
 Gap=     0.125 Goal=   None    Shift=    0.000
 RMSDP=8.84D-09 MaxDP=3.59D-07 DE= 3.87D-12 OVMax= 8.33D-07

 Error on total polarization charges =  0.01561
 SCF Done:  E(RB3LYP) =  -1212.57990511     A.U. after   14 cycles
            NFock= 14  Conv=0.88D-08     -V/T= 2.0060
 KE= 1.205329298064D+03 PE=-5.744507695625D+03 EE= 1.864774415667D+03
 Leave Link  502 at Sun Jul 18 16:12:38 2021, MaxMem=   104857600 cpu:             842.7 elap:             218.3
 (Enter /dades/curu/g16A03_MST/g16/l601.exe)
 Copying SCF densities to generalized density rwf, IOpCl= 0 IROHF=0.

 **********************************************************************

            Population analysis using the SCF density.

 **********************************************************************

 Orbital symmetries:
       Occupied  (A) (A) (A) (A) (A) (A) (A) (A) (A) (A) (A) (A)
                 (A) (A) (A) (A) (A) (A) (A) (A) (A) (A) (A) (A)
                 (A) (A) (A) (A) (A) (A) (A) (A) (A) (A) (A) (A)
                 (A) (A) (A) (A) (A) (A) (A) (A) (A) (A) (A) (A)
                 (A) (A) (A) (A) (A) (A) (A) (A) (A) (A) (A) (A)
                 (A) (A) (A) (A) (A) (A) (A) (A) (A) (A) (A) (A)
       Virtual   (A) (A) (A) (A) (A) (A) (A) (A) (A) (A) (A) (A)
                 (A) (A) (A) (A) (A) (A) (A) (A) (A) (A) (A) (A)
                 (A) (A) (A) (A) (A) (A) (A) (A) (A) (A) (A) (A)
                 (A) (A) (A) (A) (A) (A) (A) (A) (A) (A) (A) (A)
                 (A) (A) (A) (A) (A) (A) (A) (A) (A) (A) (A) (A)
                 (A) (A) (A) (A) (A) (A) (A) (A) (A) (A) (A) (A)
                 (A) (A) (A) (A) (A) (A) (A) (A) (A) (A) (A) (A)
                 (A) (A) (A) (A) (A) (A) (A) (A) (A) (A) (A) (A)
                 (A) (A) (A) (A) (A) (A) (A) (A) (A) (A) (A) (A)
                 (A) (A) (A) (A) (A) (A) (A) (A) (A) (A) (A) (A)
                 (A) (A) (A) (A) (A) (A) (A) (A) (A) (A) (A) (A)
                 (A) (A) (A) (A) (A) (A) (A) (A) (A) (A) (A) (A)
                 (A) (A) (A) (A) (A) (A) (A) (A) (A) (A) (A) (A)
                 (A) (A) (A) (A) (A) (A) (A) (A) (A) (A) (A) (A)
                 (A) (A) (A) (A) (A) (A) (A) (A) (A) (A) (A) (A)
                 (A) (A) (A) (A) (A) (A) (A) (A) (A) (A) (A) (A)
                 (A) (A) (A) (A) (A) (A) (A) (A) (A) (A) (A) (A)
                 (A) (A) (A) (A) (A) (A) (A) (A) (A) (A) (A) (A)
                 (A) (A) (A) (A) (A) (A) (A) (A) (A) (A) (A) (A)
                 (A) (A) (A) (A) (A) (A) (A) (A) (A) (A) (A) (A)
                 (A) (A) (A) (A) (A)
 The electronic state is 1-A.
 Alpha  occ. eigenvalues --  -88.96555 -19.11748 -14.46800 -14.38715 -14.36216
 Alpha  occ. eigenvalues --  -14.36199 -14.36043 -10.35383 -10.34263 -10.28870
 Alpha  occ. eigenvalues --  -10.26714 -10.25851 -10.23980 -10.22732 -10.20950
 Alpha  occ. eigenvalues --  -10.20612 -10.20553 -10.20253 -10.18819  -8.02717
 Alpha  occ. eigenvalues --   -5.99096  -5.98734  -5.98440  -1.13341  -1.05258
 Alpha  occ. eigenvalues --   -1.02271  -0.98320  -0.94493  -0.91285  -0.88267
 Alpha  occ. eigenvalues --   -0.84623  -0.81658  -0.78675  -0.76889  -0.73906
 Alpha  occ. eigenvalues --   -0.70980  -0.67314  -0.65062  -0.63034  -0.61656
 Alpha  occ. eigenvalues --   -0.59824  -0.57834  -0.57176  -0.55950  -0.54939
 Alpha  occ. eigenvalues --   -0.51982  -0.50763  -0.49617  -0.49267  -0.48474
 Alpha  occ. eigenvalues --   -0.47568  -0.47105  -0.46096  -0.45432  -0.44563
 Alpha  occ. eigenvalues --   -0.42153  -0.41814  -0.41324  -0.40965  -0.39201
 Alpha  occ. eigenvalues --   -0.38034  -0.37676  -0.36683  -0.36208  -0.32695
 Alpha  occ. eigenvalues --   -0.32027  -0.29757  -0.28796  -0.26725  -0.26061
 Alpha  occ. eigenvalues --   -0.25712  -0.24277
 Alpha virt. eigenvalues --   -0.11778  -0.05782  -0.03616  -0.02893  -0.01730
 Alpha virt. eigenvalues --    0.02689   0.03281   0.05171   0.07435   0.08329
 Alpha virt. eigenvalues --    0.08820   0.09881   0.10844   0.11791   0.12901
 Alpha virt. eigenvalues --    0.13694   0.13918   0.14421   0.15636   0.16233
 Alpha virt. eigenvalues --    0.16345   0.17659   0.17901   0.18878   0.18999
 Alpha virt. eigenvalues --    0.22300   0.24059   0.24525   0.25823   0.27646
 Alpha virt. eigenvalues --    0.28253   0.29961   0.31194   0.31518   0.32394
 Alpha virt. eigenvalues --    0.33261   0.34797   0.35415   0.36039   0.37308
 Alpha virt. eigenvalues --    0.38674   0.39980   0.41751   0.44113   0.48409
 Alpha virt. eigenvalues --    0.49209   0.49819   0.50634   0.51275   0.52055
 Alpha virt. eigenvalues --    0.52586   0.53497   0.54158   0.54691   0.56020
 Alpha virt. eigenvalues --    0.56490   0.56828   0.57141   0.57939   0.59017
 Alpha virt. eigenvalues --    0.59756   0.61035   0.61808   0.62698   0.63398
 Alpha virt. eigenvalues --    0.65025   0.65296   0.66228   0.66816   0.67117
 Alpha virt. eigenvalues --    0.69364   0.70063   0.70204   0.71336   0.72120
 Alpha virt. eigenvalues --    0.73122   0.74182   0.75018   0.75974   0.76421
 Alpha virt. eigenvalues --    0.77852   0.78570   0.79191   0.80307   0.80731
 Alpha virt. eigenvalues --    0.81359   0.83172   0.83612   0.84610   0.85223
 Alpha virt. eigenvalues --    0.85568   0.86004   0.86740   0.86908   0.88170
 Alpha virt. eigenvalues --    0.88382   0.89891   0.90466   0.91234   0.92196
 Alpha virt. eigenvalues --    0.92939   0.93461   0.93813   0.94084   0.95428
 Alpha virt. eigenvalues --    0.97414   0.97707   0.97982   0.99356   1.00039
 Alpha virt. eigenvalues --    1.01007   1.01297   1.02436   1.05898   1.09120
 Alpha virt. eigenvalues --    1.09917   1.12220   1.12428   1.13390   1.15567
 Alpha virt. eigenvalues --    1.17587   1.18439   1.18543   1.21433   1.23540
 Alpha virt. eigenvalues --    1.27041   1.29176   1.30747   1.31948   1.34232
 Alpha virt. eigenvalues --    1.35699   1.37883   1.38659   1.40587   1.42409
 Alpha virt. eigenvalues --    1.45353   1.45605   1.47070   1.48237   1.51637
 Alpha virt. eigenvalues --    1.54722   1.55618   1.58836   1.59072   1.60801
 Alpha virt. eigenvalues --    1.61650   1.66554   1.69308   1.71484   1.74145
 Alpha virt. eigenvalues --    1.74595   1.76442   1.77234   1.79084   1.79866
 Alpha virt. eigenvalues --    1.80706   1.81932   1.84305   1.86126   1.86706
 Alpha virt. eigenvalues --    1.87987   1.89243   1.90895   1.92391   1.93698
 Alpha virt. eigenvalues --    1.95223   1.98186   2.00335   2.01183   2.05205
 Alpha virt. eigenvalues --    2.05632   2.06280   2.07123   2.08399   2.10392
 Alpha virt. eigenvalues --    2.12312   2.12936   2.14953   2.15341   2.17557
 Alpha virt. eigenvalues --    2.18118   2.18900   2.19932   2.21070   2.23173
 Alpha virt. eigenvalues --    2.26038   2.27406   2.28025   2.32140   2.32909
 Alpha virt. eigenvalues --    2.33778   2.36628   2.37956   2.41430   2.41848
 Alpha virt. eigenvalues --    2.42716   2.44886   2.46679   2.47634   2.48772
 Alpha virt. eigenvalues --    2.51876   2.53635   2.55230   2.60337   2.60846
 Alpha virt. eigenvalues --    2.62674   2.63457   2.65168   2.67640   2.70981
 Alpha virt. eigenvalues --    2.72620   2.73684   2.75527   2.76872   2.81405
 Alpha virt. eigenvalues --    2.84164   2.86348   2.95822   2.97472   3.01643
 Alpha virt. eigenvalues --    3.04109   3.06987   3.15488   3.23218   3.26194
 Alpha virt. eigenvalues --    3.44448   3.79091   3.86041   3.89719   3.99272
 Alpha virt. eigenvalues --    4.02818   4.06510   4.07266   4.09866   4.11186
 Alpha virt. eigenvalues --    4.14785   4.17182   4.22887   4.25466   4.28893
 Alpha virt. eigenvalues --    4.35385   4.41051   4.44855   4.53835   4.74531
          Condensed to atoms (all electrons):
               1          2          3          4          5          6
     1  C    5.396204   0.348288   0.357933   0.353644   0.344035  -0.083150
     2  H    0.348288   0.545926  -0.033796  -0.018436  -0.026561   0.001509
     3  H    0.357933  -0.033796   0.516729  -0.017740  -0.019243   0.000831
     4  H    0.353644  -0.018436  -0.017740   0.512638  -0.020377   0.003935
     5  C    0.344035  -0.026561  -0.019243  -0.020377   4.253101   0.663828
     6  O   -0.083150   0.001509   0.000831   0.003935   0.663828   8.041980
     7  N   -0.159415   0.003121   0.001766   0.006577   0.230594  -0.119888
     8  H    0.000994   0.000827   0.000610  -0.000041  -0.019837   0.003487
     9  C    0.007919  -0.000673  -0.000033  -0.000134  -0.006808   0.012948
    10  C    0.000238  -0.000026   0.000016   0.000002  -0.002328   0.001853
    11  C    0.000004   0.000000  -0.000000  -0.000000  -0.000033  -0.000158
    12  C    0.000000   0.000000  -0.000000  -0.000000   0.000043   0.000012
    13  H    0.000000  -0.000000  -0.000000  -0.000000   0.000000   0.000000
    14  H   -0.000000   0.000000   0.000000   0.000000  -0.000007  -0.000001
    15  H   -0.000141   0.000002  -0.000014   0.000005   0.002799   0.001717
    16  C   -0.000455   0.000163  -0.000019   0.000004   0.001272  -0.000371
    17  H   -0.000098   0.000036   0.000000   0.000001   0.000585   0.000003
    18  C    0.000001  -0.000000   0.000000  -0.000000  -0.000100  -0.000031
    19  C   -0.000000  -0.000000   0.000000   0.000000   0.000002   0.000000
    20  N    0.000000   0.000000  -0.000000  -0.000000   0.000000   0.000000
    21  C    0.000000  -0.000000  -0.000000  -0.000000  -0.000000  -0.000000
    22  H    0.000000  -0.000000   0.000000   0.000000  -0.000001   0.000000
    23  S   -0.000000   0.000000  -0.000000  -0.000000   0.000000   0.000000
    24  C    0.000000  -0.000000   0.000000   0.000000  -0.000000   0.000000
    25  N    0.000000  -0.000000   0.000000  -0.000000   0.000000   0.000000
    26  C   -0.000000   0.000000  -0.000000   0.000000   0.000000   0.000000
    27  N    0.000000   0.000000   0.000000   0.000000   0.000000   0.000000
    28  H   -0.000000   0.000000  -0.000000   0.000000   0.000000   0.000000
    29  H   -0.000000  -0.000000   0.000000   0.000000   0.000000   0.000000
    30  N    0.000000   0.000000  -0.000000   0.000000   0.000000  -0.000000
    31  H    0.000000   0.000000   0.000000  -0.000000   0.000000  -0.000000
    32  H    0.000000   0.000000  -0.000000  -0.000000   0.000000   0.000000
    33  H    0.000000  -0.000000   0.000000   0.000000  -0.000000   0.000000
               7          8          9         10         11         12
     1  C   -0.159415   0.000994   0.007919   0.000238   0.000004   0.000000
     2  H    0.003121   0.000827  -0.000673  -0.000026   0.000000   0.000000
     3  H    0.001766   0.000610  -0.000033   0.000016  -0.000000  -0.000000
     4  H    0.006577  -0.000041  -0.000134   0.000002  -0.000000  -0.000000
     5  C    0.230594  -0.019837  -0.006808  -0.002328  -0.000033   0.000043
     6  O   -0.119888   0.003487   0.012948   0.001853  -0.000158   0.000012
     7  N    7.358136   0.301950   0.173164  -0.057402   0.005727   0.001055
     8  H    0.301950   0.372446  -0.021789   0.002528  -0.000120   0.000000
     9  C    0.173164  -0.021789   4.572211   0.577273  -0.008468  -0.036891
    10  C   -0.057402   0.002528   0.577273   4.925993   0.508220  -0.050616
    11  C    0.005727  -0.000120  -0.008468   0.508220   4.886142   0.541127
    12  C    0.001055   0.000000  -0.036891  -0.050616   0.541127   4.955016
    13  H    0.000006  -0.000000   0.000305   0.005406  -0.044232   0.364412
    14  H   -0.000143   0.000004   0.003722  -0.036920   0.356049  -0.041643
    15  H   -0.008814   0.000120  -0.035116   0.356412  -0.039751   0.004498
    16  C   -0.048254  -0.002721   0.509830  -0.068790  -0.050964  -0.064126
    17  H   -0.002481   0.001400  -0.035041   0.005233  -0.000085   0.005550
    18  C    0.004506  -0.000022  -0.008870  -0.040037  -0.007309   0.509424
    19  C   -0.000239   0.000001   0.005383   0.001514   0.007602  -0.052956
    20  N    0.000000  -0.000000  -0.000101   0.000000   0.000386  -0.002559
    21  C   -0.000007   0.000000   0.000382   0.000016  -0.000101   0.004284
    22  H   -0.000029   0.000001   0.000053   0.000008  -0.000001  -0.000273
    23  S   -0.000000  -0.000000  -0.000001  -0.000001   0.000011   0.000043
    24  C   -0.000000   0.000000   0.000003   0.000000  -0.000008  -0.000105
    25  N   -0.000000   0.000000  -0.000000   0.000000  -0.000000  -0.000005
    26  C    0.000000  -0.000000   0.000000  -0.000000   0.000000   0.000001
    27  N   -0.000000  -0.000000   0.000000   0.000000  -0.000000  -0.000000
    28  H   -0.000000  -0.000000   0.000000  -0.000000  -0.000000   0.000000
    29  H   -0.000000  -0.000000   0.000000  -0.000000   0.000000   0.000000
    30  N    0.000000   0.000000  -0.000000   0.000000  -0.000000  -0.000011
    31  H    0.000000   0.000000  -0.000000  -0.000000   0.000000   0.000001
    32  H    0.000000  -0.000000   0.000000   0.000000   0.000000   0.000010
    33  H   -0.000000   0.000000   0.000000   0.000000  -0.000000  -0.000000
              13         14         15         16         17         18
     1  C    0.000000  -0.000000  -0.000141  -0.000455  -0.000098   0.000001
     2  H   -0.000000   0.000000   0.000002   0.000163   0.000036  -0.000000
     3  H   -0.000000   0.000000  -0.000014  -0.000019   0.000000   0.000000
     4  H   -0.000000   0.000000   0.000005   0.000004   0.000001  -0.000000
     5  C    0.000000  -0.000007   0.002799   0.001272   0.000585  -0.000100
     6  O    0.000000  -0.000001   0.001717  -0.000371   0.000003  -0.000031
     7  N    0.000006  -0.000143  -0.008814  -0.048254  -0.002481   0.004506
     8  H   -0.000000   0.000004   0.000120  -0.002721   0.001400  -0.000022
     9  C    0.000305   0.003722  -0.035116   0.509830  -0.035041  -0.008870
    10  C    0.005406  -0.036920   0.356412  -0.068790   0.005233  -0.040037
    11  C   -0.044232   0.356049  -0.039751  -0.050964  -0.000085  -0.007309
    12  C    0.364412  -0.041643   0.004498  -0.064126   0.005550   0.509424
    13  H    0.567750  -0.007598  -0.000162   0.004570  -0.000125  -0.041769
    14  H   -0.007598   0.574758  -0.004227   0.001280   0.000023   0.004091
    15  H   -0.000162  -0.004227   0.554658   0.006682  -0.000152   0.000251
    16  C    0.004570   0.001280   0.006682   5.096132   0.347289   0.510166
    17  H   -0.000125   0.000023  -0.000152   0.347289   0.567901  -0.045188
    18  C   -0.041769   0.004091   0.000251   0.510166  -0.045188   4.829999
    19  C   -0.007684  -0.000279   0.000008  -0.033239  -0.009251   0.327956
    20  N    0.004391  -0.000004   0.000000   0.003306  -0.000017  -0.057172
    21  C    0.000280   0.000001  -0.000000  -0.014706   0.005016  -0.068693
    22  H   -0.000015   0.000000  -0.000000   0.005075   0.002687  -0.007270
    23  S    0.000027  -0.000000   0.000000   0.000500  -0.000078   0.005456
    24  C   -0.000088  -0.000000  -0.000000  -0.000010  -0.000022   0.007021
    25  N   -0.000003   0.000000  -0.000000   0.000001   0.000000  -0.000120
    26  C    0.000002  -0.000000   0.000000  -0.000000   0.000000  -0.000003
    27  N    0.000000   0.000000   0.000000   0.000000   0.000000  -0.000000
    28  H   -0.000000   0.000000   0.000000   0.000000   0.000000  -0.000000
    29  H    0.000000   0.000000   0.000000  -0.000000   0.000000  -0.000000
    30  N    0.000003  -0.000000   0.000000   0.000000   0.000000   0.000030
    31  H    0.000005   0.000000  -0.000000  -0.000000   0.000000  -0.000000
    32  H    0.000125  -0.000000  -0.000000   0.000000   0.000000  -0.000058
    33  H   -0.000000  -0.000000  -0.000000  -0.000000  -0.000000   0.000001
              19         20         21         22         23         24
     1  C   -0.000000   0.000000   0.000000   0.000000  -0.000000   0.000000
     2  H   -0.000000   0.000000  -0.000000  -0.000000   0.000000  -0.000000
     3  H    0.000000  -0.000000  -0.000000   0.000000  -0.000000   0.000000
     4  H    0.000000  -0.000000  -0.000000   0.000000  -0.000000   0.000000
     5  C    0.000002   0.000000  -0.000000  -0.000001   0.000000  -0.000000
     6  O    0.000000   0.000000  -0.000000   0.000000   0.000000   0.000000
     7  N   -0.000239   0.000000  -0.000007  -0.000029  -0.000000  -0.000000
     8  H    0.000001  -0.000000   0.000000   0.000001  -0.000000   0.000000
     9  C    0.005383  -0.000101   0.000382   0.000053  -0.000001   0.000003
    10  C    0.001514   0.000000   0.000016   0.000008  -0.000001   0.000000
    11  C    0.007602   0.000386  -0.000101  -0.000001   0.000011  -0.000008
    12  C   -0.052956  -0.002559   0.004284  -0.000273   0.000043  -0.000105
    13  H   -0.007684   0.004391   0.000280  -0.000015   0.000027  -0.000088
    14  H   -0.000279  -0.000004   0.000001   0.000000  -0.000000  -0.000000
    15  H    0.000008   0.000000  -0.000000  -0.000000   0.000000  -0.000000
    16  C   -0.033239   0.003306  -0.014706   0.005075   0.000500  -0.000010
    17  H   -0.009251  -0.000017   0.005016   0.002687  -0.000078  -0.000022
    18  C    0.327956  -0.057172  -0.068693  -0.007270   0.005456   0.007021
    19  C    4.729439   0.383522   0.503500  -0.015294  -0.068380  -0.037605
    20  N    0.383522   6.982624  -0.092520   0.005033  -0.077230   0.389391
    21  C    0.503500  -0.092520   5.428746   0.345193   0.315970  -0.059935
    22  H   -0.015294   0.005033   0.345193   0.465840  -0.022104   0.001949
    23  S   -0.068380  -0.077230   0.315970  -0.022104  15.265977   0.305849
    24  C   -0.037605   0.389391  -0.059935   0.001949   0.305849   4.923426
    25  N    0.001436  -0.049050   0.002363  -0.000018  -0.065649   0.248540
    26  C    0.000581   0.000046  -0.000026  -0.000000   0.006029  -0.041089
    27  N    0.000003   0.000196   0.000001  -0.000000  -0.000271   0.005348
    28  H   -0.000004   0.000016   0.000001  -0.000000   0.000019   0.000834
    29  H   -0.000000   0.000022  -0.000000  -0.000000   0.000023  -0.000281
    30  N    0.000506  -0.007318  -0.000034   0.000000   0.000090  -0.001206
    31  H    0.000057   0.002532   0.000001  -0.000000   0.000027   0.001102
    32  H    0.000114   0.012021   0.000024  -0.000001   0.000399   0.007149
    33  H   -0.000052   0.001855   0.000012  -0.000000   0.000890  -0.018020
              25         26         27         28         29         30
     1  C    0.000000  -0.000000   0.000000  -0.000000  -0.000000   0.000000
     2  H   -0.000000   0.000000   0.000000   0.000000  -0.000000   0.000000
     3  H    0.000000  -0.000000   0.000000  -0.000000   0.000000  -0.000000
     4  H   -0.000000   0.000000   0.000000   0.000000   0.000000   0.000000
     5  C    0.000000   0.000000   0.000000   0.000000   0.000000   0.000000
     6  O    0.000000   0.000000   0.000000   0.000000   0.000000  -0.000000
     7  N   -0.000000   0.000000  -0.000000  -0.000000  -0.000000   0.000000
     8  H    0.000000  -0.000000  -0.000000  -0.000000  -0.000000   0.000000
     9  C   -0.000000   0.000000   0.000000   0.000000   0.000000  -0.000000
    10  C    0.000000  -0.000000   0.000000  -0.000000  -0.000000   0.000000
    11  C   -0.000000   0.000000  -0.000000  -0.000000   0.000000  -0.000000
    12  C   -0.000005   0.000001  -0.000000   0.000000   0.000000  -0.000011
    13  H   -0.000003   0.000002   0.000000  -0.000000   0.000000   0.000003
    14  H    0.000000  -0.000000   0.000000   0.000000   0.000000  -0.000000
    15  H   -0.000000   0.000000   0.000000   0.000000   0.000000   0.000000
    16  C    0.000001  -0.000000   0.000000   0.000000  -0.000000   0.000000
    17  H    0.000000   0.000000   0.000000   0.000000   0.000000   0.000000
    18  C   -0.000120  -0.000003  -0.000000  -0.000000  -0.000000   0.000030
    19  C    0.001436   0.000581   0.000003  -0.000004  -0.000000   0.000506
    20  N   -0.049050   0.000046   0.000196   0.000016   0.000022  -0.007318
    21  C    0.002363  -0.000026   0.000001   0.000001  -0.000000  -0.000034
[...]
 Alpha virt. eigenvalues --    4.10448   4.16076   4.21165   4.94935
          Condensed to atoms (all electrons):
               1          2          3          4          5          6
     1  C    4.675971   0.354395   0.352092   0.330028   0.051957  -0.080202
     2  H    0.354395   0.874680  -0.083648  -0.117421  -0.003476   0.004869
     3  H    0.352092  -0.083648   0.788007  -0.100352  -0.015809   0.002322
     4  H    0.330028  -0.117421  -0.100352   0.894168  -0.018125   0.025925
     5  C    0.051957  -0.003476  -0.015809  -0.018125   5.312135   0.187613
     6  O   -0.080202   0.004869   0.002322   0.025925   0.187613   8.748636
     7  N   -0.048858  -0.080603  -0.017930   0.094041   0.312163  -0.179140
     8  H   -0.069977   0.024215   0.018709  -0.022391  -0.087550   0.001161
     9  C    0.215516   0.029663   0.002740  -0.026045  -0.134141   0.185616
    10  C   -0.038184  -0.007107  -0.002230  -0.001123   0.060812   0.085851
    11  C    0.033870   0.002440   0.004071   0.002668   0.036402  -0.096398
    12  C   -0.024667  -0.003157  -0.001790  -0.001174   0.050036   0.007859
    13  H   -0.001033  -0.000118  -0.000042  -0.000043  -0.009691   0.000887
    14  H    0.002803   0.000243   0.000229   0.000105   0.019008  -0.001589
    15  H   -0.010011  -0.000234  -0.000825  -0.000123   0.134272  -0.107578
    16  C   -0.195747  -0.027557  -0.011375   0.018060  -0.350312  -0.008659
    17  H    0.029665  -0.000123  -0.003413   0.003425  -0.081739   0.009059
    18  C    0.031609   0.006846   0.000238  -0.002561  -0.155063   0.039604
    19  C    0.006457   0.000256   0.000383   0.000519   0.022763  -0.008317
    20  N   -0.000059  -0.000000   0.000037   0.000010   0.004221  -0.000122
    21  C    0.000046  -0.000062   0.000413  -0.000139  -0.001802   0.001004
    22  H    0.000589   0.000175   0.000310  -0.000008   0.004695  -0.000341
    23  S   -0.000089  -0.000029  -0.000012  -0.000008  -0.000165   0.000027
    24  C    0.000203  -0.000031   0.000068   0.000014   0.005388  -0.000176
    25  N   -0.000009  -0.000003  -0.000003  -0.000001  -0.000136   0.000002
    26  C    0.000001   0.000000   0.000001  -0.000001  -0.000129   0.000005
    27  N    0.000000   0.000000  -0.000000   0.000000   0.000000  -0.000000
    28  H    0.000000   0.000000   0.000000   0.000000  -0.000001  -0.000000
    29  H   -0.000000  -0.000000   0.000000  -0.000000   0.000000   0.000000
    30  N   -0.000000   0.000000   0.000000   0.000000  -0.000030   0.000001
    31  H   -0.000001   0.000000  -0.000000  -0.000000  -0.000024   0.000001
    32  H    0.000033  -0.000001  -0.000000   0.000004   0.000849  -0.000049
    33  H    0.000000  -0.000001   0.000000   0.000000   0.000027  -0.000000
               7          8          9         10         11         12
     1  C   -0.048858  -0.069977   0.215516  -0.038184   0.033870  -0.024667
     2  H   -0.080603   0.024215   0.029663  -0.007107   0.002440  -0.003157
     3  H   -0.017930   0.018709   0.002740  -0.002230   0.004071  -0.001790
     4  H    0.094041  -0.022391  -0.026045  -0.001123   0.002668  -0.001174
     5  C    0.312163  -0.087550  -0.134141   0.060812   0.036402   0.050036
     6  O   -0.179140   0.001161   0.185616   0.085851  -0.096398   0.007859
     7  N    8.061064   0.271020  -1.249992   0.941538  -0.418214   0.278594
     8  H    0.271020   0.992962  -0.173937  -0.097684  -0.019053   0.020086
     9  C   -1.249992  -0.173937  19.204560  -6.729433   4.584618  -4.204324
    10  C    0.941538  -0.097684  -6.729433  16.956871  -7.309751   3.694573
    11  C   -0.418214  -0.019053   4.584618  -7.309751  19.904332  -7.098932
    12  C    0.278594   0.020086  -4.204324   3.694573  -7.098932  22.445811
    13  H    0.003229  -0.003414  -0.032789  -0.239169   0.720565  -1.456052
    14  H   -0.009984  -0.000040  -0.325904   1.179028  -1.762760   0.951276
    15  H   -0.171522   0.006759   0.878783  -1.764511   0.837254  -0.224500
    16  C    0.846650   0.263382  -7.882967   2.928633  -5.101803  -1.601127
    17  H   -0.244237  -0.050452   0.710702  -0.281059   0.078017  -0.095106
    18  C   -0.660868  -0.059474   1.834319  -4.645961   2.246885  -6.403149
    19  C    0.025077   0.030544  -2.143002   0.600722  -0.742460   1.006529
    20  N   -0.004909   0.000703   0.218623  -0.070248  -0.026954  -0.163246
    21  C   -0.036743  -0.005206   1.291542  -0.330702   0.130771  -1.758138
    22  H   -0.003269  -0.001923  -0.046831  -0.024412   0.018228   0.125483
    23  S    0.002287   0.001698  -0.023737   0.022023  -0.029208   0.067467
    24  C   -0.005547   0.008677   0.252517  -0.118297   0.193461  -0.397629
    25  N    0.000404   0.000039  -0.018227   0.009893  -0.029902   0.035172
    26  C   -0.000337   0.000113  -0.004199  -0.000749   0.040010  -0.026861
    27  N    0.000001  -0.000003  -0.000193   0.000317  -0.001323   0.000379
    28  H   -0.000002  -0.000006  -0.000049   0.000033  -0.000024   0.000587
    29  H   -0.000000   0.000004  -0.000010   0.000027   0.000354  -0.000164
    30  N   -0.000064  -0.000080   0.001766  -0.001383  -0.027293  -0.005104
    31  H   -0.000023  -0.000016  -0.000162  -0.000115   0.005222   0.006181
    32  H    0.000773   0.000430  -0.002859   0.015001  -0.022686  -0.012736
    33  H    0.000029   0.000080   0.000863  -0.000047  -0.000314  -0.004182
              13         14         15         16         17         18
     1  C   -0.001033   0.002803  -0.010011  -0.195747   0.029665   0.031609
     2  H   -0.000118   0.000243  -0.000234  -0.027557  -0.000123   0.006846
     3  H   -0.000042   0.000229  -0.000825  -0.011375  -0.003413   0.000238
     4  H   -0.000043   0.000105  -0.000123   0.018060   0.003425  -0.002561
     5  C   -0.009691   0.019008   0.134272  -0.350312  -0.081739  -0.155063
     6  O    0.000887  -0.001589  -0.107578  -0.008659   0.009059   0.039604
     7  N    0.003229  -0.009984  -0.171522   0.846650  -0.244237  -0.660868
     8  H   -0.003414  -0.000040   0.006759   0.263382  -0.050452  -0.059474
     9  C   -0.032789  -0.325904   0.878783  -7.882967   0.710702   1.834319
    10  C   -0.239169   1.179028  -1.764511   2.928633  -0.281059  -4.645961
    11  C    0.720565  -1.762760   0.837254  -5.101803   0.078017   2.246885
    12  C   -1.456052   0.951276  -0.224500  -1.601127  -0.095106  -6.403149
    13  H    2.220741  -0.137134  -0.007364  -0.202051  -0.005362   0.762850
    14  H   -0.137134   1.892864  -0.103717   0.105547   0.011433  -0.286301
    15  H   -0.007364  -0.103717   2.383308  -0.130515  -0.038212  -0.059771
    16  C   -0.202051   0.105547  -0.130515  29.900640  -2.234543  -9.200908
    17  H   -0.005362   0.011433  -0.038212  -2.234543   2.628518   1.361282
    18  C    0.762850  -0.286301  -0.059771  -9.200908   1.361282  24.830665
    19  C    0.123427  -0.008856   0.014083  -0.363781  -0.181859  -9.002703
    20  N   -0.088951   0.005780   0.000730  -0.027764   0.013626   0.646846
    21  C    0.016681   0.004275  -0.001330  -1.688716   0.281946   2.959713
    22  H    0.006773  -0.000601   0.001740   0.072479  -0.075385  -0.251386
    23  S    0.002233  -0.001204   0.000495  -0.002577  -0.014492  -0.337507
    24  C   -0.061349   0.007554  -0.002824  -0.240954  -0.058656   0.816327
    25  N    0.008617  -0.001507   0.000308   0.067063   0.003599  -0.270375
    26  C    0.004585   0.001265  -0.000143  -0.049415  -0.000902   0.038501
    27  N    0.002293  -0.000134   0.000007   0.001802   0.000137  -0.005189
    28  H   -0.000211   0.000002   0.000001   0.000241   0.000095   0.000106
    29  H   -0.000034   0.000011  -0.000002  -0.000464  -0.000040  -0.000020
    30  N    0.000666  -0.000192   0.000059   0.018859   0.000375   0.025475
    31  H   -0.000613  -0.000109   0.000027   0.000465   0.000132  -0.008732
    32  H   -0.022427   0.003996  -0.000105   0.009671  -0.002104   0.042809
    33  H   -0.001025   0.000011   0.000002  -0.003738  -0.001432   0.012650
              19         20         21         22         23         24
     1  C    0.006457  -0.000059   0.000046   0.000589  -0.000089   0.000203
     2  H    0.000256  -0.000000  -0.000062   0.000175  -0.000029  -0.000031
     3  H    0.000383   0.000037   0.000413   0.000310  -0.000012   0.000068
     4  H    0.000519   0.000010  -0.000139  -0.000008  -0.000008   0.000014
     5  C    0.022763   0.004221  -0.001802   0.004695  -0.000165   0.005388
     6  O   -0.008317  -0.000122   0.001004  -0.000341   0.000027  -0.000176
     7  N    0.025077  -0.004909  -0.036743  -0.003269   0.002287  -0.005547
     8  H    0.030544   0.000703  -0.005206  -0.001923   0.001698   0.008677
     9  C   -2.143002   0.218623   1.291542  -0.046831  -0.023737   0.252517
    10  C    0.600722  -0.070248  -0.330702  -0.024412   0.022023  -0.118297
    11  C   -0.742460  -0.026954   0.130771   0.018228  -0.029208   0.193461
    12  C    1.006529  -0.163246  -1.758138   0.125483   0.067467  -0.397629
    13  H    0.123427  -0.088951   0.016681   0.006773   0.002233  -0.061349
    14  H   -0.008856   0.005780   0.004275  -0.000601  -0.001204   0.007554
    15  H    0.014083   0.000730  -0.001330   0.001740   0.000495  -0.002824
    16  C   -0.363781  -0.027764  -1.688716   0.072479  -0.002577  -0.240954
    17  H   -0.181859   0.013626   0.281946  -0.075385  -0.014492  -0.058656
    18  C   -9.002703   0.646846   2.959713  -0.251386  -0.337507   0.816327
    19  C   29.007396  -1.660420  -9.649077   1.033053   0.256155  -2.241855
    20  N   -1.660420   8.090068   0.763534   0.002430  -0.227226   0.369972
    21  C   -9.649077   0.763534  14.907745  -0.620048   0.098904  -0.610087
    22  H    1.033053   0.002430  -0.620048   1.656603  -0.244916  -0.034863
    23  S    0.256155  -0.227226   0.098904  -0.244916  15.894188   0.200444
    24  C   -2.241855   0.369972  -0.610087  -0.034863   0.200444   8.134356
    25  N    0.750285  -0.170895  -0.088884  -0.014401  -0.118256  -0.334301
    26  C    0.043180   0.059788  -0.198747  -0.009168  -0.055140  -0.331988
    27  N    0.029876   0.004442  -0.001467  -0.000177   0.005483   0.021978
    28  H   -0.000870   0.000300   0.001111   0.000031  -0.002304  -0.026105
    29  H    0.002601   0.003028  -0.003992  -0.000161  -0.000168  -0.015065
    30  N   -0.095389  -0.025013   0.087936   0.003037  -0.013765  -0.005989
    31  H    0.011074   0.000160   0.000793   0.000045  -0.000783   0.000258
    32  H   -0.049791  -0.015863  -0.054121  -0.003824   0.001392   0.013580
    33  H   -0.094795  -0.009806   0.002932   0.001656   0.020185  -0.096318
              25         26         27         28         29         30
     1  C   -0.000009   0.000001   0.000000   0.000000  -0.000000  -0.000000
     2  H   -0.000003   0.000000   0.000000   0.000000  -0.000000   0.000000
     3  H   -0.000003   0.000001  -0.000000   0.000000   0.000000   0.000000
     4  H   -0.000001  -0.000001   0.000000   0.000000  -0.000000   0.000000
     5  C   -0.000136  -0.000129   0.000000  -0.000001   0.000000  -0.000030
     6  O    0.000002   0.000005  -0.000000  -0.000000   0.000000   0.000001
     7  N    0.000404  -0.000337   0.000001  -0.000002  -0.000000  -0.000064
     8  H    0.000039   0.000113  -0.000003  -0.000006   0.000004  -0.000080
     9  C   -0.018227  -0.004199  -0.000193  -0.000049  -0.000010   0.001766
    10  C    0.009893  -0.000749   0.000317   0.000033   0.000027  -0.001383
    11  C   -0.029902   0.040010  -0.001323  -0.000024   0.000354  -0.027293
    12  C    0.035172  -0.026861   0.000379   0.000587  -0.000164  -0.005104
    13  H    0.008617   0.004585   0.002293  -0.000211  -0.000034   0.000666
    14  H   -0.001507   0.001265  -0.000134   0.000002   0.000011  -0.000192
    15  H    0.000308  -0.000143   0.000007   0.000001  -0.000002   0.000059
    16  C    0.067063  -0.049415   0.001802   0.000241  -0.000464   0.018859
    17  H    0.003599  -0.000902   0.000137   0.000095  -0.000040   0.000375
    18  C   -0.270375   0.038501  -0.005189   0.000106  -0.000020   0.025475
    19  C    0.750285   0.043180   0.029876  -0.000870   0.002601  -0.095389
    20  N   -0.170895   0.059788   0.004442   0.000300   0.003028  -0.025013
    21  C   -0.088884  -0.198747  -0.001467   0.001111  -0.003992   0.087936
    22  H   -0.014401  -0.009168  -0.000177   0.000031  -0.000161   0.003037
    23  S   -0.118256  -0.055140   0.005483  -0.002304  -0.000168  -0.013765
    24  C   -0.334301  -0.331988   0.021978  -0.026105  -0.015065  -0.005989
    25  N    7.452292   0.178919  -0.104513   0.018726  -0.023101  -0.025372
    26  C    0.178919   5.172953   0.119187  -0.083817  -0.068787   0.174344
    27  N   -0.104513   0.119187   6.388652   0.453341   0.459438  -0.113911
    28  H    0.018726  -0.083817   0.453341   0.781236  -0.145701   0.005142
    29  H   -0.023101  -0.068787   0.459438  -0.145701   0.786443  -0.017209
    30  N   -0.025372   0.174344  -0.113911   0.005142  -0.017209   6.290910
    31  H    0.014792  -0.126836  -0.003210   0.002655  -0.009177   0.440912
    32  H   -0.040517  -0.114858   0.013507   0.000359   0.002072   0.410095
    33  H    0.430048  -0.096401  -0.007947  -0.004365   0.002777   0.010853
              31         32         33
     1  C   -0.000001   0.000033   0.000000
     2  H    0.000000  -0.000001  -0.000001
     3  H   -0.000000  -0.000000   0.000000
     4  H   -0.000000   0.000004   0.000000
     5  C   -0.000024   0.000849   0.000027
     6  O    0.000001  -0.000049  -0.000000
     7  N   -0.000023   0.000773   0.000029
     8  H   -0.000016   0.000430   0.000080
     9  C   -0.000162  -0.002859   0.000863
    10  C   -0.000115   0.015001  -0.000047
    11  C    0.005222  -0.022686  -0.000314
    12  C    0.006181  -0.012736  -0.004182
    13  H   -0.000613  -0.022427  -0.001025
    14  H   -0.000109   0.003996   0.000011
    15  H    0.000027  -0.000105   0.000002
    16  C    0.000465   0.009671  -0.003738
    17  H    0.000132  -0.002104  -0.001432
    18  C   -0.008732   0.042809   0.012650
    19  C    0.011074  -0.049791  -0.094795
    20  N    0.000160  -0.015863  -0.009806
    21  C    0.000793  -0.054121   0.002932
    22  H    0.000045  -0.003824   0.001656
    23  S   -0.000783   0.001392   0.020185
    24  C    0.000258   0.013580  -0.096318
    25  N    0.014792  -0.040517   0.430048
    26  C   -0.126836  -0.114858  -0.096401
    27  N   -0.003210   0.013507  -0.007947
    28  H    0.002655   0.000359  -0.004365
    29  H   -0.009177   0.002072   0.002777
    30  N    0.440912   0.410095   0.010853
    31  H    0.859249  -0.198713  -0.000904
    32  H   -0.198713   0.906444   0.002833
    33  H   -0.000904   0.002833   0.849660
 Mulliken charges:
               1
     1  C    0.383601
     2  H    0.025788
     3  H    0.067808
     4  H   -0.079454
     5  C    0.655852
     6  O   -0.817872
     7  N   -0.704626
     8  H   -0.049376
     9  C   -0.413026
    10  C    1.166841
    11  C   -0.152094
    12  C    0.792007
    13  H   -0.604676
    14  H   -0.545399
    15  H   -0.634540
    16  C    1.091482
    17  H   -0.762894
    18  C    1.693242
    19  C   -0.721205
    20  N   -0.692820
    21  C    0.499916
    22  H   -0.595617
    23  S    0.498608
    24  C    0.557237
    25  N   -0.729758
    26  C    1.335625
    27  N   -0.262772
    28  H   -0.000511
    29  H    0.027340
    30  N   -0.139636
    31  H    0.007451
    32  H    0.116807
    33  H   -0.013330
 Sum of Mulliken charges =   1.00000
 Mulliken charges with hydrogens summed into heavy atoms:
               1
     1  C    0.397744
     5  C    0.655852
     6  O   -0.817872
     7  N   -0.754002
     9  C   -0.413026
    10  C    0.532301
    11  C   -0.697492
    12  C    0.187331
    16  C    0.328589
    18  C    1.693242
    19  C   -0.721205
    20  N   -0.692820
    21  C   -0.095701
    23  S    0.498608
    24  C    0.557237
    25  N   -0.743088
    26  C    1.335625
    27  N   -0.235944
    30  N   -0.015378
 Electronic spatial extent (au):  <R**2>=           8725.5886
 Charge=              1.0000 electrons
 Dipole moment (field-independent basis, Debye):
    X=            -19.9664    Y=             -0.9215    Z=              0.6800  Tot=             19.9992
 Quadrupole moment (field-independent basis, Debye-Ang):
   XX=             15.7197   YY=            -87.7820   ZZ=           -124.3173
   XY=            -40.6773   XZ=             -0.8849   YZ=              0.8254
 Traceless Quadrupole moment (field-independent basis, Debye-Ang):
   XX=             81.1795   YY=            -22.3222   ZZ=            -58.8574
   XY=            -40.6773   XZ=             -0.8849   YZ=              0.8254
 Octapole moment (field-independent basis, Debye-Ang**2):
  XXX=           -740.4869  YYY=             35.6747  ZZZ=              3.1935  XYY=            -81.8384
  XXY=             -6.8181  XXZ=             27.1107  XZZ=              0.8581  YZZ=             -1.3140
  YYZ=              1.5349  XYZ=            -11.0853
 Hexadecapole moment (field-independent basis, Debye-Ang**3):
 XXXX=          -4814.1391 YYYY=          -1277.8380 ZZZZ=           -152.9656 XXXY=          -1402.5655
 XXXZ=            -33.7591 YYYX=           -245.3500 YYYZ=             11.0039 ZZZX=              5.5638
 ZZZY=              1.0158 XXYY=          -1436.5599 XXZZ=          -1712.4783 YYZZ=           -304.7770
 XXYZ=             28.7400 YYXZ=            -22.2363 ZZXY=            -20.9504
 N-N= 1.443245978958D+03 E-N=-5.707035670896D+03  KE= 1.206037885690D+03
 Leave Link  601 at Sun Jul 18 19:32:41 2021, MaxMem=   262144000 cpu:               0.5 elap:               0.5
 (Enter /dades/curu/g16A03_MST/g16/l9999.exe)
 1\1\GINC-PIRINEUS39\SP\RMP2-FC\Aug-CC-pVDZ\C12H14N5O1S1(1+)\UBATOR02\1
 8-Jul-2021\0\\#p mp2/aug-cc-pVDZ scf=tight maxdisk=180GB geom=allcheck
 \\SET_328_BBB321_conf1.geo_180_150_120 geometry\\1,1\C,0,3.028086684,-
 4.0202378027,3.6028947664\H,0,2.801364054,-4.8293125106,2.9027775713\H
 ,0,2.254878019,-4.0226719086,4.3775373562\H,0,3.9945634776,-4.20757571
 67,4.0681520628\C,0,3.079277409,-2.6738338259,2.9013515461\O,0,4.03553
 21463,-1.9131999819,3.0015244335\N,0,1.9521129298,-2.394476614,2.16069
 54365\H,0,1.2343778047,-3.1100868842,2.1584153211\C,0,1.6569093752,-1.
 2488690308,1.4004159421\C,0,2.5326619509,-0.1579337291,1.2863112109\C,
 0,2.1568554795,0.9349105566,0.5101795657\C,0,0.9344921806,0.9686670767
 ,-0.1549006641\H,0,0.656406638,1.8200578311,-0.7622495081\H,0,2.836958
 0138,1.7756508864,0.4229568478\H,0,3.479116676,-0.1866589028,1.8029114
 554\C,0,0.4263517166,-1.2156899602,0.7367680817\H,0,-0.2533555852,-2.0
 550720856,0.8377353558\C,0,0.0545695749,-0.1171018275,-0.0449597821\C,
 0,-1.2377253981,-0.1030629698,-0.7506995141\N,0,-1.6425141593,1.053419
 2246,-1.4053699399\C,0,-2.1181397309,-1.1443460066,-0.8520246762\H,0,-
 2.0312761895,-2.1428081212,-0.4534767933\S,0,-3.51209746,-0.6978839615
 ,-1.7869178871\C,0,-2.7942151179,0.8932531707,-1.9857722601\N,0,-3.456
 82805,1.8683407992,-2.7171301627\C,0,-3.0381739031,3.1533001596,-2.928
 1120574\N,0,-3.8111520252,3.9363107441,-3.6739017085\H,0,-4.6857105908
 ,3.5979114109,-4.0597011602\H,0,-3.5458861672,4.8985486603,-3.84983140
 94\N,0,-1.9058038362,3.5916236489,-2.4035908959\H,0,-1.6098067138,4.54
 83649907,-2.5615630419\H,0,-1.3382979644,2.9570815736,-1.8446043722\H,
 0,-4.3365312386,1.6193811064,-3.16082112\\Version=ES64L-G16RevA.03\Sta
 te=1-A\HF=-1207.1557868\MP2=-1209.9714523\RMSD=7.094e-09\PG=C01 [X(C12
 H14N5O1S1)]\\@


 CONTRAIWISE...CONTINUED TWEEDLEDEE, IF IT WAS SO, IT MIGHT BE,
 AND IF IT WERE SO, IT WOULD BE.....
 BUT AS IT ISN'T, IT AIN'T....
 THAT'S LOGIC.....
 ALICE THROUGH THE LOOKING GLASS
 Job cpu time:       0 days  3 hours  0 minutes 59.0 seconds.
 Elapsed time:       0 days  1 hours  1 minutes 22.8 seconds.
 File lengths (MBytes):  RWF=  86277 Int=      0 D2E=      0 Chk=     27 Scr=      1
 Normal termination of Gaussian 16 at Sun Jul 18 19:32:43 2021.
