 Entering Gaussian System, Link 0=g16
 Input=SET_328_BBB301_conf1.geo_165_105_270_OCTANOL.dat
 Output=SET_328_BBB301_conf1.geo_165_105_270_OCTANOL.log
 Initial command:
 /dades/curu/g16A03_MST/g16/l1.exe "/tmp/ubator02/1839650/Gau-117257.inp" -scrdir="/tmp/ubator02/1839650/"
 Entering Link 1 = /dades/curu/g16A03_MST/g16/l1.exe PID=    117258.
  
 Copyright (c) 1988,1990,1992,1993,1995,1998,2003,2009,2016,
            Gaussian, Inc.  All Rights Reserved.
  
 This is part of the Gaussian(R) 16 program.  It is based on
 the Gaussian(R) 09 system (copyright 2009, Gaussian, Inc.),
 the Gaussian(R) 03 system (copyright 2003, Gaussian, Inc.),
 the Gaussian(R) 98 system (copyright 1998, Gaussian, Inc.),
 the Gaussian(R) 94 system (copyright 1995, Gaussian, Inc.),
 the Gaussian 92(TM) system (copyright 1992, Gaussian, Inc.),
 the Gaussian 90(TM) system (copyright 1990, Gaussian, Inc.),
 the Gaussian 88(TM) system (copyright 1988, Gaussian, Inc.),
 the Gaussian 86(TM) system (copyright 1986, Carnegie Mellon
 University), and the Gaussian 82(TM) system (copyright 1983,
 Carnegie Mellon University). Gaussian is a federally registered
 trademark of Gaussian, Inc.
  
 This software contains proprietary and confidential information,
 including trade secrets, belonging to Gaussian, Inc.
  
 This software is provided under written license and may be
 used, copied, transmitted, or stored only in accord with that
 written license.
  
 The following legend is applicable only to US Government
 contracts under FAR:
  
                    RESTRICTED RIGHTS LEGEND
  
 Use, reproduction and disclosure by the US Government is
 subject to restrictions as set forth in subparagraphs (a)
 and (c) of the Commercial Computer Software - Restricted
 Rights clause in FAR 52.227-19.
  
 Gaussian, Inc.
 340 Quinnipiac St., Bldg. 40, Wallingford CT 06492
  
  
 ---------------------------------------------------------------
 Warning -- This program may not be used in any manner that
 competes with the business of Gaussian, Inc. or will provide
 assistance to any competitor of Gaussian, Inc.  The licensee
 of this program is prohibited from giving any competitor of
 Gaussian, Inc. access to this program.  By using this program,
 the user acknowledges that Gaussian, Inc. is engaged in the
 business of creating and licensing software in the field of
 computational chemistry and represents and warrants to the
 licensee that it is not a competitor of Gaussian, Inc. and that
 it will not use this program in any manner prohibited above.
 ---------------------------------------------------------------
  

 Cite this work as:
 Gaussian 16, Revision A.03,
 M. J. Frisch, G. W. Trucks, H. B. Schlegel, G. E. Scuseria, 
 M. A. Robb, J. R. Cheeseman, G. Scalmani, V. Barone, 
 G. A. Petersson, H. Nakatsuji, X. Li, M. Caricato, A. V. Marenich, 
 J. Bloino, B. G. Janesko, R. Gomperts, B. Mennucci, H. P. Hratchian, 
 J. V. Ortiz, A. F. Izmaylov, J. L. Sonnenberg, D. Williams-Young, 
 F. Ding, F. Lipparini, F. Egidi, J. Goings, B. Peng, A. Petrone, 
 T. Henderson, D. Ranasinghe, V. G. Zakrzewski, J. Gao, N. Rega, 
 G. Zheng, W. Liang, M. Hada, M. Ehara, K. Toyota, R. Fukuda, 
 J. Hasegawa, M. Ishida, T. Nakajima, Y. Honda, O. Kitao, H. Nakai, 
 T. Vreven, K. Throssell, J. A. Montgomery, Jr., J. E. Peralta, 
 F. Ogliaro, M. J. Bearpark, J. J. Heyd, E. N. Brothers, K. N. Kudin, 
 V. N. Staroverov, T. A. Keith, R. Kobayashi, J. Normand, 
 K. Raghavachari, A. P. Rendell, J. C. Burant, S. S. Iyengar, 
 J. Tomasi, M. Cossi, J. M. Millam, M. Klene, C. Adamo, R. Cammi, 
 J. W. Ochterski, R. L. Martin, K. Morokuma, O. Farkas, 
 J. B. Foresman, and D. J. Fox, Gaussian, Inc., Wallingford CT, 2016.
 
 ******************************************
 Gaussian 16:  ES64L-G16RevA.03 25-Dec-2016
                18-Jul-2021 
 ******************************************
 %mem=800MB
 %nproc=4
 Will use up to    4 processors via shared memory.
 %chk=SET_328_BBB301_conf1.geo_165_105_270.chk
 ---------------------------------------------------------------
 #p b3lyp/6-31G(d) opt freq scrf=(iefpcm,read,solvent=n-octanol)
 ---------------------------------------------------------------
 1/18=20,19=15,26=3,38=1,40=2/1,3;
 2/9=110,12=2,17=6,18=5,40=1/2;
 3/5=1,6=6,7=1,11=2,25=1,30=1,70=2203,71=1,72=25,74=-5/1,2,3;
 4//1;
 5/5=2,38=5,53=25/2;
 6/7=2,8=2,9=2,10=2,28=1/1;
 7//1,2,3,16;
 1/18=20,19=15,26=3/3(2);
 2/9=110/2;
 99//99;
 2/9=110/2;
 3/5=1,6=6,7=1,11=2,25=1,30=1,70=2205,71=1,72=25,74=-5/1,2,3;
 4/5=5,16=3,69=1/1;
 5/5=2,38=5,53=25/2;
 7//1,2,3,16;
 1/18=20,19=15,26=3/3(-5);
 2/9=110/2;
 6/7=2,8=2,9=2,10=2,19=2,28=1/1;
 99/9=1/99;
 Leave Link    1 at Sun Jul 18 14:45:37 2021, MaxMem=   104857600 cpu:               0.1 elap:               0.0
 (Enter /dades/curu/g16A03_MST/g16/l101.exe)
 ---------------------------------------------
 SET_328_BBB301_conf1.geo_165_105_270 geometry
 ---------------------------------------------
 Symbolic Z-matrix:
 Charge =  1 Multiplicity = 1
 C                     2.801    -0.373     2.642 
 H                     3.156    -0.697     3.623 
 H                     1.874     0.154     2.875 
 H                     3.511     0.314     2.176 
 C                     2.671    -1.61      1.825 
 C                     4.046    -2.261     1.598 
 H                     3.842    -3.147     0.993 
 H                     4.532    -2.646     2.497 
 H                     4.657    -1.544     1.046 
 C                     1.715    -2.568     2.487 
 H                     1.372    -3.306     1.759 
 H                     0.883    -1.974     2.871 
 H                     2.302    -2.955     3.322 
 N                     2.18     -1.297     0.497 
 H                     1.937    -2.159     0.052 
 C                     0.994    -0.372     0.383 
 H                     1.408     0.577     0.733 
 H                     0.276    -0.807     1.082 
 C                     0.32     -0.315    -0.977 
 O                     0.174    -1.595    -1.564 
 H                    -0.125    -1.377    -2.465 
 H                     0.914     0.344    -1.616 
 C                    -1.122     0.382    -0.938 
 C                    -1.283     1.671    -1.443 
 H                    -0.463     2.187    -1.935 
 C                    -2.503     2.284    -1.594 
 C                    -2.603     3.707    -2.239 
 O                    -2.722     3.541    -3.681 
 H                    -3.492     2.972    -3.859 
 H                    -1.616     4.147    -2.077 
 H                    -3.36      4.389    -1.843 
 C                    -3.696     1.621    -1.21 
 O                    -4.885     2.102    -1.262 
 H                    -5.105     2.13     -2.211 
 C                    -3.584     0.335    -0.617 
 H                    -4.508    -0.23     -0.518 
 C                    -2.315    -0.255    -0.441 
 H                    -2.178    -1.289    -0.134 
 H                     2.934    -0.888    -0.017 
 
 ITRead=  0  0  0  0  0  0  0  0  0  0  0  0  0  0  0  0  0  0  0  0
 ITRead=  0  0  0  0  0  0  0  0  0  0  0  0  0  0  0  0  0  0  0
 MicOpt= -1 -1 -1 -1 -1 -1 -1 -1 -1 -1 -1 -1 -1 -1 -1 -1 -1 -1 -1 -1
 MicOpt= -1 -1 -1 -1 -1 -1 -1 -1 -1 -1 -1 -1 -1 -1 -1 -1 -1 -1 -1
 NAtoms=     39 NQM=       39 NQMF=       0 NMMI=      0 NMMIF=      0
                NMic=       0 NMicF=      0.
                    Isotopes and Nuclear Properties:
 (Nuclear quadrupole moments (NQMom) in fm**2, nuclear magnetic moments (NMagM)
  in nuclear magnetons)

  Atom         1           2           3           4           5           6           7           8           9          10
 IAtWgt=          12           1           1           1          12          12           1           1           1          12
 AtmWgt=  12.0000000   1.0078250   1.0078250   1.0078250  12.0000000  12.0000000   1.0078250   1.0078250   1.0078250  12.0000000
 NucSpn=           0           1           1           1           0           0           1           1           1           0
 AtZEff=  -0.0000000  -0.0000000  -0.0000000  -0.0000000  -0.0000000  -0.0000000  -0.0000000  -0.0000000  -0.0000000  -0.0000000
 NQMom=    0.0000000   0.0000000   0.0000000   0.0000000   0.0000000   0.0000000   0.0000000   0.0000000   0.0000000   0.0000000
 NMagM=    0.0000000   2.7928460   2.7928460   2.7928460   0.0000000   0.0000000   2.7928460   2.7928460   2.7928460   0.0000000
 AtZNuc=   6.0000000   1.0000000   1.0000000   1.0000000   6.0000000   6.0000000   1.0000000   1.0000000   1.0000000   6.0000000

  Atom        11          12          13          14          15          16          17          18          19          20
 IAtWgt=           1           1           1          14           1          12           1           1          12          16
 AtmWgt=   1.0078250   1.0078250   1.0078250  14.0030740   1.0078250  12.0000000   1.0078250   1.0078250  12.0000000  15.9949146
 NucSpn=           1           1           1           2           1           0           1           1           0           0
 AtZEff=  -0.0000000  -0.0000000  -0.0000000  -0.0000000  -0.0000000  -0.0000000  -0.0000000  -0.0000000  -0.0000000  -0.0000000
 NQMom=    0.0000000   0.0000000   0.0000000   2.0440000   0.0000000   0.0000000   0.0000000   0.0000000   0.0000000   0.0000000
 NMagM=    2.7928460   2.7928460   2.7928460   0.4037610   2.7928460   0.0000000   2.7928460   2.7928460   0.0000000   0.0000000
 AtZNuc=   1.0000000   1.0000000   1.0000000   7.0000000   1.0000000   6.0000000   1.0000000   1.0000000   6.0000000   8.0000000

  Atom        21          22          23          24          25          26          27          28          29          30
 IAtWgt=           1           1          12          12           1          12          12          16           1           1
 AtmWgt=   1.0078250   1.0078250  12.0000000  12.0000000   1.0078250  12.0000000  12.0000000  15.9949146   1.0078250   1.0078250
 NucSpn=           1           1           0           0           1           0           0           0           1           1
 AtZEff=  -0.0000000  -0.0000000  -0.0000000  -0.0000000  -0.0000000  -0.0000000  -0.0000000  -0.0000000  -0.0000000  -0.0000000
 NQMom=    0.0000000   0.0000000   0.0000000   0.0000000   0.0000000   0.0000000   0.0000000   0.0000000   0.0000000   0.0000000
 NMagM=    2.7928460   2.7928460   0.0000000   0.0000000   2.7928460   0.0000000   0.0000000   0.0000000   2.7928460   2.7928460
 AtZNuc=   1.0000000   1.0000000   6.0000000   6.0000000   1.0000000   6.0000000   6.0000000   8.0000000   1.0000000   1.0000000

  Atom        31          32          33          34          35          36          37          38          39
 IAtWgt=           1          12          16           1          12           1          12           1           1
 AtmWgt=   1.0078250  12.0000000  15.9949146   1.0078250  12.0000000   1.0078250  12.0000000   1.0078250   1.0078250
 NucSpn=           1           0           0           1           0           1           0           1           1
 AtZEff=  -0.0000000  -0.0000000  -0.0000000  -0.0000000  -0.0000000  -0.0000000  -0.0000000  -0.0000000  -0.0000000
 NQMom=    0.0000000   0.0000000   0.0000000   0.0000000   0.0000000   0.0000000   0.0000000   0.0000000   0.0000000
 NMagM=    2.7928460   0.0000000   0.0000000   2.7928460   0.0000000   2.7928460   0.0000000   2.7928460   2.7928460
 AtZNuc=   1.0000000   6.0000000   8.0000000   1.0000000   6.0000000   1.0000000   6.0000000   1.0000000   1.0000000
 Leave Link  101 at Sun Jul 18 14:45:37 2021, MaxMem=   104857600 cpu:               0.2 elap:               0.1
 (Enter /dades/curu/g16A03_MST/g16/l103.exe)

 GradGradGradGradGradGradGradGradGradGradGradGradGradGradGradGradGradGrad
 Berny optimization.
 Initialization pass.
                           ----------------------------
                           !    Initial Parameters    !
                           ! (Angstroms and Degrees)  !
 --------------------------                            --------------------------
 ! Name  Definition              Value          Derivative Info.                !
 --------------------------------------------------------------------------------
 ! R1    R(1,2)                  1.0924         estimate D2E/DX2                !
 ! R2    R(1,3)                  1.0915         estimate D2E/DX2                !
 ! R3    R(1,4)                  1.0923         estimate D2E/DX2                !
 ! R4    R(1,5)                  1.4881         estimate D2E/DX2                !
 ! R5    R(5,6)                  1.5382         estimate D2E/DX2                !
 ! R6    R(5,10)                 1.5066         estimate D2E/DX2                !
 ! R7    R(5,14)                 1.45           estimate D2E/DX2                !
 ! R8    R(6,7)                  1.0921         estimate D2E/DX2                !
 ! R9    R(6,8)                  1.0921         estimate D2E/DX2                !
 ! R10   R(6,9)                  1.0918         estimate D2E/DX2                !
 ! R11   R(10,11)                1.0919         estimate D2E/DX2                !
 ! R12   R(10,12)                1.092          estimate D2E/DX2                !
 ! R13   R(10,13)                1.0916         estimate D2E/DX2                !
 ! R14   R(14,15)                1.0001         estimate D2E/DX2                !
 ! R15   R(14,16)                1.5084         estimate D2E/DX2                !
 ! R16   R(14,39)                1.0            estimate D2E/DX2                !
 ! R17   R(16,17)                1.0929         estimate D2E/DX2                !
 ! R18   R(16,18)                1.0924         estimate D2E/DX2                !
 ! R19   R(16,19)                1.5189         estimate D2E/DX2                !
 ! R20   R(19,20)                1.4157         estimate D2E/DX2                !
 ! R21   R(19,22)                1.0934         estimate D2E/DX2                !
 ! R22   R(19,23)                1.6021         estimate D2E/DX2                !
 ! R23   R(20,21)                0.974          estimate D2E/DX2                !
 ! R24   R(23,24)                1.3937         estimate D2E/DX2                !
 ! R25   R(23,37)                1.4408         estimate D2E/DX2                !
 ! R26   R(24,25)                1.0866         estimate D2E/DX2                !
 ! R27   R(24,26)                1.3737         estimate D2E/DX2                !
 ! R28   R(26,27)                1.5656         estimate D2E/DX2                !
 ! R29   R(26,32)                1.4178         estimate D2E/DX2                !
 ! R30   R(27,28)                1.4564         estimate D2E/DX2                !
 ! R31   R(27,30)                1.0927         estimate D2E/DX2                !
 ! R32   R(27,31)                1.0932         estimate D2E/DX2                !
 ! R33   R(28,29)                0.9738         estimate D2E/DX2                !
 ! R34   R(32,33)                1.2837         estimate D2E/DX2                !
 ! R35   R(32,35)                1.4206         estimate D2E/DX2                !
 ! R36   R(33,34)                0.9746         estimate D2E/DX2                !
 ! R37   R(35,36)                1.0876         estimate D2E/DX2                !
 ! R38   R(35,37)                1.4105         estimate D2E/DX2                !
 ! R39   R(37,38)                1.0873         estimate D2E/DX2                !
 ! A1    A(2,1,3)              103.1499         estimate D2E/DX2                !
 ! A2    A(2,1,4)              111.0024         estimate D2E/DX2                !
 ! A3    A(2,1,5)              105.954          estimate D2E/DX2                !
 ! A4    A(3,1,4)              109.8422         estimate D2E/DX2                !
 ! A5    A(3,1,5)              116.3817         estimate D2E/DX2                !
 ! A6    A(4,1,5)              110.2035         estimate D2E/DX2                !
 ! A7    A(1,5,6)              110.7774         estimate D2E/DX2                !
 ! A8    A(1,5,10)             110.0445         estimate D2E/DX2                !
 ! A9    A(1,5,14)             110.668          estimate D2E/DX2                !
 ! A10   A(6,5,10)             111.2814         estimate D2E/DX2                !
 ! A11   A(6,5,14)             105.0042         estimate D2E/DX2                !
 ! A12   A(10,5,14)            108.9537         estimate D2E/DX2                !
 ! A13   A(5,6,7)              104.9596         estimate D2E/DX2                !
 ! A14   A(5,6,8)              115.1846         estimate D2E/DX2                !
 ! A15   A(5,6,9)              107.2729         estimate D2E/DX2                !
 ! A16   A(7,6,8)              104.6647         estimate D2E/DX2                !
 ! A17   A(7,6,9)              110.9299         estimate D2E/DX2                !
 ! A18   A(8,6,9)              113.4943         estimate D2E/DX2                !
 ! A19   A(5,10,11)            109.6414         estimate D2E/DX2                !
 ! A20   A(5,10,12)            106.9823         estimate D2E/DX2                !
 ! A21   A(5,10,13)            102.7279         estimate D2E/DX2                !
 ! A22   A(11,10,12)           111.2695         estimate D2E/DX2                !
 ! A23   A(11,10,13)           116.0595         estimate D2E/DX2                !
 ! A24   A(12,10,13)           109.4853         estimate D2E/DX2                !
 ! A25   A(5,14,15)            107.6825         estimate D2E/DX2                !
 ! A26   A(5,14,16)            117.8934         estimate D2E/DX2                !
 ! A27   A(5,14,39)            107.6807         estimate D2E/DX2                !
 ! A28   A(15,14,16)           107.6919         estimate D2E/DX2                !
 ! A29   A(15,14,39)           107.8805         estimate D2E/DX2                !
 ! A30   A(16,14,39)           107.6492         estimate D2E/DX2                !
 ! A31   A(14,16,17)           102.1481         estimate D2E/DX2                !
 ! A32   A(14,16,18)           102.9579         estimate D2E/DX2                !
 ! A33   A(14,16,19)           116.0771         estimate D2E/DX2                !
 ! A34   A(17,16,18)           112.9434         estimate D2E/DX2                !
 ! A35   A(17,16,19)           114.9758         estimate D2E/DX2                !
 ! A36   A(18,16,19)           107.2304         estimate D2E/DX2                !
 ! A37   A(16,19,20)           112.5245         estimate D2E/DX2                !
 ! A38   A(16,19,22)           107.7482         estimate D2E/DX2                !
 ! A39   A(16,19,23)           113.1989         estimate D2E/DX2                !
 ! A40   A(20,19,22)           111.0172         estimate D2E/DX2                !
 ! A41   A(20,19,23)           108.0965         estimate D2E/DX2                !
 ! A42   A(22,19,23)           103.9454         estimate D2E/DX2                !
 ! A43   A(19,20,21)           102.289          estimate D2E/DX2                !
 ! A44   A(19,23,24)           119.8361         estimate D2E/DX2                !
 ! A45   A(19,23,37)           124.1463         estimate D2E/DX2                !
 ! A46   A(24,23,37)           115.9903         estimate D2E/DX2                !
 ! A47   A(23,24,25)           121.0695         estimate D2E/DX2                !
 ! A48   A(23,24,26)           123.7206         estimate D2E/DX2                !
 ! A49   A(25,24,26)           114.113          estimate D2E/DX2                !
 ! A50   A(24,26,27)           120.5064         estimate D2E/DX2                !
 ! A51   A(24,26,32)           120.5872         estimate D2E/DX2                !
 ! A52   A(27,26,32)           118.873          estimate D2E/DX2                !
 ! A53   A(26,27,28)           108.0316         estimate D2E/DX2                !
 ! A54   A(26,27,30)           104.3135         estimate D2E/DX2                !
 ! A55   A(26,27,31)           117.5201         estimate D2E/DX2                !
 ! A56   A(28,27,30)           105.4555         estimate D2E/DX2                !
 ! A57   A(28,27,31)           111.9132         estimate D2E/DX2                !
 ! A58   A(30,27,31)           108.6977         estimate D2E/DX2                !
 ! A59   A(27,28,29)           108.1907         estimate D2E/DX2                !
 ! A60   A(26,32,33)           126.3831         estimate D2E/DX2                !
 ! A61   A(26,32,35)           118.0367         estimate D2E/DX2                !
 ! A62   A(33,32,35)           115.4139         estimate D2E/DX2                !
 ! A63   A(32,33,34)           105.0289         estimate D2E/DX2                !
 ! A64   A(32,35,36)           116.1877         estimate D2E/DX2                !
 ! A65   A(32,35,37)           120.1125         estimate D2E/DX2                !
 ! A66   A(36,35,37)           122.3926         estimate D2E/DX2                !
 ! A67   A(23,37,35)           121.129          estimate D2E/DX2                !
 ! A68   A(23,37,38)           114.4252         estimate D2E/DX2                !
 ! A69   A(35,37,38)           123.1203         estimate D2E/DX2                !
 ! D1    D(2,1,5,6)            -64.9235         estimate D2E/DX2                !
 ! D2    D(2,1,5,10)            58.557          estimate D2E/DX2                !
 ! D3    D(2,1,5,14)           179.0319         estimate D2E/DX2                !
 ! D4    D(3,1,5,6)           -178.8721         estimate D2E/DX2                !
 ! D5    D(3,1,5,10)           -55.3916         estimate D2E/DX2                !
 ! D6    D(3,1,5,14)            65.0833         estimate D2E/DX2                !
 ! D7    D(4,1,5,6)             55.2358         estimate D2E/DX2                !
 ! D8    D(4,1,5,10)           178.7163         estimate D2E/DX2                !
 ! D9    D(4,1,5,14)           -60.8088         estimate D2E/DX2                !
 ! D10   D(1,5,6,7)           -179.8083         estimate D2E/DX2                !
 ! D11   D(1,5,6,8)             65.6589         estimate D2E/DX2                !
 ! D12   D(1,5,6,9)            -61.7543         estimate D2E/DX2                !
 ! D13   D(10,5,6,7)            57.4262         estimate D2E/DX2                !
 ! D14   D(10,5,6,8)           -57.1066         estimate D2E/DX2                !
 ! D15   D(10,5,6,9)           175.4802         estimate D2E/DX2                !
 ! D16   D(14,5,6,7)           -60.3019         estimate D2E/DX2                !
 ! D17   D(14,5,6,8)          -174.8347         estimate D2E/DX2                !
 ! D18   D(14,5,6,9)            57.7521         estimate D2E/DX2                !
 ! D19   D(1,5,10,11)          161.7129         estimate D2E/DX2                !
 ! D20   D(1,5,10,12)           40.9343         estimate D2E/DX2                !
 ! D21   D(1,5,10,13)          -74.3138         estimate D2E/DX2                !
 ! D22   D(6,5,10,11)          -75.1012         estimate D2E/DX2                !
 ! D23   D(6,5,10,12)          164.1202         estimate D2E/DX2                !
 ! D24   D(6,5,10,13)           48.8721         estimate D2E/DX2                !
 ! D25   D(14,5,10,11)          40.2097         estimate D2E/DX2                !
 ! D26   D(14,5,10,12)         -80.5689         estimate D2E/DX2                !
 ! D27   D(14,5,10,13)         164.183          estimate D2E/DX2                !
 ! D28   D(1,5,14,15)         -168.9135         estimate D2E/DX2                !
 ! D29   D(1,5,14,16)          -46.9318         estimate D2E/DX2                !
 ! D30   D(1,5,14,39)           74.9915         estimate D2E/DX2                !
 ! D31   D(6,5,14,15)           71.5071         estimate D2E/DX2                !
 ! D32   D(6,5,14,16)         -166.5112         estimate D2E/DX2                !
 ! D33   D(6,5,14,39)          -44.5879         estimate D2E/DX2                !
 ! D34   D(10,5,14,15)         -47.7906         estimate D2E/DX2                !
 ! D35   D(10,5,14,16)          74.1911         estimate D2E/DX2                !
 ! D36   D(10,5,14,39)        -163.8856         estimate D2E/DX2                !
 ! D37   D(5,14,16,17)          67.362          estimate D2E/DX2                !
 ! D38   D(5,14,16,18)         -49.9413         estimate D2E/DX2                !
 ! D39   D(5,14,16,19)        -166.7499         estimate D2E/DX2                !
 ! D40   D(15,14,16,17)       -170.6611         estimate D2E/DX2                !
 ! D41   D(15,14,16,18)         72.0356         estimate D2E/DX2                !
 ! D42   D(15,14,16,19)        -44.773          estimate D2E/DX2                !
 ! D43   D(39,14,16,17)        -54.5774         estimate D2E/DX2                !
 ! D44   D(39,14,16,18)       -171.8807         estimate D2E/DX2                !
 ! D45   D(39,14,16,19)         71.3107         estimate D2E/DX2                !
 ! D46   D(14,16,19,20)         42.6316         estimate D2E/DX2                !
 ! D47   D(14,16,19,22)        -80.0796         estimate D2E/DX2                !
 ! D48   D(14,16,19,23)        165.56           estimate D2E/DX2                !
 ! D49   D(17,16,19,20)        161.737          estimate D2E/DX2                !
 ! D50   D(17,16,19,22)         39.0258         estimate D2E/DX2                !
 ! D51   D(17,16,19,23)        -75.3346         estimate D2E/DX2                !
 ! D52   D(18,16,19,20)        -71.7718         estimate D2E/DX2                !
 ! D53   D(18,16,19,22)        165.517          estimate D2E/DX2                !
 ! D54   D(18,16,19,23)         51.1566         estimate D2E/DX2                !
 ! D55   D(16,19,20,21)       -170.9527         estimate D2E/DX2                !
 ! D56   D(22,19,20,21)        -50.0979         estimate D2E/DX2                !
 ! D57   D(23,19,20,21)         63.3029         estimate D2E/DX2                !
 ! D58   D(16,19,23,24)        105.5996         estimate D2E/DX2                !
 ! D59   D(16,19,23,37)        -76.3789         estimate D2E/DX2                !
 ! D60   D(20,19,23,24)       -129.0539         estimate D2E/DX2                !
 ! D61   D(20,19,23,37)         48.9676         estimate D2E/DX2                !
 ! D62   D(22,19,23,24)        -11.0251         estimate D2E/DX2                !
 ! D63   D(22,19,23,37)        166.9964         estimate D2E/DX2                !
 ! D64   D(19,23,24,25)          4.787          estimate D2E/DX2                !
 ! D65   D(19,23,24,26)        172.0983         estimate D2E/DX2                !
 ! D66   D(37,23,24,25)       -173.3914         estimate D2E/DX2                !
 ! D67   D(37,23,24,26)         -6.0802         estimate D2E/DX2                !
 ! D68   D(19,23,37,35)       -170.4232         estimate D2E/DX2                !
 ! D69   D(19,23,37,38)         -3.1765         estimate D2E/DX2                !
 ! D70   D(24,23,37,35)          7.6675         estimate D2E/DX2                !
 ! D71   D(24,23,37,38)        174.9142         estimate D2E/DX2                !
 ! D72   D(23,24,26,27)       -176.7964         estimate D2E/DX2                !
 ! D73   D(23,24,26,32)          1.0763         estimate D2E/DX2                !
 ! D74   D(25,24,26,27)         -8.6921         estimate D2E/DX2                !
 ! D75   D(25,24,26,32)        169.1807         estimate D2E/DX2                !
 ! D76   D(24,26,27,28)         88.14           estimate D2E/DX2                !
 ! D77   D(24,26,27,30)        -23.717          estimate D2E/DX2                !
 ! D78   D(24,26,27,31)       -144.1143         estimate D2E/DX2                !
 ! D79   D(32,26,27,28)        -89.7688         estimate D2E/DX2                !
 ! D80   D(32,26,27,30)        158.3742         estimate D2E/DX2                !
 ! D81   D(32,26,27,31)         37.9769         estimate D2E/DX2                !
 ! D82   D(24,26,32,33)        177.6498         estimate D2E/DX2                !
 ! D83   D(24,26,32,35)          2.5721         estimate D2E/DX2                !
 ! D84   D(27,26,32,33)         -4.4431         estimate D2E/DX2                !
 ! D85   D(27,26,32,35)       -179.5209         estimate D2E/DX2                !
 ! D86   D(26,27,28,29)         56.2479         estimate D2E/DX2                !
 ! D87   D(30,27,28,29)        167.3332         estimate D2E/DX2                !
 ! D88   D(31,27,28,29)        -74.6503         estimate D2E/DX2                !
 ! D89   D(26,32,33,34)         71.9407         estimate D2E/DX2                !
 ! D90   D(35,32,33,34)       -112.8691         estimate D2E/DX2                !
 ! D91   D(26,32,35,36)       -168.0991         estimate D2E/DX2                !
 ! D92   D(26,32,35,37)         -0.8437         estimate D2E/DX2                !
 ! D93   D(33,32,35,36)         16.2871         estimate D2E/DX2                !
 ! D94   D(33,32,35,37)       -176.4575         estimate D2E/DX2                !
 ! D95   D(32,35,37,23)         -4.4014         estimate D2E/DX2                !
 ! D96   D(32,35,37,38)       -170.5155         estimate D2E/DX2                !
 ! D97   D(36,35,37,23)        162.04           estimate D2E/DX2                !
 ! D98   D(36,35,37,38)         -4.0741         estimate D2E/DX2                !
 --------------------------------------------------------------------------------
 Trust Radius=3.00D-01 FncErr=1.00D-07 GrdErr=1.00D-06 EigMax=2.50D+02 EigMin=1.00D-04
 Number of steps in this run=    216 maximum allowed number of steps=    234.
 GradGradGradGradGradGradGradGradGradGradGradGradGradGradGradGradGradGrad

 Leave Link  103 at Sun Jul 18 14:45:37 2021, MaxMem=   104857600 cpu:               0.1 elap:               0.0
 (Enter /dades/curu/g16A03_MST/g16/l202.exe)
                          Input orientation:                          
 ---------------------------------------------------------------------
 Center     Atomic      Atomic             Coordinates (Angstroms)
 Number     Number       Type             X           Y           Z
 ---------------------------------------------------------------------
      1          6           0        2.801000   -0.373000    2.642000
      2          1           0        3.156000   -0.697000    3.623000
      3          1           0        1.874000    0.154000    2.875000
      4          1           0        3.511000    0.314000    2.176000
      5          6           0        2.671000   -1.610000    1.825000
      6          6           0        4.046000   -2.261000    1.598000
      7          1           0        3.842000   -3.147000    0.993000
      8          1           0        4.532000   -2.646000    2.497000
      9          1           0        4.657000   -1.544000    1.046000
     10          6           0        1.715000   -2.568000    2.487000
     11          1           0        1.372000   -3.306000    1.759000
     12          1           0        0.883000   -1.974000    2.871000
     13          1           0        2.302000   -2.955000    3.322000
     14          7           0        2.180000   -1.297000    0.497000
     15          1           0        1.937000   -2.159000    0.052000
     16          6           0        0.994000   -0.372000    0.383000
     17          1           0        1.408000    0.577000    0.733000
     18          1           0        0.276000   -0.807000    1.082000
     19          6           0        0.320000   -0.315000   -0.977000
     20          8           0        0.174000   -1.595000   -1.564000
     21          1           0       -0.125000   -1.377000   -2.465000
     22          1           0        0.914000    0.344000   -1.616000
     23          6           0       -1.122000    0.382000   -0.938000
     24          6           0       -1.283000    1.671000   -1.443000
     25          1           0       -0.463000    2.187000   -1.935000
     26          6           0       -2.503000    2.284000   -1.594000
     27          6           0       -2.603000    3.707000   -2.239000
     28          8           0       -2.722000    3.541000   -3.681000
     29          1           0       -3.492000    2.972000   -3.859000
     30          1           0       -1.616000    4.147000   -2.077000
     31          1           0       -3.360000    4.389000   -1.843000
     32          6           0       -3.696000    1.621000   -1.210000
     33          8           0       -4.885000    2.102000   -1.262000
     34          1           0       -5.105000    2.130000   -2.211000
     35          6           0       -3.584000    0.335000   -0.617000
     36          1           0       -4.508000   -0.230000   -0.518000
     37          6           0       -2.315000   -0.255000   -0.441000
     38          1           0       -2.178000   -1.289000   -0.134000
     39          1           0        2.934000   -0.888000   -0.017000
 ---------------------------------------------------------------------
                    Distance matrix (angstroms):
                    1          2          3          4          5
     1  C    0.000000
     2  H    1.092411   0.000000
     3  H    1.091488   1.710915   0.000000
     4  H    1.092348   1.800543   1.787168   0.000000
     5  C    1.488139   2.074029   2.202136   2.128515   0.000000
     6  C    2.490884   2.709026   3.490063   2.692756   1.538166
     7  H    3.390864   3.659234   4.279200   3.672543   2.103767
     8  H    2.860754   2.638153   3.879156   3.147552   2.233428
     9  H    2.713520   3.100216   3.738119   2.458125   2.134337
    10  C    2.453863   2.620614   2.754108   3.410024   1.506633
    11  H    3.379973   3.669337   3.670022   4.225353   2.137328
    12  H    2.508858   2.713441   2.347441   3.553077   2.103225
    13  H    2.716270   2.432793   3.169996   3.668972   2.046019
    14  N    2.416701   3.329332   2.802485   2.680657   1.450046
    15  H    3.262574   4.046659   3.650105   3.620025   1.995917
    16  C    2.892807   3.908640   2.694650   3.165554   2.534628
    17  H    2.547004   3.609803   2.232543   2.563987   2.751473
    18  H    2.999597   3.842289   2.586885   3.594260   2.633037
    19  C    4.388153   5.417455   4.180046   4.529849   3.880133
    20  O    5.107333   6.050099   5.064950   5.363530   4.209579
    21  H    5.970841   6.949180   5.903860   6.133421   5.126013
    22  H    4.712263   5.792872   4.596388   4.596148   4.329624
    23  C    5.364360   6.345727   4.854582   5.582679   5.097949
    24  C    6.127334   7.139783   5.559952   6.158007   6.089245
    25  H    6.177073   7.232287   5.721080   6.016737   6.194898
    26  C    7.289428   8.253952   6.608100   7.366274   7.322778
    27  C    8.347082   9.323322   7.669442   8.269563   8.520661
    28  O    9.263005  10.288826   8.693453   9.141568   9.270021
    29  H    9.646444  10.660103   9.059903   9.619158   9.554326
    30  H    7.887284   8.872785   7.255788   7.685443   8.169885
    31  H    8.986089   9.909733   8.221284   8.942518   9.263649
    32  C    7.811847   8.699478   7.061460   8.069330   7.758175
    33  O    8.968915   9.816074   8.160487   9.247140   8.966697
    34  H    9.608405  10.501029   8.858804   9.837636   9.525916
    35  C    7.203511   8.029335   6.482020   7.624980   6.990809
    36  H    7.964140   8.723696   7.238082   8.476906   7.676724
    37  C    5.974301   6.829590   5.358251   6.412077   5.641895
    38  H    5.773705   6.551112   5.249289   6.345899   5.239611
    39  H    2.711678   3.651762   3.251619   2.566512   1.995850
                    6          7          8          9         10
     6  C    0.000000
     7  H    1.092079   0.000000
     8  H    1.092072   1.728906   0.000000
     9  H    1.091840   1.799067   1.826316   0.000000
    10  C    2.513589   2.662969   2.818097   3.432262   0.000000
    11  H    2.875452   2.590934   3.311472   3.795292   1.091914
    12  H    3.421618   3.695740   3.729164   4.214096   1.092024
    13  H    2.548597   2.798697   2.397708   3.566107   1.091587
    14  N    2.371382   2.535894   3.369229   2.549106   2.406609
    15  H    2.616945   2.343214   3.598502   2.960517   2.479070
    16  C    3.789360   4.022913   4.707177   3.902656   3.125552
    17  H    3.970077   4.456471   4.822738   3.892635   3.614110
    18  H    4.073484   4.266131   4.847441   4.442705   2.673175
    19  C    4.929566   4.930072   5.936597   4.940905   4.361345
    20  O    5.043232   4.732988   6.048842   5.187677   4.442073
    21  H    5.889539   5.552275   6.922388   5.934858   5.415384
    22  H    5.188954   5.250442   6.240737   4.965968   5.094699
    23  C    6.334427   6.389358   7.275694   6.406448   5.336824
    24  C    7.287424   7.443980   8.244654   7.198260   6.511684
    25  H    7.252439   7.453708   8.243212   7.001509   6.848926
    26  C    8.586926   8.743418   9.514852   8.537493   7.614985
    27  C    9.723620   9.947923  10.662951   9.543156   8.964141
    28  O   10.360351  10.471949  11.360773  10.131702   9.749414
    29  H   10.676356  10.713152  11.676696  10.528983   9.903341
    30  H    9.307327   9.613381  10.240324   9.027244   8.775926
    31  H   10.531468  10.802916  11.428495  10.383598   9.638692
    32  C    9.104579   9.187409   9.982441   9.213000   7.777818
    33  O   10.343023  10.430607  11.196137  10.472342   8.912009
    34  H   10.841133  10.870196  11.740835  10.927167   9.521282
    35  C    8.358370   8.358343   9.189821   8.614540   6.792763
    36  H    9.042861   8.972988   9.831016   9.389884   7.295341
    37  C    6.974516   6.951882   7.824969   7.244410   5.492181
    38  H    6.533206   6.400210   7.334010   6.940796   4.864250
    39  H    2.393721   2.635839   3.458954   2.128153   3.252442
                   11         12         13         14         15
    11  H    0.000000
    12  H    1.802745   0.000000
    13  H    1.852315   1.783066   0.000000
    14  N    2.506310   2.788622   3.277876   0.000000
    15  H    2.132764   3.015278   3.385224   1.000059   0.000000
    16  C    3.262609   2.961228   4.125588   1.508382   2.047481
    17  H    4.016424   3.369610   4.469584   2.040479   2.868675
    18  H    2.811502   2.220554   3.706235   2.051229   2.376494
    19  C    4.187897   4.228044   5.420270   2.568385   2.659674
    20  O    3.924927   4.507277   5.500089   2.891463   2.457177
    21  H    4.878957   5.463092   6.470686   3.754047   3.346439
    22  H    4.992283   5.050471   6.098671   2.959798   3.177068
    23  C    5.205304   4.907060   6.403667   3.972590   4.098080
    24  C    6.486321   6.048816   7.547008   4.956308   5.222291
    25  H    6.869200   6.497944   7.856299   5.003831   5.347512
    26  C    7.583293   7.037882   8.643044   6.255104   6.493317
    27  C    8.998155   8.398694   9.968249   7.443306   7.763391
    28  O    9.655871   9.291930  10.792618   8.055528   8.254185
    29  H    9.727986   9.428491  10.966610   8.328906   8.431911
    30  H    8.898890   8.257987   9.743630   7.118443   7.544673
    31  H    9.725187   8.984020  10.614603   8.276340   8.632818
    32  C    7.666480   7.109559   8.800841   6.779082   6.900126
    33  O    8.804712   8.183232   9.911573   8.035018   8.149994
    34  H    9.341441   8.861472  10.551538   8.494046   8.550231
    35  C    6.592738   6.119781   7.809278   6.093285   6.095001
    36  H    7.015761   6.602252   8.279331   6.848216   6.751590
    37  C    5.267122   4.914418   6.539637   4.708570   4.684845
    38  H    4.500471   4.343843   5.898296   4.403452   4.210074
    39  H    3.382417   3.704935   3.977541   0.999996   1.616852
                   16         17         18         19         20
    16  C    0.000000
    17  H    1.092930   0.000000
    18  H    1.092406   1.821725   0.000000
    19  C    1.518922   2.214387   2.117423   0.000000
    20  O    2.441094   3.393604   2.762728   1.415728   0.000000
    21  H    3.220759   4.049124   3.614818   1.881492   0.974026
    22  H    2.124866   2.411665   3.001841   1.093361   2.076060
    23  C    2.605957   3.038283   2.729199   1.602091   2.445408
    24  C    3.562703   3.629503   3.866082   2.594410   3.578302
    25  H    3.747593   3.634689   4.314214   2.791211   3.853172
    26  C    4.815794   4.860525   4.943490   3.886492   4.713159
    27  C    6.037511   5.892182   6.300308   5.129625   6.023168
    28  O    6.755466   6.732428   7.111911   5.606614   6.264743
    29  H    7.021474   7.129691   7.272699   5.800141   6.289998
    30  H    5.769321   5.457616   6.172606   4.986736   6.036376
    31  H    6.824919   6.625779   6.983877   6.034896   6.955232
    32  C    5.339082   5.560216   5.188953   4.464375   5.044291
    33  O    6.587059   6.775507   6.371227   5.745880   6.273157
    34  H    7.084253   7.314240   6.958806   6.077122   6.493233
    35  C    4.738980   5.176981   4.369252   3.974081   4.329466
    36  H    5.577093   6.100435   5.077360   4.850514   4.987832
    37  C    3.412059   3.991394   3.055735   2.689632   3.041685
    38  H    3.342119   4.134373   2.780844   2.810574   2.769556
    39  H    2.046914   2.244416   2.877382   2.843049   3.242014
                   21         22         23         24         25
    21  H    0.000000
    22  H    2.182238   0.000000
    23  C    2.533736   2.146258   0.000000
    24  C    3.416980   2.572483   1.393724   0.000000
    25  H    3.619011   2.322615   2.164790   1.086609   0.000000
    26  C    4.451567   3.929373   2.440308   1.373670   2.070577
    27  C    5.660266   4.905832   3.865435   2.553686   2.642426
    28  O    5.692960   5.263604   4.479211   3.252117   3.159891
    29  H    5.673952   5.599131   4.566973   3.522689   3.673260
    30  H    5.734824   4.590886   3.964414   2.577483   2.278415
    31  H    6.640698   5.889026   4.678004   3.444046   3.640038
    32  C    4.828568   4.800798   2.869596   2.424739   3.361290
    33  O    6.017329   6.069949   4.150126   3.632207   4.473728
    34  H    6.096225   6.306519   4.532143   3.925327   4.650547
    35  C    4.279104   4.607612   2.483283   2.785996   3.861045
    36  H    4.931238   5.561759   3.466402   3.856171   4.920549
    37  C    3.186151   3.487960   1.440842   2.403852   3.409590
    38  H    3.107429   3.797825   2.133962   3.357991   4.274038
    39  H    3.948330   2.855700   4.348825   5.134690   4.967289
                   26         27         28         29         30
    26  C    0.000000
    27  C    1.565552   0.000000
    28  O    2.446136   1.456393   0.000000
    29  H    2.565480   1.988705   0.973830   0.000000
    30  H    2.119157   1.092709   2.040414   2.841747   0.000000
    31  H    2.286367   1.093156   2.122355   2.467705   1.776191
    32  C    1.417841   2.569997   3.277334   2.980607   3.385080
    33  O    2.411902   2.956024   3.549768   3.072744   3.941143
    34  H    2.678583   2.957654   3.135364   2.454921   4.032290
    35  C    2.433452   3.868285   4.517696   4.180047   4.531663
    36  H    3.390870   4.700089   5.235915   4.737862   5.472867
    37  C    2.794866   4.360412   5.007281   4.845780   4.747915
    38  H    3.873442   5.437984   6.017146   5.810193   5.800102
    39  H    6.489182   7.530583   8.064197   8.423422   7.092061
                   31         32         33         34         35
    31  H    0.000000
    32  C    2.859267   0.000000
    33  O    2.809547   1.283661   0.000000
    34  H    2.878112   1.801767   0.974569   0.000000
    35  C    4.241246   1.420559   2.287119   2.841884   0.000000
    36  H    4.940515   2.136448   2.476669   2.965174   1.087567
    37  C    4.962294   2.453140   3.582512   4.074951   1.410474
    38  H    6.046279   3.454012   4.483204   4.956896   2.201704
    39  H    8.414003   7.188549   8.463267   8.862702   6.658833
                   36         37         38         39
    36  H    0.000000
    37  C    2.194494   0.000000
    38  H    2.588018   1.087278   0.000000
    39  H    7.487812   5.304005   5.129038   0.000000
 Stoichiometry    C13H22NO3(1+)
 Framework group  C1[X(C13H22NO3)]
 Deg. of freedom   111
 Full point group                 C1      NOp   1
 Largest Abelian subgroup         C1      NOp   1
 Largest concise Abelian subgroup C1      NOp   1
                         Standard orientation:                         
 ---------------------------------------------------------------------
 Center     Atomic      Atomic             Coordinates (Angstroms)
 Number     Number       Type             X           Y           Z
 ---------------------------------------------------------------------
      1          6           0        4.049749   -0.500208   -1.792396
      2          1           0        4.916682   -0.111444   -2.331517
      3          1           0        3.206076   -0.081433   -2.343930
      4          1           0        4.017501   -1.591143   -1.837634
      5          6           0        4.208154   -0.048722   -0.383274
      6          6           0        5.447248   -0.693922    0.260401
      7          1           0        5.470012   -0.304613    1.280478
      8          1           0        6.404508   -0.394151   -0.171354
      9          1           0        5.288149   -1.774107    0.258639
     10          6           0        4.283734    1.455007   -0.328214
     11          1           0        4.074097    1.796084    0.687659
     12          1           0        3.544446    1.837616   -1.035024
     13          1           0        5.287624    1.659313   -0.705079
     14          7           0        3.090087   -0.494032    0.425588
     15          1           0        3.144131   -0.021207    1.305153
     16          6           0        1.698772   -0.289612   -0.120006
     17          1           0        1.684212   -0.971315   -0.974152
     18          1           0        1.703325    0.762279   -0.414717
     19          6           0        0.560178   -0.475105    0.868083
     20          8           0        0.832087    0.115039    2.125891
     21          1           0        0.095841   -0.213420    2.672502
     22          1           0        0.378519   -1.548479    0.969600
     23          6           0       -0.836197    0.104368    0.337949
     24          6           0       -1.831162   -0.770985   -0.093638
     25          1           0       -1.707973   -1.847032   -0.006081
     26          6           0       -3.107217   -0.376485   -0.414612
     27          6           0       -4.187737   -1.434273   -0.820218
     28          8           0       -4.841861   -1.899309    0.395077
     29          1           0       -5.203487   -1.124534    0.861227
     30          1           0       -3.608409   -2.286575   -1.183501
     31          1           0       -4.910600   -1.148686   -1.588916
     32          6           0       -3.480128    0.989450   -0.340905
     33          8           0       -4.622281    1.484889   -0.653656
     34          1           0       -5.226300    1.193595    0.053517
     35          6           0       -2.483138    1.935318    0.018727
     36          1           0       -2.835478    2.935097    0.261834
     37          6           0       -1.171261    1.505386    0.307821
     38          1           0       -0.411553    2.158535    0.730211
     39          1           0        3.208542   -1.472403    0.595156
 ---------------------------------------------------------------------
 Rotational constants (GHZ):           1.0431167           0.1675952           0.1614194
 Leave Link  202 at Sun Jul 18 14:45:37 2021, MaxMem=   104857600 cpu:               0.0 elap:               0.0
 (Enter /dades/curu/g16A03_MST/g16/l301.exe)
 Standard basis: 6-31G(d) (6D, 7F)
 Ernie: Thresh=  0.10000D-02 Tol=  0.10000D-05 Strict=F.
 There are   299 symmetry adapted cartesian basis functions of A   symmetry.
 There are   299 symmetry adapted basis functions of A   symmetry.
   299 basis functions,   564 primitive gaussians,   299 cartesian basis functions
    65 alpha electrons       65 beta electrons
       nuclear repulsion energy      1236.8584313075 Hartrees.
 IExCor=  402 DFT=T Ex+Corr=B3LYP ExCW=0 ScaHFX=  0.200000
 ScaDFX=  0.800000  0.720000  1.000000  0.810000 ScalE2=  1.000000  1.000000
 IRadAn=      5 IRanWt=     -1 IRanGd=            0 ICorTp=0 IEmpDi=  4
 NAtoms=   39 NActive=   39 NUniq=   39 SFac= 1.00D+00 NAtFMM=   60 NAOKFM=F Big=F
 Integral buffers will be    131072 words long.
 Raffenetti 2 integral format.
 Two-electron integral symmetry is turned on.
 Using the following non-standard input for PCM:
 MSTModel=DFT cav MSTCharged
 --- end of non-standard input.
 MST model for solvation energy: B3LYP parametrization.
 MST cavity parameters:
 ISph   IAn     Re0     Alpha   Atom Type   QCorr
 ------------------------------------------------
   1      6     1.50     1.50      CH3        F
   2      1     1.20     1.50      CH3        F
   3      1     1.20     1.50      CH3        F
   4      1     1.20     1.50      CH3        F
   5      6     1.50     1.50      CN+        F
   6      6     1.50     1.50      CH3        F
   7      1     1.20     1.50      CH3        F
   8      1     1.20     1.50      CH3        F
   9      1     1.20     1.50      CH3        F
  10      6     1.50     1.50      CH3        F
  11      1     1.20     1.50      CH3        F
  12      1     1.20     1.50      CH3        F
  13      1     1.20     1.50      CH3        F
  14      7     1.50     1.15      NH+        T
  15      1     0.90     1.15      NH+        T
  16      6     1.50     1.50      CN+        F
  17      1     1.20     1.50      CN+        F
  18      1     1.20     1.50      CN+        F
  19      6     1.50     1.50      CH         F
  20      8     1.40     1.50      OH         F
  21      1     0.90     1.50      OH         F
  22      1     1.20     1.50      CH         F
  23      6     1.50     1.50      C          F
  24      6     1.50     1.50      CH         F
  25      1     1.20     1.50      CH         F
  26      6     1.50     1.50      C          F
  27      6     1.50     1.50      CH2        F
  28      8     1.40     1.50      OH         F
  29      1     0.90     1.50      OH         F
  30      1     1.20     1.50      CH2        F
  31      1     1.20     1.50      CH2        F
  32      6     1.50     1.50      C          F
  33      8     1.40     1.50      OH         F
  34      1     0.90     1.50      OH         F
  35      6     1.50     1.50      CH         F
  36      1     1.20     1.50      CH         F
  37      6     1.50     1.50      CH         F
  38      1     1.20     1.50      CH         F
  39      1     0.90     1.15      NH+        T
 ------------------------------------------------------------------------------
 Polarizable Continuum Model (PCM)
 =================================
 Model                : PCM.
 Atomic radii         : MST.
 Polarization charges : Total charges.
 Charge compensation  : None.
 Solution method      : On-the-fly selection.
 Cavity type          : Scaled VdW (van der Waals Surface) (Alpha=1.500).
 Cavity algorithm     : GePol (No added spheres)
                        Default sphere list used, NSphG=   39.
                        Lebedev-Laikov grids with approx.  5.0 points / Ang**2.
                        Smoothing algorithm: York/Karplus (Gamma=1.0000).
                        Polarization charges: spherical gaussians, with
                                              point-specific exponents (IZeta= 3).
                        Self-potential: point-specific (ISelfS= 7).
                        Self-field    : sphere-specific E.n sum rule (ISelfD= 2).
 1st derivatives      : Analytical E(r).r(x)/FMM algorithm (CHGder, D1EAlg=3).
                        Cavity 1st derivative terms included.
 Solvent              : n-Octanol, Eps=   9.862900 Eps(inf)=   2.043470
 ------------------------------------------------------------------------------
 GePol: Number of generator spheres                  =      39
 GePol: Total number of spheres                      =      39
 GePol: Number of exposed spheres                    =      39 (100.00%)
 GePol: Number of points                             =    3321
 GePol: Average weight of points                     =       0.11
 GePol: Minimum weight of points                     =   0.11D-09
 GePol: Maximum weight of points                     =    0.20676
 GePol: Number of points with low weight             =     208
 GePol: Fraction of low-weight points (<1% of avg)   =       6.26%
 GePol: Cavity surface area                          =    367.307 Ang**2
 GePol: Cavity volume                                =    417.884 Ang**3
 Surface areas from nonelectrostatic (unscaled) cavity and vdw tensions:
 Sphere =    1 Type =  CH3 Surf =        4.015 Tension =       -0.183
 Sphere =    2 Type =  CH3 Surf =        9.879 Tension =       -0.183
 Sphere =    3 Type =  CH3 Surf =        9.408 Tension =       -0.183
 Sphere =    4 Type =  CH3 Surf =       10.071 Tension =       -0.183
 Sphere =    5 Type =  CN+ Surf =        1.188 Tension =       -0.227
 Sphere =    6 Type =  CH3 Surf =        4.631 Tension =       -0.183
 Sphere =    7 Type =  CH3 Surf =        9.871 Tension =       -0.183
 Sphere =    8 Type =  CH3 Surf =       10.122 Tension =       -0.183
 Sphere =    9 Type =  CH3 Surf =        9.942 Tension =       -0.183
 Sphere =   10 Type =  CH3 Surf =        4.695 Tension =       -0.183
 Sphere =   11 Type =  CH3 Surf =        9.935 Tension =       -0.183
 Sphere =   12 Type =  CH3 Surf =        9.133 Tension =       -0.183
 Sphere =   13 Type =  CH3 Surf =        9.718 Tension =       -0.183
 Sphere =   14 Type =  NH+ Surf =        6.707 Tension =       -0.274
 Sphere =   15 Type =  NH+ Surf =        3.815 Tension =       -0.274
 Sphere =   16 Type =  CN+ Surf =        3.786 Tension =       -0.227
 Sphere =   17 Type =  CN+ Surf =        9.026 Tension =       -0.227
 Sphere =   18 Type =  CN+ Surf =        9.024 Tension =       -0.227
 Sphere =   19 Type =  CH  Surf =        3.434 Tension =       -0.195
 Sphere =   20 Type =  OH  Surf =       14.390 Tension =       -0.238
 Sphere =   21 Type =  OH  Surf =        4.403 Tension =       -0.238
 Sphere =   22 Type =  CH  Surf =        9.538 Tension =       -0.195
 Sphere =   23 Type =  C   Surf =        6.591 Tension =       -0.205
 Sphere =   24 Type =  CH  Surf =        7.371 Tension =       -0.195
 Sphere =   25 Type =  CH  Surf =        9.605 Tension =       -0.195
 Sphere =   26 Type =  C   Surf =        6.272 Tension =       -0.205
 Sphere =   27 Type =  CH2 Surf =        4.872 Tension =       -0.194
 Sphere =   28 Type =  OH  Surf =       14.657 Tension =       -0.238
 Sphere =   29 Type =  OH  Surf =        4.473 Tension =       -0.238
 Sphere =   30 Type =  CH2 Surf =        9.544 Tension =       -0.194
 Sphere =   31 Type =  CH2 Surf =       10.225 Tension =       -0.194
 Sphere =   32 Type =  C   Surf =        6.577 Tension =       -0.205
 Sphere =   33 Type =  OH  Surf =       13.945 Tension =       -0.238
 Sphere =   34 Type =  OH  Surf =        4.401 Tension =       -0.238
 Sphere =   35 Type =  CH  Surf =        7.858 Tension =       -0.195
 Sphere =   36 Type =  CH  Surf =       10.188 Tension =       -0.195
 Sphere =   37 Type =  CH  Surf =        8.012 Tension =       -0.195
 Sphere =   38 Type =  CH  Surf =       10.223 Tension =       -0.195
 Sphere =   39 Type =  NH+ Surf =        3.806 Tension =       -0.274
 PCM non-electrostatic energy =        -0.0181283162 Hartrees.
 Nuclear repulsion after PCM non-electrostatic terms =     1236.8403029913 Hartrees.
 Leave Link  301 at Sun Jul 18 14:45:38 2021, MaxMem=   104857600 cpu:               0.2 elap:               0.2
 (Enter /dades/curu/g16A03_MST/g16/l302.exe)
 NPDir=0 NMtPBC=     1 NCelOv=     1 NCel=       1 NClECP=     1 NCelD=      1
         NCelK=      1 NCelE2=     1 NClLst=     1 CellRange=     0.0.
 One-electron integrals computed using PRISM.
 One-electron integral symmetry used in STVInt
 NBasis=   299 RedAO= T EigKep=  4.92D-04  NBF=   299
 NBsUse=   299 1.00D-06 EigRej= -1.00D+00 NBFU=   299
 Precomputing XC quadrature grid using
 IXCGrd= 4 IRadAn=           5 IRanWt=          -1 IRanGd=           0 AccXCQ= 0.00D+00.
 Generated NRdTot=       0 NPtTot=           0 NUsed=           0 NTot=          32
 NSgBfM=   296   295   296   296   296 MxSgAt=    39 MxSgA2=    39.
 Leave Link  302 at Sun Jul 18 14:45:40 2021, MaxMem=   104857600 cpu:              10.1 elap:               2.7
 (Enter /dades/curu/g16A03_MST/g16/l303.exe)
 DipDrv:  MaxL=1.
 Leave Link  303 at Sun Jul 18 14:45:40 2021, MaxMem=   104857600 cpu:               0.1 elap:               0.1
 (Enter /dades/curu/g16A03_MST/g16/l401.exe)
 ExpMin= 1.61D-01 ExpMax= 5.48D+03 ExpMxC= 8.25D+02 IAcc=3 IRadAn=         5 AccDes= 0.00D+00
 Harris functional with IExCor=  402 and IRadAn=       5 diagonalized for initial guess.
 HarFok:  IExCor=  402 AccDes= 0.00D+00 IRadAn=         5 IDoV= 1 UseB2=F ITyADJ=14
 ICtDFT=  3500011 ScaDFX=  1.000000  1.000000  1.000000  1.000000
 FoFCou: FMM=F IPFlag=           0 FMFlag=      100000 FMFlg1=           0
         NFxFlg=           0 DoJE=T BraDBF=F KetDBF=T FulRan=T
         wScrn=  0.000000 ICntrl=       500 IOpCl=  0 I1Cent=   200000004 NGrid=           0
         NMat0=    1 NMatS0=      1 NMatT0=    0 NMatD0=    1 NMtDS0=    0 NMtDT0=    0
 Petite list used in FoFCou.
 Harris En= -788.839319386512    
 JPrj=0 DoOrth=F DoCkMO=F.
 Leave Link  401 at Sun Jul 18 14:45:49 2021, MaxMem=   104857600 cpu:              34.9 elap:               8.8
 (Enter /dades/curu/g16A03_MST/g16/l502.exe)
 Integral symmetry usage will be decided dynamically.
 Closed shell SCF:
 Using DIIS extrapolation, IDIIS=  1040.
 NGot=   104857600 LenX=   104673418 LenY=   104583576
 Requested convergence on RMS density matrix=1.00D-08 within 128 cycles.
 Requested convergence on MAX density matrix=1.00D-06.
 Requested convergence on             energy=1.00D-06.
 No special actions if energy rises.
 Fock matrices will be formed incrementally for  20 cycles.

 Cycle   1  Pass 1  IDiag  1:
 FoFJK:  IHMeth= 1 ICntrl=       0 DoSepK=F KAlg= 0 I1Cent=           0 FoldK=F
 IRaf= 770000000 NMat=       1 IRICut=       1 DoRegI=T DoRafI=F ISym2E= 0 IDoP0=0 IntGTp=1.
 FoFCou: FMM=F IPFlag=           0 FMFlag=      100000 FMFlg1=           0
         NFxFlg=           0 DoJE=F BraDBF=F KetDBF=F FulRan=T
         wScrn=  0.000000 ICntrl=         0 IOpCl=  0 I1Cent=           0 NGrid=           0
         NMat0=    1 NMatS0=      1 NMatT0=    0 NMatD0=    1 NMtDS0=    0 NMtDT0=    0
 Symmetry not used in FoFCou.
 Inv3:  Mode=1 IEnd=    33087123.
 Iteration    1 A*A^-1 deviation from unit magnitude is 6.88D-15 for    820.
 Iteration    1 A*A^-1 deviation from orthogonality  is 3.44D-15 for   3316   1647.
 Iteration    1 A^-1*A deviation from unit magnitude is 6.44D-15 for    804.
 Iteration    1 A^-1*A deviation from orthogonality  is 8.67D-15 for   3308    836.
 E= -788.425561275810    
 DIIS: error= 3.45D-02 at cycle   1 NSaved=   1.
 NSaved= 1 IEnMin= 1 EnMin= -788.425561275810     IErMin= 1 ErrMin= 3.45D-02
 ErrMax= 3.45D-02  0.00D+00 EMaxC= 1.00D-01 BMatC= 4.53D-01 BMatP= 4.53D-01
 IDIUse=3 WtCom= 6.55D-01 WtEn= 3.45D-01
 Coeff-Com:  0.100D+01
 Coeff-En:   0.100D+01
 Coeff:      0.100D+01
 Gap=     0.233 Goal=   None    Shift=    0.000
 GapD=    0.233 DampG=1.000 DampE=0.500 DampFc=0.5000 IDamp=-1.
 Damping current iteration by 5.00D-01
 RMSDP=4.49D-03 MaxDP=1.31D-01              OVMax= 1.59D-01

 Cycle   2  Pass 1  IDiag  1:
 RMSU=  2.22D-03    CP:  9.81D-01
 E= -788.620564891619     Delta-E=       -0.195003615809 Rises=F Damp=T
 DIIS: error= 5.89D-03 at cycle   2 NSaved=   2.
 NSaved= 2 IEnMin= 2 EnMin= -788.620564891619     IErMin= 2 ErrMin= 5.89D-03
 ErrMax= 5.89D-03  0.00D+00 EMaxC= 1.00D-01 BMatC= 2.40D-02 BMatP= 4.53D-01
 IDIUse=3 WtCom= 9.41D-01 WtEn= 5.89D-02
 Coeff-Com:  0.586D-01 0.941D+00
 Coeff-En:   0.808D-01 0.919D+00
 Coeff:      0.599D-01 0.940D+00
 Gap=     0.254 Goal=   None    Shift=    0.000
 RMSDP=9.60D-04 MaxDP=2.42D-02 DE=-1.95D-01 OVMax= 9.18D-02

 Cycle   3  Pass 1  IDiag  1:
 RMSU=  9.47D-04    CP:  9.76D-01  9.45D-01
 E= -788.843509528940     Delta-E=       -0.222944637321 Rises=F Damp=F
 DIIS: error= 4.36D-03 at cycle   3 NSaved=   3.
 NSaved= 3 IEnMin= 3 EnMin= -788.843509528940     IErMin= 3 ErrMin= 4.36D-03
 ErrMax= 4.36D-03  0.00D+00 EMaxC= 1.00D-01 BMatC= 1.05D-02 BMatP= 2.40D-02
 IDIUse=3 WtCom= 9.56D-01 WtEn= 4.36D-02
 Coeff-Com: -0.150D-01 0.373D+00 0.642D+00
 Coeff-En:   0.000D+00 0.000D+00 0.100D+01
 Coeff:     -0.143D-01 0.357D+00 0.657D+00
 Gap=     0.216 Goal=   None    Shift=    0.000
 RMSDP=4.45D-04 MaxDP=1.83D-02 DE=-2.23D-01 OVMax= 2.27D-02

 Cycle   4  Pass 1  IDiag  1:
 RMSU=  3.81D-04    CP:  9.78D-01  9.52D-01  7.59D-01
 E= -788.849616346942     Delta-E=       -0.006106818003 Rises=F Damp=F
 DIIS: error= 2.02D-03 at cycle   4 NSaved=   4.
 NSaved= 4 IEnMin= 4 EnMin= -788.849616346942     IErMin= 4 ErrMin= 2.02D-03
 ErrMax= 2.02D-03  0.00D+00 EMaxC= 1.00D-01 BMatC= 2.93D-03 BMatP= 1.05D-02
 IDIUse=3 WtCom= 9.80D-01 WtEn= 2.02D-02
 Coeff-Com: -0.113D-01 0.687D-01 0.365D+00 0.577D+00
 Coeff-En:   0.000D+00 0.000D+00 0.230D+00 0.770D+00
 Coeff:     -0.110D-01 0.673D-01 0.363D+00 0.581D+00
 Gap=     0.214 Goal=   None    Shift=    0.000
 RMSDP=1.83D-04 MaxDP=6.80D-03 DE=-6.11D-03 OVMax= 9.96D-03

 Cycle   5  Pass 1  IDiag  1:
 RMSU=  7.84D-05    CP:  9.77D-01  9.60D-01  8.08D-01  5.87D-01
 E= -788.852012988152     Delta-E=       -0.002396641210 Rises=F Damp=F
 DIIS: error= 3.72D-04 at cycle   5 NSaved=   5.
 NSaved= 5 IEnMin= 5 EnMin= -788.852012988152     IErMin= 5 ErrMin= 3.72D-04
 ErrMax= 3.72D-04  0.00D+00 EMaxC= 1.00D-01 BMatC= 8.89D-05 BMatP= 2.93D-03
 IDIUse=3 WtCom= 9.96D-01 WtEn= 3.72D-03
 Coeff-Com: -0.399D-02 0.140D-01 0.136D+00 0.263D+00 0.591D+00
 Coeff-En:   0.000D+00 0.000D+00 0.000D+00 0.000D+00 0.100D+01
 Coeff:     -0.398D-02 0.139D-01 0.136D+00 0.262D+00 0.593D+00
 Gap=     0.214 Goal=   None    Shift=    0.000
 RMSDP=4.56D-05 MaxDP=1.78D-03 DE=-2.40D-03 OVMax= 4.09D-03

 Cycle   6  Pass 1  IDiag  1:
 RMSU=  3.16D-05    CP:  9.77D-01  9.61D-01  8.13D-01  6.07D-01  5.97D-01
 E= -788.852081233239     Delta-E=       -0.000068245087 Rises=F Damp=F
 DIIS: error= 2.03D-04 at cycle   6 NSaved=   6.
 NSaved= 6 IEnMin= 6 EnMin= -788.852081233239     IErMin= 6 ErrMin= 2.03D-04
 ErrMax= 2.03D-04  0.00D+00 EMaxC= 1.00D-01 BMatC= 1.80D-05 BMatP= 8.89D-05
 IDIUse=3 WtCom= 9.98D-01 WtEn= 2.03D-03
 Coeff-Com: -0.132D-02 0.211D-02 0.480D-01 0.104D+00 0.357D+00 0.490D+00
 Coeff-En:   0.000D+00 0.000D+00 0.000D+00 0.000D+00 0.171D+00 0.829D+00
 Coeff:     -0.131D-02 0.210D-02 0.479D-01 0.104D+00 0.357D+00 0.490D+00
 Gap=     0.214 Goal=   None    Shift=    0.000
 RMSDP=1.76D-05 MaxDP=7.07D-04 DE=-6.82D-05 OVMax= 1.83D-03

 Cycle   7  Pass 1  IDiag  1:
 RMSU=  6.55D-06    CP:  9.77D-01  9.60D-01  8.15D-01  6.07D-01  6.85D-01
                    CP:  5.38D-01
 E= -788.852099710492     Delta-E=       -0.000018477253 Rises=F Damp=F
 DIIS: error= 4.61D-05 at cycle   7 NSaved=   7.
 NSaved= 7 IEnMin= 7 EnMin= -788.852099710492     IErMin= 7 ErrMin= 4.61D-05
 ErrMax= 4.61D-05  0.00D+00 EMaxC= 1.00D-01 BMatC= 8.74D-07 BMatP= 1.80D-05
 IDIUse=1 WtCom= 1.00D+00 WtEn= 0.00D+00
 Coeff-Com: -0.482D-03 0.317D-03 0.184D-01 0.423D-01 0.163D+00 0.269D+00
 Coeff-Com:  0.508D+00
 Coeff:     -0.482D-03 0.317D-03 0.184D-01 0.423D-01 0.163D+00 0.269D+00
 Coeff:      0.508D+00
 Gap=     0.214 Goal=   None    Shift=    0.000
 RMSDP=3.68D-06 MaxDP=1.51D-04 DE=-1.85D-05 OVMax= 3.61D-04

 Cycle   8  Pass 1  IDiag  1:
 RMSU=  2.01D-06    CP:  9.77D-01  9.60D-01  8.15D-01  6.10D-01  6.78D-01
                    CP:  5.77D-01  6.05D-01
 E= -788.852100547747     Delta-E=       -0.000000837254 Rises=F Damp=F
 DIIS: error= 7.49D-06 at cycle   8 NSaved=   8.
 NSaved= 8 IEnMin= 8 EnMin= -788.852100547747     IErMin= 8 ErrMin= 7.49D-06
 ErrMax= 7.49D-06  0.00D+00 EMaxC= 1.00D-01 BMatC= 4.00D-08 BMatP= 8.74D-07
 IDIUse=1 WtCom= 1.00D+00 WtEn= 0.00D+00
 Coeff-Com: -0.603D-04-0.108D-03 0.267D-02 0.691D-02 0.302D-01 0.608D-01
 Coeff-Com:  0.217D+00 0.683D+00
 Coeff:     -0.603D-04-0.108D-03 0.267D-02 0.691D-02 0.302D-01 0.608D-01
 Coeff:      0.217D+00 0.683D+00
 Gap=     0.214 Goal=   None    Shift=    0.000
 RMSDP=8.43D-07 MaxDP=3.77D-05 DE=-8.37D-07 OVMax= 7.56D-05

 Cycle   9  Pass 1  IDiag  1:
 RMSU=  5.57D-07    CP:  9.77D-01  9.60D-01  8.15D-01  6.10D-01  6.81D-01
                    CP:  5.75D-01  6.40D-01  7.37D-01
 E= -788.852100579239     Delta-E=       -0.000000031492 Rises=F Damp=F
 DIIS: error= 2.26D-06 at cycle   9 NSaved=   9.
 NSaved= 9 IEnMin= 9 EnMin= -788.852100579239     IErMin= 9 ErrMin= 2.26D-06
 ErrMax= 2.26D-06  0.00D+00 EMaxC= 1.00D-01 BMatC= 5.12D-09 BMatP= 4.00D-08
 IDIUse=1 WtCom= 1.00D+00 WtEn= 0.00D+00
 Coeff-Com:  0.384D-05-0.814D-04 0.845D-04 0.610D-03 0.410D-02 0.124D-01
 Coeff-Com:  0.733D-01 0.346D+00 0.563D+00
 Coeff:      0.384D-05-0.814D-04 0.845D-04 0.610D-03 0.410D-02 0.124D-01
 Coeff:      0.733D-01 0.346D+00 0.563D+00
 Gap=     0.214 Goal=   None    Shift=    0.000
 RMSDP=3.14D-07 MaxDP=1.30D-05 DE=-3.15D-08 OVMax= 3.01D-05

 Cycle  10  Pass 1  IDiag  1:
 RMSU=  1.89D-07    CP:  9.77D-01  9.60D-01  8.15D-01  6.10D-01  6.81D-01
                    CP:  5.77D-01  6.48D-01  7.80D-01  6.16D-01
 E= -788.852100583786     Delta-E=       -0.000000004547 Rises=F Damp=F
 DIIS: error= 1.07D-06 at cycle  10 NSaved=  10.
 NSaved=10 IEnMin=10 EnMin= -788.852100583786     IErMin=10 ErrMin= 1.07D-06
 ErrMax= 1.07D-06  0.00D+00 EMaxC= 1.00D-01 BMatC= 5.42D-10 BMatP= 5.12D-09
 IDIUse=1 WtCom= 1.00D+00 WtEn= 0.00D+00
 Coeff-Com:  0.815D-05-0.297D-04-0.256D-03-0.451D-03-0.123D-02-0.226D-04
 Coeff-Com:  0.151D-01 0.109D+00 0.293D+00 0.585D+00
 Coeff:      0.815D-05-0.297D-04-0.256D-03-0.451D-03-0.123D-02-0.226D-04
 Coeff:      0.151D-01 0.109D+00 0.293D+00 0.585D+00
 Gap=     0.214 Goal=   None    Shift=    0.000
 RMSDP=1.09D-07 MaxDP=4.32D-06 DE=-4.55D-09 OVMax= 1.36D-05

 Cycle  11  Pass 1  IDiag  1:
 RMSU=  5.70D-08    CP:  9.77D-01  9.60D-01  8.15D-01  6.10D-01  6.81D-01
                    CP:  5.77D-01  6.48D-01  7.84D-01  7.15D-01  6.14D-01
 E= -788.852100584305     Delta-E=       -0.000000000519 Rises=F Damp=F
 DIIS: error= 3.23D-07 at cycle  11 NSaved=  11.
 NSaved=11 IEnMin=11 EnMin= -788.852100584305     IErMin=11 ErrMin= 3.23D-07
 ErrMax= 3.23D-07  0.00D+00 EMaxC= 1.00D-01 BMatC= 7.68D-11 BMatP= 5.42D-10
 IDIUse=1 WtCom= 1.00D+00 WtEn= 0.00D+00
 Coeff-Com:  0.409D-05-0.969D-05-0.155D-03-0.312D-03-0.107D-02-0.108D-02
 Coeff-Com:  0.219D-02 0.327D-01 0.123D+00 0.347D+00 0.498D+00
 Coeff:      0.409D-05-0.969D-05-0.155D-03-0.312D-03-0.107D-02-0.108D-02
 Coeff:      0.219D-02 0.327D-01 0.123D+00 0.347D+00 0.498D+00
 Gap=     0.214 Goal=   None    Shift=    0.000
 RMSDP=3.29D-08 MaxDP=1.52D-06 DE=-5.19D-10 OVMax= 3.38D-06

 Cycle  12  Pass 1  IDiag  1:
 RMSU=  1.44D-08    CP:  9.77D-01  9.60D-01  8.15D-01  6.10D-01  6.81D-01
                    CP:  5.77D-01  6.48D-01  7.88D-01  7.02D-01  6.87D-01
                    CP:  5.85D-01
 E= -788.852100584401     Delta-E=       -0.000000000096 Rises=F Damp=F
 DIIS: error= 3.66D-08 at cycle  12 NSaved=  12.
 NSaved=12 IEnMin=12 EnMin= -788.852100584401     IErMin=12 ErrMin= 3.66D-08
 ErrMax= 3.66D-08  0.00D+00 EMaxC= 1.00D-01 BMatC= 1.19D-12 BMatP= 7.68D-11
 IDIUse=1 WtCom= 1.00D+00 WtEn= 0.00D+00
 Coeff-Com:  0.538D-06-0.433D-06-0.295D-04-0.648D-04-0.237D-03-0.316D-03
 Coeff-Com: -0.472D-03 0.172D-02 0.147D-01 0.611D-01 0.150D+00 0.773D+00
 Coeff:      0.538D-06-0.433D-06-0.295D-04-0.648D-04-0.237D-03-0.316D-03
 Coeff:     -0.472D-03 0.172D-02 0.147D-01 0.611D-01 0.150D+00 0.773D+00
 Gap=     0.214 Goal=   None    Shift=    0.000
 RMSDP=5.59D-09 MaxDP=1.78D-07 DE=-9.57D-11 OVMax= 6.93D-07

 Error on total polarization charges =  0.00864
 SCF Done:  E(RB3LYP) =  -788.852100584     A.U. after   12 cycles
            NFock= 12  Conv=0.56D-08     -V/T= 2.0090
 KE= 7.818059119406D+02 PE=-4.291254439291D+03 EE= 1.483756123774D+03
 Leave Link  502 at Sun Jul 18 14:49:37 2021, MaxMem=   104857600 cpu:             876.5 elap:             227.5
 (Enter /dades/curu/g16A03_MST/g16/l601.exe)
 Copying SCF densities to generalized density rwf, IOpCl= 0 IROHF=0.

 **********************************************************************

            Population analysis using the SCF density.

 **********************************************************************

 Orbital symmetries:
       Occupied  (A) (A) (A) (A) (A) (A) (A) (A) (A) (A) (A) (A)
                 (A) (A) (A) (A) (A) (A) (A) (A) (A) (A) (A) (A)
                 (A) (A) (A) (A) (A) (A) (A) (A) (A) (A) (A) (A)
                 (A) (A) (A) (A) (A) (A) (A) (A) (A) (A) (A) (A)
                 (A) (A) (A) (A) (A) (A) (A) (A) (A) (A) (A) (A)
                 (A) (A) (A) (A) (A)
       Virtual   (A) (A) (A) (A) (A) (A) (A) (A) (A) (A) (A) (A)
                 (A) (A) (A) (A) (A) (A) (A) (A) (A) (A) (A) (A)
                 (A) (A) (A) (A) (A) (A) (A) (A) (A) (A) (A) (A)
                 (A) (A) (A) (A) (A) (A) (A) (A) (A) (A) (A) (A)
                 (A) (A) (A) (A) (A) (A) (A) (A) (A) (A) (A) (A)
                 (A) (A) (A) (A) (A) (A) (A) (A) (A) (A) (A) (A)
                 (A) (A) (A) (A) (A) (A) (A) (A) (A) (A) (A) (A)
                 (A) (A) (A) (A) (A) (A) (A) (A) (A) (A) (A) (A)
                 (A) (A) (A) (A) (A) (A) (A) (A) (A) (A) (A) (A)
                 (A) (A) (A) (A) (A) (A) (A) (A) (A) (A) (A) (A)
                 (A) (A) (A) (A) (A) (A) (A) (A) (A) (A) (A) (A)
                 (A) (A) (A) (A) (A) (A) (A) (A) (A) (A) (A) (A)
                 (A) (A) (A) (A) (A) (A) (A) (A) (A) (A) (A) (A)
                 (A) (A) (A) (A) (A) (A) (A) (A) (A) (A) (A) (A)
                 (A) (A) (A) (A) (A) (A) (A) (A) (A) (A) (A) (A)
                 (A) (A) (A) (A) (A) (A) (A) (A) (A) (A) (A) (A)
                 (A) (A) (A) (A) (A) (A) (A) (A) (A) (A) (A) (A)
                 (A) (A) (A) (A) (A) (A) (A) (A) (A) (A) (A) (A)
                 (A) (A) (A) (A) (A) (A) (A) (A) (A) (A) (A) (A)
                 (A) (A) (A) (A) (A) (A)
 The electronic state is 1-A.
 Alpha  occ. eigenvalues --  -19.18918 -19.18409 -19.15195 -14.47291 -10.28798
 Alpha  occ. eigenvalues --  -10.27928 -10.27795 -10.25967 -10.24760 -10.21941
 Alpha  occ. eigenvalues --  -10.21508 -10.21359 -10.21240 -10.20956 -10.20684
 Alpha  occ. eigenvalues --  -10.20555 -10.20209  -1.10546  -1.06730  -1.05070
 Alpha  occ. eigenvalues --   -1.01394  -0.86485  -0.85777  -0.80111  -0.77078
 Alpha  occ. eigenvalues --   -0.75425  -0.74082  -0.73169  -0.68447  -0.66749
 Alpha  occ. eigenvalues --   -0.63794  -0.62706  -0.62065  -0.60976  -0.56340
 Alpha  occ. eigenvalues --   -0.54722  -0.53486  -0.53022  -0.50894  -0.50010
 Alpha  occ. eigenvalues --   -0.48392  -0.48144  -0.47657  -0.46347  -0.45213
 Alpha  occ. eigenvalues --   -0.44409  -0.44100  -0.43621  -0.42911  -0.42626
 Alpha  occ. eigenvalues --   -0.42474  -0.41718  -0.40636  -0.40239  -0.37988
 Alpha  occ. eigenvalues --   -0.37745  -0.37042  -0.36690  -0.36348  -0.34149
 Alpha  occ. eigenvalues --   -0.31142  -0.30237  -0.28285  -0.26170  -0.24199
 Alpha virt. eigenvalues --   -0.02834  -0.02082   0.01919   0.03855   0.05900
 Alpha virt. eigenvalues --    0.06834   0.07074   0.08017   0.09544   0.10344
 Alpha virt. eigenvalues --    0.10743   0.11177   0.11524   0.12653   0.12820
 Alpha virt. eigenvalues --    0.13182   0.14005   0.14625   0.14970   0.15553
 Alpha virt. eigenvalues --    0.15777   0.16446   0.17500   0.18103   0.18477
 Alpha virt. eigenvalues --    0.19391   0.19531   0.20039   0.20619   0.21160
 Alpha virt. eigenvalues --    0.21667   0.22986   0.23486   0.24517   0.25662
 Alpha virt. eigenvalues --    0.26573   0.30078   0.33958   0.35107   0.37532
 Alpha virt. eigenvalues --    0.43798   0.45976   0.46750   0.47829   0.48362
 Alpha virt. eigenvalues --    0.49172   0.49579   0.51615   0.52252   0.52764
 Alpha virt. eigenvalues --    0.53770   0.54521   0.55139   0.55801   0.57476
 Alpha virt. eigenvalues --    0.57838   0.58306   0.58970   0.60242   0.61043
 Alpha virt. eigenvalues --    0.61948   0.62618   0.63629   0.64149   0.66391
 Alpha virt. eigenvalues --    0.68732   0.69031   0.70599   0.71281   0.72266
 Alpha virt. eigenvalues --    0.73162   0.75052   0.76021   0.77088   0.78112
 Alpha virt. eigenvalues --    0.79811   0.80299   0.80911   0.81846   0.82391
 Alpha virt. eigenvalues --    0.83043   0.83748   0.84270   0.85326   0.85601
 Alpha virt. eigenvalues --    0.86485   0.86503   0.87059   0.87628   0.87918
 Alpha virt. eigenvalues --    0.88512   0.89128   0.89620   0.90288   0.90980
 Alpha virt. eigenvalues --    0.92562   0.93371   0.94043   0.95145   0.95225
 Alpha virt. eigenvalues --    0.97240   0.97889   0.98511   0.98943   1.00010
 Alpha virt. eigenvalues --    1.01253   1.02499   1.02829   1.05625   1.07976
 Alpha virt. eigenvalues --    1.09118   1.10495   1.11725   1.14616   1.16976
 Alpha virt. eigenvalues --    1.18391   1.19546   1.20323   1.23169   1.24678
 Alpha virt. eigenvalues --    1.25937   1.29164   1.32020   1.34688   1.36496
 Alpha virt. eigenvalues --    1.38198   1.40551   1.42650   1.44553   1.47992
 Alpha virt. eigenvalues --    1.49271   1.51680   1.54189   1.56207   1.57474
 Alpha virt. eigenvalues --    1.60461   1.61240   1.61863   1.62944   1.65680
 Alpha virt. eigenvalues --    1.65926   1.67972   1.69205   1.70315   1.73204
 Alpha virt. eigenvalues --    1.73842   1.75378   1.78504   1.79456   1.80067
 Alpha virt. eigenvalues --    1.81406   1.82598   1.83298   1.85813   1.86372
 Alpha virt. eigenvalues --    1.89002   1.89181   1.89878   1.92246   1.95057
 Alpha virt. eigenvalues --    1.96111   1.97056   1.98651   2.02428   2.04152
 Alpha virt. eigenvalues --    2.05555   2.06869   2.07561   2.08723   2.10101
 Alpha virt. eigenvalues --    2.10616   2.11888   2.12478   2.13889   2.18365
 Alpha virt. eigenvalues --    2.20020   2.20770   2.21989   2.23032   2.23649
 Alpha virt. eigenvalues --    2.24410   2.24872   2.26235   2.27595   2.30005
 Alpha virt. eigenvalues --    2.30655   2.31359   2.33722   2.35014   2.38091
 Alpha virt. eigenvalues --    2.40015   2.40287   2.41602   2.44003   2.46454
 Alpha virt. eigenvalues --    2.46899   2.52504   2.56587   2.59318   2.60265
 Alpha virt. eigenvalues --    2.63174   2.64436   2.65608   2.68822   2.72067
 Alpha virt. eigenvalues --    2.72299   2.73020   2.75320   2.77119   2.79667
 Alpha virt. eigenvalues --    2.82487   2.87639   2.90037   2.93031   2.97192
 Alpha virt. eigenvalues --    3.16331   3.34057   3.72060   3.75135   3.91783
 Alpha virt. eigenvalues --    3.92963   4.08436   4.12347   4.17769   4.21523
 Alpha virt. eigenvalues --    4.25945   4.27819   4.28429   4.31722   4.40186
 Alpha virt. eigenvalues --    4.46166   4.50695   4.62336   4.75222
          Condensed to atoms (all electrons):
               1          2          3          4          5          6
     1  C    5.184712   0.375894   0.367993   0.367908   0.392960  -0.071678
     2  H    0.375894   0.513017  -0.029128  -0.017676  -0.031330  -0.004966
     3  H    0.367993  -0.029128   0.526979  -0.027911  -0.022394   0.005232
     4  H    0.367908  -0.017676  -0.027911   0.534138  -0.032287  -0.006120
     5  C    0.392960  -0.031330  -0.022394  -0.032287   4.843243   0.399420
     6  C   -0.071678  -0.004966   0.005232  -0.006120   0.399420   5.174800
     7  H    0.006689   0.000082  -0.000213  -0.000032  -0.034792   0.364345
     8  H   -0.002972   0.001949   0.000011  -0.000074  -0.020536   0.376957
     9  H   -0.006701  -0.000087  -0.000090   0.004484  -0.030751   0.365875
    10  C   -0.073688  -0.004869  -0.006279   0.006529   0.385413  -0.065218
    11  H    0.006410   0.000072   0.000004  -0.000247  -0.033202  -0.003917
    12  H   -0.008522  -0.000479   0.005104   0.000109  -0.034226   0.006205
    13  H   -0.003266   0.003123  -0.000102  -0.000150  -0.033906  -0.007585
    14  N   -0.071896   0.005561  -0.005330  -0.002713   0.225786  -0.074099
    15  H    0.005993  -0.000118  -0.000177  -0.000176  -0.019879  -0.002340
    16  C   -0.004133   0.000218   0.002973  -0.001816  -0.031046   0.005026
    17  H    0.007044   0.000031  -0.000623   0.000996  -0.007002  -0.000073
    18  H   -0.003923  -0.000045   0.000163   0.000196  -0.001840   0.000185
    19  C    0.000371  -0.000007   0.000152  -0.000044   0.003321  -0.000151
    20  O   -0.000008   0.000000  -0.000001   0.000000   0.000005   0.000002
    21  H    0.000000  -0.000000   0.000000  -0.000000   0.000009  -0.000000
    22  H   -0.000033  -0.000000   0.000003   0.000004  -0.000139   0.000002
    23  C   -0.000001  -0.000000   0.000003  -0.000000  -0.000017   0.000001
    24  C   -0.000001  -0.000000  -0.000000   0.000000   0.000000  -0.000000
    25  H   -0.000000  -0.000000   0.000000  -0.000000   0.000000  -0.000000
    26  C   -0.000000   0.000000  -0.000000   0.000000  -0.000000   0.000000
    27  C   -0.000000  -0.000000  -0.000000  -0.000000   0.000000  -0.000000
    28  O   -0.000000  -0.000000   0.000000  -0.000000   0.000000   0.000000
    29  H    0.000000   0.000000   0.000000  -0.000000  -0.000000   0.000000
    30  H   -0.000000  -0.000000  -0.000000   0.000000  -0.000000   0.000000
    31  H    0.000000   0.000000   0.000000   0.000000  -0.000000   0.000000
    32  C    0.000000   0.000000  -0.000000   0.000000   0.000000  -0.000000
    33  O    0.000000  -0.000000   0.000000   0.000000   0.000000  -0.000000
    34  H    0.000000   0.000000  -0.000000  -0.000000   0.000000  -0.000000
    35  C    0.000000   0.000000   0.000000  -0.000000  -0.000000   0.000000
    36  H   -0.000000   0.000000  -0.000000   0.000000   0.000000  -0.000000
    37  C    0.000001   0.000000   0.000000  -0.000000  -0.000005   0.000000
    38  H    0.000000  -0.000000  -0.000000  -0.000000  -0.000002  -0.000000
    39  H   -0.002778  -0.000106  -0.000298   0.003156  -0.024240  -0.004367
               7          8          9         10         11         12
     1  C    0.006689  -0.002972  -0.006701  -0.073688   0.006410  -0.008522
     2  H    0.000082   0.001949  -0.000087  -0.004869   0.000072  -0.000479
     3  H   -0.000213   0.000011  -0.000090  -0.006279   0.000004   0.005104
     4  H   -0.000032  -0.000074   0.004484   0.006529  -0.000247   0.000109
     5  C   -0.034792  -0.020536  -0.030751   0.385413  -0.033202  -0.034226
     6  C    0.364345   0.376957   0.365875  -0.065218  -0.003917   0.006205
     7  H    0.546937  -0.027186  -0.025162  -0.006044   0.002899  -0.000089
     8  H   -0.027186   0.488540  -0.017446  -0.003427  -0.000048  -0.000008
     9  H   -0.025162  -0.017446   0.528572   0.005969  -0.000121  -0.000239
    10  C   -0.006044  -0.003427   0.005969   5.166351   0.368845   0.370089
    11  H    0.002899  -0.000048  -0.000121   0.368845   0.525617  -0.026521
    12  H   -0.000089  -0.000008  -0.000239   0.370089  -0.026521   0.531612
    13  H   -0.000058   0.003574   0.000215   0.376635  -0.014070  -0.021889
    14  N   -0.003578   0.004005  -0.004862  -0.072578  -0.005029  -0.002039
    15  H    0.004401  -0.000119  -0.000388  -0.005422   0.007911  -0.000460
    16  C    0.000051  -0.000088  -0.000129  -0.006298  -0.000581   0.000406
    17  H   -0.000005   0.000002   0.000002  -0.000093   0.000004   0.000096
    18  H   -0.000012   0.000005  -0.000006   0.006244   0.000006   0.002992
    19  C   -0.000006   0.000001  -0.000002  -0.000137   0.000002  -0.000078
    20  O   -0.000010  -0.000000   0.000000  -0.000011  -0.000002   0.000003
    21  H    0.000000   0.000000  -0.000000  -0.000000  -0.000000   0.000000
    22  H   -0.000000  -0.000000   0.000000   0.000003   0.000002  -0.000002
    23  C   -0.000000  -0.000000  -0.000000   0.000003  -0.000006   0.000006
    24  C    0.000000  -0.000000   0.000000  -0.000000   0.000000   0.000000
    25  H   -0.000000   0.000000  -0.000000  -0.000000  -0.000000  -0.000000
    26  C   -0.000000  -0.000000   0.000000  -0.000000   0.000000  -0.000000
[...]
    39  H   -0.007233   0.003263  -0.004744  -0.015400   0.001477   0.011284
              13         14         15         16         17         18
     1  C   -0.034947   0.275305  -0.036832  -0.182547  -0.123995   0.063504
     2  H   -0.020644   0.011017  -0.010483  -0.024875  -0.009955   0.017634
     3  H    0.000444  -0.057320   0.016700   0.129633   0.022331  -0.026038
     4  H    0.004211  -0.017451  -0.003067   0.050609  -0.010292  -0.018833
     5  C   -0.191872  -1.677286  -0.072558  -0.183116   0.096979   0.018962
     6  C    0.081296   0.184190  -0.005137  -0.040931  -0.004963   0.038965
     7  H   -0.008360   0.010793  -0.017890  -0.035754  -0.002512   0.006507
     8  H   -0.013984   0.033484   0.005730   0.021447  -0.000934  -0.006574
     9  H    0.011006  -0.128831  -0.002486   0.056668   0.005900   0.004177
    10  C    0.303900   0.152019   0.009947  -0.029533   0.025829  -0.044552
    11  H   -0.280892  -0.084755   0.012798   0.096939  -0.001749   0.015083
    12  H   -0.336844  -0.050330  -0.024815   0.014742  -0.027367  -0.013537
    13  H    1.425335   0.068533   0.009800   0.005830   0.008113  -0.012395
    14  N    0.068533   9.999553   0.273771  -1.116619  -0.267825  -0.063634
    15  H    0.009800   0.273771   0.634495   0.124728   0.081664  -0.063219
    16  C    0.005830  -1.116619   0.124728   7.347926   0.064170  -0.005515
    17  H    0.008113  -0.267825   0.081664   0.064170   1.806670  -0.219005
    18  H   -0.012395  -0.063634  -0.063219  -0.005515  -0.219005   1.809380
    19  C   -0.005591  -1.083519  -0.002827   0.052998   0.196307  -0.664064
    20  O    0.001623   0.028970   0.026832  -0.068144   0.029765   0.051619
    21  H   -0.000163  -0.005401  -0.003767  -0.029977   0.002526  -0.015535
    22  H    0.000494   0.004596  -0.007958   0.225832  -0.082228   0.105324
    23  C    0.006146   0.968369  -0.104620  -0.329426  -0.196565   0.003035
    24  C    0.000334  -0.139815  -0.007470  -0.591242   0.017500   0.132684
    25  H   -0.000110   0.011805  -0.005438   0.082766  -0.039911   0.035950
    26  C    0.000726   0.019889  -0.007288   0.066232  -0.021747   0.011370
    27  C    0.000021   0.005271  -0.000392  -0.040066  -0.007559  -0.000339
    28  O    0.000001  -0.000211   0.000091  -0.000434   0.002729   0.000104
    29  H    0.000003   0.000264   0.000032  -0.002861   0.000651  -0.000469
    30  H   -0.000002  -0.000368  -0.000045  -0.007007   0.001343  -0.000880
    31  H    0.000003   0.000273  -0.000013   0.002878  -0.000504   0.000695
    32  C   -0.000539  -0.004975  -0.001586  -0.117519  -0.013515   0.006409
    33  O    0.000003  -0.000095   0.000068  -0.002040   0.000976  -0.000209
    34  H   -0.000004   0.000078  -0.000014   0.000255   0.000122  -0.000349
    35  C    0.000186   0.052143   0.013275   0.356989   0.005729  -0.029324
    36  H    0.000062   0.000926   0.000149  -0.007237  -0.001129  -0.002561
    37  C   -0.003529   0.003222  -0.005214  -0.707121  -0.012567   0.078221
    38  H    0.000494   0.016047   0.004551   0.076271   0.012609  -0.025922
    39  H   -0.007302   0.315872  -0.106290  -0.024598  -0.074582   0.034108
              19         20         21         22         23         24
     1  C   -0.089900   0.001067  -0.000722   0.003440   0.098082   0.004632
     2  H    0.014422  -0.000532   0.000178  -0.000018  -0.001646   0.001077
     3  H   -0.036899   0.001316  -0.000343   0.000137  -0.012579   0.005290
     4  H    0.008242   0.000493  -0.000067   0.003325   0.007579   0.002691
     5  C   -0.081640   0.040648  -0.003157   0.004832  -0.090577  -0.044446
     6  C   -0.096079   0.004263  -0.002441   0.009560   0.019775   0.006158
     7  H    0.006677   0.001063  -0.000042   0.000332   0.001389   0.001383
     8  H   -0.003275   0.000785   0.000021   0.000762   0.001292  -0.001238
     9  H   -0.006338  -0.002300  -0.000262   0.003110  -0.008441   0.002814
    10  C   -0.018869   0.005193  -0.000158   0.000050   0.074210  -0.008809
    11  H   -0.036298   0.000163   0.000282  -0.003739  -0.001978  -0.006550
    12  H    0.117200  -0.009316   0.001059   0.001684  -0.039330   0.008299
    13  H   -0.005591   0.001623  -0.000163   0.000494   0.006146   0.000334
    14  N   -1.083519   0.028970  -0.005401   0.004596   0.968369  -0.139815
    15  H   -0.002827   0.026832  -0.003767  -0.007958  -0.104620  -0.007470
    16  C    0.052998  -0.068144  -0.029977   0.225832  -0.329426  -0.591242
    17  H    0.196307   0.029765   0.002526  -0.082228  -0.196565   0.017500
    18  H   -0.664064   0.051619  -0.015535   0.105324   0.003035   0.132684
    19  C   15.717849  -0.894610   0.208023  -1.000629  -5.025018  -1.174068
    20  O   -0.894610   9.020857   0.319276   0.003382   0.300236  -0.156043
    21  H    0.208023   0.319276   0.526376  -0.070125  -0.140874   0.003002
    22  H   -1.000629   0.003382  -0.070125   1.705010   0.564550   0.021983
    23  C   -5.025018   0.300236  -0.140874   0.564550  24.078965  -7.064292
    24  C   -1.174068  -0.156043   0.003002   0.021983  -7.064292  23.555584
    25  H   -0.303602   0.016406   0.002533  -0.079076   0.867654  -1.755158
    26  C   -1.226242  -0.004168  -0.013119   0.025602   2.774386  -3.512809
    27  C   -0.300275   0.001818  -0.002937   0.012234  -0.552940  -0.969325
    28  O   -0.003180   0.000256   0.000043   0.000476   0.020266   0.270980
    29  H   -0.008514   0.000029  -0.000116   0.002612  -0.033074  -0.035112
    30  H    0.017151   0.000034  -0.000006   0.002712   0.136939  -0.049298
    31  H   -0.005884   0.000030  -0.000188  -0.000138   0.011500  -0.055208
    32  C    0.265503   0.004592   0.002120   0.000355  -5.421499   1.269684
    33  O    0.016754  -0.000119   0.000181   0.000570   0.169273   0.026311
    34  H    0.001701   0.000086   0.000017  -0.000204  -0.004941   0.040917
    35  C    0.164733  -0.081677   0.009985  -0.008929   2.936590  -5.084969
    36  H   -0.002924   0.000431   0.000097  -0.001070  -0.542477   0.197611
    37  C   -0.513004   0.318930   0.019466  -0.179528  -9.212354   1.126193
    38  H    0.136933  -0.055114  -0.003957   0.023043   0.985237  -0.189021
    39  H    0.061010   0.003094  -0.000192  -0.020598  -0.054975   0.012388
              25         26         27         28         29         30
     1  C    0.006025   0.010051   0.000975  -0.000082  -0.000077  -0.000019
     2  H    0.001212  -0.000186   0.000058  -0.000004  -0.000008  -0.000004
     3  H   -0.000861  -0.005671  -0.000001  -0.000141  -0.000052  -0.000011
     4  H   -0.001731   0.004797   0.000175   0.000005   0.000021   0.000036
     5  C   -0.001074  -0.031455  -0.000031   0.000062   0.000056  -0.000125
     6  C    0.000869   0.002087   0.000325  -0.000006  -0.000010   0.000049
     7  H    0.000309   0.000153   0.000038  -0.000003  -0.000003   0.000006
     8  H   -0.000163  -0.000054   0.000018  -0.000001   0.000000   0.000002
     9  H   -0.000234   0.000390   0.000023   0.000007   0.000003   0.000002
    10  C   -0.002969   0.011079  -0.000009   0.000017   0.000041  -0.000051
    11  H    0.000212   0.000054  -0.000136   0.000005   0.000000  -0.000017
    12  H   -0.001769  -0.000253   0.000265   0.000008   0.000014   0.000105
    13  H   -0.000110   0.000726   0.000021   0.000001   0.000003  -0.000002
    14  N    0.011805   0.019889   0.005271  -0.000211   0.000264  -0.000368
    15  H   -0.005438  -0.007288  -0.000392   0.000091   0.000032  -0.000045
    16  C    0.082766   0.066232  -0.040066  -0.000434  -0.002861  -0.007007
    17  H   -0.039911  -0.021747  -0.007559   0.002729   0.000651   0.001343
    18  H    0.035950   0.011370  -0.000339   0.000104  -0.000469  -0.000880
    19  C   -0.303602  -1.226242  -0.300275  -0.003180  -0.008514   0.017151
    20  O    0.016406  -0.004168   0.001818   0.000256   0.000029   0.000034
    21  H    0.002533  -0.013119  -0.002937   0.000043  -0.000116  -0.000006
    22  H   -0.079076   0.025602   0.012234   0.000476   0.002612   0.002712
    23  C    0.867654   2.774386  -0.552940   0.020266  -0.033074   0.136939
    24  C   -1.755158  -3.512809  -0.969325   0.270980  -0.035112  -0.049298
    25  H    2.467158   0.461902   0.036769  -0.060946  -0.015704  -0.010926
    26  C    0.461902  16.430094  -0.539644   0.314779   0.001680   0.055399
    27  C    0.036769  -0.539644   6.990467  -0.606937   0.111985   0.324160
    28  O   -0.060946   0.314779  -0.606937   8.788399   0.264497  -0.127013
    29  H   -0.015704   0.001680   0.111985   0.264497   0.589776   0.013044
    30  H   -0.010926   0.055399   0.324160  -0.127013   0.013044   0.983426
    31  H    0.019728   0.142750  -0.107283  -0.003578  -0.060556  -0.125765
    32  C   -0.072550  -5.425949  -0.265751  -0.164067   0.034720  -0.216828
    33  O   -0.004254   0.543209   0.068949  -0.002854   0.001822   0.023254
    34  H   -0.004683   0.142343  -0.072013   0.010820  -0.000621  -0.016167
    35  C    0.015796   0.833398   0.237414  -0.039492   0.007051  -0.077679
    36  H    0.009846  -0.179364   0.015344  -0.000565  -0.000179  -0.000422
    37  C    0.133959  -4.627105   0.304015   0.000249  -0.006674  -0.006605
    38  H   -0.036589   0.057065  -0.008564  -0.000192   0.000756  -0.000139
    39  H    0.010471  -0.007475  -0.000786  -0.000359  -0.000203  -0.000076
              31         32         33         34         35         36
     1  C    0.000062   0.000604  -0.000039   0.000006  -0.006662  -0.000129
     2  H    0.000004   0.000195  -0.000004   0.000002  -0.000191  -0.000022
     3  H    0.000023   0.002577  -0.000032   0.000011  -0.005704  -0.000097
     4  H   -0.000003  -0.000440  -0.000002  -0.000004  -0.000118   0.000029
     5  C    0.000031   0.007170  -0.000021   0.000064   0.008493  -0.000815
     6  C    0.000010   0.000509  -0.000003  -0.000003  -0.004634  -0.000092
     7  H    0.000002   0.000204  -0.000001   0.000000  -0.000932  -0.000038
     8  H    0.000000   0.000001  -0.000000   0.000000   0.000151   0.000002
     9  H    0.000000   0.000017   0.000000  -0.000001  -0.000438   0.000005
    10  C    0.000014  -0.008420   0.000019  -0.000048   0.013172   0.000938
    11  H   -0.000001  -0.000768   0.000006  -0.000005   0.006424   0.000093
    12  H   -0.000036  -0.000137   0.000049   0.000009  -0.002207  -0.000093
    13  H    0.000003  -0.000539   0.000003  -0.000004   0.000186   0.000062
    14  N    0.000273  -0.004975  -0.000095   0.000078   0.052143   0.000926
    15  H   -0.000013  -0.001586   0.000068  -0.000014   0.013275   0.000149
    16  C    0.002878  -0.117519  -0.002040   0.000255   0.356989  -0.007237
    17  H   -0.000504  -0.013515   0.000976   0.000122   0.005729  -0.001129
    18  H    0.000695   0.006409  -0.000209  -0.000349  -0.029324  -0.002561
    19  C   -0.005884   0.265503   0.016754   0.001701   0.164733  -0.002924
    20  O    0.000030   0.004592  -0.000119   0.000086  -0.081677   0.000431
    21  H   -0.000188   0.002120   0.000181   0.000017   0.009985   0.000097
    22  H   -0.000138   0.000355   0.000570  -0.000204  -0.008929  -0.001070
    23  C    0.011500  -5.421499   0.169273  -0.004941   2.936590  -0.542477
    24  C   -0.055208   1.269684   0.026311   0.040917  -5.084969   0.197611
    25  H    0.019728  -0.072550  -0.004254  -0.004683   0.015796   0.009846
    26  C    0.142750  -5.425949   0.543209   0.142343   0.833398  -0.179364
    27  C   -0.107283  -0.265751   0.068949  -0.072013   0.237414   0.015344
    28  O   -0.003578  -0.164067  -0.002854   0.010820  -0.039492  -0.000565
    29  H   -0.060556   0.034720   0.001822  -0.000621   0.007051  -0.000179
    30  H   -0.125765  -0.216828   0.023254  -0.016167  -0.077679  -0.000422
    31  H    1.132082   0.021274  -0.026404   0.015467   0.048347   0.000541
    32  C    0.021274  17.159990  -1.014643  -0.052232  -4.748466   1.452409
    33  O   -0.026404  -1.014643   9.069333   0.287491   0.017888  -0.086762
    34  H    0.015467  -0.052232   0.287491   0.546324  -0.081530  -0.002705
    35  C    0.048347  -4.748466   0.017888  -0.081530  19.561566  -1.844282
    36  H    0.000541   1.452409  -0.086762  -0.002705  -1.844282   1.907073
    37  C   -0.010715   3.376025  -0.149684   0.012275  -7.310878   0.716163
    38  H   -0.000992  -0.328588  -0.003794  -0.000678   0.949836  -0.106678
    39  H    0.000033   0.003424  -0.000047   0.000048  -0.004887  -0.000226
              37         38         39
     1  C   -0.001859   0.001175   0.036986
     2  H    0.002386  -0.000046   0.014257
     3  H    0.004466  -0.001406  -0.021601
     4  H   -0.006367   0.000265   0.003455
     5  C    0.116455  -0.005909  -0.077564
     6  C   -0.011557   0.000491  -0.016305
     7  H    0.000126   0.000049  -0.007233
     8  H    0.000398  -0.000098   0.003263
     9  H   -0.002622  -0.000028  -0.004744
    10  C   -0.073569   0.004399  -0.015400
    11  H    0.005165  -0.000786   0.001477
    12  H   -0.013748   0.001004   0.011284
    13  H   -0.003529   0.000494  -0.007302
    14  N    0.003222   0.016047   0.315872
    15  H   -0.005214   0.004551  -0.106290
    16  C   -0.707121   0.076271  -0.024598
    17  H   -0.012567   0.012609  -0.074582
    18  H    0.078221  -0.025922   0.034108
    19  C   -0.513004   0.136933   0.061010
    20  O    0.318930  -0.055114   0.003094
    21  H    0.019466  -0.003957  -0.000192
    22  H   -0.179528   0.023043  -0.020598
    23  C   -9.212354   0.985237  -0.054975
    24  C    1.126193  -0.189021   0.012388
    25  H    0.133959  -0.036589   0.010471
    26  C   -4.627105   0.057065  -0.007475
    27  C    0.304015  -0.008564  -0.000786
    28  O    0.000249  -0.000192  -0.000359
    29  H   -0.006674   0.000756  -0.000203
    30  H   -0.006605  -0.000139  -0.000076
    31  H   -0.010715  -0.000992   0.000033
    32  C    3.376025  -0.328588   0.003424
    33  O   -0.149684  -0.003794  -0.000047
    34  H    0.012275  -0.000678   0.000048
    35  C   -7.310878   0.949836  -0.004887
    36  H    0.716163  -0.106678  -0.000226
    37  C   23.856683  -2.085585   0.035558
    38  H   -2.085585   2.345206  -0.002093
    39  H    0.035558  -0.002093   0.679359
 Mulliken charges:
               1
     1  C    1.338903
     2  H    0.008971
     3  H   -0.036417
     4  H   -0.030823
     5  C   -3.454224
     6  C    1.310198
     7  H    0.000613
     8  H    0.044301
     9  H   -0.015142
    10  C    1.300691
    11  H   -0.004788
    12  H   -0.023289
    13  H   -0.011387
    14  N   -0.737956
    15  H    0.274777
    16  C    0.769650
    17  H   -0.263008
    18  H   -0.220776
    19  C    1.597746
    20  O   -0.911231
    21  H    0.198366
    22  H   -0.271768
    23  C    0.812130
    24  C    0.137361
    25  H   -0.783625
    26  C   -0.306903
    27  C    1.364666
    28  O   -0.663731
    29  H    0.135179
    30  H    0.081793
    31  H    0.001519
    32  C    0.250689
    33  O   -0.935152
    34  H    0.178164
    35  C    0.093834
    36  H   -0.521852
    37  C    0.830328
    38  H   -0.759255
    39  H    0.221450
 Sum of Mulliken charges =   1.00000
 Mulliken charges with hydrogens summed into heavy atoms:
               1
     1  C    1.280633
     5  C   -3.454224
     6  C    1.339969
    10  C    1.261228
    14  N   -0.241730
    16  C    0.285866
    19  C    1.325977
    20  O   -0.712865
    23  C    0.812130
    24  C   -0.646264
    26  C   -0.306903
    27  C    1.447978
    28  O   -0.528553
    32  C    0.250689
    33  O   -0.756989
    35  C   -0.428017
    37  C    0.071073
 Electronic spatial extent (au):  <R**2>=           6463.4046
 Charge=              1.0000 electrons
 Dipole moment (field-independent basis, Debye):
    X=              9.6066    Y=             -1.5956    Z=              1.9532  Tot=              9.9321
 Quadrupole moment (field-independent basis, Debye-Ang):
   XX=            -33.8547   YY=           -101.5073   ZZ=            -90.6611
   XY=             -2.5758   XZ=             -2.3406   YZ=             -1.0067
 Traceless Quadrupole moment (field-independent basis, Debye-Ang):
   XX=             41.4863   YY=            -26.1663   ZZ=            -15.3200
   XY=             -2.5758   XZ=             -2.3406   YZ=             -1.0067
 Octapole moment (field-independent basis, Debye-Ang**2):
  XXX=            116.6837  YYY=             23.9766  ZZZ=             28.7250  XYY=             36.2697
  XXY=            -43.2512  XXZ=            -16.3743  XZZ=              9.1622  YZZ=            -10.6721
  YYZ=              9.2391  XYZ=             -1.9960
 Hexadecapole moment (field-independent basis, Debye-Ang**3):
 XXXX=          -5047.0674 YYYY=          -1126.8321 ZZZZ=           -519.2497 XXXY=            109.4037
 XXXZ=            -16.3278 YYYX=            -93.9580 YYYZ=            -14.8890 ZZZX=            -11.6754
 ZZZY=             21.2150 XXYY=          -1356.6120 XXZZ=          -1088.5537 YYZZ=           -248.6590
 XXYZ=             -3.6236 YYXZ=            -14.2353 ZZXY=             47.8852
 N-N= 1.244466535435D+03 E-N=-4.305970574901D+03  KE= 7.830259090882D+02
 Leave Link  601 at Sun Jul 18 19:01:25 2021, MaxMem=   262144000 cpu:               0.8 elap:               0.6
 (Enter /dades/curu/g16A03_MST/g16/l9999.exe)
 1\1\GINC-PIRINEUS34\SP\RMP2-FC\Aug-CC-pVDZ\C13H22N1O3(1+)\UBATOR02\18-
 Jul-2021\0\\#p mp2/aug-cc-pVDZ scf=tight maxdisk=180GB geom=allcheck\\
 SET_328_BBB301_conf1.geo_165_105_270 geometry\\1,1\C,0,2.8893361079,-0
 .1034957468,2.4220249236\H,0,3.353443127,-0.2697013364,3.3964604371\H,
 0,1.9545966042,0.4364267156,2.5887118327\H,0,3.5616422312,0.5295537652
 ,1.8384290945\C,0,2.6588660239,-1.456003322,1.7471621815\C,0,3.9835717
 01,-2.1905022204,1.5114366688\H,0,3.8300528642,-3.1422419408,0.9950035
 031\H,0,4.4458712395,-2.4059266396,2.4772067623\H,0,4.6883833606,-1.58
 43775915,0.9324853882\C,0,1.6906989078,-2.3272249853,2.5510931877\H,0,
 1.4847409283,-3.2768742917,2.0479768123\H,0,0.7436555297,-1.8217487583
 ,2.7481742423\H,0,2.1466537474,-2.5538992023,3.5170709567\N,0,2.046356
 7308,-1.2015791856,0.3542647216\H,0,1.8753281683,-2.102806611,-0.11825
 85865\C,0,0.7530172639,-0.4359000832,0.3018308409\H,0,0.9500045472,0.5
 978103023,0.5768704148\H,0,0.0787657055,-0.8848364571,1.0288414329\C,0
 ,0.1413010796,-0.5380830588,-1.0965605995\O,0,0.0771191012,-1.93854333
 77,-1.344903205\H,0,-0.2354821186,-2.079249867,-2.2522962896\H,0,0.808
 093831,-0.0475954326,-1.8181995928\C,0,-1.2103189605,0.1412883222,-1.1
 407020952\C,0,-1.3239542783,1.4722674066,-1.5474035287\H,0,-0.45019266
 42,2.0291992569,-1.8716919697\C,0,-2.5541872455,2.1316641977,-1.566965
 902\C,0,-2.6396486418,3.5818794904,-2.007448804\O,0,-1.4961031309,4.02
 88889413,-2.7122471005\H,0,-1.4651257431,3.5494673565,-3.5559100737\H,
 0,-2.7197072546,4.2404727445,-1.1355342211\H,0,-3.5496590462,3.7428856
 909,-2.6070626279\C,0,-3.6992066029,1.4212700262,-1.1647126484\O,0,-4.
 9482162835,1.9696698376,-1.1447010468\H,0,-4.9238171481,2.8939867786,-
 1.4371618111\C,0,-3.5992475232,0.0844659392,-0.7678568317\H,0,-4.50398
 82415,-0.4395413118,-0.478113713\C,0,-2.3631149389,-0.5483631519,-0.75
 21710422\H,0,-2.2842280958,-1.5887107313,-0.4582937218\H,0,2.743699117
 6,-0.7219915087,-0.2368479897\\Version=ES64L-G16RevA.03\State=1-A\HF=-
 784.03404\MP2=-786.6668435\RMSD=6.296e-09\PG=C01 [X(C13H22N1O3)]\\@


 THE SCIENTIFIC THEORIST IS NOT TO BE ENVIED. FOR NATURE, OR MORE
 PRECISELY EXPERIMENT, IS AN INEXORABLE AND NOT VERY FRIENDLY JUDGE OF HIS
 WORK.  IT NEVER SAYS "YES" TO A THEORY. IN THE MOST FAVORABLE CASES
 IT SAYS "MAYBE", AND IN THE GREAT MAJORITY OF CASES SIMPLY "NO"...
 PROBABLY EVERY THEORY WILL SOME DAY EXPERIENCE ITS "NO" - MOST
 THEORIES, SOON AFTER CONCEPTION.  -- A.EINSTEIN, NOV 11, 1922.
 Job cpu time:       0 days  3 hours 25 minutes 36.7 seconds.
 Elapsed time:       0 days  1 hours 11 minutes 31.4 seconds.
 File lengths (MBytes):  RWF=  99160 Int=      0 D2E=      0 Chk=     28 Scr=      1
 Normal termination of Gaussian 16 at Sun Jul 18 19:01:27 2021.
