 Entering Gaussian System, Link 0=g16
 Input=SET_328_BBB301_conf1.geo_090_285_255_OCTANOL.dat
 Output=SET_328_BBB301_conf1.geo_090_285_255_OCTANOL.log
 Initial command:
 /dades/curu/g16A03_MST/g16/l1.exe "/tmp/ubator02/1839647/Gau-102206.inp" -scrdir="/tmp/ubator02/1839647/"
 Entering Link 1 = /dades/curu/g16A03_MST/g16/l1.exe PID=    102207.
  
 Copyright (c) 1988,1990,1992,1993,1995,1998,2003,2009,2016,
            Gaussian, Inc.  All Rights Reserved.
  
 This is part of the Gaussian(R) 16 program.  It is based on
 the Gaussian(R) 09 system (copyright 2009, Gaussian, Inc.),
 the Gaussian(R) 03 system (copyright 2003, Gaussian, Inc.),
 the Gaussian(R) 98 system (copyright 1998, Gaussian, Inc.),
 the Gaussian(R) 94 system (copyright 1995, Gaussian, Inc.),
 the Gaussian 92(TM) system (copyright 1992, Gaussian, Inc.),
 the Gaussian 90(TM) system (copyright 1990, Gaussian, Inc.),
 the Gaussian 88(TM) system (copyright 1988, Gaussian, Inc.),
 the Gaussian 86(TM) system (copyright 1986, Carnegie Mellon
 University), and the Gaussian 82(TM) system (copyright 1983,
 Carnegie Mellon University). Gaussian is a federally registered
 trademark of Gaussian, Inc.
  
 This software contains proprietary and confidential information,
 including trade secrets, belonging to Gaussian, Inc.
  
 This software is provided under written license and may be
 used, copied, transmitted, or stored only in accord with that
 written license.
  
 The following legend is applicable only to US Government
 contracts under FAR:
  
                    RESTRICTED RIGHTS LEGEND
  
 Use, reproduction and disclosure by the US Government is
 subject to restrictions as set forth in subparagraphs (a)
 and (c) of the Commercial Computer Software - Restricted
 Rights clause in FAR 52.227-19.
  
 Gaussian, Inc.
 340 Quinnipiac St., Bldg. 40, Wallingford CT 06492
  
  
 ---------------------------------------------------------------
 Warning -- This program may not be used in any manner that
 competes with the business of Gaussian, Inc. or will provide
 assistance to any competitor of Gaussian, Inc.  The licensee
 of this program is prohibited from giving any competitor of
 Gaussian, Inc. access to this program.  By using this program,
 the user acknowledges that Gaussian, Inc. is engaged in the
 business of creating and licensing software in the field of
 computational chemistry and represents and warrants to the
 licensee that it is not a competitor of Gaussian, Inc. and that
 it will not use this program in any manner prohibited above.
 ---------------------------------------------------------------
  

 Cite this work as:
 Gaussian 16, Revision A.03,
 M. J. Frisch, G. W. Trucks, H. B. Schlegel, G. E. Scuseria, 
 M. A. Robb, J. R. Cheeseman, G. Scalmani, V. Barone, 
 G. A. Petersson, H. Nakatsuji, X. Li, M. Caricato, A. V. Marenich, 
 J. Bloino, B. G. Janesko, R. Gomperts, B. Mennucci, H. P. Hratchian, 
 J. V. Ortiz, A. F. Izmaylov, J. L. Sonnenberg, D. Williams-Young, 
 F. Ding, F. Lipparini, F. Egidi, J. Goings, B. Peng, A. Petrone, 
 T. Henderson, D. Ranasinghe, V. G. Zakrzewski, J. Gao, N. Rega, 
 G. Zheng, W. Liang, M. Hada, M. Ehara, K. Toyota, R. Fukuda, 
 J. Hasegawa, M. Ishida, T. Nakajima, Y. Honda, O. Kitao, H. Nakai, 
 T. Vreven, K. Throssell, J. A. Montgomery, Jr., J. E. Peralta, 
 F. Ogliaro, M. J. Bearpark, J. J. Heyd, E. N. Brothers, K. N. Kudin, 
 V. N. Staroverov, T. A. Keith, R. Kobayashi, J. Normand, 
 K. Raghavachari, A. P. Rendell, J. C. Burant, S. S. Iyengar, 
 J. Tomasi, M. Cossi, J. M. Millam, M. Klene, C. Adamo, R. Cammi, 
 J. W. Ochterski, R. L. Martin, K. Morokuma, O. Farkas, 
 J. B. Foresman, and D. J. Fox, Gaussian, Inc., Wallingford CT, 2016.
 
 ******************************************
 Gaussian 16:  ES64L-G16RevA.03 25-Dec-2016
                18-Jul-2021 
 ******************************************
 %mem=800MB
 %nproc=4
 Will use up to    4 processors via shared memory.
 %chk=SET_328_BBB301_conf1.geo_090_285_255.chk
 ---------------------------------------------------------------
 #p b3lyp/6-31G(d) opt freq scrf=(iefpcm,read,solvent=n-octanol)
 ---------------------------------------------------------------
 1/18=20,19=15,26=3,38=1,40=2/1,3;
 2/9=110,12=2,17=6,18=5,40=1/2;
 3/5=1,6=6,7=1,11=2,25=1,30=1,70=2203,71=1,72=25,74=-5/1,2,3;
 4//1;
 5/5=2,38=5,53=25/2;
 6/7=2,8=2,9=2,10=2,28=1/1;
 7//1,2,3,16;
 1/18=20,19=15,26=3/3(2);
 2/9=110/2;
 99//99;
 2/9=110/2;
 3/5=1,6=6,7=1,11=2,25=1,30=1,70=2205,71=1,72=25,74=-5/1,2,3;
 4/5=5,16=3,69=1/1;
 5/5=2,38=5,53=25/2;
 7//1,2,3,16;
 1/18=20,19=15,26=3/3(-5);
 2/9=110/2;
 6/7=2,8=2,9=2,10=2,19=2,28=1/1;
 99/9=1/99;
 Leave Link    1 at Sun Jul 18 14:43:58 2021, MaxMem=   104857600 cpu:               0.0 elap:               0.0
 (Enter /dades/curu/g16A03_MST/g16/l101.exe)
 ---------------------------------------------
 SET_328_BBB301_conf1.geo_090_285_255 geometry
 ---------------------------------------------
 Symbolic Z-matrix:
 Charge =  1 Multiplicity = 1
 C                    -0.333    -3.459    -1.495 
 H                    -0.6      -4.317    -0.874 
 H                     0.744    -3.405    -1.328 
 H                    -0.587    -3.791    -2.504 
 C                    -1.118    -2.282    -1.066 
 C                    -1.003    -1.19     -2.157 
 H                     0.048    -1.199    -2.451 
 H                    -1.419    -0.225    -1.859 
 H                    -1.599    -1.442    -3.036 
 C                    -2.57     -2.628    -0.891 
 H                    -3.203    -1.758    -0.706 
 H                    -2.777    -3.325    -0.076 
 H                    -2.919    -2.916    -1.885 
 N                    -0.55     -1.731     0.126 
 H                     0.34     -1.338    -0.105 
 C                    -1.378    -0.656     0.816 
 H                    -2.298    -1.134     1.163 
 H                    -1.72      0.106     0.11 
 C                    -0.748    -0.058     2.135 
 O                     0.041    -1.162     2.56 
 H                    -0.079    -1.633     1.715 
 H                    -1.526     0.276     2.827 
 C                     0.082     1.186     1.769 
 C                     1.357     1.035     1.109 
 H                     1.749     0.041     0.911 
 C                     2.088     2.123     0.576 
 C                     3.338     1.808    -0.201 
 O                     2.893     1.151    -1.37 
 H                     2.054     1.588    -1.601 
 H                     3.907     1.003     0.272 
 H                     3.983     2.682    -0.324 
 C                     1.505     3.435     0.643 
 O                     2.217     4.447     0.034 
 H                     1.729     5.256     0.271 
 C                     0.311     3.633     1.343 
 H                    -0.132     4.618     1.462 
 C                    -0.428     2.505     1.828 
 H                    -1.354     2.696     2.363 
 H                    -0.404    -2.477     0.776 
 
 ITRead=  0  0  0  0  0  0  0  0  0  0  0  0  0  0  0  0  0  0  0  0
 ITRead=  0  0  0  0  0  0  0  0  0  0  0  0  0  0  0  0  0  0  0
 MicOpt= -1 -1 -1 -1 -1 -1 -1 -1 -1 -1 -1 -1 -1 -1 -1 -1 -1 -1 -1 -1
 MicOpt= -1 -1 -1 -1 -1 -1 -1 -1 -1 -1 -1 -1 -1 -1 -1 -1 -1 -1 -1
 NAtoms=     39 NQM=       39 NQMF=       0 NMMI=      0 NMMIF=      0
                NMic=       0 NMicF=      0.
                    Isotopes and Nuclear Properties:
 (Nuclear quadrupole moments (NQMom) in fm**2, nuclear magnetic moments (NMagM)
  in nuclear magnetons)

  Atom         1           2           3           4           5           6           7           8           9          10
 IAtWgt=          12           1           1           1          12          12           1           1           1          12
 AtmWgt=  12.0000000   1.0078250   1.0078250   1.0078250  12.0000000  12.0000000   1.0078250   1.0078250   1.0078250  12.0000000
 NucSpn=           0           1           1           1           0           0           1           1           1           0
 AtZEff=  -0.0000000  -0.0000000  -0.0000000  -0.0000000  -0.0000000  -0.0000000  -0.0000000  -0.0000000  -0.0000000  -0.0000000
 NQMom=    0.0000000   0.0000000   0.0000000   0.0000000   0.0000000   0.0000000   0.0000000   0.0000000   0.0000000   0.0000000
 NMagM=    0.0000000   2.7928460   2.7928460   2.7928460   0.0000000   0.0000000   2.7928460   2.7928460   2.7928460   0.0000000
 AtZNuc=   6.0000000   1.0000000   1.0000000   1.0000000   6.0000000   6.0000000   1.0000000   1.0000000   1.0000000   6.0000000

  Atom        11          12          13          14          15          16          17          18          19          20
 IAtWgt=           1           1           1          14           1          12           1           1          12          16
 AtmWgt=   1.0078250   1.0078250   1.0078250  14.0030740   1.0078250  12.0000000   1.0078250   1.0078250  12.0000000  15.9949146
 NucSpn=           1           1           1           2           1           0           1           1           0           0
 AtZEff=  -0.0000000  -0.0000000  -0.0000000  -0.0000000  -0.0000000  -0.0000000  -0.0000000  -0.0000000  -0.0000000  -0.0000000
 NQMom=    0.0000000   0.0000000   0.0000000   2.0440000   0.0000000   0.0000000   0.0000000   0.0000000   0.0000000   0.0000000
 NMagM=    2.7928460   2.7928460   2.7928460   0.4037610   2.7928460   0.0000000   2.7928460   2.7928460   0.0000000   0.0000000
 AtZNuc=   1.0000000   1.0000000   1.0000000   7.0000000   1.0000000   6.0000000   1.0000000   1.0000000   6.0000000   8.0000000

  Atom        21          22          23          24          25          26          27          28          29          30
 IAtWgt=           1           1          12          12           1          12          12          16           1           1
 AtmWgt=   1.0078250   1.0078250  12.0000000  12.0000000   1.0078250  12.0000000  12.0000000  15.9949146   1.0078250   1.0078250
 NucSpn=           1           1           0           0           1           0           0           0           1           1
 AtZEff=  -0.0000000  -0.0000000  -0.0000000  -0.0000000  -0.0000000  -0.0000000  -0.0000000  -0.0000000  -0.0000000  -0.0000000
 NQMom=    0.0000000   0.0000000   0.0000000   0.0000000   0.0000000   0.0000000   0.0000000   0.0000000   0.0000000   0.0000000
 NMagM=    2.7928460   2.7928460   0.0000000   0.0000000   2.7928460   0.0000000   0.0000000   0.0000000   2.7928460   2.7928460
 AtZNuc=   1.0000000   1.0000000   6.0000000   6.0000000   1.0000000   6.0000000   6.0000000   8.0000000   1.0000000   1.0000000

  Atom        31          32          33          34          35          36          37          38          39
 IAtWgt=           1          12          16           1          12           1          12           1           1
 AtmWgt=   1.0078250  12.0000000  15.9949146   1.0078250  12.0000000   1.0078250  12.0000000   1.0078250   1.0078250
 NucSpn=           1           0           0           1           0           1           0           1           1
 AtZEff=  -0.0000000  -0.0000000  -0.0000000  -0.0000000  -0.0000000  -0.0000000  -0.0000000  -0.0000000  -0.0000000
 NQMom=    0.0000000   0.0000000   0.0000000   0.0000000   0.0000000   0.0000000   0.0000000   0.0000000   0.0000000
 NMagM=    2.7928460   0.0000000   0.0000000   2.7928460   0.0000000   2.7928460   0.0000000   2.7928460   2.7928460
 AtZNuc=   1.0000000   6.0000000   8.0000000   1.0000000   6.0000000   1.0000000   6.0000000   1.0000000   1.0000000
 Leave Link  101 at Sun Jul 18 14:43:59 2021, MaxMem=   104857600 cpu:               0.1 elap:               0.1
 (Enter /dades/curu/g16A03_MST/g16/l103.exe)

 GradGradGradGradGradGradGradGradGradGradGradGradGradGradGradGradGradGrad
 Berny optimization.
 Initialization pass.
                           ----------------------------
                           !    Initial Parameters    !
                           ! (Angstroms and Degrees)  !
 --------------------------                            --------------------------
 ! Name  Definition              Value          Derivative Info.                !
 --------------------------------------------------------------------------------
 ! R1    R(1,2)                  1.0923         estimate D2E/DX2                !
 ! R2    R(1,3)                  1.0912         estimate D2E/DX2                !
 ! R3    R(1,4)                  1.0922         estimate D2E/DX2                !
 ! R4    R(1,5)                  1.4784         estimate D2E/DX2                !
 ! R5    R(5,6)                  1.5479         estimate D2E/DX2                !
 ! R6    R(5,10)                 1.5029         estimate D2E/DX2                !
 ! R7    R(5,14)                 1.4308         estimate D2E/DX2                !
 ! R8    R(6,7)                  1.0914         estimate D2E/DX2                !
 ! R9    R(6,8)                  1.0923         estimate D2E/DX2                !
 ! R10   R(6,9)                  1.0915         estimate D2E/DX2                !
 ! R11   R(10,11)                1.0917         estimate D2E/DX2                !
 ! R12   R(10,12)                1.0922         estimate D2E/DX2                !
 ! R13   R(10,13)                1.0921         estimate D2E/DX2                !
 ! R14   R(14,15)                1.0            estimate D2E/DX2                !
 ! R15   R(14,16)                1.5223         estimate D2E/DX2                !
 ! R16   R(14,39)                1.0002         estimate D2E/DX2                !
 ! R17   R(16,17)                1.0933         estimate D2E/DX2                !
 ! R18   R(16,18)                1.0936         estimate D2E/DX2                !
 ! R19   R(16,19)                1.5793         estimate D2E/DX2                !
 ! R20   R(19,20)                1.422          estimate D2E/DX2                !
 ! R21   R(19,22)                1.0935         estimate D2E/DX2                !
 ! R22   R(19,23)                1.5396         estimate D2E/DX2                !
 ! R23   R(20,21)                0.9748         estimate D2E/DX2                !
 ! R24   R(23,24)                1.4436         estimate D2E/DX2                !
 ! R25   R(23,37)                1.4154         estimate D2E/DX2                !
 ! R26   R(24,25)                1.0867         estimate D2E/DX2                !
 ! R27   R(24,26)                1.415          estimate D2E/DX2                !
 ! R28   R(26,27)                1.5051         estimate D2E/DX2                !
 ! R29   R(26,32)                1.4373         estimate D2E/DX2                !
 ! R30   R(27,28)                1.4129         estimate D2E/DX2                !
 ! R31   R(27,30)                1.0934         estimate D2E/DX2                !
 ! R32   R(27,31)                1.0932         estimate D2E/DX2                !
 ! R33   R(28,29)                0.9738         estimate D2E/DX2                !
 ! R34   R(32,33)                1.3791         estimate D2E/DX2                !
 ! R35   R(32,35)                1.3982         estimate D2E/DX2                !
 ! R36   R(33,34)                0.9741         estimate D2E/DX2                !
 ! R37   R(35,36)                1.0866         estimate D2E/DX2                !
 ! R38   R(35,37)                1.4331         estimate D2E/DX2                !
 ! R39   R(37,38)                1.0864         estimate D2E/DX2                !
 ! A1    A(2,1,3)              101.135          estimate D2E/DX2                !
 ! A2    A(2,1,4)              103.2741         estimate D2E/DX2                !
 ! A3    A(2,1,5)              109.3054         estimate D2E/DX2                !
 ! A4    A(3,1,4)              112.7039         estimate D2E/DX2                !
 ! A5    A(3,1,5)              116.1209         estimate D2E/DX2                !
 ! A6    A(4,1,5)              112.7439         estimate D2E/DX2                !
 ! A7    A(1,5,6)              108.5227         estimate D2E/DX2                !
 ! A8    A(1,5,10)             111.3159         estimate D2E/DX2                !
 ! A9    A(1,5,14)             109.7284         estimate D2E/DX2                !
 ! A10   A(6,5,10)             108.4375         estimate D2E/DX2                !
 ! A11   A(6,5,14)             106.6204         estimate D2E/DX2                !
 ! A12   A(10,5,14)            112.0367         estimate D2E/DX2                !
 ! A13   A(5,6,7)              104.809          estimate D2E/DX2                !
 ! A14   A(5,6,8)              113.7457         estimate D2E/DX2                !
 ! A15   A(5,6,9)              111.3563         estimate D2E/DX2                !
 ! A16   A(7,6,8)              116.586          estimate D2E/DX2                !
 ! A17   A(7,6,9)              107.8781         estimate D2E/DX2                !
 ! A18   A(8,6,9)              102.4578         estimate D2E/DX2                !
 ! A19   A(5,10,11)            113.3571         estimate D2E/DX2                !
 ! A20   A(5,10,12)            114.6405         estimate D2E/DX2                !
 ! A21   A(5,10,13)            105.2759         estimate D2E/DX2                !
 ! A22   A(11,10,12)           105.7966         estimate D2E/DX2                !
 ! A23   A(11,10,13)           100.317          estimate D2E/DX2                !
 ! A24   A(12,10,13)           116.7629         estimate D2E/DX2                !
 ! A25   A(5,14,15)            108.1938         estimate D2E/DX2                !
 ! A26   A(5,14,16)            115.6996         estimate D2E/DX2                !
 ! A27   A(5,14,39)            108.1886         estimate D2E/DX2                !
 ! A28   A(15,14,16)           108.1365         estimate D2E/DX2                !
 ! A29   A(15,14,39)           108.2612         estimate D2E/DX2                !
 ! A30   A(16,14,39)           108.1525         estimate D2E/DX2                !
 ! A31   A(14,16,17)           107.0269         estimate D2E/DX2                !
 ! A32   A(14,16,18)           111.6862         estimate D2E/DX2                !
 ! A33   A(14,16,19)           115.4024         estimate D2E/DX2                !
 ! A34   A(17,16,18)           104.2629         estimate D2E/DX2                !
 ! A35   A(17,16,19)           103.6594         estimate D2E/DX2                !
 ! A36   A(18,16,19)           113.5823         estimate D2E/DX2                !
 ! A37   A(16,19,20)           100.194          estimate D2E/DX2                !
 ! A38   A(16,19,22)           111.1227         estimate D2E/DX2                !
 ! A39   A(16,19,23)           108.8114         estimate D2E/DX2                !
 ! A40   A(20,19,22)           116.2816         estimate D2E/DX2                !
 ! A41   A(20,19,23)           113.5312         estimate D2E/DX2                !
 ! A42   A(22,19,23)           106.6906         estimate D2E/DX2                !
 ! A43   A(19,20,21)            92.7365         estimate D2E/DX2                !
 ! A44   A(19,23,24)           120.0198         estimate D2E/DX2                !
 ! A45   A(19,23,37)           123.2855         estimate D2E/DX2                !
 ! A46   A(24,23,37)           115.7706         estimate D2E/DX2                !
 ! A47   A(23,24,25)           119.8394         estimate D2E/DX2                !
 ! A48   A(23,24,26)           123.2338         estimate D2E/DX2                !
 ! A49   A(25,24,26)           116.6369         estimate D2E/DX2                !
 ! A50   A(24,26,27)           117.5533         estimate D2E/DX2                !
 ! A51   A(24,26,32)           118.3453         estimate D2E/DX2                !
 ! A52   A(27,26,32)           123.5029         estimate D2E/DX2                !
 ! A53   A(26,27,28)           105.2405         estimate D2E/DX2                !
 ! A54   A(26,27,30)           111.2811         estimate D2E/DX2                !
 ! A55   A(26,27,31)           112.3813         estimate D2E/DX2                !
 ! A56   A(28,27,30)           100.3391         estimate D2E/DX2                !
 ! A57   A(28,27,31)           117.6789         estimate D2E/DX2                !
 ! A58   A(30,27,31)           109.2842         estimate D2E/DX2                !
 ! A59   A(27,28,29)           105.0083         estimate D2E/DX2                !
 ! A60   A(26,32,33)           116.0941         estimate D2E/DX2                !
 ! A61   A(26,32,35)           119.9348         estimate D2E/DX2                !
 ! A62   A(33,32,35)           123.9213         estimate D2E/DX2                !
 ! A63   A(32,33,34)           104.085          estimate D2E/DX2                !
 ! A64   A(32,35,36)           122.0988         estimate D2E/DX2                !
 ! A65   A(32,35,37)           119.8906         estimate D2E/DX2                !
 ! A66   A(36,35,37)           117.7898         estimate D2E/DX2                !
 ! A67   A(23,37,35)           122.2485         estimate D2E/DX2                !
 ! A68   A(23,37,38)           119.4396         estimate D2E/DX2                !
 ! A69   A(35,37,38)           117.8936         estimate D2E/DX2                !
 ! D1    D(2,1,5,6)           -165.9232         estimate D2E/DX2                !
 ! D2    D(2,1,5,10)           -46.6632         estimate D2E/DX2                !
 ! D3    D(2,1,5,14)            77.9337         estimate D2E/DX2                !
 ! D4    D(3,1,5,6)             80.5191         estimate D2E/DX2                !
 ! D5    D(3,1,5,10)          -160.2209         estimate D2E/DX2                !
 ! D6    D(3,1,5,14)           -35.624          estimate D2E/DX2                !
 ! D7    D(4,1,5,6)            -51.6774         estimate D2E/DX2                !
 ! D8    D(4,1,5,10)            67.5827         estimate D2E/DX2                !
 ! D9    D(4,1,5,14)          -167.8205         estimate D2E/DX2                !
 ! D10   D(1,5,6,7)            -42.3693         estimate D2E/DX2                !
 ! D11   D(1,5,6,8)           -170.8343         estimate D2E/DX2                !
 ! D12   D(1,5,6,9)             74.0111         estimate D2E/DX2                !
 ! D13   D(10,5,6,7)          -163.4208         estimate D2E/DX2                !
 ! D14   D(10,5,6,8)            68.1142         estimate D2E/DX2                !
 ! D15   D(10,5,6,9)           -47.0404         estimate D2E/DX2                !
 ! D16   D(14,5,6,7)            75.7647         estimate D2E/DX2                !
 ! D17   D(14,5,6,8)           -52.7003         estimate D2E/DX2                !
 ! D18   D(14,5,6,9)          -167.855          estimate D2E/DX2                !
 ! D19   D(1,5,10,11)         -172.2333         estimate D2E/DX2                !
 ! D20   D(1,5,10,12)           66.1447         estimate D2E/DX2                !
 ! D21   D(1,5,10,13)          -63.5601         estimate D2E/DX2                !
 ! D22   D(6,5,10,11)          -52.9225         estimate D2E/DX2                !
 ! D23   D(6,5,10,12)         -174.5445         estimate D2E/DX2                !
 ! D24   D(6,5,10,13)           55.7508         estimate D2E/DX2                !
 ! D25   D(14,5,10,11)          64.4783         estimate D2E/DX2                !
 ! D26   D(14,5,10,12)         -57.1437         estimate D2E/DX2                !
 ! D27   D(14,5,10,13)         173.1516         estimate D2E/DX2                !
 ! D28   D(1,5,14,15)           68.1971         estimate D2E/DX2                !
 ! D29   D(1,5,14,16)         -170.3494         estimate D2E/DX2                !
 ! D30   D(1,5,14,39)          -48.8791         estimate D2E/DX2                !
 ! D31   D(6,5,14,15)          -49.1417         estimate D2E/DX2                !
 ! D32   D(6,5,14,16)           72.3118         estimate D2E/DX2                !
 ! D33   D(6,5,14,39)         -166.2178         estimate D2E/DX2                !
 ! D34   D(10,5,14,15)        -167.6246         estimate D2E/DX2                !
 ! D35   D(10,5,14,16)         -46.1711         estimate D2E/DX2                !
 ! D36   D(10,5,14,39)          75.2992         estimate D2E/DX2                !
 ! D37   D(5,14,16,17)          64.9357         estimate D2E/DX2                !
 ! D38   D(5,14,16,18)         -48.5847         estimate D2E/DX2                !
 ! D39   D(5,14,16,19)         179.6971         estimate D2E/DX2                !
 ! D40   D(15,14,16,17)       -173.5801         estimate D2E/DX2                !
 ! D41   D(15,14,16,18)         72.8995         estimate D2E/DX2                !
 ! D42   D(15,14,16,19)        -58.8187         estimate D2E/DX2                !
 ! D43   D(39,14,16,17)        -56.554          estimate D2E/DX2                !
 ! D44   D(39,14,16,18)       -170.0744         estimate D2E/DX2                !
 ! D45   D(39,14,16,19)         58.2074         estimate D2E/DX2                !
 ! D46   D(14,16,19,20)        -27.2303         estimate D2E/DX2                !
 ! D47   D(14,16,19,22)       -150.718          estimate D2E/DX2                !
 ! D48   D(14,16,19,23)         92.097          estimate D2E/DX2                !
 ! D49   D(17,16,19,20)         89.4497         estimate D2E/DX2                !
 ! D50   D(17,16,19,22)        -34.0381         estimate D2E/DX2                !
 ! D51   D(17,16,19,23)       -151.2231         estimate D2E/DX2                !
 ! D52   D(18,16,19,20)       -158.0474         estimate D2E/DX2                !
 ! D53   D(18,16,19,22)         78.4648         estimate D2E/DX2                !
 ! D54   D(18,16,19,23)        -38.7202         estimate D2E/DX2                !
 ! D55   D(16,19,20,21)         11.1752         estimate D2E/DX2                !
 ! D56   D(22,19,20,21)        130.9875         estimate D2E/DX2                !
 ! D57   D(23,19,20,21)       -104.6511         estimate D2E/DX2                !
 ! D58   D(16,19,23,24)        -73.6703         estimate D2E/DX2                !
 ! D59   D(16,19,23,37)         94.8548         estimate D2E/DX2                !
 ! D60   D(20,19,23,24)         36.9556         estimate D2E/DX2                !
 ! D61   D(20,19,23,37)       -154.5192         estimate D2E/DX2                !
 ! D62   D(22,19,23,24)        166.3571         estimate D2E/DX2                !
 ! D63   D(22,19,23,37)        -25.1177         estimate D2E/DX2                !
 ! D64   D(19,23,24,25)         -2.6956         estimate D2E/DX2                !
 ! D65   D(19,23,24,26)        170.9084         estimate D2E/DX2                !
 ! D66   D(37,23,24,25)       -172.0538         estimate D2E/DX2                !
 ! D67   D(37,23,24,26)          1.5502         estimate D2E/DX2                !
 ! D68   D(19,23,37,35)       -172.9141         estimate D2E/DX2                !
 ! D69   D(19,23,37,38)         14.6689         estimate D2E/DX2                !
 ! D70   D(24,23,37,35)         -3.9413         estimate D2E/DX2                !
 ! D71   D(24,23,37,38)       -176.3583         estimate D2E/DX2                !
 ! D72   D(23,24,26,27)       -174.2733         estimate D2E/DX2                !
 ! D73   D(23,24,26,32)         -2.8274         estimate D2E/DX2                !
 ! D74   D(25,24,26,27)         -0.4793         estimate D2E/DX2                !
 ! D75   D(25,24,26,32)        170.9666         estimate D2E/DX2                !
 ! D76   D(24,26,27,28)         67.2933         estimate D2E/DX2                !
 ! D77   D(24,26,27,30)        -40.5099         estimate D2E/DX2                !
 ! D78   D(24,26,27,31)       -163.4451         estimate D2E/DX2                !
 ! D79   D(32,26,27,28)       -103.6743         estimate D2E/DX2                !
 ! D80   D(32,26,27,30)        148.5225         estimate D2E/DX2                !
 ! D81   D(32,26,27,31)         25.5873         estimate D2E/DX2                !
 ! D82   D(24,26,32,33)       -175.9735         estimate D2E/DX2                !
 ! D83   D(24,26,32,35)          6.4919         estimate D2E/DX2                !
 ! D84   D(27,26,32,33)         -5.0729         estimate D2E/DX2                !
 ! D85   D(27,26,32,35)        177.3924         estimate D2E/DX2                !
 ! D86   D(26,27,28,29)         35.8815         estimate D2E/DX2                !
 ! D87   D(30,27,28,29)        151.4817         estimate D2E/DX2                !
 ! D88   D(31,27,28,29)        -90.1733         estimate D2E/DX2                !
 ! D89   D(26,32,33,34)       -173.621          estimate D2E/DX2                !
 ! D90   D(35,32,33,34)          3.8043         estimate D2E/DX2                !
 ! D91   D(26,32,35,36)        176.6064         estimate D2E/DX2                !
 ! D92   D(26,32,35,37)         -8.9127         estimate D2E/DX2                !
 ! D93   D(33,32,35,36)         -0.7253         estimate D2E/DX2                !
 ! D94   D(33,32,35,37)        173.7557         estimate D2E/DX2                !
 ! D95   D(32,35,37,23)          7.7961         estimate D2E/DX2                !
 ! D96   D(32,35,37,38)       -179.6752         estimate D2E/DX2                !
 ! D97   D(36,35,37,23)       -177.4882         estimate D2E/DX2                !
 ! D98   D(36,35,37,38)         -4.9595         estimate D2E/DX2                !
 --------------------------------------------------------------------------------
 Trust Radius=3.00D-01 FncErr=1.00D-07 GrdErr=1.00D-06 EigMax=2.50D+02 EigMin=1.00D-04
 Number of steps in this run=    216 maximum allowed number of steps=    234.
 GradGradGradGradGradGradGradGradGradGradGradGradGradGradGradGradGradGrad

 Leave Link  103 at Sun Jul 18 14:43:59 2021, MaxMem=   104857600 cpu:               0.1 elap:               0.0
 (Enter /dades/curu/g16A03_MST/g16/l202.exe)
                          Input orientation:                          
 ---------------------------------------------------------------------
 Center     Atomic      Atomic             Coordinates (Angstroms)
 Number     Number       Type             X           Y           Z
 ---------------------------------------------------------------------
      1          6           0       -0.333000   -3.459000   -1.495000
      2          1           0       -0.600000   -4.317000   -0.874000
      3          1           0        0.744000   -3.405000   -1.328000
      4          1           0       -0.587000   -3.791000   -2.504000
      5          6           0       -1.118000   -2.282000   -1.066000
      6          6           0       -1.003000   -1.190000   -2.157000
      7          1           0        0.048000   -1.199000   -2.451000
      8          1           0       -1.419000   -0.225000   -1.859000
      9          1           0       -1.599000   -1.442000   -3.036000
     10          6           0       -2.570000   -2.628000   -0.891000
     11          1           0       -3.203000   -1.758000   -0.706000
     12          1           0       -2.777000   -3.325000   -0.076000
     13          1           0       -2.919000   -2.916000   -1.885000
     14          7           0       -0.550000   -1.731000    0.126000
     15          1           0        0.340000   -1.338000   -0.105000
     16          6           0       -1.378000   -0.656000    0.816000
     17          1           0       -2.298000   -1.134000    1.163000
     18          1           0       -1.720000    0.106000    0.110000
     19          6           0       -0.748000   -0.058000    2.135000
     20          8           0        0.041000   -1.162000    2.560000
     21          1           0       -0.079000   -1.633000    1.715000
     22          1           0       -1.526000    0.276000    2.827000
     23          6           0        0.082000    1.186000    1.769000
     24          6           0        1.357000    1.035000    1.109000
     25          1           0        1.749000    0.041000    0.911000
     26          6           0        2.088000    2.123000    0.576000
     27          6           0        3.338000    1.808000   -0.201000
     28          8           0        2.893000    1.151000   -1.370000
     29          1           0        2.054000    1.588000   -1.601000
     30          1           0        3.907000    1.003000    0.272000
     31          1           0        3.983000    2.682000   -0.324000
     32          6           0        1.505000    3.435000    0.643000
     33          8           0        2.217000    4.447000    0.034000
     34          1           0        1.729000    5.256000    0.271000
     35          6           0        0.311000    3.633000    1.343000
     36          1           0       -0.132000    4.618000    1.462000
     37          6           0       -0.428000    2.505000    1.828000
     38          1           0       -1.354000    2.696000    2.363000
     39          1           0       -0.404000   -2.477000    0.776000
 ---------------------------------------------------------------------
                    Distance matrix (angstroms):
                    1          2          3          4          5
     1  C    0.000000
     2  H    1.092288   0.000000
     3  H    1.091208   1.686474   0.000000
     4  H    1.092163   1.712818   1.817562   0.000000
     5  C    1.478376   2.108652   2.190164   2.151020   0.000000
     6  C    2.456726   3.403913   2.940319   2.656815   1.547892
     7  H    2.483284   3.553696   2.571377   2.669176   2.109661
     8  H    3.430838   4.287826   3.882387   3.718145   2.225017
     9  H    2.836499   3.733346   3.501469   2.612464   2.194963
    10  C    2.461615   2.594978   3.431806   2.808314   1.502879
    11  H    3.428239   3.654082   4.321840   3.769529   2.179771
    12  H    2.829250   2.521943   3.737826   3.302793   2.195502
    13  H    2.671019   2.891830   3.737237   2.566517   2.077575
    14  N    2.379226   2.773066   2.567261   3.340938   1.430765
    15  H    2.623675   3.217049   2.435454   3.554116   1.985049
    16  C    3.780153   4.106617   4.081252   4.634254   2.500680
    17  H    4.041264   4.142953   4.540516   4.840874   2.771055
    18  H    4.148375   4.667503   4.523965   4.827349   2.729088
    19  C    4.991586   5.216806   5.041909   5.956638   3.915288
    20  O    4.675373   4.707150   4.543325   5.740220   3.968067
    21  H    3.701742   3.765397   3.616236   4.766024   3.038862
    22  H    5.835508   5.970806   5.997223   6.770655   4.676032
    23  C    5.692271   6.142767   5.577359   6.593680   4.637267
    24  C    5.461955   6.033742   5.101798   6.334286   4.675333
    25  H    4.730070   5.262717   4.230610   5.639445   4.186233
    26  C    6.427208   7.127513   5.999195   7.184526   5.690222
    27  C    6.549196   7.312756   5.930795   7.215139   6.110013
    28  O    5.628037   6.507387   5.037569   6.149774   5.288291
    29  H    5.584014   6.514696   5.169205   6.060027   5.032366
    30  H    6.403853   7.066029   5.656415   7.133348   6.150780
    31  H    7.596774   8.384056   6.967834   8.218092   7.156260
    32  C    7.448256   8.174706   7.158880   8.154456   6.518044
    33  O    8.446607   9.250278   8.104238   9.064684   7.590235
    34  H    9.128079   9.918548   8.862277   9.742314   8.167890
    35  C    7.665862   8.303464   7.540237   8.409613   6.544658
    36  H    8.603614   9.247170   8.539321   9.308462   7.414377
    37  C    6.827932   7.339623   6.801619   7.644025   5.636196
    38  H    7.335573   7.760725   7.432852   8.145990   6.049316
    39  H    2.475239   2.479217   2.570195   3.538147   1.985141
                    6          7          8          9         10
     6  C    0.000000
     7  H    1.091384   0.000000
     8  H    1.092284   1.857748   0.000000
     9  H    1.091495   1.764620   1.702592   0.000000
    10  C    2.475094   3.365942   2.834825   2.636373   0.000000
    11  H    2.695927   3.731824   2.619571   2.846326   1.091702
    12  H    3.469274   4.259240   3.825344   3.700672   1.092192
    13  H    2.593090   3.474411   3.080934   2.289078   1.092145
    14  N    2.389556   2.698436   2.638830   3.343975   2.432961
    15  H    2.456880   2.368185   2.722015   3.515864   3.278719
    16  C    3.043766   3.605775   2.709809   3.937581   2.867664
    17  H    3.564065   4.309169   3.275882   4.267911   2.554395
    18  H    2.707950   3.374547   2.019189   3.508313   3.033028
    19  C    4.446090   4.792379   4.053414   5.420230   4.368210
    20  O    4.831233   5.011141   4.747329   5.838083   4.569013
    21  H    4.005298   4.190470   4.068358   4.991882   3.739832
    22  H    5.221393   5.701788   4.713920   6.109961   4.831840
    23  C    4.715515   4.847451   4.172087   5.728889   5.353065
    24  C    4.602932   4.402026   4.254739   5.661668   5.730523
    25  H    4.301336   3.966616   4.216619   5.383976   5.387442
    26  C    5.291459   4.935586   4.872512   6.272937   6.813300
    27  C    5.626564   4.992860   5.432412   6.555432   7.420152
    28  O    4.612859   3.845138   4.552564   5.447685   6.659929
    29  H    4.167933   3.537500   3.926227   4.958279   6.297629
    30  H    5.900626   5.211086   5.866466   6.872912   7.515867
    31  H    6.573619   5.922036   6.323644   7.451244   8.453366
    32  C    5.959924   5.759309   5.310874   6.852371   7.464499
    33  O    6.851617   6.538891   6.215427   7.659444   8.592242
    34  H    7.410123   7.204309   6.669945   8.177716   9.054783
    35  C    6.102289   6.149132   5.303760   6.969890   7.245070
    36  H    6.898454   7.012949   6.011660   7.688153   7.999061
    37  C    5.464785   5.679439   4.693501   6.372484   6.191027
    38  H    5.971147   6.349112   5.134369   6.806781   6.357055
    39  H    3.258475   3.500160   3.611780   4.126814   2.737379
                   11         12         13         14         15
    11  H    0.000000
    12  H    1.741799   0.000000
    13  H    1.676801   1.860088   0.000000
    14  N    2.780533   2.746119   3.325734   0.000000
    15  H    3.618073   3.696579   4.034794   0.999955   0.000000
    16  C    2.619449   3.142678   3.844175   1.522271   2.065161
    17  H    2.168309   2.562234   3.584895   2.118321   2.934022
    18  H    2.517864   3.594942   3.814461   2.178009   2.524869
    19  C    4.121687   4.436063   5.389045   2.621872   2.799954
    20  O    4.641714   4.423595   5.621044   2.568540   2.687490
    21  H    3.954269   3.653731   4.761480   1.660231   1.890763
    22  H    4.408126   4.791619   5.859373   3.503716   3.831915
    23  C    5.058061   5.650401   6.259722   3.407017   3.154206
    24  C    5.647006   6.124033   6.546649   3.500528   2.852931
    25  H    5.511206   5.726151   6.192874   3.006927   2.217922
    26  C    6.685833   7.333078   7.517851   4.692000   3.936723
    27  C    7.466998   7.984769   8.018858   5.267636   4.346785
    28  O    6.787075   7.338795   7.112317   4.732673   3.783273
    29  H    6.295458   7.057036   6.715460   4.558410   3.706385
    30  H    7.689714   7.970480   8.161218   5.230767   4.283211
    31  H    8.455656   9.046721   9.022856   6.342331   5.429531
    32  C    7.138089   8.034307   8.142344   5.583715   4.969734
    33  O    8.272002   9.238838   9.180132   6.769966   6.083476
    34  H    8.629910   9.698351   9.645404   7.350717   6.749188
    35  C    6.753479   7.743582   7.983877   5.567307   5.177682
    36  H    7.401665   8.511916   8.702352   6.501494   6.176747
    37  C    5.682865   6.567489   7.026997   4.566770   4.369778
    38  H    5.716264   6.650270   7.210359   5.024830   5.023327
    39  H    3.247720   2.660101   3.687664   1.000166   1.620808
                   16         17         18         19         20
    16  C    0.000000
    17  H    1.093295   0.000000
    18  H    1.093638   1.726410   0.000000
    19  C    1.579324   2.122513   2.252178   0.000000
    20  O    2.304590   2.724576   3.272834   1.421957   0.000000
    21  H    1.857453   2.340441   2.879762   1.761984   0.974816
    22  H    2.221407   2.313651   2.729217   1.093483   2.143507
    23  C    2.536291   3.378467   2.676917   1.539608   2.477996
    24  C    3.228863   4.250471   3.365854   2.584250   2.943479
    25  H    3.205146   4.221651   3.560869   2.782622   2.661517
    26  C    4.449000   5.494508   4.334318   3.902581   4.349447
    27  C    5.417217   6.502335   5.345736   5.063028   5.226302
    28  O    5.126918   6.211586   4.956026   5.196498   5.378547
    29  H    4.759837   5.829999   4.400786   4.951587   5.378530
    30  H    5.565918   6.622890   5.700349   5.124989   4.986795
    31  H    6.417333   7.498266   6.272826   5.994718   6.215558
    32  C    5.007784   5.967325   4.665507   4.416234   5.191396
    33  O    6.290958   7.266872   5.860890   5.787957   6.525070
    34  H    6.700912   7.605557   6.200324   6.152123   7.019942
    35  C    4.639609   5.437239   4.252644   3.920743   4.954393
    36  H    5.457555   6.153573   4.970693   4.764175   5.885910
    37  C    3.452327   4.145051   3.221178   2.601080   3.768644
    38  H    3.691841   4.123110   3.452255   2.829087   4.107189
    39  H    2.065506   2.353859   2.974441   2.795850   2.260510
                   21         22         23         24         25
    21  H    0.000000
    22  H    2.640953   0.000000
    23  C    2.824110   2.129114   0.000000
    24  C    3.089912   3.440828   1.443616   0.000000
    25  H    2.605816   3.801566   2.196834   1.086694   0.000000
    26  C    4.483386   4.641057   2.515006   1.414989   2.135853
    27  C    5.214156   5.930793   3.856076   2.497597   2.623691
    28  O    5.108881   6.156947   4.213819   2.918594   2.782768
    29  H    5.091207   5.843366   3.925212   2.852318   2.965869
    30  H    4.991888   6.047648   4.111584   2.684044   2.447597
    31  H    6.267104   6.787247   4.672950   3.414963   3.672991
    32  C    5.416905   4.892453   2.889776   2.449298   3.413297
    33  O    6.712956   6.261640   4.266447   3.679262   4.516745
    34  H    7.267209   6.475227   4.639128   4.319429   5.254163
    35  C    5.293509   4.104421   2.494339   2.810423   3.893190
    36  H    6.256342   4.760192   3.452343   3.896103   4.979025
    37  C    4.154228   2.678068   1.415395   2.421587   3.413431
    38  H    4.559141   2.470077   2.166802   3.417742   4.334275
    39  H    1.303719   3.611716   3.826201   3.942861   3.315714
                   26         27         28         29         30
    26  C    0.000000
    27  C    1.505143   0.000000
    28  O    2.319423   1.412882   0.000000
    29  H    2.242033   1.912343   0.973782   0.000000
    30  H    2.157679   1.093396   1.935527   2.698882   0.000000
    31  H    2.171061   1.093174   2.150855   2.559024   1.783265
    32  C    1.437262   2.592172   3.345948   2.957760   3.438294
    33  O    2.389850   2.876836   3.645793   3.297526   3.843681
    34  H    3.168216   3.834106   4.571521   4.130888   4.778252
    35  C    2.454815   3.857109   4.493041   3.985876   4.582047
    36  H    3.455202   4.764721   5.402864   4.831301   5.549581
    37  C    2.836139   4.334213   4.805160   4.331195   4.844519
    38  H    3.920340   5.420102   5.861683   5.343728   5.909031
    39  H    5.235462   5.772202   5.351440   5.311885   5.563195
                   31         32         33         34         35
    31  H    0.000000
    32  C    2.764522   0.000000
    33  O    2.522329   1.379119   0.000000
    34  H    3.472754   1.872058   0.974061   0.000000
    35  C    4.143293   1.398156   2.451308   2.407081   0.000000
    36  H    4.885808   2.179454   2.754310   2.299749   1.086570
    37  C    4.911146   2.450635   3.739763   3.826865   1.433084
    38  H    5.975260   3.417368   4.608935   4.520504   2.165778
    39  H    6.860834   6.213993   7.440563   8.037662   6.177768
                   36         37         38         39
    36  H    0.000000
    37  C    2.164796   0.000000
    38  H    2.449320   1.086362   0.000000
    39  H    7.133274   5.091916   5.493724   0.000000
 Stoichiometry    C13H22NO3(1+)
 Framework group  C1[X(C13H22NO3)]
 Deg. of freedom   111
 Full point group                 C1      NOp   1
 Largest Abelian subgroup         C1      NOp   1
 Largest concise Abelian subgroup C1      NOp   1
                         Standard orientation:                         
 ---------------------------------------------------------------------
 Center     Atomic      Atomic             Coordinates (Angstroms)
 Number     Number       Type             X           Y           Z
 ---------------------------------------------------------------------
      1          6           0        3.889142    1.586548    0.508150
      2          1           0        4.632012    1.054941    1.107009
      3          1           0        3.292667    2.063815    1.287361
      4          1           0        4.489361    2.300510   -0.060019
      5          6           0        3.177633    0.621820   -0.357095
      6          6           0        2.398147    1.411268   -1.436513
      7          1           0        1.956727    2.253900   -0.901500
      8          1           0        1.715620    0.794503   -2.025448
      9          1           0        3.069485    1.812402   -2.197932
     10          6           0        4.138499   -0.305044   -1.047241
     11          1           0        3.663363   -0.942071   -1.795744
     12          1           0        4.677488   -0.981342   -0.380162
     13          1           0        4.743908    0.335925   -1.691772
     14          7           0        2.203835   -0.090134    0.412274
     15          1           0        1.483931    0.551889    0.675816
     16          6           0        1.550058   -1.275310   -0.284319
     17          1           0        2.334786   -2.015924   -0.460346
     18          1           0        1.198648   -1.011852   -1.285890
     19          6           0        0.481806   -2.060598    0.573834
     20          8           0        0.964708   -1.791885    1.884010
     21          1           0        1.587802   -1.113157    1.565658
     22          1           0        0.437362   -3.113089    0.280593
     23          6           0       -0.911124   -1.465543    0.298065
     24          6           0       -1.268472   -0.179023    0.846876
     25          1           0       -0.568828    0.347516    1.490428
     26          6           0       -2.448226    0.515829    0.489727
     27          6           0       -2.630775    1.905574    1.038123
     28          8           0       -1.629918    2.684846    0.415825
     29          1           0       -1.555593    2.326099   -0.486409
     30          1           0       -2.306991    1.966495    2.080700
     31          1           0       -3.664973    2.251173    0.960487
     32          6           0       -3.302765   -0.060338   -0.512030
     33          8           0       -4.393759    0.695630   -0.886484
     34          1           0       -4.896486    0.108806   -1.479524
     35          6           0       -3.032280   -1.339183   -1.008248
     36          1           0       -3.684496   -1.830138   -1.725335
     37          6           0       -1.805233   -1.994274   -0.663368
     38          1           0       -1.625969   -2.985060   -1.071277
     39          1           0        2.646630   -0.423499    1.244819
 ---------------------------------------------------------------------
 Rotational constants (GHZ):           0.7021407           0.2630357           0.2269793
 Leave Link  202 at Sun Jul 18 14:43:59 2021, MaxMem=   104857600 cpu:               0.0 elap:               0.0
 (Enter /dades/curu/g16A03_MST/g16/l301.exe)
 Standard basis: 6-31G(d) (6D, 7F)
 Ernie: Thresh=  0.10000D-02 Tol=  0.10000D-05 Strict=F.
 There are   299 symmetry adapted cartesian basis functions of A   symmetry.
 There are   299 symmetry adapted basis functions of A   symmetry.
   299 basis functions,   564 primitive gaussians,   299 cartesian basis functions
    65 alpha electrons       65 beta electrons
       nuclear repulsion energy      1296.3981181419 Hartrees.
 IExCor=  402 DFT=T Ex+Corr=B3LYP ExCW=0 ScaHFX=  0.200000
 ScaDFX=  0.800000  0.720000  1.000000  0.810000 ScalE2=  1.000000  1.000000
 IRadAn=      5 IRanWt=     -1 IRanGd=            0 ICorTp=0 IEmpDi=  4
 NAtoms=   39 NActive=   39 NUniq=   39 SFac= 1.00D+00 NAtFMM=   60 NAOKFM=F Big=F
 Integral buffers will be    131072 words long.
 Raffenetti 2 integral format.
 Two-electron integral symmetry is turned on.
 Using the following non-standard input for PCM:
 MSTModel=DFT cav MSTCharged
 --- end of non-standard input.
 MST model for solvation energy: B3LYP parametrization.
 MST cavity parameters:
 ISph   IAn     Re0     Alpha   Atom Type   QCorr
 ------------------------------------------------
   1      6     1.50     1.50      CH3        F
   2      1     1.20     1.50      CH3        F
   3      1     1.20     1.50      CH3        F
   4      1     1.20     1.50      CH3        F
   5      6     1.50     1.50      CN+        F
   6      6     1.50     1.50      CH3        F
   7      1     1.20     1.50      CH3        F
   8      1     1.20     1.50      CH3        F
   9      1     1.20     1.50      CH3        F
  10      6     1.50     1.50      CH3        F
  11      1     1.20     1.50      CH3        F
  12      1     1.20     1.50      CH3        F
  13      1     1.20     1.50      CH3        F
  14      7     1.50     1.15      NH+        T
  15      1     0.90     1.15      NH+        T
  16      6     1.50     1.50      CN+        F
  17      1     1.20     1.50      CN+        F
  18      1     1.20     1.50      CN+        F
  19      6     1.50     1.50      CH         F
  20      8     1.40     1.50      OH         F
  21      1     0.90     1.50      OH         F
  22      1     1.20     1.50      CH         F
  23      6     1.50     1.50      C          F
  24      6     1.50     1.50      CH         F
  25      1     1.20     1.50      CH         F
  26      6     1.50     1.50      C          F
  27      6     1.50     1.50      CH2        F
  28      8     1.40     1.50      OH         F
  29      1     0.90     1.50      OH         F
  30      1     1.20     1.50      CH2        F
  31      1     1.20     1.50      CH2        F
  32      6     1.50     1.50      C          F
  33      8     1.40     1.50      OH         F
  34      1     0.90     1.50      OH         F
  35      6     1.50     1.50      CH         F
  36      1     1.20     1.50      CH         F
  37      6     1.50     1.50      CH         F
  38      1     1.20     1.50      CH         F
  39      1     0.90     1.15      NH+        T
 ------------------------------------------------------------------------------
 Polarizable Continuum Model (PCM)
 =================================
 Model                : PCM.
 Atomic radii         : MST.
 Polarization charges : Total charges.
 Charge compensation  : None.
 Solution method      : On-the-fly selection.
 Cavity type          : Scaled VdW (van der Waals Surface) (Alpha=1.500).
 Cavity algorithm     : GePol (No added spheres)
                        Default sphere list used, NSphG=   39.
                        Lebedev-Laikov grids with approx.  5.0 points / Ang**2.
                        Smoothing algorithm: York/Karplus (Gamma=1.0000).
                        Polarization charges: spherical gaussians, with
                                              point-specific exponents (IZeta= 3).
                        Self-potential: point-specific (ISelfS= 7).
                        Self-field    : sphere-specific E.n sum rule (ISelfD= 2).
 1st derivatives      : Analytical E(r).r(x)/FMM algorithm (CHGder, D1EAlg=3).
                        Cavity 1st derivative terms included.
 Solvent              : n-Octanol, Eps=   9.862900 Eps(inf)=   2.043470
 ------------------------------------------------------------------------------
 GePol: Number of generator spheres                  =      39
 GePol: Total number of spheres                      =      39
 GePol: Number of exposed spheres                    =      39 (100.00%)
 GePol: Number of points                             =    3261
 GePol: Average weight of points                     =       0.11
 GePol: Minimum weight of points                     =   0.22D-11
 GePol: Maximum weight of points                     =    0.20676
 GePol: Number of points with low weight             =     181
 GePol: Fraction of low-weight points (<1% of avg)   =       5.55%
 GePol: Cavity surface area                          =    361.084 Ang**2
 GePol: Cavity volume                                =    414.413 Ang**3
 Surface areas from nonelectrostatic (unscaled) cavity and vdw tensions:
 Sphere =    1 Type =  CH3 Surf =        4.321 Tension =       -0.183
 Sphere =    2 Type =  CH3 Surf =        9.859 Tension =       -0.183
 Sphere =    3 Type =  CH3 Surf =       10.039 Tension =       -0.183
 Sphere =    4 Type =  CH3 Surf =       10.085 Tension =       -0.183
 Sphere =    5 Type =  CN+ Surf =        1.335 Tension =       -0.227
 Sphere =    6 Type =  CH3 Surf =        4.563 Tension =       -0.183
 Sphere =    7 Type =  CH3 Surf =        9.798 Tension =       -0.183
 Sphere =    8 Type =  CH3 Surf =        8.728 Tension =       -0.183
 Sphere =    9 Type =  CH3 Surf =        9.729 Tension =       -0.183
 Sphere =   10 Type =  CH3 Surf =        4.230 Tension =       -0.183
 Sphere =   11 Type =  CH3 Surf =        9.107 Tension =       -0.183
 Sphere =   12 Type =  CH3 Surf =       10.183 Tension =       -0.183
 Sphere =   13 Type =  CH3 Surf =        9.573 Tension =       -0.183
 Sphere =   14 Type =  NH+ Surf =        6.045 Tension =       -0.274
 Sphere =   15 Type =  NH+ Surf =        3.833 Tension =       -0.274
 Sphere =   16 Type =  CN+ Surf =        3.469 Tension =       -0.227
 Sphere =   17 Type =  CN+ Surf =        8.779 Tension =       -0.227
 Sphere =   18 Type =  CN+ Surf =        8.683 Tension =       -0.227
 Sphere =   19 Type =  CH  Surf =        3.731 Tension =       -0.195
 Sphere =   20 Type =  OH  Surf =       14.665 Tension =       -0.238
 Sphere =   21 Type =  OH  Surf =        1.501 Tension =       -0.238
 Sphere =   22 Type =  CH  Surf =        9.979 Tension =       -0.195
 Sphere =   23 Type =  C   Surf =        6.422 Tension =       -0.205
 Sphere =   24 Type =  CH  Surf =        7.751 Tension =       -0.195
 Sphere =   25 Type =  CH  Surf =       10.097 Tension =       -0.195
 Sphere =   26 Type =  C   Surf =        6.049 Tension =       -0.205
 Sphere =   27 Type =  CH2 Surf =        4.574 Tension =       -0.194
 Sphere =   28 Type =  OH  Surf =       14.254 Tension =       -0.238
 Sphere =   29 Type =  OH  Surf =        4.340 Tension =       -0.238
 Sphere =   30 Type =  CH2 Surf =        9.888 Tension =       -0.194
 Sphere =   31 Type =  CH2 Surf =        9.924 Tension =       -0.194
 Sphere =   32 Type =  C   Surf =        6.892 Tension =       -0.205
 Sphere =   33 Type =  OH  Surf =       14.181 Tension =       -0.238
 Sphere =   34 Type =  OH  Surf =        4.400 Tension =       -0.238
 Sphere =   35 Type =  CH  Surf =        7.935 Tension =       -0.195
 Sphere =   36 Type =  CH  Surf =       10.239 Tension =       -0.195
 Sphere =   37 Type =  CH  Surf =        7.891 Tension =       -0.195
 Sphere =   38 Type =  CH  Surf =       10.218 Tension =       -0.195
 Sphere =   39 Type =  NH+ Surf =        3.397 Tension =       -0.274
 PCM non-electrostatic energy =        -0.0178459697 Hartrees.
 Nuclear repulsion after PCM non-electrostatic terms =     1296.3802721722 Hartrees.
 Leave Link  301 at Sun Jul 18 14:43:59 2021, MaxMem=   104857600 cpu:               0.1 elap:               0.1
 (Enter /dades/curu/g16A03_MST/g16/l302.exe)
 NPDir=0 NMtPBC=     1 NCelOv=     1 NCel=       1 NClECP=     1 NCelD=      1
         NCelK=      1 NCelE2=     1 NClLst=     1 CellRange=     0.0.
 One-electron integrals computed using PRISM.
 One-electron integral symmetry used in STVInt
 NBasis=   299 RedAO= T EigKep=  5.40D-04  NBF=   299
 NBsUse=   299 1.00D-06 EigRej= -1.00D+00 NBFU=   299
 Precomputing XC quadrature grid using
 IXCGrd= 4 IRadAn=           5 IRanWt=          -1 IRanGd=           0 AccXCQ= 0.00D+00.
 Generated NRdTot=       0 NPtTot=           0 NUsed=           0 NTot=          32
 NSgBfM=   298   298   298   298   298 MxSgAt=    39 MxSgA2=    39.
 Leave Link  302 at Sun Jul 18 14:44:00 2021, MaxMem=   104857600 cpu:               5.3 elap:               1.4
 (Enter /dades/curu/g16A03_MST/g16/l303.exe)
 DipDrv:  MaxL=1.
 Leave Link  303 at Sun Jul 18 14:44:00 2021, MaxMem=   104857600 cpu:               0.1 elap:               0.1
 (Enter /dades/curu/g16A03_MST/g16/l401.exe)
 ExpMin= 1.61D-01 ExpMax= 5.48D+03 ExpMxC= 8.25D+02 IAcc=3 IRadAn=         5 AccDes= 0.00D+00
 Harris functional with IExCor=  402 and IRadAn=       5 diagonalized for initial guess.
 HarFok:  IExCor=  402 AccDes= 0.00D+00 IRadAn=         5 IDoV= 1 UseB2=F ITyADJ=14
 ICtDFT=  3500011 ScaDFX=  1.000000  1.000000  1.000000  1.000000
 FoFCou: FMM=F IPFlag=           0 FMFlag=      100000 FMFlg1=           0
         NFxFlg=           0 DoJE=T BraDBF=F KetDBF=T FulRan=T
         wScrn=  0.000000 ICntrl=       500 IOpCl=  0 I1Cent=   200000004 NGrid=           0
         NMat0=    1 NMatS0=      1 NMatT0=    0 NMatD0=    1 NMtDS0=    0 NMtDT0=    0
 Petite list used in FoFCou.
 Harris En= -788.786911930530    
 JPrj=0 DoOrth=F DoCkMO=F.
 Leave Link  401 at Sun Jul 18 14:44:09 2021, MaxMem=   104857600 cpu:              34.6 elap:               8.7
 (Enter /dades/curu/g16A03_MST/g16/l502.exe)
 Integral symmetry usage will be decided dynamically.
 Closed shell SCF:
 Using DIIS extrapolation, IDIIS=  1040.
 NGot=   104857600 LenX=   104673418 LenY=   104583576
 Requested convergence on RMS density matrix=1.00D-08 within 128 cycles.
 Requested convergence on MAX density matrix=1.00D-06.
 Requested convergence on             energy=1.00D-06.
 No special actions if energy rises.
 Fock matrices will be formed incrementally for  20 cycles.

 Cycle   1  Pass 1  IDiag  1:
 FoFJK:  IHMeth= 1 ICntrl=       0 DoSepK=F KAlg= 0 I1Cent=           0 FoldK=F
 IRaf= 840000000 NMat=       1 IRICut=       1 DoRegI=T DoRafI=F ISym2E= 0 IDoP0=0 IntGTp=1.
 FoFCou: FMM=F IPFlag=           0 FMFlag=      100000 FMFlg1=           0
         NFxFlg=           0 DoJE=F BraDBF=F KetDBF=F FulRan=T
         wScrn=  0.000000 ICntrl=         0 IOpCl=  0 I1Cent=           0 NGrid=           0
         NMat0=    1 NMatS0=      1 NMatT0=    0 NMatD0=    1 NMtDS0=    0 NMtDT0=    0
 Symmetry not used in FoFCou.
 Inv3:  Mode=1 IEnd=    31902363.
 Iteration    1 A*A^-1 deviation from unit magnitude is 4.22D-15 for   3219.
 Iteration    1 A*A^-1 deviation from orthogonality  is 5.51D-15 for   3256    335.
 Iteration    1 A^-1*A deviation from unit magnitude is 4.22D-15 for   3219.
 Iteration    1 A^-1*A deviation from orthogonality  is 2.57D-15 for   3258   3186.
 E= -788.381656061245    
 DIIS: error= 3.25D-02 at cycle   1 NSaved=   1.
 NSaved= 1 IEnMin= 1 EnMin= -788.381656061245     IErMin= 1 ErrMin= 3.25D-02
 ErrMax= 3.25D-02  0.00D+00 EMaxC= 1.00D-01 BMatC= 4.49D-01 BMatP= 4.49D-01
 IDIUse=3 WtCom= 6.75D-01 WtEn= 3.25D-01
 Coeff-Com:  0.100D+01
 Coeff-En:   0.100D+01
 Coeff:      0.100D+01
 Gap=     0.216 Goal=   None    Shift=    0.000
 GapD=    0.216 DampG=1.000 DampE=0.500 DampFc=0.5000 IDamp=-1.
 Damping current iteration by 5.00D-01
 RMSDP=4.69D-03 MaxDP=1.28D-01              OVMax= 1.79D-01

 Cycle   2  Pass 1  IDiag  1:
 RMSU=  2.32D-03    CP:  9.83D-01
 E= -788.571665461804     Delta-E=       -0.190009400559 Rises=F Damp=T
 DIIS: error= 7.30D-03 at cycle   2 NSaved=   2.
 NSaved= 2 IEnMin= 2 EnMin= -788.571665461804     IErMin= 2 ErrMin= 7.30D-03
 ErrMax= 7.30D-03  0.00D+00 EMaxC= 1.00D-01 BMatC= 2.61D-02 BMatP= 4.49D-01
 IDIUse=3 WtCom= 9.27D-01 WtEn= 7.30D-02
 Coeff-Com:  0.670D-01 0.933D+00
 Coeff-En:   0.943D-01 0.906D+00
 Coeff:      0.690D-01 0.931D+00
 Gap=     0.261 Goal=   None    Shift=    0.000
 RMSDP=1.02D-03 MaxDP=2.39D-02 DE=-1.90D-01 OVMax= 9.70D-02

 Cycle   3  Pass 1  IDiag  1:
 RMSU=  9.97D-04    CP:  9.78D-01  9.26D-01
 E= -788.793081061525     Delta-E=       -0.221415599722 Rises=F Damp=F
 DIIS: error= 3.56D-03 at cycle   3 NSaved=   3.
 NSaved= 3 IEnMin= 3 EnMin= -788.793081061525     IErMin= 3 ErrMin= 3.56D-03
 ErrMax= 3.56D-03  0.00D+00 EMaxC= 1.00D-01 BMatC= 1.22D-02 BMatP= 2.61D-02
 IDIUse=3 WtCom= 9.64D-01 WtEn= 3.56D-02
 Coeff-Com: -0.137D-01 0.385D+00 0.629D+00
 Coeff-En:   0.000D+00 0.000D+00 0.100D+01
 Coeff:     -0.133D-01 0.371D+00 0.642D+00
 Gap=     0.202 Goal=   None    Shift=    0.000
 RMSDP=4.89D-04 MaxDP=1.95D-02 DE=-2.21D-01 OVMax= 1.88D-02

 Cycle   4  Pass 1  IDiag  1:
 RMSU=  3.97D-04    CP:  9.80D-01  9.52D-01  7.23D-01
 E= -788.800707548292     Delta-E=       -0.007626486767 Rises=F Damp=F
 DIIS: error= 1.61D-03 at cycle   4 NSaved=   4.
 NSaved= 4 IEnMin= 4 EnMin= -788.800707548292     IErMin= 4 ErrMin= 1.61D-03
 ErrMax= 1.61D-03  0.00D+00 EMaxC= 1.00D-01 BMatC= 2.78D-03 BMatP= 1.22D-02
 IDIUse=3 WtCom= 9.84D-01 WtEn= 1.61D-02
 Coeff-Com: -0.111D-01 0.738D-01 0.346D+00 0.591D+00
 Coeff-En:   0.000D+00 0.000D+00 0.188D+00 0.812D+00
 Coeff:     -0.109D-01 0.726D-01 0.343D+00 0.595D+00
 Gap=     0.201 Goal=   None    Shift=    0.000
 RMSDP=1.96D-04 MaxDP=6.68D-03 DE=-7.63D-03 OVMax= 9.11D-03

 Cycle   5  Pass 1  IDiag  1:
 RMSU=  9.27D-05    CP:  9.79D-01  9.51D-01  7.81D-01  5.95D-01
 E= -788.803011764770     Delta-E=       -0.002304216478 Rises=F Damp=F
 DIIS: error= 4.20D-04 at cycle   5 NSaved=   5.
 NSaved= 5 IEnMin= 5 EnMin= -788.803011764770     IErMin= 5 ErrMin= 4.20D-04
 ErrMax= 4.20D-04  0.00D+00 EMaxC= 1.00D-01 BMatC= 9.13D-05 BMatP= 2.78D-03
 IDIUse=3 WtCom= 9.96D-01 WtEn= 4.20D-03
 Coeff-Com: -0.382D-02 0.128D-01 0.119D+00 0.261D+00 0.611D+00
 Coeff-En:   0.000D+00 0.000D+00 0.000D+00 0.000D+00 0.100D+01
 Coeff:     -0.381D-02 0.128D-01 0.119D+00 0.260D+00 0.612D+00
 Gap=     0.200 Goal=   None    Shift=    0.000
 RMSDP=4.24D-05 MaxDP=1.16D-03 DE=-2.30D-03 OVMax= 3.74D-03

 Cycle   6  Pass 1  IDiag  1:
 RMSU=  2.88D-05    CP:  9.79D-01  9.52D-01  7.87D-01  6.18D-01  6.84D-01
 E= -788.803084417932     Delta-E=       -0.000072653162 Rises=F Damp=F
 DIIS: error= 1.22D-04 at cycle   6 NSaved=   6.
 NSaved= 6 IEnMin= 6 EnMin= -788.803084417932     IErMin= 6 ErrMin= 1.22D-04
 ErrMax= 1.22D-04  0.00D+00 EMaxC= 1.00D-01 BMatC= 1.41D-05 BMatP= 9.13D-05
 IDIUse=3 WtCom= 9.99D-01 WtEn= 1.22D-03
 Coeff-Com: -0.136D-02 0.206D-02 0.432D-01 0.107D+00 0.348D+00 0.501D+00
 Coeff-En:   0.000D+00 0.000D+00 0.000D+00 0.000D+00 0.840D-01 0.916D+00
 Coeff:     -0.136D-02 0.206D-02 0.431D-01 0.107D+00 0.348D+00 0.501D+00
 Gap=     0.200 Goal=   None    Shift=    0.000
 RMSDP=1.58D-05 MaxDP=5.26D-04 DE=-7.27D-05 OVMax= 1.67D-03

 Cycle   7  Pass 1  IDiag  1:
 RMSU=  7.12D-06    CP:  9.79D-01  9.52D-01  7.88D-01  6.21D-01  7.18D-01
                    CP:  5.26D-01
 E= -788.803097771633     Delta-E=       -0.000013353701 Rises=F Damp=F
 DIIS: error= 3.59D-05 at cycle   7 NSaved=   7.
 NSaved= 7 IEnMin= 7 EnMin= -788.803097771633     IErMin= 7 ErrMin= 3.59D-05
 ErrMax= 3.59D-05  0.00D+00 EMaxC= 1.00D-01 BMatC= 9.87D-07 BMatP= 1.41D-05
 IDIUse=1 WtCom= 1.00D+00 WtEn= 0.00D+00
 Coeff-Com: -0.538D-03 0.348D-03 0.171D-01 0.450D-01 0.160D+00 0.286D+00
 Coeff-Com:  0.492D+00
 Coeff:     -0.538D-03 0.348D-03 0.171D-01 0.450D-01 0.160D+00 0.286D+00
 Coeff:      0.492D+00
 Gap=     0.200 Goal=   None    Shift=    0.000
 RMSDP=4.22D-06 MaxDP=1.53D-04 DE=-1.34D-05 OVMax= 4.00D-04

 Cycle   8  Pass 1  IDiag  1:
 RMSU=  2.39D-06    CP:  9.79D-01  9.52D-01  7.88D-01  6.22D-01  7.18D-01
                    CP:  5.79D-01  5.68D-01
 E= -788.803098733780     Delta-E=       -0.000000962147 Rises=F Damp=F
 DIIS: error= 9.01D-06 at cycle   8 NSaved=   8.
 NSaved= 8 IEnMin= 8 EnMin= -788.803098733780     IErMin= 8 ErrMin= 9.01D-06
 ErrMax= 9.01D-06  0.00D+00 EMaxC= 1.00D-01 BMatC= 6.13D-08 BMatP= 9.87D-07
 IDIUse=1 WtCom= 1.00D+00 WtEn= 0.00D+00
 Coeff-Com: -0.962D-04-0.752D-04 0.298D-02 0.874D-02 0.341D-01 0.767D-01
 Coeff-Com:  0.241D+00 0.637D+00
 Coeff:     -0.962D-04-0.752D-04 0.298D-02 0.874D-02 0.341D-01 0.767D-01
 Coeff:      0.241D+00 0.637D+00
 Gap=     0.200 Goal=   None    Shift=    0.000
 RMSDP=1.11D-06 MaxDP=3.95D-05 DE=-9.62D-07 OVMax= 1.24D-04

 Cycle   9  Pass 1  IDiag  1:
 RMSU=  6.28D-07    CP:  9.79D-01  9.52D-01  7.88D-01  6.23D-01  7.20D-01
                    CP:  5.74D-01  6.18D-01  6.69D-01
 E= -788.803098788731     Delta-E=       -0.000000054951 Rises=F Damp=F
 DIIS: error= 2.51D-06 at cycle   9 NSaved=   9.
 NSaved= 9 IEnMin= 9 EnMin= -788.803098788731     IErMin= 9 ErrMin= 2.51D-06
 ErrMax= 2.51D-06  0.00D+00 EMaxC= 1.00D-01 BMatC= 5.85D-09 BMatP= 6.13D-08
 IDIUse=1 WtCom= 1.00D+00 WtEn= 0.00D+00
 Coeff-Com: -0.589D-05-0.712D-04 0.171D-03 0.934D-03 0.463D-02 0.161D-01
 Coeff-Com:  0.791D-01 0.315D+00 0.584D+00
 Coeff:     -0.589D-05-0.712D-04 0.171D-03 0.934D-03 0.463D-02 0.161D-01
 Coeff:      0.791D-01 0.315D+00 0.584D+00
 Gap=     0.200 Goal=   None    Shift=    0.000
 RMSDP=3.24D-07 MaxDP=1.13D-05 DE=-5.50D-08 OVMax= 3.77D-05

 Cycle  10  Pass 1  IDiag  1:
 RMSU=  2.00D-07    CP:  9.79D-01  9.52D-01  7.88D-01  6.22D-01  7.20D-01
                    CP:  5.77D-01  6.20D-01  7.18D-01  6.82D-01
 E= -788.803098793749     Delta-E=       -0.000000005017 Rises=F Damp=F
 DIIS: error= 1.01D-06 at cycle  10 NSaved=  10.
 NSaved=10 IEnMin=10 EnMin= -788.803098793749     IErMin=10 ErrMin= 1.01D-06
 ErrMax= 1.01D-06  0.00D+00 EMaxC= 1.00D-01 BMatC= 6.66D-10 BMatP= 5.85D-09
 IDIUse=1 WtCom= 1.00D+00 WtEn= 0.00D+00
 Coeff-Com:  0.733D-05-0.266D-04-0.271D-03-0.562D-03-0.168D-02-0.457D-03
 Coeff-Com:  0.131D-01 0.912D-01 0.302D+00 0.597D+00
 Coeff:      0.733D-05-0.266D-04-0.271D-03-0.562D-03-0.168D-02-0.457D-03
 Coeff:      0.131D-01 0.912D-01 0.302D+00 0.597D+00
 Gap=     0.200 Goal=   None    Shift=    0.000
 RMSDP=9.90D-08 MaxDP=3.99D-06 DE=-5.02D-09 OVMax= 8.85D-06

 Cycle  11  Pass 1  IDiag  1:
 RMSU=  4.74D-08    CP:  9.79D-01  9.52D-01  7.88D-01  6.22D-01  7.20D-01
                    CP:  5.77D-01  6.23D-01  7.28D-01  7.49D-01  6.59D-01
 E= -788.803098794318     Delta-E=       -0.000000000569 Rises=F Damp=F
 DIIS: error= 2.70D-07 at cycle  11 NSaved=  11.
 NSaved=11 IEnMin=11 EnMin= -788.803098794318     IErMin=11 ErrMin= 2.70D-07
 ErrMax= 2.70D-07  0.00D+00 EMaxC= 1.00D-01 BMatC= 4.19D-11 BMatP= 6.66D-10
 IDIUse=1 WtCom= 1.00D+00 WtEn= 0.00D+00
 Coeff-Com:  0.371D-05-0.930D-05-0.146D-03-0.331D-03-0.108D-02-0.101D-02
 Coeff-Com:  0.247D-02 0.299D-01 0.123D+00 0.303D+00 0.545D+00
 Coeff:      0.371D-05-0.930D-05-0.146D-03-0.331D-03-0.108D-02-0.101D-02
 Coeff:      0.247D-02 0.299D-01 0.123D+00 0.303D+00 0.545D+00
 Gap=     0.200 Goal=   None    Shift=    0.000
 RMSDP=2.26D-08 MaxDP=1.21D-06 DE=-5.69D-10 OVMax= 1.53D-06

 Cycle  12  Pass 1  IDiag  1:
 RMSU=  1.47D-08    CP:  9.79D-01  9.52D-01  7.88D-01  6.22D-01  7.20D-01
                    CP:  5.77D-01  6.23D-01  7.28D-01  7.48D-01  6.86D-01
                    CP:  6.82D-01
 E= -788.803098794354     Delta-E=       -0.000000000037 Rises=F Damp=F
 DIIS: error= 7.18D-08 at cycle  12 NSaved=  12.
 NSaved=12 IEnMin=12 EnMin= -788.803098794354     IErMin=12 ErrMin= 7.18D-08
 ErrMax= 7.18D-08  0.00D+00 EMaxC= 1.00D-01 BMatC= 2.73D-12 BMatP= 4.19D-11
 IDIUse=1 WtCom= 1.00D+00 WtEn= 0.00D+00
 Coeff-Com:  0.653D-06-0.715D-06-0.333D-04-0.820D-04-0.277D-03-0.374D-03
 Coeff-Com: -0.425D-03 0.269D-02 0.191D-01 0.661D-01 0.239D+00 0.674D+00
 Coeff:      0.653D-06-0.715D-06-0.333D-04-0.820D-04-0.277D-03-0.374D-03
 Coeff:     -0.425D-03 0.269D-02 0.191D-01 0.661D-01 0.239D+00 0.674D+00
 Gap=     0.200 Goal=   None    Shift=    0.000
 RMSDP=7.13D-09 MaxDP=2.83D-07 DE=-3.66D-11 OVMax= 6.09D-07

 Error on total polarization charges =  0.00959
 SCF Done:  E(RB3LYP) =  -788.803098794     A.U. after   12 cycles
            NFock= 12  Conv=0.71D-08     -V/T= 2.0091
 KE= 7.817167547015D+02 PE=-4.408407962793D+03 EE= 1.541507837125D+03
 Leave Link  502 at Sun Jul 18 14:48:02 2021, MaxMem=   104857600 cpu:             900.9 elap:             233.1
 (Enter /dades/curu/g16A03_MST/g16/l601.exe)
 Copying SCF densities to generalized density rwf, IOpCl= 0 IROHF=0.

 **********************************************************************

            Population analysis using the SCF density.

 **********************************************************************

 Orbital symmetries:
       Occupied  (A) (A) (A) (A) (A) (A) (A) (A) (A) (A) (A) (A)
                 (A) (A) (A) (A) (A) (A) (A) (A) (A) (A) (A) (A)
                 (A) (A) (A) (A) (A) (A) (A) (A) (A) (A) (A) (A)
                 (A) (A) (A) (A) (A) (A) (A) (A) (A) (A) (A) (A)
                 (A) (A) (A) (A) (A) (A) (A) (A) (A) (A) (A) (A)
                 (A) (A) (A) (A) (A)
       Virtual   (A) (A) (A) (A) (A) (A) (A) (A) (A) (A) (A) (A)
                 (A) (A) (A) (A) (A) (A) (A) (A) (A) (A) (A) (A)
                 (A) (A) (A) (A) (A) (A) (A) (A) (A) (A) (A) (A)
                 (A) (A) (A) (A) (A) (A) (A) (A) (A) (A) (A) (A)
                 (A) (A) (A) (A) (A) (A) (A) (A) (A) (A) (A) (A)
                 (A) (A) (A) (A) (A) (A) (A) (A) (A) (A) (A) (A)
                 (A) (A) (A) (A) (A) (A) (A) (A) (A) (A) (A) (A)
                 (A) (A) (A) (A) (A) (A) (A) (A) (A) (A) (A) (A)
                 (A) (A) (A) (A) (A) (A) (A) (A) (A) (A) (A) (A)
                 (A) (A) (A) (A) (A) (A) (A) (A) (A) (A) (A) (A)
                 (A) (A) (A) (A) (A) (A) (A) (A) (A) (A) (A) (A)
                 (A) (A) (A) (A) (A) (A) (A) (A) (A) (A) (A) (A)
                 (A) (A) (A) (A) (A) (A) (A) (A) (A) (A) (A) (A)
                 (A) (A) (A) (A) (A) (A) (A) (A) (A) (A) (A) (A)
                 (A) (A) (A) (A) (A) (A) (A) (A) (A) (A) (A) (A)
                 (A) (A) (A) (A) (A) (A) (A) (A) (A) (A) (A) (A)
                 (A) (A) (A) (A) (A) (A) (A) (A) (A) (A) (A) (A)
                 (A) (A) (A) (A) (A) (A) (A) (A) (A) (A) (A) (A)
                 (A) (A) (A) (A) (A) (A) (A) (A) (A) (A) (A) (A)
                 (A) (A) (A) (A) (A) (A)
 The electronic state is 1-A.
 Alpha  occ. eigenvalues --  -19.19748 -19.19026 -19.15382 -14.50778 -10.29527
 Alpha  occ. eigenvalues --  -10.29207 -10.28981 -10.27624 -10.24269 -10.22122
 Alpha  occ. eigenvalues --  -10.22068 -10.21891 -10.21809 -10.21661 -10.21606
 Alpha  occ. eigenvalues --  -10.21538 -10.21511  -1.11243  -1.07430  -1.06260
 Alpha  occ. eigenvalues --   -1.03356  -0.86935  -0.86490  -0.81026  -0.77730
 Alpha  occ. eigenvalues --   -0.76430  -0.74551  -0.73723  -0.69218  -0.68566
 Alpha  occ. eigenvalues --   -0.66783  -0.65312  -0.63401  -0.60021  -0.56547
 Alpha  occ. eigenvalues --   -0.55585  -0.55260  -0.52672  -0.51497  -0.50609
 Alpha  occ. eigenvalues --   -0.49756  -0.48482  -0.47847  -0.46824  -0.46218
 Alpha  occ. eigenvalues --   -0.44940  -0.44627  -0.43759  -0.43416  -0.43011
 Alpha  occ. eigenvalues --   -0.41773  -0.41286  -0.40439  -0.40373  -0.39213
 Alpha  occ. eigenvalues --   -0.38700  -0.38265  -0.37656  -0.36947  -0.34681
 Alpha  occ. eigenvalues --   -0.33789  -0.31413  -0.28903  -0.25840  -0.24004
 Alpha virt. eigenvalues --   -0.03960  -0.02347   0.01010   0.04510   0.05993
 Alpha virt. eigenvalues --    0.06364   0.06715   0.07287   0.07766   0.08707
 Alpha virt. eigenvalues --    0.08970   0.10110   0.10907   0.11468   0.12403
 Alpha virt. eigenvalues --    0.12662   0.13603   0.14179   0.14476   0.14937
 Alpha virt. eigenvalues --    0.15536   0.16066   0.16469   0.17161   0.17742
 Alpha virt. eigenvalues --    0.18596   0.19964   0.20744   0.20997   0.21804
 Alpha virt. eigenvalues --    0.22552   0.22964   0.23202   0.24150   0.25901
 Alpha virt. eigenvalues --    0.28685   0.31376   0.32633   0.33300   0.34156
 Alpha virt. eigenvalues --    0.43523   0.44823   0.45974   0.46901   0.47136
 Alpha virt. eigenvalues --    0.48861   0.50155   0.50406   0.52332   0.52739
 Alpha virt. eigenvalues --    0.53145   0.53790   0.54817   0.55663   0.56828
 Alpha virt. eigenvalues --    0.57115   0.58011   0.58538   0.59306   0.60297
 Alpha virt. eigenvalues --    0.60639   0.62025   0.62653   0.64552   0.65698
 Alpha virt. eigenvalues --    0.66904   0.68010   0.68913   0.69908   0.70375
 Alpha virt. eigenvalues --    0.71366   0.73289   0.75685   0.76897   0.77871
 Alpha virt. eigenvalues --    0.78720   0.79762   0.80904   0.81638   0.82608
 Alpha virt. eigenvalues --    0.82948   0.83703   0.84400   0.84640   0.85655
 Alpha virt. eigenvalues --    0.85938   0.86807   0.87213   0.87603   0.88084
 Alpha virt. eigenvalues --    0.88542   0.89473   0.89554   0.91409   0.92719
 Alpha virt. eigenvalues --    0.93621   0.94111   0.95003   0.95318   0.96621
 Alpha virt. eigenvalues --    0.97355   0.97566   0.99470   0.99783   1.01163
 Alpha virt. eigenvalues --    1.01924   1.02429   1.04137   1.06310   1.07086
 Alpha virt. eigenvalues --    1.10549   1.12057   1.13745   1.15476   1.17080
 Alpha virt. eigenvalues --    1.18545   1.19920   1.22432   1.25641   1.26878
 Alpha virt. eigenvalues --    1.28570   1.30388   1.32846   1.33851   1.35546
 Alpha virt. eigenvalues --    1.36115   1.38299   1.40323   1.43081   1.45113
 Alpha virt. eigenvalues --    1.46334   1.49232   1.51478   1.53269   1.54915
 Alpha virt. eigenvalues --    1.59367   1.60842   1.63824   1.66391   1.66797
 Alpha virt. eigenvalues --    1.67673   1.68591   1.68815   1.69581   1.72952
 Alpha virt. eigenvalues --    1.73742   1.74274   1.75879   1.77510   1.79327
 Alpha virt. eigenvalues --    1.80184   1.80855   1.83236   1.85226   1.87549
 Alpha virt. eigenvalues --    1.88402   1.90131   1.91053   1.92615   1.92672
 Alpha virt. eigenvalues --    1.94742   1.96755   1.97404   2.00844   2.02039
 Alpha virt. eigenvalues --    2.02400   2.02848   2.03778   2.06254   2.07463
 Alpha virt. eigenvalues --    2.08431   2.08849   2.11132   2.13083   2.14329
 Alpha virt. eigenvalues --    2.19492   2.20444   2.22049   2.22195   2.23176
 Alpha virt. eigenvalues --    2.24565   2.25909   2.26770   2.27536   2.28236
 Alpha virt. eigenvalues --    2.30293   2.31769   2.33512   2.36435   2.36692
 Alpha virt. eigenvalues --    2.38455   2.40868   2.42953   2.43839   2.46517
 Alpha virt. eigenvalues --    2.47329   2.53272   2.55637   2.57356   2.59175
 Alpha virt. eigenvalues --    2.59739   2.63728   2.64804   2.67692   2.68876
 Alpha virt. eigenvalues --    2.72000   2.73188   2.75893   2.76304   2.79654
 Alpha virt. eigenvalues --    2.82546   2.85669   2.90180   2.92230   2.95304
 Alpha virt. eigenvalues --    3.09921   3.31072   3.74176   3.87615   3.95036
 Alpha virt. eigenvalues --    4.01465   4.07159   4.12786   4.17502   4.20132
 Alpha virt. eigenvalues --    4.25451   4.25737   4.27268   4.27574   4.41448
 Alpha virt. eigenvalues --    4.45702   4.50754   4.62998   4.73277
          Condensed to atoms (all electrons):
               1          2          3          4          5          6
     1  C    5.196137   0.363270   0.367915   0.379109   0.404071  -0.070754
     2  H    0.363270   0.544464  -0.035392  -0.027349  -0.030743   0.006772
     3  H    0.367915  -0.035392   0.519685  -0.015459  -0.027060  -0.004587
     4  H    0.379109  -0.027349  -0.015459   0.483500  -0.024516  -0.005765
     5  C    0.404071  -0.030743  -0.027060  -0.024516   4.790343   0.391602
     6  C   -0.070754   0.006772  -0.004587  -0.005765   0.391602   5.211275
     7  H   -0.006357  -0.000043   0.002852  -0.000003  -0.034791   0.365558
     8  H    0.005272  -0.000209  -0.000048   0.000181  -0.027753   0.364729
     9  H   -0.003090  -0.000026  -0.000063   0.001838  -0.022781   0.376826
    10  C   -0.070853  -0.008100   0.005382  -0.001853   0.401146  -0.069443
    11  H    0.005710   0.000084  -0.000187  -0.000079  -0.025869  -0.005258
    12  H   -0.005137   0.004280  -0.000024  -0.000144  -0.029311   0.005542
    13  H   -0.005539  -0.000159   0.000093   0.002103  -0.028740  -0.006350
    14  N   -0.066869  -0.003539  -0.003473   0.004486   0.182582  -0.070953
    15  H   -0.002517  -0.000575   0.003908  -0.000018  -0.019639  -0.006630
    16  C    0.004922  -0.000243   0.000087  -0.000090  -0.031962  -0.010206
    17  H   -0.000039   0.000006  -0.000005  -0.000001  -0.008622   0.000206
    18  H    0.000132  -0.000002  -0.000001   0.000001   0.001528   0.002115
    19  C   -0.000124   0.000003  -0.000005   0.000001   0.003751  -0.000167
    20  O   -0.000025  -0.000004  -0.000005   0.000000   0.001086  -0.000067
    21  H   -0.000198  -0.000087   0.000081   0.000002   0.001442   0.000249
    22  H    0.000002  -0.000000  -0.000000  -0.000000   0.000088  -0.000013
    23  C   -0.000003   0.000000   0.000001  -0.000000  -0.000699   0.000134
    24  C    0.000006   0.000000  -0.000009  -0.000000  -0.000057   0.000016
    25  H   -0.000003   0.000000  -0.000001   0.000000   0.000098  -0.000036
    26  C    0.000000   0.000000  -0.000000   0.000000   0.000002  -0.000012
    27  C   -0.000000   0.000000   0.000000   0.000000   0.000000   0.000002
    28  O   -0.000000  -0.000000  -0.000001   0.000000   0.000000  -0.000063
    29  H    0.000000  -0.000000  -0.000000   0.000000  -0.000006   0.000121
    30  H    0.000000   0.000000  -0.000000   0.000000  -0.000000   0.000000
    31  H   -0.000000  -0.000000  -0.000000   0.000000  -0.000000  -0.000000
    32  C   -0.000000  -0.000000   0.000000   0.000000   0.000000   0.000000
    33  O    0.000000  -0.000000   0.000000  -0.000000  -0.000000   0.000000
    34  H   -0.000000   0.000000  -0.000000   0.000000   0.000000  -0.000000
    35  C    0.000000  -0.000000   0.000000  -0.000000   0.000000  -0.000001
    36  H   -0.000000   0.000000  -0.000000   0.000000   0.000000  -0.000000
    37  C    0.000000   0.000000   0.000000  -0.000000  -0.000002   0.000008
    38  H   -0.000000   0.000000  -0.000000   0.000000  -0.000000   0.000000
    39  H   -0.002451   0.005536  -0.000457  -0.000166  -0.022209   0.005734
               7          8          9         10         11         12
     1  C   -0.006357   0.005272  -0.003090  -0.070853   0.005710  -0.005137
     2  H   -0.000043  -0.000209  -0.000026  -0.008100   0.000084   0.004280
     3  H    0.002852  -0.000048  -0.000063   0.005382  -0.000187  -0.000024
     4  H   -0.000003   0.000181   0.001838  -0.001853  -0.000079  -0.000144
     5  C   -0.034791  -0.027753  -0.022781   0.401146  -0.025869  -0.029311
     6  C    0.365558   0.364729   0.376826  -0.069443  -0.005258   0.005542
     7  H    0.521370  -0.018462  -0.021968   0.006241   0.000043  -0.000215
     8  H   -0.018462   0.522695  -0.028159  -0.003172   0.002164  -0.000162
     9  H   -0.021968  -0.028159   0.497375  -0.006475  -0.000136   0.000143
    10  C    0.006241  -0.003172  -0.006475   5.175734   0.368134   0.369258
    11  H    0.000043   0.002164  -0.000136   0.368134   0.541152  -0.032359
    12  H   -0.000215  -0.000162   0.000143   0.369258  -0.032359   0.516229
    13  H    0.000051  -0.000102   0.004418   0.374736  -0.032663  -0.012394
    14  N   -0.003648  -0.005594   0.004433  -0.066926  -0.005922  -0.001439
    15  H    0.006168  -0.000032  -0.000047   0.005880  -0.000221  -0.000230
    16  C    0.000009   0.001129   0.000227  -0.004962   0.002900  -0.001687
    17  H   -0.000012   0.000054  -0.000020   0.006302  -0.000972   0.000578
    18  H   -0.000104   0.006435  -0.000118  -0.003750   0.000121   0.000193
    19  C   -0.000005  -0.000018   0.000001   0.000456   0.000221  -0.000072
    20  O    0.000001   0.000000   0.000000  -0.000042   0.000005  -0.000010
    21  H   -0.000041  -0.000011  -0.000003  -0.000112  -0.000020   0.000001
    22  H   -0.000000   0.000007   0.000000  -0.000020   0.000010  -0.000002
    23  C   -0.000000  -0.000078  -0.000001   0.000008  -0.000015   0.000001
    24  C    0.000011   0.000104   0.000001  -0.000004   0.000000  -0.000000
    25  H   -0.000005   0.000007   0.000000  -0.000003  -0.000000   0.000000
    26  C   -0.000015   0.000008   0.000000  -0.000000   0.000000   0.000000
[...]
    35  C   -0.052773  -0.019874   0.014490  -0.001279   0.001602  -0.001196
    36  H   -0.000910  -0.000170   0.000221  -0.000079  -0.000033   0.000033
    37  C    0.030466  -0.009738   0.000268   0.009957  -0.010234  -0.004838
    38  H   -0.013536  -0.001456   0.002528   0.011134  -0.001216  -0.001496
    39  H   -0.005301   0.012254  -0.003198  -0.008723  -0.031082   0.019194
              13         14         15         16         17         18
     1  C    0.039093   0.349240  -0.077631  -0.021436   0.019201  -0.014876
     2  H   -0.003722  -0.089795   0.006248   0.000499   0.000522   0.004818
     3  H    0.009214  -0.049546  -0.008427  -0.023431   0.002721  -0.004130
     4  H   -0.025188   0.068596  -0.008162   0.033112  -0.001916   0.001365
     5  C   -0.133558  -2.176964   0.034651  -0.192319  -0.065243   0.098084
     6  C    0.027664   0.097847  -0.012503  -0.016131  -0.012088   0.011104
     7  H    0.007628  -0.092154   0.026723   0.105209   0.003695  -0.010003
     8  H    0.005204  -0.161956  -0.017894   0.020009  -0.014923   0.013410
     9  H   -0.023653   0.159924  -0.000380  -0.040327   0.000999   0.005093
    10  C    0.245734  -0.043666   0.010491   0.059640   0.007020   0.020047
    11  H   -0.332283  -0.019730   0.013687   0.136200  -0.009633  -0.007722
    12  H   -0.297985  -0.075425  -0.003410   0.049524  -0.027441   0.007931
    13  H    1.442591   0.057428  -0.002986  -0.050911   0.013680  -0.011577
    14  N    0.057428   9.622359   0.281392  -0.620767  -0.135934  -0.064472
    15  H   -0.002986   0.281392   0.633291   0.085225   0.012262  -0.042859
    16  C   -0.050911  -0.620767   0.085225   6.813590   0.032655  -0.111569
    17  H    0.013680  -0.135934   0.012262   0.032655   1.751345  -0.331166
    18  H   -0.011577  -0.064472  -0.042859  -0.111569  -0.331166   1.928605
    19  C    0.028430   0.148703  -0.168903  -0.065446   0.002633  -0.098670
    20  O    0.001040  -0.059598  -0.003629   0.032881   0.049978   0.036625
    21  H   -0.000600   0.020928   0.004774  -0.075138  -0.018618   0.004873
    22  H    0.000671   0.047874   0.012653  -0.059336  -0.076982  -0.055617
    23  C   -0.005608  -0.102879   0.026554  -0.208356  -0.071024  -0.014043
    24  C   -0.000394  -0.233041   0.141252  -0.147394  -0.025634  -0.082695
    25  H    0.000206   0.005100  -0.003318   0.045665   0.008600   0.000969
    26  C   -0.000016   0.020635  -0.018652  -0.105559  -0.018831  -0.034399
    27  C   -0.000010  -0.002473  -0.005056  -0.027281   0.000714  -0.007557
    28  O    0.000000   0.000159  -0.000182   0.000332  -0.000038   0.000167
    29  H    0.000000  -0.000060  -0.000077   0.000108  -0.000000  -0.000055
    30  H   -0.000009   0.000186  -0.000649   0.002502  -0.000112  -0.000225
    31  H    0.000001   0.000080   0.000656  -0.001015   0.000201  -0.000130
    32  C    0.000017  -0.003102   0.027696   0.129660   0.020039  -0.000166
    33  O   -0.000000  -0.000134  -0.001311  -0.003331  -0.000205  -0.000711
    34  H   -0.000001  -0.000165   0.000703   0.000394   0.000072   0.000115
    35  C    0.000343   0.144488  -0.065206  -0.417245  -0.013921   0.048432
    36  H   -0.000069   0.001804  -0.001180   0.023007  -0.000043   0.009963
    37  C    0.004556   0.197739   0.032863  -0.381505   0.160619  -0.050258
    38  H    0.002986   0.003766  -0.006081   0.018345   0.009975  -0.042504
    39  H    0.010851   0.314851  -0.104268  -0.081379  -0.042882   0.042087
              19         20         21         22         23         24
     1  C    0.020381  -0.004560   0.001016  -0.001092  -0.089013  -0.057497
     2  H   -0.006285   0.000846  -0.001759  -0.000337  -0.004148   0.004938
     3  H    0.022182  -0.000579  -0.001485  -0.000249  -0.011510  -0.014172
     4  H   -0.007008  -0.000379   0.001350   0.000194   0.004706  -0.001317
     5  C   -0.005027   0.007047   0.008794   0.008802  -0.076592  -0.076235
     6  C   -0.049122   0.004461   0.000040  -0.003000   0.040803   0.016004
     7  H   -0.036343   0.000617  -0.000148  -0.001087   0.020203   0.023298
     8  H    0.023774   0.001148  -0.000755  -0.000129   0.023071   0.013349
     9  H    0.002406   0.000085   0.000266   0.000182  -0.009733  -0.006566
    10  C   -0.003618   0.001390   0.002839  -0.003941   0.011149  -0.013728
    11  H   -0.060233  -0.001738   0.000997  -0.000263   0.023254  -0.002164
    12  H   -0.008861  -0.000499   0.000240  -0.000859   0.003996   0.002561
    13  H    0.028430   0.001040  -0.000600   0.000671  -0.005608  -0.000394
    14  N    0.148703  -0.059598   0.020928   0.047874  -0.102879  -0.233041
    15  H   -0.168903  -0.003629   0.004774   0.012653   0.026554   0.141252
    16  C   -0.065446   0.032881  -0.075138  -0.059336  -0.208356  -0.147394
    17  H    0.002633   0.049978  -0.018618  -0.076982  -0.071024  -0.025634
    18  H   -0.098670   0.036625   0.004873  -0.055617  -0.014043  -0.082695
    19  C   10.687725  -0.367409  -0.075607  -0.332180  -1.149922  -3.075038
    20  O   -0.367409   8.922874   0.232344  -0.142327   0.205652   0.116876
    21  H   -0.075607   0.232344   0.594428   0.020339  -0.003180   0.061376
    22  H   -0.332180  -0.142327   0.020339   1.438094   0.030037   0.201106
    23  C   -1.149922   0.205652  -0.003180   0.030037  23.988687  -7.331262
    24  C   -3.075038   0.116876   0.061376   0.201106  -7.331262  28.211945
    25  H    0.239702  -0.067971  -0.004602  -0.007386   1.319750  -2.473274
    26  C   -0.696116  -0.002496  -0.057395   0.030702   1.831612  -4.612619
    27  C   -0.196192  -0.011034   0.000774   0.001339  -0.834090  -1.557749
    28  O   -0.000636   0.000342   0.000874  -0.000126  -0.025887  -0.101469
    29  H    0.000273  -0.000129   0.000133   0.000119   0.023365   0.046781
    30  H    0.008574   0.000882  -0.001758   0.002177   0.021657   0.328324
    31  H   -0.013173  -0.000182  -0.000307  -0.001153  -0.064072  -0.151602
    32  C   -0.300800   0.023238   0.001861   0.008412  -6.254666   2.388311
    33  O    0.012510  -0.000178   0.000458   0.001042   0.209156  -0.170003
    34  H    0.000307   0.000179  -0.000108  -0.000123  -0.020115   0.067650
    35  C    1.217612  -0.031806  -0.012457  -0.041826   2.529102  -6.576943
    36  H   -0.001526  -0.000398   0.000002  -0.003674  -0.372304   0.095954
    37  C   -0.605929  -0.212711   0.129028   0.058488  -8.485797   0.526024
    38  H    0.115792   0.008802   0.002277   0.005674   0.376093   0.109984
    39  H    0.072160   0.020663   0.011554   0.003452  -0.067151  -0.020443
              25         26         27         28         29         30
     1  C   -0.003877  -0.012193   0.000947  -0.000014   0.000022   0.000260
     2  H    0.000371  -0.000913   0.000139  -0.000010  -0.000002  -0.000016
     3  H    0.000108   0.001932   0.000226   0.000007   0.000019   0.000038
     4  H   -0.000353   0.000318   0.000047  -0.000000   0.000002   0.000033
     5  C    0.007798   0.031911  -0.004627   0.000060  -0.000043  -0.000499
     6  C   -0.000915   0.000857   0.001467  -0.000024   0.000006   0.000168
     7  H    0.000480  -0.006810  -0.000303  -0.000019  -0.000009  -0.000002
     8  H    0.000123   0.002267   0.000370  -0.000004  -0.000001   0.000009
     9  H   -0.000154   0.000442   0.000080  -0.000002   0.000000   0.000004
    10  C    0.000155   0.002872  -0.000046   0.000005   0.000014  -0.000037
    11  H   -0.000245   0.000707  -0.000033  -0.000000   0.000003   0.000015
    12  H    0.000158   0.000607  -0.000015   0.000003   0.000000  -0.000015
    13  H    0.000206  -0.000016  -0.000010   0.000000   0.000000  -0.000009
    14  N    0.005100   0.020635  -0.002473   0.000159  -0.000060   0.000186
    15  H   -0.003318  -0.018652  -0.005056  -0.000182  -0.000077  -0.000649
    16  C    0.045665  -0.105559  -0.027281   0.000332   0.000108   0.002502
    17  H    0.008600  -0.018831   0.000714  -0.000038  -0.000000  -0.000112
    18  H    0.000969  -0.034399  -0.007557   0.000167  -0.000055  -0.000225
    19  C    0.239702  -0.696116  -0.196192  -0.000636   0.000273   0.008574
    20  O   -0.067971  -0.002496  -0.011034   0.000342  -0.000129   0.000882
    21  H   -0.004602  -0.057395   0.000774   0.000874   0.000133  -0.001758
    22  H   -0.007386   0.030702   0.001339  -0.000126   0.000119   0.002177
    23  C    1.319750   1.831612  -0.834090  -0.025887   0.023365   0.021657
    24  C   -2.473274  -4.612619  -1.557749  -0.101469   0.046781   0.328324
    25  H    2.643457   0.351383  -0.032841  -0.022812   0.002036  -0.079114
    26  C    0.351383  17.122894  -0.657519  -0.012130   0.199628  -0.039753
    27  C   -0.032841  -0.657519   7.086244   0.162465  -0.129043  -0.063820
    28  O   -0.022812  -0.012130   0.162465   8.475668   0.311030  -0.030058
    29  H    0.002036   0.199628  -0.129043   0.311030   0.520323   0.019398
    30  H   -0.079114  -0.039753  -0.063820  -0.030058   0.019398   1.382997
    31  H    0.007611   0.057348   0.229375   0.028461  -0.024673  -0.166122
    32  C   -0.323006  -3.952990   0.017463   0.007635  -0.100981  -0.077230
    33  O   -0.006162   0.369107   0.075407  -0.030129   0.012296  -0.004077
    34  H   -0.001802  -0.083753  -0.027788   0.002253  -0.000835   0.003055
    35  C    0.073600   1.644206   0.389351  -0.028211  -0.078761  -0.058682
    36  H    0.008514  -0.288025   0.024108   0.001433  -0.000174  -0.000802
    37  C    0.135195  -4.949032   0.376567  -0.014531   0.000540   0.020228
    38  H   -0.021313  -0.090930  -0.017421  -0.000213   0.000240  -0.001582
    39  H    0.005272  -0.006756  -0.004269  -0.000065  -0.000028  -0.000211
              31         32         33         34         35         36
     1  C    0.000024   0.005261   0.000064  -0.000031   0.034649  -0.000289
     2  H    0.000009   0.001250  -0.000014   0.000010  -0.002426  -0.000018
     3  H   -0.000010  -0.002174   0.000128  -0.000095   0.009372   0.000156
     4  H   -0.000001  -0.000238   0.000007  -0.000003  -0.000319  -0.000028
     5  C   -0.000116  -0.041193   0.000424  -0.000402   0.178176   0.002106
     6  C    0.000036   0.014430  -0.000257   0.000107  -0.047680  -0.000987
     7  H   -0.000023  -0.000299  -0.000068   0.000195  -0.052773  -0.000910
     8  H    0.000018  -0.004845   0.000026  -0.000011  -0.019874  -0.000170
     9  H    0.000004   0.001610  -0.000019  -0.000007   0.014490   0.000221
    10  C   -0.000013  -0.003945   0.000018  -0.000026  -0.001279  -0.000079
    11  H   -0.000011  -0.001253   0.000010  -0.000007   0.001602  -0.000033
    12  H   -0.000004  -0.000362   0.000004  -0.000001  -0.001196   0.000033
    13  H    0.000001   0.000017  -0.000000  -0.000001   0.000343  -0.000069
    14  N    0.000080  -0.003102  -0.000134  -0.000165   0.144488   0.001804
    15  H    0.000656   0.027696  -0.001311   0.000703  -0.065206  -0.001180
    16  C   -0.001015   0.129660  -0.003331   0.000394  -0.417245   0.023007
    17  H    0.000201   0.020039  -0.000205   0.000072  -0.013921  -0.000043
    18  H   -0.000130  -0.000166  -0.000711   0.000115   0.048432   0.009963
    19  C   -0.013173  -0.300800   0.012510   0.000307   1.217612  -0.001526
    20  O   -0.000182   0.023238  -0.000178   0.000179  -0.031806  -0.000398
    21  H   -0.000307   0.001861   0.000458  -0.000108  -0.012457   0.000002
    22  H   -0.001153   0.008412   0.001042  -0.000123  -0.041826  -0.003674
    23  C   -0.064072  -6.254666   0.209156  -0.020115   2.529102  -0.372304
    24  C   -0.151602   2.388311  -0.170003   0.067650  -6.576943   0.095954
    25  H    0.007611  -0.323006  -0.006162  -0.001802   0.073600   0.008514
    26  C    0.057348  -3.952990   0.369107  -0.083753   1.644206  -0.288025
    27  C    0.229375   0.017463   0.075407  -0.027788   0.389351   0.024108
    28  O    0.028461   0.007635  -0.030129   0.002253  -0.028211   0.001433
    29  H   -0.024673  -0.100981   0.012296  -0.000835  -0.078761  -0.000174
    30  H   -0.166122  -0.077230  -0.004077   0.003055  -0.058682  -0.000802
    31  H    0.839827   0.134431  -0.003941  -0.001934   0.068783   0.002112
    32  C    0.134431  18.245603  -1.541932   0.038432  -7.275071   1.356325
    33  O   -0.003941  -1.541932   9.293787   0.278452   0.778117  -0.138622
    34  H   -0.001934   0.038432   0.278452   0.508533  -0.080044   0.014173
    35  C    0.068783  -7.275071   0.778117  -0.080044  21.364720  -1.854626
    36  H    0.002112   1.356325  -0.138622   0.014173  -1.854626   2.087237
    37  C    0.009385   2.520029  -0.070033   0.050979  -6.677218   0.851646
    38  H   -0.001644  -0.173665   0.002684  -0.000802   0.741128  -0.138427
    39  H   -0.000151  -0.015645   0.000103  -0.000057   0.045798  -0.000072
              37         38         39
     1  C    0.033324   0.006883  -0.007863
     2  H    0.002903  -0.002046  -0.007353
     3  H   -0.003396   0.001998  -0.001050
     4  H   -0.004583   0.000486  -0.001383
     5  C   -0.187170  -0.002941  -0.008527
     6  C    0.011800   0.009286   0.007643
     7  H    0.030466  -0.013536  -0.005301
     8  H   -0.009738  -0.001456   0.012254
     9  H    0.000268   0.002528  -0.003198
    10  C    0.009957   0.011134  -0.008723
    11  H   -0.010234  -0.001216  -0.031082
    12  H   -0.004838  -0.001496   0.019194
    13  H    0.004556   0.002986   0.010851
    14  N    0.197739   0.003766   0.314851
    15  H    0.032863  -0.006081  -0.104268
    16  C   -0.381505   0.018345  -0.081379
    17  H    0.160619   0.009975  -0.042882
    18  H   -0.050258  -0.042504   0.042087
    19  C   -0.605929   0.115792   0.072160
    20  O   -0.212711   0.008802   0.020663
    21  H    0.129028   0.002277   0.011554
    22  H    0.058488   0.005674   0.003452
    23  C   -8.485797   0.376093  -0.067151
    24  C    0.526024   0.109984  -0.020443
    25  H    0.135195  -0.021313   0.005272
    26  C   -4.949032  -0.090930  -0.006756
    27  C    0.376567  -0.017421  -0.004269
    28  O   -0.014531  -0.000213  -0.000065
    29  H    0.000540   0.000240  -0.000028
    30  H    0.020228  -0.001582  -0.000211
    31  H    0.009385  -0.001644  -0.000151
    32  C    2.520029  -0.173665  -0.015645
    33  O   -0.070033   0.002684   0.000103
    34  H    0.050979  -0.000802  -0.000057
    35  C   -6.677218   0.741128   0.045798
    36  H    0.851646  -0.138427  -0.000072
    37  C   23.641706  -1.781957  -0.051102
    38  H   -1.781957   2.584671   0.013479
    39  H   -0.051102   0.013479   0.675482
 Mulliken charges:
               1
     1  C    1.328839
     2  H    0.004743
     3  H    0.002144
     4  H    0.040498
     5  C   -3.422805
     6  C    1.243482
     7  H   -0.007572
     8  H   -0.023251
     9  H   -0.024526
    10  C    1.344049
    11  H   -0.021187
    12  H   -0.012637
    13  H   -0.008764
    14  N   -0.611237
    15  H    0.201645
    16  C    1.061319
    17  H   -0.230297
    18  H   -0.248286
    19  C    0.720879
    20  O   -0.760348
    21  H    0.152352
    22  H   -0.139669
    23  C    0.512504
    24  C    0.375505
    25  H   -0.807112
    26  C   -0.022539
    27  C    1.212083
    28  O   -0.724333
    29  H    0.198534
    30  H   -0.265734
    31  H    0.051913
    32  C    1.131861
    33  O   -1.062672
    34  H    0.252501
    35  C    0.053596
    36  H   -0.676339
    37  C    0.695726
    38  H   -0.728980
    39  H    0.214118
 Sum of Mulliken charges =   1.00000
 Mulliken charges with hydrogens summed into heavy atoms:
               1
     1  C    1.376225
     5  C   -3.422805
     6  C    1.188133
    10  C    1.301461
    14  N   -0.195474
    16  C    0.582736
    19  C    0.581210
    20  O   -0.607996
    23  C    0.512504
    24  C   -0.431608
    26  C   -0.022539
    27  C    0.998262
    28  O   -0.525799
    32  C    1.131861
    33  O   -0.810172
    35  C   -0.622744
    37  C   -0.033255
 Electronic spatial extent (au):  <R**2>=           5925.7491
 Charge=              1.0000 electrons
 Dipole moment (field-independent basis, Debye):
    X=             10.3050    Y=              3.1051    Z=             -1.0147  Tot=             10.8104
 Quadrupole moment (field-independent basis, Debye-Ang):
   XX=            -55.1092   YY=            -89.1679   ZZ=            -99.3670
   XY=             -4.1353   XZ=             13.6102   YZ=             -3.3230
 Traceless Quadrupole moment (field-independent basis, Debye-Ang):
   XX=             26.1055   YY=             -7.9532   ZZ=            -18.1523
   XY=             -4.1353   XZ=             13.6102   YZ=             -3.3230
 Octapole moment (field-independent basis, Debye-Ang**2):
  XXX=            155.8620  YYY=             45.2724  ZZZ=             -0.9340  XYY=            -35.2124
  XXY=             51.6484  XXZ=            -16.9504  XZZ=             45.5333  YZZ=             -1.2447
  YYZ=              2.0473  XYZ=              7.3344
 Hexadecapole moment (field-independent basis, Debye-Ang**3):
 XXXX=          -5110.3648 YYYY=          -1005.9391 ZZZZ=           -714.6380 XXXY=            -94.0210
 XXXZ=            246.6106 YYYX=            -92.6472 YYYZ=            -48.7731 ZZZX=             40.3599
 ZZZY=             14.0233 XXYY=           -930.7070 XXZZ=          -1147.8803 YYZZ=           -255.8760
 XXYZ=             22.6985 YYXZ=             14.9914 ZZXY=            -34.0751
 N-N= 1.265216762757D+03 E-N=-4.346617538220D+03  KE= 7.830042265686D+02
 Leave Link  601 at Sun Jul 18 19:02:50 2021, MaxMem=   262144000 cpu:               0.5 elap:               0.5
 (Enter /dades/curu/g16A03_MST/g16/l9999.exe)
 1\1\GINC-PIRINEUS30\SP\RMP2-FC\Aug-CC-pVDZ\C13H22N1O3(1+)\UBATOR02\18-
 Jul-2021\0\\#p mp2/aug-cc-pVDZ scf=tight maxdisk=180GB geom=allcheck\\
 SET_328_BBB301_conf1.geo_090_285_255 geometry\\1,1\C,0,-1.0295311318,-
 2.9456054836,-2.2768886813\H,0,-0.3902289747,-3.7148965155,-1.83371711
 57\H,0,-0.401394453,-2.245907958,-2.8355724471\H,0,-1.6917443704,-3.43
 79497188,-2.9919283002\C,0,-1.8782042044,-2.2268875394,-1.2217030163\C
 ,0,-2.7298647498,-1.126204332,-1.8575936443\H,0,-2.1242673716,-0.40259
 72448,-2.4110832134\H,0,-3.331338877,-0.592236434,-1.12002186\H,0,-3.4
 200976634,-1.58668473,-2.5666247039\C,0,-2.7455139742,-3.2141513476,-0
 .4386730661\H,0,-3.3666340408,-2.7162866793,0.3075170539\H,0,-2.148023
 7,-3.980960919,0.0602002669\H,0,-3.4157214697,-3.7212559292,-1.1357330
 049\N,0,-0.8756164067,-1.5755564925,-0.236320498\H,0,-0.2505099733,-0.
 9472613855,-0.7608526832\C,0,-1.448414926,-0.8356391398,0.9392622799\H
 ,0,-2.024611613,-1.5577000145,1.5129348695\H,0,-2.121340758,-0.0724626
 764,0.5529049219\C,0,-0.3593602197,-0.2248743349,1.8394264162\O,0,0.47
 86702158,-1.2516808601,2.3582130195\H,0,1.22602109,-1.3825984284,1.751
 6480196\H,0,-0.905034917,0.1558403147,2.709721787\C,0,0.4297676649,0.9
 164541616,1.2089794843\C,0,1.7656337122,1.1198722652,1.5837213428\H,0,
 2.2221103093,0.4449054892,2.2987791423\C,0,2.5222264039,2.1759906212,1
 .0853429666\C,0,3.9577983558,2.3992524829,1.5031063328\O,0,4.861433754
 4,2.4347805762,0.4048983393\H,0,4.5937907435,3.1992864501,-0.132655367
 6\H,0,4.2786676777,1.5759986611,2.1454711617\H,0,4.0280789972,3.323477
 4547,2.0933462654\C,0,1.9174775614,3.0604579332,0.1771169986\O,0,2.702
 5082249,4.0789881148,-0.2888787902\H,0,2.2033927742,4.6423192189,-0.90
 31175677\C,0,0.5871844958,2.8873450018,-0.2047658943\H,0,0.1228469969,
 3.578740442,-0.9000121985\C,0,-0.1483577115,1.8233599031,0.3157970083\
 H,0,-1.1868523352,1.7244609092,0.0212840807\H,0,-0.2639451369,-2.31913
 18366,0.1264702953\\Version=ES64L-G16RevA.03\State=1-A\HF=-784.0224755
 \MP2=-786.6587749\RMSD=2.717e-09\PG=C01 [X(C13H22N1O3)]\\@


 NECESSARY EVIL: ONE WE LIKE TOO MUCH TO RELINQUISH.
 Job cpu time:       0 days  3 hours 31 minutes 19.7 seconds.
 Elapsed time:       0 days  1 hours  5 minutes 18.0 seconds.
 File lengths (MBytes):  RWF= 100988 Int=      0 D2E=      0 Chk=     28 Scr=      1
 Normal termination of Gaussian 16 at Sun Jul 18 19:02:52 2021.
