 Entering Gaussian System, Link 0=g16
 Input=SET_328_BBB227_conf1.geo_075_180_060_OCTANOL.dat
 Output=SET_328_BBB227_conf1.geo_075_180_060_OCTANOL.log
 Initial command:
 /dades/curu/g16A03_MST/g16/l1.exe "/tmp/ubator02/1839516/Gau-174792.inp" -scrdir="/tmp/ubator02/1839516/"
 Entering Link 1 = /dades/curu/g16A03_MST/g16/l1.exe PID=    174793.
  
 Copyright (c) 1988,1990,1992,1993,1995,1998,2003,2009,2016,
            Gaussian, Inc.  All Rights Reserved.
  
 This is part of the Gaussian(R) 16 program.  It is based on
 the Gaussian(R) 09 system (copyright 2009, Gaussian, Inc.),
 the Gaussian(R) 03 system (copyright 2003, Gaussian, Inc.),
 the Gaussian(R) 98 system (copyright 1998, Gaussian, Inc.),
 the Gaussian(R) 94 system (copyright 1995, Gaussian, Inc.),
 the Gaussian 92(TM) system (copyright 1992, Gaussian, Inc.),
 the Gaussian 90(TM) system (copyright 1990, Gaussian, Inc.),
 the Gaussian 88(TM) system (copyright 1988, Gaussian, Inc.),
 the Gaussian 86(TM) system (copyright 1986, Carnegie Mellon
 University), and the Gaussian 82(TM) system (copyright 1983,
 Carnegie Mellon University). Gaussian is a federally registered
 trademark of Gaussian, Inc.
  
 This software contains proprietary and confidential information,
 including trade secrets, belonging to Gaussian, Inc.
  
 This software is provided under written license and may be
 used, copied, transmitted, or stored only in accord with that
 written license.
  
 The following legend is applicable only to US Government
 contracts under FAR:
  
                    RESTRICTED RIGHTS LEGEND
  
 Use, reproduction and disclosure by the US Government is
 subject to restrictions as set forth in subparagraphs (a)
 and (c) of the Commercial Computer Software - Restricted
 Rights clause in FAR 52.227-19.
  
 Gaussian, Inc.
 340 Quinnipiac St., Bldg. 40, Wallingford CT 06492
  
  
 ---------------------------------------------------------------
 Warning -- This program may not be used in any manner that
 competes with the business of Gaussian, Inc. or will provide
 assistance to any competitor of Gaussian, Inc.  The licensee
 of this program is prohibited from giving any competitor of
 Gaussian, Inc. access to this program.  By using this program,
 the user acknowledges that Gaussian, Inc. is engaged in the
 business of creating and licensing software in the field of
 computational chemistry and represents and warrants to the
 licensee that it is not a competitor of Gaussian, Inc. and that
 it will not use this program in any manner prohibited above.
 ---------------------------------------------------------------
  

 Cite this work as:
 Gaussian 16, Revision A.03,
 M. J. Frisch, G. W. Trucks, H. B. Schlegel, G. E. Scuseria, 
 M. A. Robb, J. R. Cheeseman, G. Scalmani, V. Barone, 
 G. A. Petersson, H. Nakatsuji, X. Li, M. Caricato, A. V. Marenich, 
 J. Bloino, B. G. Janesko, R. Gomperts, B. Mennucci, H. P. Hratchian, 
 J. V. Ortiz, A. F. Izmaylov, J. L. Sonnenberg, D. Williams-Young, 
 F. Ding, F. Lipparini, F. Egidi, J. Goings, B. Peng, A. Petrone, 
 T. Henderson, D. Ranasinghe, V. G. Zakrzewski, J. Gao, N. Rega, 
 G. Zheng, W. Liang, M. Hada, M. Ehara, K. Toyota, R. Fukuda, 
 J. Hasegawa, M. Ishida, T. Nakajima, Y. Honda, O. Kitao, H. Nakai, 
 T. Vreven, K. Throssell, J. A. Montgomery, Jr., J. E. Peralta, 
 F. Ogliaro, M. J. Bearpark, J. J. Heyd, E. N. Brothers, K. N. Kudin, 
 V. N. Staroverov, T. A. Keith, R. Kobayashi, J. Normand, 
 K. Raghavachari, A. P. Rendell, J. C. Burant, S. S. Iyengar, 
 J. Tomasi, M. Cossi, J. M. Millam, M. Klene, C. Adamo, R. Cammi, 
 J. W. Ochterski, R. L. Martin, K. Morokuma, O. Farkas, 
 J. B. Foresman, and D. J. Fox, Gaussian, Inc., Wallingford CT, 2016.
 
 ******************************************
 Gaussian 16:  ES64L-G16RevA.03 25-Dec-2016
                18-Jul-2021 
 ******************************************
 %mem=800MB
 %nproc=4
 Will use up to    4 processors via shared memory.
 %chk=SET_328_BBB227_conf1.geo_075_180_060.chk
 ---------------------------------------------------------------
 #p b3lyp/6-31G(d) opt freq scrf=(iefpcm,read,solvent=n-octanol)
 ---------------------------------------------------------------
 1/18=20,19=15,26=3,38=1,40=2/1,3;
 2/9=110,12=2,17=6,18=5,40=1/2;
 3/5=1,6=6,7=1,11=2,25=1,30=1,70=2203,71=1,72=25,74=-5/1,2,3;
 4//1;
 5/5=2,38=5,53=25/2;
 6/7=2,8=2,9=2,10=2,28=1/1;
 7//1,2,3,16;
 1/18=20,19=15,26=3/3(2);
 2/9=110/2;
 99//99;
 2/9=110/2;
 3/5=1,6=6,7=1,11=2,25=1,30=1,70=2205,71=1,72=25,74=-5/1,2,3;
 4/5=5,16=3,69=1/1;
 5/5=2,38=5,53=25/2;
 7//1,2,3,16;
 1/18=20,19=15,26=3/3(-5);
 2/9=110/2;
 6/7=2,8=2,9=2,10=2,19=2,28=1/1;
 99/9=1/99;
 Leave Link    1 at Sun Jul 18 13:33:04 2021, MaxMem=   104857600 cpu:               0.0 elap:               0.0
 (Enter /dades/curu/g16A03_MST/g16/l101.exe)
 ---------------------------------------------
 SET_328_BBB227_conf1.geo_075_180_060 geometry
 ---------------------------------------------
 Symbolic Z-matrix:
 Charge =  1 Multiplicity = 1
 S                    -0.827    -1.21     -2.391 
 C                    -0.483    -0.954    -0.79 
 N                    -1.335    -0.358     0.057 
 C                    -2.62      0.203    -0.263 
 C                    -3.768    -0.86     -0.511 
 C                    -5.115    -0.179    -0.747 
 C                    -5.599     0.759     0.353 
 C                    -4.501     1.813     0.591 
 C                    -3.08      1.204     0.82 
 H                    -3.155     0.722     1.803 
 H                    -2.332     1.995     0.953 
 H                    -4.737     2.522     1.395 
 H                    -4.483     2.381    -0.347 
 H                    -5.662     0.133     1.252 
 H                    -6.555     1.207     0.055 
 H                    -5.839    -0.985    -0.919 
 H                    -5.19      0.373    -1.692 
 H                    -3.854    -1.471     0.396 
 H                    -3.548    -1.531    -1.35 
 H                    -2.582     0.839    -1.156 
 H                    -0.995    -0.239     1.003 
 N                     0.661    -1.446    -0.119 
 C                     1.171    -1.089     1.289 
 C                     2.291    -0.131     1.283 
 H                     1.751     0.726     0.861 
 H                     2.734     0.067     2.266 
 H                     0.314    -0.703     1.855 
 H                     1.41     -2.035     1.792 
 C                     1.661    -2.117    -0.928 
 H                     1.391    -2.479    -1.927 
 H                     2.057    -2.974    -0.37 
 C                     2.797    -1.131    -1.193 
 H                     2.451    -0.288    -1.804 
 H                     3.644    -1.585    -1.722 
 C                     3.359    -0.662     0.194 
 H                     3.934    -1.479     0.647 
 C                     4.417     0.428    -0.043 
 C                     5.694     0.338     0.369 
 H                     6.169    -0.427     0.967 
 N                     6.251     1.586     0.059 
 H                     7.065     1.471    -0.51 
 C                     5.277     2.247    -0.634 
 H                     5.513     3.251    -0.963 
 N                     4.141     1.592    -0.664 
 H                     6.479     2.082     0.897 
 
 ITRead=  0  0  0  0  0  0  0  0  0  0  0  0  0  0  0  0  0  0  0  0
 ITRead=  0  0  0  0  0  0  0  0  0  0  0  0  0  0  0  0  0  0  0  0
 ITRead=  0  0  0  0  0
 MicOpt= -1 -1 -1 -1 -1 -1 -1 -1 -1 -1 -1 -1 -1 -1 -1 -1 -1 -1 -1 -1
 MicOpt= -1 -1 -1 -1 -1 -1 -1 -1 -1 -1 -1 -1 -1 -1 -1 -1 -1 -1 -1 -1
 MicOpt= -1 -1 -1 -1 -1
 NAtoms=     45 NQM=       45 NQMF=       0 NMMI=      0 NMMIF=      0
                NMic=       0 NMicF=      0.
                    Isotopes and Nuclear Properties:
 (Nuclear quadrupole moments (NQMom) in fm**2, nuclear magnetic moments (NMagM)
  in nuclear magnetons)

  Atom         1           2           3           4           5           6           7           8           9          10
 IAtWgt=          32          12          14          12          12          12          12          12          12           1
 AtmWgt=  31.9720718  12.0000000  14.0030740  12.0000000  12.0000000  12.0000000  12.0000000  12.0000000  12.0000000   1.0078250
 NucSpn=           0           0           2           0           0           0           0           0           0           1
 AtZEff=  -0.0000000  -0.0000000  -0.0000000  -0.0000000  -0.0000000  -0.0000000  -0.0000000  -0.0000000  -0.0000000  -0.0000000
 NQMom=    0.0000000   0.0000000   2.0440000   0.0000000   0.0000000   0.0000000   0.0000000   0.0000000   0.0000000   0.0000000
 NMagM=    0.0000000   0.0000000   0.4037610   0.0000000   0.0000000   0.0000000   0.0000000   0.0000000   0.0000000   2.7928460
 AtZNuc=  16.0000000   6.0000000   7.0000000   6.0000000   6.0000000   6.0000000   6.0000000   6.0000000   6.0000000   1.0000000

  Atom        11          12          13          14          15          16          17          18          19          20
 IAtWgt=           1           1           1           1           1           1           1           1           1           1
 AtmWgt=   1.0078250   1.0078250   1.0078250   1.0078250   1.0078250   1.0078250   1.0078250   1.0078250   1.0078250   1.0078250
 NucSpn=           1           1           1           1           1           1           1           1           1           1
 AtZEff=  -0.0000000  -0.0000000  -0.0000000  -0.0000000  -0.0000000  -0.0000000  -0.0000000  -0.0000000  -0.0000000  -0.0000000
 NQMom=    0.0000000   0.0000000   0.0000000   0.0000000   0.0000000   0.0000000   0.0000000   0.0000000   0.0000000   0.0000000
 NMagM=    2.7928460   2.7928460   2.7928460   2.7928460   2.7928460   2.7928460   2.7928460   2.7928460   2.7928460   2.7928460
 AtZNuc=   1.0000000   1.0000000   1.0000000   1.0000000   1.0000000   1.0000000   1.0000000   1.0000000   1.0000000   1.0000000

  Atom        21          22          23          24          25          26          27          28          29          30
 IAtWgt=           1          14          12          12           1           1           1           1          12           1
 AtmWgt=   1.0078250  14.0030740  12.0000000  12.0000000   1.0078250   1.0078250   1.0078250   1.0078250  12.0000000   1.0078250
 NucSpn=           1           2           0           0           1           1           1           1           0           1
 AtZEff=  -0.0000000  -0.0000000  -0.0000000  -0.0000000  -0.0000000  -0.0000000  -0.0000000  -0.0000000  -0.0000000  -0.0000000
 NQMom=    0.0000000   2.0440000   0.0000000   0.0000000   0.0000000   0.0000000   0.0000000   0.0000000   0.0000000   0.0000000
 NMagM=    2.7928460   0.4037610   0.0000000   0.0000000   2.7928460   2.7928460   2.7928460   2.7928460   0.0000000   2.7928460
 AtZNuc=   1.0000000   7.0000000   6.0000000   6.0000000   1.0000000   1.0000000   1.0000000   1.0000000   6.0000000   1.0000000

  Atom        31          32          33          34          35          36          37          38          39          40
 IAtWgt=           1          12           1           1          12           1          12          12           1          14
 AtmWgt=   1.0078250  12.0000000   1.0078250   1.0078250  12.0000000   1.0078250  12.0000000  12.0000000   1.0078250  14.0030740
 NucSpn=           1           0           1           1           0           1           0           0           1           2
 AtZEff=  -0.0000000  -0.0000000  -0.0000000  -0.0000000  -0.0000000  -0.0000000  -0.0000000  -0.0000000  -0.0000000  -0.0000000
 NQMom=    0.0000000   0.0000000   0.0000000   0.0000000   0.0000000   0.0000000   0.0000000   0.0000000   0.0000000   2.0440000
 NMagM=    2.7928460   0.0000000   2.7928460   2.7928460   0.0000000   2.7928460   0.0000000   0.0000000   2.7928460   0.4037610
 AtZNuc=   1.0000000   6.0000000   1.0000000   1.0000000   6.0000000   1.0000000   6.0000000   6.0000000   1.0000000   7.0000000

  Atom        41          42          43          44          45
 IAtWgt=           1          12           1          14           1
 AtmWgt=   1.0078250  12.0000000   1.0078250  14.0030740   1.0078250
 NucSpn=           1           0           1           2           1
 AtZEff=  -0.0000000  -0.0000000  -0.0000000  -0.0000000  -0.0000000
 NQMom=    0.0000000   0.0000000   0.0000000   2.0440000   0.0000000
 NMagM=    2.7928460   0.0000000   2.7928460   0.4037610   2.7928460
 AtZNuc=   1.0000000   6.0000000   1.0000000   7.0000000   1.0000000
 Leave Link  101 at Sun Jul 18 13:33:05 2021, MaxMem=   104857600 cpu:               0.1 elap:               0.1
 (Enter /dades/curu/g16A03_MST/g16/l103.exe)

 GradGradGradGradGradGradGradGradGradGradGradGradGradGradGradGradGradGrad
 Berny optimization.
 Initialization pass.
                           ----------------------------
                           !    Initial Parameters    !
                           ! (Angstroms and Degrees)  !
 --------------------------                            --------------------------
 ! Name  Definition              Value          Derivative Info.                !
 --------------------------------------------------------------------------------
 ! R1    R(1,2)                  1.6574         estimate D2E/DX2                !
 ! R2    R(2,3)                  1.3411         estimate D2E/DX2                !
 ! R3    R(2,22)                 1.4146         estimate D2E/DX2                !
 ! R4    R(3,4)                  1.4382         estimate D2E/DX2                !
 ! R5    R(3,21)                 1.0123         estimate D2E/DX2                !
 ! R6    R(4,5)                  1.5841         estimate D2E/DX2                !
 ! R7    R(4,9)                  1.5448         estimate D2E/DX2                !
 ! R8    R(4,20)                 1.097          estimate D2E/DX2                !
 ! R9    R(5,6)                  1.5277         estimate D2E/DX2                !
 ! R10   R(5,18)                 1.097          estimate D2E/DX2                !
 ! R11   R(5,19)                 1.0966         estimate D2E/DX2                !
 ! R12   R(6,7)                  1.5245         estimate D2E/DX2                !
 ! R13   R(6,16)                 1.097          estimate D2E/DX2                !
 ! R14   R(6,17)                 1.097          estimate D2E/DX2                !
 ! R15   R(7,8)                  1.5405         estimate D2E/DX2                !
 ! R16   R(7,14)                 1.0973         estimate D2E/DX2                !
 ! R17   R(7,15)                 1.097          estimate D2E/DX2                !
 ! R18   R(8,9)                  1.5629         estimate D2E/DX2                !
 ! R19   R(8,12)                 1.0976         estimate D2E/DX2                !
 ! R20   R(8,13)                 1.0967         estimate D2E/DX2                !
 ! R21   R(9,10)                 1.0974         estimate D2E/DX2                !
 ! R22   R(9,11)                 1.0968         estimate D2E/DX2                !
 ! R23   R(22,23)                1.5395         estimate D2E/DX2                !
 ! R24   R(22,29)                1.4508         estimate D2E/DX2                !
 ! R25   R(23,24)                1.4738         estimate D2E/DX2                !
 ! R26   R(23,27)                1.0972         estimate D2E/DX2                !
 ! R27   R(23,28)                1.0977         estimate D2E/DX2                !
 ! R28   R(24,25)                1.0973         estimate D2E/DX2                !
 ! R29   R(24,26)                1.0962         estimate D2E/DX2                !
 ! R30   R(24,35)                1.6151         estimate D2E/DX2                !
 ! R31   R(29,30)                1.0963         estimate D2E/DX2                !
 ! R32   R(29,31)                1.0966         estimate D2E/DX2                !
 ! R33   R(29,32)                1.5274         estimate D2E/DX2                !
 ! R34   R(32,33)                1.0971         estimate D2E/DX2                !
 ! R35   R(32,34)                1.097          estimate D2E/DX2                !
 ! R36   R(32,35)                1.5683         estimate D2E/DX2                !
 ! R37   R(35,36)                1.097          estimate D2E/DX2                !
 ! R38   R(35,37)                1.5374         estimate D2E/DX2                !
 ! R39   R(37,38)                1.3448         estimate D2E/DX2                !
 ! R40   R(37,44)                1.3479         estimate D2E/DX2                !
 ! R41   R(38,39)                1.081          estimate D2E/DX2                !
 ! R42   R(38,40)                1.4014         estimate D2E/DX2                !
 ! R43   R(40,41)                0.9998         estimate D2E/DX2                !
 ! R44   R(40,42)                1.366          estimate D2E/DX2                !
 ! R45   R(40,45)                1.0001         estimate D2E/DX2                !
 ! R46   R(42,43)                1.0826         estimate D2E/DX2                !
 ! R47   R(42,44)                1.3116         estimate D2E/DX2                !
 ! A1    A(1,2,3)              123.1516         estimate D2E/DX2                !
 ! A2    A(1,2,22)             124.9125         estimate D2E/DX2                !
 ! A3    A(3,2,22)             111.6396         estimate D2E/DX2                !
 ! A4    A(2,3,4)              126.9034         estimate D2E/DX2                !
 ! A5    A(2,3,21)             115.4098         estimate D2E/DX2                !
 ! A6    A(4,3,21)             117.5285         estimate D2E/DX2                !
 ! A7    A(3,4,5)              114.8719         estimate D2E/DX2                !
 ! A8    A(3,4,9)              111.2738         estimate D2E/DX2                !
 ! A9    A(3,4,20)             112.1067         estimate D2E/DX2                !
 ! A10   A(5,4,9)              109.1945         estimate D2E/DX2                !
 ! A11   A(5,4,20)             106.6611         estimate D2E/DX2                !
 ! A12   A(9,4,20)             101.8488         estimate D2E/DX2                !
 ! A13   A(4,5,6)              111.3483         estimate D2E/DX2                !
 ! A14   A(4,5,18)             107.5256         estimate D2E/DX2                !
 ! A15   A(4,5,19)             112.6431         estimate D2E/DX2                !
 ! A16   A(6,5,18)             107.8718         estimate D2E/DX2                !
 ! A17   A(6,5,19)             109.3572         estimate D2E/DX2                !
 ! A18   A(18,5,19)            107.9087         estimate D2E/DX2                !
 ! A19   A(5,6,7)              116.2787         estimate D2E/DX2                !
 ! A20   A(5,6,16)             106.1779         estimate D2E/DX2                !
 ! A21   A(5,6,17)             114.6878         estimate D2E/DX2                !
 ! A22   A(7,6,16)             110.8346         estimate D2E/DX2                !
 ! A23   A(7,6,17)             106.8739         estimate D2E/DX2                !
 ! A24   A(16,6,17)            100.9252         estimate D2E/DX2                !
 ! A25   A(6,7,8)              107.828          estimate D2E/DX2                !
 ! A26   A(6,7,14)             104.9733         estimate D2E/DX2                !
 ! A27   A(6,7,15)             109.3863         estimate D2E/DX2                !
 ! A28   A(8,7,14)             107.7385         estimate D2E/DX2                !
 ! A29   A(8,7,15)             112.5624         estimate D2E/DX2                !
 ! A30   A(14,7,15)            113.9226         estimate D2E/DX2                !
 ! A31   A(7,8,9)              113.8336         estimate D2E/DX2                !
 ! A32   A(7,8,12)             113.6946         estimate D2E/DX2                !
 ! A33   A(7,8,13)             103.5274         estimate D2E/DX2                !
 ! A34   A(9,8,12)             109.8686         estimate D2E/DX2                !
 ! A35   A(9,8,13)             108.1924         estimate D2E/DX2                !
 ! A36   A(12,8,13)            107.1859         estimate D2E/DX2                !
 ! A37   A(4,9,8)              114.8667         estimate D2E/DX2                !
 ! A38   A(4,9,10)             111.3291         estimate D2E/DX2                !
 ! A39   A(4,9,11)             110.442          estimate D2E/DX2                !
 ! A40   A(8,9,10)             103.9022         estimate D2E/DX2                !
 ! A41   A(8,9,11)             110.9059         estimate D2E/DX2                !
 ! A42   A(10,9,11)            104.7596         estimate D2E/DX2                !
 ! A43   A(2,22,23)            128.3958         estimate D2E/DX2                !
 ! A44   A(2,22,29)            116.9875         estimate D2E/DX2                !
 ! A45   A(23,22,29)           112.8871         estimate D2E/DX2                !
 ! A46   A(22,23,24)           113.5004         estimate D2E/DX2                !
 ! A47   A(22,23,27)           107.1355         estimate D2E/DX2                !
 ! A48   A(22,23,28)           106.9396         estimate D2E/DX2                !
 ! A49   A(24,23,27)           111.5302         estimate D2E/DX2                !
 ! A50   A(24,23,28)           113.3637         estimate D2E/DX2                !
 ! A51   A(27,23,28)           103.7014         estimate D2E/DX2                !
 ! A52   A(23,24,25)            97.7731         estimate D2E/DX2                !
 ! A53   A(23,24,26)           114.8877         estimate D2E/DX2                !
 ! A54   A(23,24,35)           106.9507         estimate D2E/DX2                !
 ! A55   A(25,24,26)           113.7438         estimate D2E/DX2                !
 ! A56   A(25,24,35)           108.837          estimate D2E/DX2                !
 ! A57   A(26,24,35)           113.3768         estimate D2E/DX2                !
 ! A58   A(22,29,30)           119.4124         estimate D2E/DX2                !
 ! A59   A(22,29,31)           109.063          estimate D2E/DX2                !
 ! A60   A(22,29,32)           108.1097         estimate D2E/DX2                !
 ! A61   A(30,29,31)           107.1303         estimate D2E/DX2                !
 ! A62   A(30,29,32)           103.7819         estimate D2E/DX2                !
 ! A63   A(31,29,32)           108.9164         estimate D2E/DX2                !
 ! A64   A(29,32,33)           110.9826         estimate D2E/DX2                !
 ! A65   A(29,32,34)           113.0021         estimate D2E/DX2                !
 ! A66   A(29,32,35)           107.8263         estimate D2E/DX2                !
 ! A67   A(33,32,34)           107.0343         estimate D2E/DX2                !
 ! A68   A(33,32,35)           112.0713         estimate D2E/DX2                !
 ! A69   A(34,32,35)           105.8763         estimate D2E/DX2                !
 ! A70   A(24,35,32)           117.2372         estimate D2E/DX2                !
 ! A71   A(24,35,36)           108.2426         estimate D2E/DX2                !
 ! A72   A(24,35,37)           109.0206         estimate D2E/DX2                !
 ! A73   A(32,35,36)           109.2888         estimate D2E/DX2                !
 ! A74   A(32,35,37)           108.8016         estimate D2E/DX2                !
 ! A75   A(36,35,37)           103.3547         estimate D2E/DX2                !
 ! A76   A(35,37,38)           123.9718         estimate D2E/DX2                !
 ! A77   A(35,37,44)           122.846          estimate D2E/DX2                !
 ! A78   A(38,37,44)           113.1653         estimate D2E/DX2                !
 ! A79   A(37,38,39)           129.3539         estimate D2E/DX2                !
 ! A80   A(37,38,40)           104.4805         estimate D2E/DX2                !
 ! A81   A(39,38,40)           125.3082         estimate D2E/DX2                !
 ! A82   A(38,40,41)           110.308          estimate D2E/DX2                !
 ! A83   A(38,40,42)           105.0559         estimate D2E/DX2                !
 ! A84   A(38,40,45)           110.299          estimate D2E/DX2                !
 ! A85   A(41,40,42)           110.3328         estimate D2E/DX2                !
 ! A86   A(41,40,45)           110.3834         estimate D2E/DX2                !
 ! A87   A(42,40,45)           110.3444         estimate D2E/DX2                !
 ! A88   A(40,42,43)           116.5851         estimate D2E/DX2                !
 ! A89   A(40,42,44)           112.8001         estimate D2E/DX2                !
 ! A90   A(43,42,44)           130.1646         estimate D2E/DX2                !
 ! A91   A(37,44,42)           104.0854         estimate D2E/DX2                !
 ! D1    D(1,2,3,4)             -3.1226         estimate D2E/DX2                !
 ! D2    D(1,2,3,21)          -178.4033         estimate D2E/DX2                !
 ! D3    D(22,2,3,4)          -177.1445         estimate D2E/DX2                !
 ! D4    D(22,2,3,21)            7.5748         estimate D2E/DX2                !
 ! D5    D(1,2,22,23)          169.8165         estimate D2E/DX2                !
 ! D6    D(1,2,22,29)            5.9867         estimate D2E/DX2                !
 ! D7    D(3,2,22,23)          -16.2875         estimate D2E/DX2                !
 ! D8    D(3,2,22,29)          179.8827         estimate D2E/DX2                !
 ! D9    D(2,3,4,5)             74.8794         estimate D2E/DX2                !
 ! D10   D(2,3,4,9)           -160.413          estimate D2E/DX2                !
 ! D11   D(2,3,4,20)           -47.0858         estimate D2E/DX2                !
 ! D12   D(21,3,4,5)          -109.9279         estimate D2E/DX2                !
 ! D13   D(21,3,4,9)            14.7797         estimate D2E/DX2                !
 ! D14   D(21,3,4,20)          128.107          estimate D2E/DX2                !
 ! D15   D(3,4,5,6)            176.0147         estimate D2E/DX2                !
 ! D16   D(3,4,5,18)            58.0477         estimate D2E/DX2                !
 ! D17   D(3,4,5,19)           -60.7116         estimate D2E/DX2                !
 ! D18   D(9,4,5,6)             50.2225         estimate D2E/DX2                !
 ! D19   D(9,4,5,18)           -67.7446         estimate D2E/DX2                !
 ! D20   D(9,4,5,19)           173.4962         estimate D2E/DX2                !
 ! D21   D(20,4,5,6)           -59.1148         estimate D2E/DX2                !
 ! D22   D(20,4,5,18)         -177.0819         estimate D2E/DX2                !
 ! D23   D(20,4,5,19)           64.1589         estimate D2E/DX2                !
 ! D24   D(3,4,9,8)           -177.1514         estimate D2E/DX2                !
 ! D25   D(3,4,9,10)           -59.4241         estimate D2E/DX2                !
 ! D26   D(3,4,9,11)            56.5152         estimate D2E/DX2                !
 ! D27   D(5,4,9,8)            -49.3111         estimate D2E/DX2                !
 ! D28   D(5,4,9,10)            68.4162         estimate D2E/DX2                !
 ! D29   D(5,4,9,11)          -175.6446         estimate D2E/DX2                !
 ! D30   D(20,4,9,8)            63.223          estimate D2E/DX2                !
 ! D31   D(20,4,9,10)         -179.0497         estimate D2E/DX2                !
 ! D32   D(20,4,9,11)          -63.1105         estimate D2E/DX2                !
 ! D33   D(4,5,6,7)            -56.8284         estimate D2E/DX2                !
 ! D34   D(4,5,6,16)           179.3736         estimate D2E/DX2                !
 ! D35   D(4,5,6,17)            68.8524         estimate D2E/DX2                !
 ! D36   D(18,5,6,7)            60.9297         estimate D2E/DX2                !
 ! D37   D(18,5,6,16)          -62.8684         estimate D2E/DX2                !
 ! D38   D(18,5,6,17)         -173.3895         estimate D2E/DX2                !
 ! D39   D(19,5,6,7)           178.0416         estimate D2E/DX2                !
 ! D40   D(19,5,6,16)           54.2436         estimate D2E/DX2                !
 ! D41   D(19,5,6,17)          -56.2776         estimate D2E/DX2                !
 ! D42   D(5,6,7,8)             55.5496         estimate D2E/DX2                !
 ! D43   D(5,6,7,14)           -59.1149         estimate D2E/DX2                !
 ! D44   D(5,6,7,15)           178.263          estimate D2E/DX2                !
 ! D45   D(16,6,7,8)           176.9074         estimate D2E/DX2                !
 ! D46   D(16,6,7,14)           62.2429         estimate D2E/DX2                !
 ! D47   D(16,6,7,15)          -60.3792         estimate D2E/DX2                !
 ! D48   D(17,6,7,8)           -73.985          estimate D2E/DX2                !
 ! D49   D(17,6,7,14)          171.3505         estimate D2E/DX2                !
 ! D50   D(17,6,7,15)           48.7283         estimate D2E/DX2                !
 ! D51   D(6,7,8,9)            -51.1356         estimate D2E/DX2                !
 ! D52   D(6,7,8,12)          -177.9783         estimate D2E/DX2                !
 ! D53   D(6,7,8,13)            66.0796         estimate D2E/DX2                !
 ! D54   D(14,7,8,9)            61.6836         estimate D2E/DX2                !
 ! D55   D(14,7,8,12)          -65.1591         estimate D2E/DX2                !
 ! D56   D(14,7,8,13)          178.8988         estimate D2E/DX2                !
 ! D57   D(15,7,8,9)          -171.8795         estimate D2E/DX2                !
 ! D58   D(15,7,8,12)           61.2779         estimate D2E/DX2                !
 ! D59   D(15,7,8,13)          -54.6643         estimate D2E/DX2                !
 ! D60   D(7,8,9,4)             52.1418         estimate D2E/DX2                !
 ! D61   D(7,8,9,10)           -69.7089         estimate D2E/DX2                !
 ! D62   D(7,8,9,11)           178.2362         estimate D2E/DX2                !
 ! D63   D(12,8,9,4)          -179.0459         estimate D2E/DX2                !
 ! D64   D(12,8,9,10)           59.1033         estimate D2E/DX2                !
 ! D65   D(12,8,9,11)          -52.9515         estimate D2E/DX2                !
 ! D66   D(13,8,9,4)           -62.3365         estimate D2E/DX2                !
 ! D67   D(13,8,9,10)          175.8128         estimate D2E/DX2                !
 ! D68   D(13,8,9,11)           63.7579         estimate D2E/DX2                !
 ! D69   D(2,22,23,24)        -101.1423         estimate D2E/DX2                !
 ! D70   D(2,22,23,27)          22.4194         estimate D2E/DX2                !
 ! D71   D(2,22,23,28)         133.0911         estimate D2E/DX2                !
 ! D72   D(29,22,23,24)         63.2308         estimate D2E/DX2                !
 ! D73   D(29,22,23,27)       -173.2075         estimate D2E/DX2                !
 ! D74   D(29,22,23,28)        -62.5358         estimate D2E/DX2                !
 ! D75   D(2,22,29,30)         -17.7214         estimate D2E/DX2                !
 ! D76   D(2,22,29,31)        -141.264          estimate D2E/DX2                !
 ! D77   D(2,22,29,32)         100.4492         estimate D2E/DX2                !
 ! D78   D(23,22,29,30)        175.9832         estimate D2E/DX2                !
 ! D79   D(23,22,29,31)         52.4406         estimate D2E/DX2                !
 ! D80   D(23,22,29,32)        -65.8462         estimate D2E/DX2                !
 ! D81   D(22,23,24,25)         64.7515         estimate D2E/DX2                !
 ! D82   D(22,23,24,26)       -174.4973         estimate D2E/DX2                !
 ! D83   D(22,23,24,35)        -47.7233         estimate D2E/DX2                !
 ! D84   D(27,23,24,25)        -56.3747         estimate D2E/DX2                !
 ! D85   D(27,23,24,26)         64.3766         estimate D2E/DX2                !
 ! D86   D(27,23,24,35)       -168.8494         estimate D2E/DX2                !
 ! D87   D(28,23,24,25)       -172.9772         estimate D2E/DX2                !
 ! D88   D(28,23,24,26)        -52.2259         estimate D2E/DX2                !
 ! D89   D(28,23,24,35)         74.5481         estimate D2E/DX2                !
 ! D90   D(23,24,35,32)         45.4607         estimate D2E/DX2                !
 ! D91   D(23,24,35,36)        -78.654          estimate D2E/DX2                !
 ! D92   D(23,24,35,37)        169.5766         estimate D2E/DX2                !
 ! D93   D(25,24,35,32)        -59.2165         estimate D2E/DX2                !
 ! D94   D(25,24,35,36)        176.6689         estimate D2E/DX2                !
 ! D95   D(25,24,35,37)         64.8994         estimate D2E/DX2                !
 ! D96   D(26,24,35,32)        173.1259         estimate D2E/DX2                !
 ! D97   D(26,24,35,36)         49.0112         estimate D2E/DX2                !
 ! D98   D(26,24,35,37)        -62.7582         estimate D2E/DX2                !
 ! D99   D(22,29,32,33)        -65.109          estimate D2E/DX2                !
 ! D100  D(22,29,32,34)        174.6487         estimate D2E/DX2                !
 ! D101  D(22,29,32,35)         57.9889         estimate D2E/DX2                !
 ! D102  D(30,29,32,33)         62.6414         estimate D2E/DX2                !
 ! D103  D(30,29,32,34)        -57.6009         estimate D2E/DX2                !
 ! D104  D(30,29,32,35)       -174.2607         estimate D2E/DX2                !
 ! D105  D(31,29,32,33)        176.5107         estimate D2E/DX2                !
 ! D106  D(31,29,32,34)         56.2683         estimate D2E/DX2                !
 ! D107  D(31,29,32,35)        -60.3915         estimate D2E/DX2                !
 ! D108  D(29,32,35,24)        -50.6512         estimate D2E/DX2                !
 ! D109  D(29,32,35,36)         72.9335         estimate D2E/DX2                !
 ! D110  D(29,32,35,37)       -174.8776         estimate D2E/DX2                !
 ! D111  D(33,32,35,24)         71.7794         estimate D2E/DX2                !
 ! D112  D(33,32,35,36)       -164.636          estimate D2E/DX2                !
 ! D113  D(33,32,35,37)        -52.447          estimate D2E/DX2                !
 ! D114  D(34,32,35,24)       -171.8634         estimate D2E/DX2                !
 ! D115  D(34,32,35,36)        -48.2787         estimate D2E/DX2                !
 ! D116  D(34,32,35,37)         63.9102         estimate D2E/DX2                !
 ! D117  D(24,35,37,38)        109.4627         estimate D2E/DX2                !
 ! D118  D(24,35,37,44)        -68.9376         estimate D2E/DX2                !
 ! D119  D(32,35,37,38)       -121.5786         estimate D2E/DX2                !
 ! D120  D(32,35,37,44)         60.0212         estimate D2E/DX2                !
 ! D121  D(36,35,37,38)         -5.5084         estimate D2E/DX2                !
 ! D122  D(36,35,37,44)        176.0914         estimate D2E/DX2                !
 ! D123  D(35,37,38,39)         -4.8491         estimate D2E/DX2                !
 ! D124  D(35,37,38,40)       -174.5138         estimate D2E/DX2                !
 ! D125  D(44,37,38,39)        173.6891         estimate D2E/DX2                !
 ! D126  D(44,37,38,40)          4.0244         estimate D2E/DX2                !
 ! D127  D(35,37,44,42)        178.3545         estimate D2E/DX2                !
 ! D128  D(38,37,44,42)         -0.2025         estimate D2E/DX2                !
 ! D129  D(37,38,40,41)       -124.9098         estimate D2E/DX2                !
 ! D130  D(37,38,40,42)         -6.014          estimate D2E/DX2                !
 ! D131  D(37,38,40,45)        112.8911         estimate D2E/DX2                !
 ! D132  D(39,38,40,41)         64.8777         estimate D2E/DX2                !
 ! D133  D(39,38,40,42)       -176.2264         estimate D2E/DX2                !
 ! D134  D(39,38,40,45)        -57.3214         estimate D2E/DX2                !
 ! D135  D(38,40,42,43)        179.5551         estimate D2E/DX2                !
 ! D136  D(38,40,42,44)          6.4631         estimate D2E/DX2                !
 ! D137  D(41,40,42,43)        -61.5657         estimate D2E/DX2                !
 ! D138  D(41,40,42,44)        125.3423         estimate D2E/DX2                !
 ! D139  D(45,40,42,43)         60.6805         estimate D2E/DX2                !
 ! D140  D(45,40,42,44)       -112.4115         estimate D2E/DX2                !
 ! D141  D(40,42,44,37)         -3.9997         estimate D2E/DX2                !
 ! D142  D(43,42,44,37)       -175.9086         estimate D2E/DX2                !
 --------------------------------------------------------------------------------
 Trust Radius=3.00D-01 FncErr=1.00D-07 GrdErr=1.00D-06 EigMax=2.50D+02 EigMin=1.00D-04
 Number of steps in this run=    270 maximum allowed number of steps=    270.
 GradGradGradGradGradGradGradGradGradGradGradGradGradGradGradGradGradGrad

 Leave Link  103 at Sun Jul 18 13:33:05 2021, MaxMem=   104857600 cpu:               0.1 elap:               0.0
 (Enter /dades/curu/g16A03_MST/g16/l202.exe)
                          Input orientation:                          
 ---------------------------------------------------------------------
 Center     Atomic      Atomic             Coordinates (Angstroms)
 Number     Number       Type             X           Y           Z
 ---------------------------------------------------------------------
      1         16           0       -0.827000   -1.210000   -2.391000
      2          6           0       -0.483000   -0.954000   -0.790000
      3          7           0       -1.335000   -0.358000    0.057000
      4          6           0       -2.620000    0.203000   -0.263000
      5          6           0       -3.768000   -0.860000   -0.511000
      6          6           0       -5.115000   -0.179000   -0.747000
      7          6           0       -5.599000    0.759000    0.353000
      8          6           0       -4.501000    1.813000    0.591000
      9          6           0       -3.080000    1.204000    0.820000
     10          1           0       -3.155000    0.722000    1.803000
     11          1           0       -2.332000    1.995000    0.953000
     12          1           0       -4.737000    2.522000    1.395000
     13          1           0       -4.483000    2.381000   -0.347000
     14          1           0       -5.662000    0.133000    1.252000
     15          1           0       -6.555000    1.207000    0.055000
     16          1           0       -5.839000   -0.985000   -0.919000
     17          1           0       -5.190000    0.373000   -1.692000
     18          1           0       -3.854000   -1.471000    0.396000
     19          1           0       -3.548000   -1.531000   -1.350000
     20          1           0       -2.582000    0.839000   -1.156000
     21          1           0       -0.995000   -0.239000    1.003000
     22          7           0        0.661000   -1.446000   -0.119000
     23          6           0        1.171000   -1.089000    1.289000
     24          6           0        2.291000   -0.131000    1.283000
     25          1           0        1.751000    0.726000    0.861000
     26          1           0        2.734000    0.067000    2.266000
     27          1           0        0.314000   -0.703000    1.855000
     28          1           0        1.410000   -2.035000    1.792000
     29          6           0        1.661000   -2.117000   -0.928000
     30          1           0        1.391000   -2.479000   -1.927000
     31          1           0        2.057000   -2.974000   -0.370000
     32          6           0        2.797000   -1.131000   -1.193000
     33          1           0        2.451000   -0.288000   -1.804000
     34          1           0        3.644000   -1.585000   -1.722000
     35          6           0        3.359000   -0.662000    0.194000
     36          1           0        3.934000   -1.479000    0.647000
     37          6           0        4.417000    0.428000   -0.043000
     38          6           0        5.694000    0.338000    0.369000
     39          1           0        6.169000   -0.427000    0.967000
     40          7           0        6.251000    1.586000    0.059000
     41          1           0        7.065000    1.471000   -0.510000
     42          6           0        5.277000    2.247000   -0.634000
     43          1           0        5.513000    3.251000   -0.963000
     44          7           0        4.141000    1.592000   -0.664000
     45          1           0        6.479000    2.082000    0.897000
 ---------------------------------------------------------------------
                    Distance matrix (angstroms):
                    1          2          3          4          5
     1  S    0.000000
     2  C    1.657430   0.000000
     3  N    2.641339   1.341092   0.000000
     4  C    3.120866   2.486593   1.438175   0.000000
     5  C    3.508045   3.298166   2.548356   1.584101   0.000000
     6  C    4.706659   4.696584   3.868702   2.570059   1.527700
     7  C    5.846236   5.514914   4.417805   3.092415   2.592338
     8  C    5.615080   5.070283   3.875816   2.619079   2.982721
     9  C    4.605858   3.740785   2.463136   1.544827   2.550490
    10  H    5.171252   4.083162   2.743595   2.196347   2.869336
    11  H    4.870255   3.892743   2.708031   2.184689   3.515170
    12  H    6.599221   5.912133   4.653842   3.550833   4.001215
    13  H    5.517205   5.226708   4.192284   2.867317   3.322981
    14  H    6.200994   5.672158   4.515754   3.399101   2.771544
    15  H    6.680927   6.500241   5.449553   4.073495   3.515710
    16  H    5.228533   5.357643   4.650991   3.493371   2.114505
    17  H    4.693640   4.972965   4.295857   2.945478   2.221966
    18  H    4.122890   3.610751   2.774716   2.181585   1.096980
    19  H    2.930966   3.168715   2.872794   2.247111   1.096614
    20  H    2.967095   2.784709   2.111679   1.096991   2.170074
    21  H    3.534162   1.997052   1.012263   2.106833   3.219839
    22  N    2.726137   1.414582   2.280074   3.674901   4.484763
    23  C    4.189158   2.660109   2.886559   4.295305   5.261764
    24  C    4.938060   3.559457   3.834381   5.159418   6.360924
    25  H    4.579267   3.246376   3.368214   4.543407   5.903994
    26  H    5.999925   4.553094   4.649416   5.922808   7.130713
    27  H    4.425771   2.773848   2.463946   3.730297   4.720734
    28  H    4.814798   3.379162   3.654802   5.047036   5.787583
    29  C    3.025419   2.443020   3.611139   4.914426   5.588200
    30  H    2.597149   2.670257   3.983211   5.103934   5.589409
    31  H    3.938730   3.272369   4.304817   5.655007   6.198347
    32  C    3.817698   3.309401   4.385596   5.655824   6.605891
    33  H    3.455421   3.174919   4.219244   5.322669   6.377695
    34  H    4.536301   4.277723   5.427781   6.675576   7.545190
    35  C    4.950265   3.976743   4.705828   6.058508   7.164521
    36  H    5.654107   4.674450   5.419142   6.827308   7.813125
    37  C    5.974587   5.145671   5.806316   7.044033   8.298927
    38  C    7.248265   6.416220   7.070262   8.339079   9.578050
    39  H    7.799569   6.900281   7.559291   8.896984  10.055642
    40  N    7.994886   7.247010   7.831126   8.983931  10.328997
    41  H    8.544565   7.932927   8.615494   9.770776  11.080950
    42  C    7.231647   6.591535   7.140172   8.165671   9.564549
    43  H    7.882595   7.325570   7.807713   8.713552  10.160787
    44  N    5.959426   5.280092   5.857381   6.913844   8.281787
    45  H    8.661746   7.780277   8.229082   9.363121  10.753550
                    6          7          8          9         10
     6  C    0.000000
     7  C    1.524500   0.000000
     8  C    2.476955   1.540508   0.000000
     9  C    2.917088   2.600284   1.562870   0.000000
    10  H    3.340045   2.842007   2.114460   1.097378   0.000000
    11  H    3.919358   3.544148   2.206520   1.096756   1.737918
    12  H    3.467917   2.221931   1.097631   2.193946   2.430882
    13  H    2.667025   2.089579   1.096719   2.171549   3.022973
    14  H    2.095842   1.097290   2.146449   2.828496   2.633547
    15  H    2.153555   1.097016   2.207589   3.558210   3.853664
    16  H    1.096994   2.171893   3.449514   3.927839   4.186525
    17  H    1.096975   2.120920   2.785751   3.384199   4.059317
    18  H    2.136781   2.831921   3.352803   2.816820   2.697684
    19  H    2.155691   3.514386   3.982214   3.522520   3.895108
    20  H    2.760379   3.374281   2.771867   2.070219   3.016239
    21  H    4.476662   4.755557   4.083195   2.542236   2.495821
    22  N    5.946583   6.653751   6.145846   4.679669   4.791259
    23  C    6.669872   7.079838   6.409399   4.852712   4.717859
    24  C    7.679325   7.994317   7.098540   5.553759   5.536870
    25  H    7.109616   7.367608   6.351533   4.854763   4.995620
    26  H    8.411034   8.577722   7.628851   6.098056   5.943376
    27  H    6.043097   6.273517   5.577829   4.028289   3.750639
    28  H    7.243403   7.681357   7.154679   5.621032   5.332954
    29  C    7.050020   7.913276   7.464751   6.046621   6.221908
    30  H    7.000745   8.033875   7.712150   6.410955   6.695179
    31  H    7.706604   8.548237   8.175956   6.727596   6.748873
    32  C    7.981539   8.743857   8.069114   6.636529   6.916352
    33  H    7.640254   8.399486   7.647256   6.301063   6.742239
    34  H    8.924547   9.758740   9.123453   7.710542   7.998392
    35  C    8.539757   9.071399   8.250020   6.733094   6.851024
    36  H    9.247575   9.796590   9.054812   7.511632   7.512300
    37  C    9.577217  10.029289   9.047149   7.586300   7.799316
    38  C   10.878751  11.300856  10.303540   8.828161   8.972659
    39  H   11.416127  11.843539  10.909073   9.392857   9.431653
    40  N   11.530430  11.882460  10.767546   9.369771   9.605252
    41  H   12.293538  12.713324  11.623318  10.235293  10.505207
    42  C   10.672015  11.021601   9.863988   8.546427   8.908604
    43  H   11.169868  11.463789  10.235378   9.011601   9.443560
    44  N    9.424270   9.828315   8.735447   7.382116   7.750781
    45  H   11.926261  12.162415  10.987556   9.599547   9.771612
                   11         12         13         14         15
    11  H    0.000000
    12  H    2.501423   0.000000
    13  H    2.542793   1.766058   0.000000
    14  H    3.826924   2.565813   3.000058   0.000000
    15  H    4.388744   2.613417   2.415174   1.839493   0.000000
    16  H    4.968283   4.343737   3.673673   2.448366   2.503237
    17  H    4.218421   3.788533   2.518122   2.991241   2.368711
    18  H    3.826211   4.209720   3.973109   2.564062   3.818817
    19  H    4.383508   5.037416   4.145356   3.742766   4.302641
    20  H    2.417999   3.739534   2.577993   3.972820   4.169733
    21  H    2.604002   4.666835   4.566513   4.688419   5.822647
    22  N    4.684839   6.868451   6.415501   6.659821   7.690211
    23  C    4.679205   6.924956   6.832650   6.941509   8.153861
    24  C    5.099108   7.512905   7.406357   7.957441   9.030501
    25  H    4.276648   6.753141   6.562092   7.446952   8.358866
    26  H    5.577231   7.912111   8.016698   8.457267   9.616322
    27  H    3.885116   6.010393   6.113188   6.064246   7.353316
    28  H    5.563037   7.662210   7.668365   7.416536   8.773195
    29  C    6.032475   8.237175   7.636642   7.965000   8.917282
    30  H    6.493982   8.578932   7.785877   8.165378   8.980748
    31  H    6.760519   8.915138   8.452701   8.477458   9.582689
    32  C    6.378388   8.763750   8.127008   8.895527   9.720270
    33  H    5.974130   8.354463   7.571444   8.679697   9.316595
    34  H    7.462212   9.839934   9.147016   9.919568  10.722527
    35  C    6.326390   8.782111   8.429086   9.117556  10.089593
    36  H    7.171127   9.578818   9.313084   9.749245  10.843624
    37  C    6.999750   9.499916   9.116832  10.166135  11.000056
    38  C    8.216044  10.706460  10.404702  11.392122  12.283801
    39  H    8.839303  11.305778  11.093988  11.847674  12.860866
    40  N    8.639121  11.108426  10.771055  12.060432  12.811608
    41  H    9.524629  12.000868  11.584946  12.917872  13.634270
    42  C    7.776822  10.221187   9.765138  11.299899  11.897586
    43  H    8.172675  10.542965  10.052680  11.811383  12.282137
    44  N    6.684073   9.160964   8.665817  10.094481  10.727050
    45  H    8.811607  11.235669  11.036412  12.301565  13.090445
                   16         17         18         19         20
    16  H    0.000000
    17  H    1.692009   0.000000
    18  H    2.430153   3.089494   0.000000
    19  H    2.394276   2.537389   1.773627   0.000000
    20  H    3.740480   2.702983   3.059867   2.566650   0.000000
    21  H    5.264498   5.023504   3.171775   3.704549   2.888241
    22  N    6.565251   6.325922   4.544345   4.386145   4.100444
    23  C    7.350250   7.175383   5.118007   5.424818   4.876496
    24  C    8.466110   8.066598   6.351645   6.556417   5.534957
    25  H    7.981480   7.404046   6.038134   6.169438   4.780789
    26  H    9.205827   8.862797   7.018838   7.422438   6.369138
    27  H    6.755295   6.635737   4.482268   5.086517   4.453168
    28  H    7.810251   7.841984   5.475090   5.891345   5.734688
    29  C    7.584953   7.329393   5.708373   5.258817   5.176193
    30  H    7.451242   7.176259   5.824295   5.062149   5.233383
    31  H    8.161148   8.091298   6.147006   5.870151   6.056161
    32  C    8.641579   8.142677   6.846629   6.359534   5.728517
    33  H    8.366190   7.670355   6.781778   6.143221   5.198184
    34  H    9.535832   9.048437   7.792235   7.201817   6.705163
    35  C    9.270723   8.815533   7.261037   7.130620   6.274630
    36  H    9.909991   9.599385   7.792048   7.744097   7.147180
    37  C   10.389874   9.747650   8.497550   8.305851   7.098851
    38  C   11.679870  11.077473   9.717897   9.584502   8.430231
    39  H   12.168008  11.693467  10.093389  10.050243   9.093398
    40  N   12.398977  11.637605  10.562663  10.378891   8.947409
    41  H   13.142010  12.360734  11.344636  11.061346   9.689239
    42  C   11.579832  10.685941   9.912597   9.626347   8.001177
    43  H   12.116664  11.107139  10.577564  10.252756   8.448906
    44  N   10.310497   9.466272   8.627027   8.327331   6.782905
    45  H   12.823317  12.074318  10.938268  10.892360   9.373451
                   21         22         23         24         25
    21  H    0.000000
    22  N    2.336251   0.000000
    23  C    2.344323   1.539485   0.000000
    24  C    3.299676   2.520264   1.473839   0.000000
    25  H    2.914087   2.620321   1.952898   1.097330   0.000000
    26  H    3.948955   3.503530   2.175738   1.096240   1.837007
    27  H    1.629319   2.137553   1.097179   2.136094   2.257221
    28  H    3.103572   2.135379   1.097746   2.158809   2.933626
    29  C    3.782854   1.450766   2.492383   3.038028   3.360249
    30  H    4.392664   2.206548   3.510435   4.077647   4.263164
    31  H    4.322043   2.084850   2.662800   3.296940   3.911393
    32  C    4.471839   2.411472   2.967484   2.717832   2.959980
    33  H    4.444836   2.717405   3.441896   3.095128   2.936055
    34  H    5.545959   3.389280   3.927832   3.602048   3.949185
    35  C    4.448677   2.826982   2.483686   1.615087   2.226454
    36  H    5.095035   3.361603   2.863291   2.218344   3.110195
    37  C    5.552364   4.198236   3.822568   2.567223   2.830826
    38  C    6.743709   5.362079   4.831176   3.554682   3.992475
    39  H    7.166557   5.705771   5.051924   3.902096   4.567206
    40  N    7.531685   6.361824   5.871535   4.486409   4.651108
    41  H    8.377164   7.047906   6.673023   5.345309   5.538345
    42  C    6.942474   5.933880   5.629037   4.271530   4.120818
    43  H    7.641945   6.805590   6.539118   5.183023   4.884183
    44  N    5.701749   4.651545   4.452288   3.190931   2.964402
    45  H    7.826810   6.879547   6.195464   4.752442   4.918741
                   26         27         28         29         30
    26  H    0.000000
    27  H    2.572590   0.000000
    28  H    2.529043   1.726096   0.000000
    29  C    4.015323   3.399837   2.732787   0.000000
    30  H    5.085962   4.314815   3.745458   1.096333   0.000000
    31  H    4.080993   3.625757   2.444294   1.096644   1.764321
    32  C    3.661127   3.954589   3.413387   1.527389   2.081513
    33  H    4.095243   4.257614   4.131211   2.176400   2.437049
    34  H    4.411502   4.966060   4.188252   2.201306   2.432544
    35  C    2.283692   3.468808   2.870076   2.501822   3.416600
    36  H    2.539936   3.894334   2.826789   2.837992   3.753975
    37  C    2.879981   4.660062   4.298330   3.854320   4.599650
    38  C    3.526138   5.677700   5.099874   4.896358   5.632310
    39  H    3.705491   5.928385   5.090616   5.173895   5.951069
    40  N    4.421255   6.611589   6.288896   5.979505   6.639881
    41  H    5.332443   7.476329   7.040615   6.500130   7.057242
    42  C    4.430491   6.287208   6.258969   5.675067   6.253633
    43  H    5.318565   7.113708   7.236465   6.607159   7.124120
    44  N    3.590289   5.124287   5.161921   4.469539   5.072545
    45  H    4.467596   6.832365   6.591318   6.646454   7.393608
                   31         32         33         34         35
    31  H    0.000000
    32  C    2.149786   0.000000
    33  H    3.070210   1.097126   0.000000
    34  H    2.505153   1.096980   1.764138   0.000000
    35  C    2.712682   1.568303   2.226285   2.145742   0.000000
    36  H    2.606232   2.190770   3.102446   2.389037   1.096961
    37  C    4.153328   2.525348   2.734764   2.732899   1.537411
    38  C    4.974257   3.604222   3.953587   3.503243   2.546144
    39  H    5.018299   4.065907   4.639104   3.866175   2.923842
    40  N    6.210256   4.569432   4.628460   4.474779   3.665432
    41  H    6.697588   5.045069   5.104656   4.744610   4.333560
    42  C    6.139783   4.227738   3.972581   4.305190   3.581423
    43  H    7.144663   5.160570   4.754750   5.239860   4.614102
    44  N    5.027708   3.082354   2.773103   3.385218   2.535390
    45  H    6.835387   5.314941   5.397878   5.323840   4.214041
                   36         37         38         39         40
    36  H    0.000000
    37  C    2.084715   0.000000
    38  C    2.544872   1.344832   0.000000
    39  H    2.490849   2.195593   1.080951   0.000000
    40  N    3.886960   2.171388   1.401375   2.209832   0.000000
    41  H    4.454695   2.884067   1.983928   2.566466   0.999791
    42  C    4.162654   2.097056   2.196401   3.241781   1.365960
    43  H    5.240061   3.164956   3.208201   4.205106   2.088385
    44  N    3.345536   1.347855   2.247535   3.293828   2.230441
    45  H    4.384090   2.805559   1.984073   2.529047   1.000122
                   41         42         43         44         45
    41  H    0.000000
    42  C    1.953073   0.000000
    43  H    2.404644   1.082568   0.000000
    44  N    2.930552   1.311648   2.173492   0.000000
    45  H    1.642062   1.953456   2.399858   2.853606   0.000000
 Stoichiometry    C15H25N4S(1+)
 Framework group  C1[X(C15H25N4S)]
 Deg. of freedom   129
 Full point group                 C1      NOp   1
 Largest Abelian subgroup         C1      NOp   1
 Largest concise Abelian subgroup C1      NOp   1
                         Standard orientation:                         
 ---------------------------------------------------------------------
 Center     Atomic      Atomic             Coordinates (Angstroms)
 Number     Number       Type             X           Y           Z
 ---------------------------------------------------------------------
      1         16           0        1.277773    2.021955   -1.269915
      2          6           0        0.903514    1.005779   -0.015169
      3          7           0        1.718493    0.026503    0.403587
      4          6           0        2.981774   -0.350562   -0.171121
      5          6           0        4.177707    0.640505    0.140178
      6          6           0        5.496700    0.114860   -0.423578
      7          6           0        5.926146   -1.271038    0.044357
      8          6           0        4.780674   -2.251468   -0.271579
      9          6           0        3.384721   -1.781063    0.250529
     10          1           0        3.468556   -1.866973    1.341322
     11          1           0        2.601573   -2.497065   -0.026773
     12          1           0        4.975905   -3.279464    0.059934
     13          1           0        4.749505   -2.264892   -1.367773
     14          1           0        6.005259   -1.189874    1.135778
     15          1           0        6.865390   -1.547599   -0.450394
     16          1           0        6.256998    0.864573   -0.172033
     17          1           0        5.559216    0.114710   -1.518770
     18          1           0        4.279049    0.703698    1.230638
     19          1           0        3.997240    1.652801   -0.240940
     20          1           0        2.927130   -0.444464   -1.262718
     21          1           0        1.362151   -0.540194    1.162897
     22          7           0       -0.226179    1.139547    0.825629
     23          6           0       -0.768296    0.141343    1.864721
     24          6           0       -1.928611   -0.631900    1.387263
     25          1           0       -1.421161   -1.179797    0.583251
     26          1           0       -2.391724   -1.280884    2.139651
     27          1           0        0.064206   -0.515006    2.147471
     28          1           0       -0.972181    0.711767    2.780196
     29          6           0       -1.186221    2.170617    0.479311
     30          1           0       -0.888629    2.976476   -0.201846
     31          1           0       -1.551474    2.643378    1.398939
     32          6           0       -2.360576    1.505104   -0.235461
     33          1           0       -2.044020    1.073414   -1.193125
     34          1           0       -3.180592    2.200845   -0.451989
     35          6           0       -2.959239    0.423341    0.729405
     36          1           0       -3.503765    0.922616    1.540293
     37          6           0       -4.060523   -0.349313   -0.014781
     38          6           0       -5.337348   -0.424817    0.400658
     39          1           0       -5.785997   -0.048103    1.309093
     40          7           0       -5.944099   -1.318396   -0.492216
     41          1           0       -6.745354   -0.895792   -0.915274
     42          6           0       -4.991291   -1.579169   -1.435615
     43          1           0       -5.266559   -2.266966   -2.224991
     44          7           0       -3.827687   -1.049344   -1.142813
     45          1           0       -6.203580   -2.159964   -0.018215
 ---------------------------------------------------------------------
 Rotational constants (GHZ):           0.6694462           0.1238802           0.1157199
 Leave Link  202 at Sun Jul 18 13:33:05 2021, MaxMem=   104857600 cpu:               0.0 elap:               0.0
 (Enter /dades/curu/g16A03_MST/g16/l301.exe)
 Standard basis: 6-31G(d) (6D, 7F)
 Ernie: Thresh=  0.10000D-02 Tol=  0.10000D-05 Strict=F.
 There are   354 symmetry adapted cartesian basis functions of A   symmetry.
 There are   354 symmetry adapted basis functions of A   symmetry.
   354 basis functions,   684 primitive gaussians,   354 cartesian basis functions
    79 alpha electrons       79 beta electrons
       nuclear repulsion energy      1713.0919566816 Hartrees.
 IExCor=  402 DFT=T Ex+Corr=B3LYP ExCW=0 ScaHFX=  0.200000
 ScaDFX=  0.800000  0.720000  1.000000  0.810000 ScalE2=  1.000000  1.000000
 IRadAn=      5 IRanWt=     -1 IRanGd=            0 ICorTp=0 IEmpDi=  4
 NAtoms=   45 NActive=   45 NUniq=   45 SFac= 1.00D+00 NAtFMM=   60 NAOKFM=F Big=F
 Integral buffers will be    131072 words long.
 Raffenetti 2 integral format.
 Two-electron integral symmetry is turned on.
 Using the following non-standard input for PCM:
 MSTModel=DFT cav MSTCharged
 --- end of non-standard input.
 MST model for solvation energy: B3LYP parametrization.
 MST cavity parameters:
 ISph   IAn     Re0     Alpha   Atom Type   QCorr
 ------------------------------------------------
   1     16     1.75     1.50      S          F
   2      6     1.50     1.50      C          F
   3      7     1.50     1.50      NH         F
   4      6     1.50     1.50      CH         F
   5      6     1.50     1.50      CH2        F
   6      6     1.50     1.50      CH2        F
   7      6     1.50     1.50      CH2        F
   8      6     1.50     1.50      CH2        F
   9      6     1.50     1.50      CH2        F
  10      1     1.20     1.50      CH2        F
  11      1     1.20     1.50      CH2        F
  12      1     1.20     1.50      CH2        F
  13      1     1.20     1.50      CH2        F
  14      1     1.20     1.50      CH2        F
  15      1     1.20     1.50      CH2        F
  16      1     1.20     1.50      CH2        F
  17      1     1.20     1.50      CH2        F
  18      1     1.20     1.50      CH2        F
  19      1     1.20     1.50      CH2        F
  20      1     1.20     1.50      CH         F
  21      1     0.90     1.50      NH         F
  22      7     1.50     1.50      N          F
  23      6     1.50     1.50      CH2        F
  24      6     1.50     1.50      CH2        F
  25      1     1.20     1.50      CH2        F
  26      1     1.20     1.50      CH2        F
  27      1     1.20     1.50      CH2        F
  28      1     1.20     1.50      CH2        F
  29      6     1.50     1.50      CH2        F
  30      1     1.20     1.50      CH2        F
  31      1     1.20     1.50      CH2        F
  32      6     1.50     1.50      CH2        F
  33      1     1.20     1.50      CH2        F
  34      1     1.20     1.50      CH2        F
  35      6     1.50     1.50      CH         F
  36      1     1.20     1.50      CH         F
  37      6     1.50     1.50      C          F
  38      6     1.50     1.50      CH         F
  39      1     1.20     1.50      CH         F
  40      7     1.50     1.15      NH+        T
  41      1     0.90     1.15      NH+        T
  42      6     1.50     1.50      CH         F
  43      1     1.20     1.50      CH         F
  44      7     1.50     1.50      N          F
  45      1     0.90     1.15      NH+        T
 ------------------------------------------------------------------------------
 Polarizable Continuum Model (PCM)
 =================================
 Model                : PCM.
 Atomic radii         : MST.
 Polarization charges : Total charges.
 Charge compensation  : None.
 Solution method      : On-the-fly selection.
 Cavity type          : Scaled VdW (van der Waals Surface) (Alpha=1.500).
 Cavity algorithm     : GePol (No added spheres)
                        Default sphere list used, NSphG=   45.
                        Lebedev-Laikov grids with approx.  5.0 points / Ang**2.
                        Smoothing algorithm: York/Karplus (Gamma=1.0000).
                        Polarization charges: spherical gaussians, with
                                              point-specific exponents (IZeta= 3).
                        Self-potential: point-specific (ISelfS= 7).
                        Self-field    : sphere-specific E.n sum rule (ISelfD= 2).
 1st derivatives      : Analytical E(r).r(x)/FMM algorithm (CHGder, D1EAlg=3).
                        Cavity 1st derivative terms included.
 Solvent              : n-Octanol, Eps=   9.862900 Eps(inf)=   2.043470
 ------------------------------------------------------------------------------
 GePol: Number of generator spheres                  =      45
 GePol: Total number of spheres                      =      45
 GePol: Number of exposed spheres                    =      45 (100.00%)
 GePol: Number of points                             =    3720
 GePol: Average weight of points                     =       0.11
 GePol: Minimum weight of points                     =   0.20D-11
 GePol: Maximum weight of points                     =    0.22065
 GePol: Number of points with low weight             =     228
 GePol: Fraction of low-weight points (<1% of avg)   =       6.13%
 GePol: Cavity surface area                          =    416.679 Ang**2
 GePol: Cavity volume                                =    503.025 Ang**3
 Surface areas from nonelectrostatic (unscaled) cavity and vdw tensions:
 Sphere =    1 Type =  S   Surf =       28.510 Tension =       -0.186
 Sphere =    2 Type =  C   Surf =        5.259 Tension =       -0.205
 Sphere =    3 Type =  NH  Surf =        8.969 Tension =       -0.234
 Sphere =    4 Type =  CH  Surf =        2.596 Tension =       -0.195
 Sphere =    5 Type =  CH2 Surf =        3.884 Tension =       -0.194
 Sphere =    6 Type =  CH2 Surf =        3.442 Tension =       -0.194
 Sphere =    7 Type =  CH2 Surf =        3.976 Tension =       -0.194
 Sphere =    8 Type =  CH2 Surf =        3.821 Tension =       -0.194
 Sphere =    9 Type =  CH2 Surf =        3.608 Tension =       -0.194
 Sphere =   10 Type =  CH2 Surf =        9.961 Tension =       -0.194
 Sphere =   11 Type =  CH2 Surf =       10.076 Tension =       -0.194
 Sphere =   12 Type =  CH2 Surf =       10.148 Tension =       -0.194
 Sphere =   13 Type =  CH2 Surf =        9.890 Tension =       -0.194
 Sphere =   14 Type =  CH2 Surf =        9.985 Tension =       -0.194
 Sphere =   15 Type =  CH2 Surf =       10.141 Tension =       -0.194
 Sphere =   16 Type =  CH2 Surf =        9.934 Tension =       -0.194
 Sphere =   17 Type =  CH2 Surf =        9.995 Tension =       -0.194
 Sphere =   18 Type =  CH2 Surf =       10.018 Tension =       -0.194
 Sphere =   19 Type =  CH2 Surf =        9.952 Tension =       -0.194
 Sphere =   20 Type =  CH  Surf =        9.742 Tension =       -0.195
 Sphere =   21 Type =  NH  Surf =        2.610 Tension =       -0.234
 Sphere =   22 Type =  N   Surf =        5.686 Tension =       -0.115
 Sphere =   23 Type =  CH2 Surf =        3.354 Tension =       -0.194
 Sphere =   24 Type =  CH2 Surf =        4.196 Tension =       -0.194
 Sphere =   25 Type =  CH2 Surf =        9.707 Tension =       -0.194
 Sphere =   26 Type =  CH2 Surf =       10.240 Tension =       -0.194
 Sphere =   27 Type =  CH2 Surf =        8.477 Tension =       -0.194
 Sphere =   28 Type =  CH2 Surf =        9.998 Tension =       -0.194
 Sphere =   29 Type =  CH2 Surf =        3.400 Tension =       -0.194
 Sphere =   30 Type =  CH2 Surf =        8.714 Tension =       -0.194
 Sphere =   31 Type =  CH2 Surf =        9.923 Tension =       -0.194
 Sphere =   32 Type =  CH2 Surf =        3.670 Tension =       -0.194
 Sphere =   33 Type =  CH2 Surf =       10.091 Tension =       -0.194
 Sphere =   34 Type =  CH2 Surf =       10.035 Tension =       -0.194
 Sphere =   35 Type =  CH  Surf =        2.831 Tension =       -0.195
 Sphere =   36 Type =  CH  Surf =        9.717 Tension =       -0.195
 Sphere =   37 Type =  C   Surf =        5.667 Tension =       -0.205
 Sphere =   38 Type =  CH  Surf =        8.080 Tension =       -0.195
 Sphere =   39 Type =  CH  Surf =       10.278 Tension =       -0.195
 Sphere =   40 Type =  NH+ Surf =        8.438 Tension =       -0.274
 Sphere =   41 Type =  NH+ Surf =        3.842 Tension =       -0.274
 Sphere =   42 Type =  CH  Surf =        7.639 Tension =       -0.195
 Sphere =   43 Type =  CH  Surf =       10.220 Tension =       -0.195
 Sphere =   44 Type =  N   Surf =       13.346 Tension =       -0.115
 Sphere =   45 Type =  NH+ Surf =        3.844 Tension =       -0.274
 PCM non-electrostatic energy =        -0.0167579095 Hartrees.
 Nuclear repulsion after PCM non-electrostatic terms =     1713.0751987721 Hartrees.
 Leave Link  301 at Sun Jul 18 13:33:05 2021, MaxMem=   104857600 cpu:               0.1 elap:               0.5
 (Enter /dades/curu/g16A03_MST/g16/l302.exe)
 NPDir=0 NMtPBC=     1 NCelOv=     1 NCel=       1 NClECP=     1 NCelD=      1
         NCelK=      1 NCelE2=     1 NClLst=     1 CellRange=     0.0.
 One-electron integrals computed using PRISM.
 One-electron integral symmetry used in STVInt
 NBasis=   354 RedAO= T EigKep=  1.41D-03  NBF=   354
 NBsUse=   354 1.00D-06 EigRej= -1.00D+00 NBFU=   354
 Precomputing XC quadrature grid using
 IXCGrd= 4 IRadAn=           5 IRanWt=          -1 IRanGd=           0 AccXCQ= 0.00D+00.
 Generated NRdTot=       0 NPtTot=           0 NUsed=           0 NTot=          32
 NSgBfM=   348   348   348   348   348 MxSgAt=    45 MxSgA2=    45.
 Leave Link  302 at Sun Jul 18 13:33:07 2021, MaxMem=   104857600 cpu:               7.3 elap:               1.9
 (Enter /dades/curu/g16A03_MST/g16/l303.exe)
 DipDrv:  MaxL=1.
 Leave Link  303 at Sun Jul 18 13:33:07 2021, MaxMem=   104857600 cpu:               0.1 elap:               0.1
 (Enter /dades/curu/g16A03_MST/g16/l401.exe)
 ExpMin= 1.17D-01 ExpMax= 2.19D+04 ExpMxC= 3.30D+03 IAcc=3 IRadAn=         5 AccDes= 0.00D+00
 Harris functional with IExCor=  402 and IRadAn=       5 diagonalized for initial guess.
 HarFok:  IExCor=  402 AccDes= 0.00D+00 IRadAn=         5 IDoV= 1 UseB2=F ITyADJ=14
 ICtDFT=  3500011 ScaDFX=  1.000000  1.000000  1.000000  1.000000
 FoFCou: FMM=F IPFlag=           0 FMFlag=      100000 FMFlg1=           0
         NFxFlg=           0 DoJE=T BraDBF=F KetDBF=T FulRan=T
         wScrn=  0.000000 ICntrl=       500 IOpCl=  0 I1Cent=   200000004 NGrid=           0
         NMat0=    1 NMatS0=      1 NMatT0=    0 NMatD0=    1 NMtDS0=    0 NMtDT0=    0
 Petite list used in FoFCou.
 Harris En= -1203.47548491826    
 JPrj=0 DoOrth=F DoCkMO=F.
 Leave Link  401 at Sun Jul 18 13:33:18 2021, MaxMem=   104857600 cpu:              42.6 elap:              10.7
 (Enter /dades/curu/g16A03_MST/g16/l502.exe)
 Integral symmetry usage will be decided dynamically.
 Closed shell SCF:
 Using DIIS extrapolation, IDIIS=  1040.
 NGot=   104857600 LenX=   104600668 LenY=   104474911
 Requested convergence on RMS density matrix=1.00D-08 within 128 cycles.
 Requested convergence on MAX density matrix=1.00D-06.
 Requested convergence on             energy=1.00D-06.
 No special actions if energy rises.
 Fock matrices will be formed incrementally for  20 cycles.

 Cycle   1  Pass 1  IDiag  1:
 FoFJK:  IHMeth= 1 ICntrl=       0 DoSepK=F KAlg= 0 I1Cent=           0 FoldK=F
 IRaf= 740000000 NMat=       1 IRICut=       1 DoRegI=T DoRafI=F ISym2E= 0 IDoP0=0 IntGTp=1.
 FoFCou: FMM=F IPFlag=           0 FMFlag=      100000 FMFlg1=           0
         NFxFlg=           0 DoJE=F BraDBF=F KetDBF=F FulRan=T
         wScrn=  0.000000 ICntrl=         0 IOpCl=  0 I1Cent=           0 NGrid=           0
         NMat0=    1 NMatS0=      1 NMatT0=    0 NMatD0=    1 NMtDS0=    0 NMtDT0=    0
 Symmetry not used in FoFCou.
 Inv3:  Mode=1 IEnd=    41515200.
 Iteration    1 A*A^-1 deviation from unit magnitude is 5.44D-15 for   3705.
 Iteration    1 A*A^-1 deviation from orthogonality  is 2.08D-15 for   3705   3599.
 Iteration    1 A^-1*A deviation from unit magnitude is 5.88D-15 for   3706.
 Iteration    1 A^-1*A deviation from orthogonality  is 1.64D-15 for   3705   3599.
 E= -1203.20479217375    
 DIIS: error= 2.72D-02 at cycle   1 NSaved=   1.
 NSaved= 1 IEnMin= 1 EnMin= -1203.20479217375     IErMin= 1 ErrMin= 2.72D-02
 ErrMax= 2.72D-02  0.00D+00 EMaxC= 1.00D-01 BMatC= 4.01D-01 BMatP= 4.01D-01
 IDIUse=3 WtCom= 7.28D-01 WtEn= 2.72D-01
 Coeff-Com:  0.100D+01
 Coeff-En:   0.100D+01
 Coeff:      0.100D+01
 Gap=     0.098 Goal=   None    Shift=    0.000
 GapD=    0.098 DampG=0.500 DampE=0.500 DampFc=0.2500 IDamp=-1.
 Damping current iteration by 2.50D-01
 RMSDP=4.27D-03 MaxDP=1.52D-01              OVMax= 1.85D-01

 Cycle   2  Pass 1  IDiag  1:
 RMSU=  1.05D-03    CP:  9.90D-01
 E= -1203.35577364372     Delta-E=       -0.150981469975 Rises=F Damp=T
 DIIS: error= 1.29D-02 at cycle   2 NSaved=   2.
 NSaved= 2 IEnMin= 2 EnMin= -1203.35577364372     IErMin= 2 ErrMin= 1.29D-02
 ErrMax= 1.29D-02  0.00D+00 EMaxC= 1.00D-01 BMatC= 1.07D-01 BMatP= 4.01D-01
 IDIUse=3 WtCom= 8.71D-01 WtEn= 1.29D-01
 Coeff-Com: -0.815D+00 0.182D+01
 Coeff-En:   0.000D+00 0.100D+01
 Coeff:     -0.710D+00 0.171D+01
 Gap=     0.140 Goal=   None    Shift=    0.000
 RMSDP=1.36D-03 MaxDP=4.71D-02 DE=-1.51D-01 OVMax= 1.38D-01

 Cycle   3  Pass 1  IDiag  1:
 RMSU=  1.02D-03    CP:  9.77D-01  1.82D+00
 E= -1203.61026863580     Delta-E=       -0.254494992082 Rises=F Damp=F
 DIIS: error= 6.71D-03 at cycle   3 NSaved=   3.
 NSaved= 3 IEnMin= 3 EnMin= -1203.61026863580     IErMin= 3 ErrMin= 6.71D-03
 ErrMax= 6.71D-03  0.00D+00 EMaxC= 1.00D-01 BMatC= 1.64D-02 BMatP= 1.07D-01
 IDIUse=3 WtCom= 9.33D-01 WtEn= 6.71D-02
 Coeff-Com: -0.355D+00 0.740D+00 0.615D+00
 Coeff-En:   0.000D+00 0.000D+00 0.100D+01
 Coeff:     -0.331D+00 0.690D+00 0.641D+00
 Gap=     0.105 Goal=   None    Shift=    0.000
 RMSDP=5.46D-04 MaxDP=3.83D-02 DE=-2.54D-01 OVMax= 5.17D-02

 Cycle   4  Pass 1  IDiag  1:
 RMSU=  4.23D-04    CP:  9.79D-01  1.83D+00  6.63D-01
 E= -1203.61756929768     Delta-E=       -0.007300661883 Rises=F Damp=F
 DIIS: error= 5.44D-03 at cycle   4 NSaved=   4.
 NSaved= 4 IEnMin= 4 EnMin= -1203.61756929768     IErMin= 4 ErrMin= 5.44D-03
 ErrMax= 5.44D-03  0.00D+00 EMaxC= 1.00D-01 BMatC= 9.02D-03 BMatP= 1.64D-02
 IDIUse=3 WtCom= 9.46D-01 WtEn= 5.44D-02
 Coeff-Com: -0.925D-01 0.186D+00 0.422D+00 0.485D+00
 Coeff-En:   0.000D+00 0.000D+00 0.368D+00 0.632D+00
 Coeff:     -0.874D-01 0.176D+00 0.419D+00 0.493D+00
 Gap=     0.105 Goal=   None    Shift=    0.000
 RMSDP=2.54D-04 MaxDP=1.83D-02 DE=-7.30D-03 OVMax= 2.39D-02

 Cycle   5  Pass 1  IDiag  1:
 RMSU=  1.42D-04    CP:  9.79D-01  1.83D+00  7.36D-01  5.34D-01
 E= -1203.62540997079     Delta-E=       -0.007840673104 Rises=F Damp=F
 DIIS: error= 6.22D-04 at cycle   5 NSaved=   5.
 NSaved= 5 IEnMin= 5 EnMin= -1203.62540997079     IErMin= 5 ErrMin= 6.22D-04
 ErrMax= 6.22D-04  0.00D+00 EMaxC= 1.00D-01 BMatC= 3.64D-04 BMatP= 9.02D-03
 IDIUse=3 WtCom= 9.94D-01 WtEn= 6.22D-03
 Coeff-Com: -0.112D-01 0.216D-01 0.148D+00 0.244D+00 0.598D+00
 Coeff-En:   0.000D+00 0.000D+00 0.000D+00 0.000D+00 0.100D+01
 Coeff:     -0.112D-01 0.215D-01 0.147D+00 0.243D+00 0.600D+00
 Gap=     0.104 Goal=   None    Shift=    0.000
 RMSDP=7.47D-05 MaxDP=5.46D-03 DE=-7.84D-03 OVMax= 4.20D-03

 Cycle   6  Pass 1  IDiag  1:
 RMSU=  3.26D-05    CP:  9.78D-01  1.83D+00  7.54D-01  5.64D-01  5.54D-01
 E= -1203.62574664755     Delta-E=       -0.000336676763 Rises=F Damp=F
 DIIS: error= 1.53D-04 at cycle   6 NSaved=   6.
 NSaved= 6 IEnMin= 6 EnMin= -1203.62574664755     IErMin= 6 ErrMin= 1.53D-04
 ErrMax= 1.53D-04  0.00D+00 EMaxC= 1.00D-01 BMatC= 2.32D-05 BMatP= 3.64D-04
 IDIUse=3 WtCom= 9.98D-01 WtEn= 1.53D-03
 Coeff-Com: -0.736D-03 0.882D-03 0.534D-01 0.970D-01 0.307D+00 0.542D+00
 Coeff-En:   0.000D+00 0.000D+00 0.000D+00 0.000D+00 0.000D+00 0.100D+01
 Coeff:     -0.735D-03 0.881D-03 0.533D-01 0.968D-01 0.307D+00 0.543D+00
 Gap=     0.105 Goal=   None    Shift=    0.000
 RMSDP=1.70D-05 MaxDP=1.17D-03 DE=-3.37D-04 OVMax= 1.00D-03

 Cycle   7  Pass 1  IDiag  1:
 RMSU=  8.31D-06    CP:  9.78D-01  1.83D+00  7.54D-01  5.69D-01  6.06D-01
                    CP:  6.14D-01
 E= -1203.62576830417     Delta-E=       -0.000021656614 Rises=F Damp=F
 DIIS: error= 3.82D-05 at cycle   7 NSaved=   7.
 NSaved= 7 IEnMin= 7 EnMin= -1203.62576830417     IErMin= 7 ErrMin= 3.82D-05
 ErrMax= 3.82D-05  0.00D+00 EMaxC= 1.00D-01 BMatC= 1.43D-06 BMatP= 2.32D-05
 IDIUse=1 WtCom= 1.00D+00 WtEn= 0.00D+00
 Coeff-Com:  0.419D-03-0.100D-02 0.162D-01 0.303D-01 0.111D+00 0.267D+00
 Coeff-Com:  0.576D+00
 Coeff:      0.419D-03-0.100D-02 0.162D-01 0.303D-01 0.111D+00 0.267D+00
 Coeff:      0.576D+00
 Gap=     0.105 Goal=   None    Shift=    0.000
 RMSDP=3.81D-06 MaxDP=2.00D-04 DE=-2.17D-05 OVMax= 2.55D-04

 Cycle   8  Pass 1  IDiag  1:
 RMSU=  2.56D-06    CP:  9.78D-01  1.83D+00  7.54D-01  5.69D-01  6.14D-01
                    CP:  6.30D-01  6.96D-01
 E= -1203.62576947259     Delta-E=       -0.000001168429 Rises=F Damp=F
 DIIS: error= 1.35D-05 at cycle   8 NSaved=   8.
 NSaved= 8 IEnMin= 8 EnMin= -1203.62576947259     IErMin= 8 ErrMin= 1.35D-05
 ErrMax= 1.35D-05  0.00D+00 EMaxC= 1.00D-01 BMatC= 1.24D-07 BMatP= 1.43D-06
 IDIUse=1 WtCom= 1.00D+00 WtEn= 0.00D+00
 Coeff-Com:  0.304D-03-0.600D-03 0.163D-02 0.291D-02 0.178D-01 0.634D-01
 Coeff-Com:  0.272D+00 0.643D+00
 Coeff:      0.304D-03-0.600D-03 0.163D-02 0.291D-02 0.178D-01 0.634D-01
 Coeff:      0.272D+00 0.643D+00
 Gap=     0.105 Goal=   None    Shift=    0.000
 RMSDP=1.12D-06 MaxDP=7.17D-05 DE=-1.17D-06 OVMax= 9.15D-05

 Cycle   9  Pass 1  IDiag  1:
 RMSU=  6.39D-07    CP:  9.78D-01  1.83D+00  7.55D-01  5.69D-01  6.13D-01
                    CP:  6.40D-01  7.41D-01  7.20D-01
 E= -1203.62576957750     Delta-E=       -0.000000104902 Rises=F Damp=F
 DIIS: error= 3.04D-06 at cycle   9 NSaved=   9.
 NSaved= 9 IEnMin= 9 EnMin= -1203.62576957750     IErMin= 9 ErrMin= 3.04D-06
 ErrMax= 3.04D-06  0.00D+00 EMaxC= 1.00D-01 BMatC= 9.29D-09 BMatP= 1.24D-07
 IDIUse=1 WtCom= 1.00D+00 WtEn= 0.00D+00
 Coeff-Com:  0.134D-03-0.248D-03-0.127D-03-0.396D-03 0.243D-02 0.150D-01
 Coeff-Com:  0.101D+00 0.309D+00 0.573D+00
 Coeff:      0.134D-03-0.248D-03-0.127D-03-0.396D-03 0.243D-02 0.150D-01
 Coeff:      0.101D+00 0.309D+00 0.573D+00
 Gap=     0.105 Goal=   None    Shift=    0.000
 RMSDP=3.62D-07 MaxDP=1.57D-05 DE=-1.05D-07 OVMax= 3.40D-05

 Cycle  10  Pass 1  IDiag  1:
 RMSU=  2.76D-07    CP:  9.78D-01  1.83D+00  7.55D-01  5.69D-01  6.13D-01
                    CP:  6.41D-01  7.44D-01  7.51D-01  6.73D-01
 E= -1203.62576958421     Delta-E=       -0.000000006717 Rises=F Damp=F
 DIIS: error= 1.52D-06 at cycle  10 NSaved=  10.
 NSaved=10 IEnMin=10 EnMin= -1203.62576958421     IErMin=10 ErrMin= 1.52D-06
 ErrMax= 1.52D-06  0.00D+00 EMaxC= 1.00D-01 BMatC= 1.96D-09 BMatP= 9.29D-09
 IDIUse=1 WtCom= 1.00D+00 WtEn= 0.00D+00
 Coeff-Com:  0.274D-04-0.447D-04-0.262D-03-0.615D-03-0.982D-03-0.891D-03
 Coeff-Com:  0.180D-01 0.804D-01 0.336D+00 0.568D+00
 Coeff:      0.274D-04-0.447D-04-0.262D-03-0.615D-03-0.982D-03-0.891D-03
 Coeff:      0.180D-01 0.804D-01 0.336D+00 0.568D+00
 Gap=     0.105 Goal=   None    Shift=    0.000
 RMSDP=1.56D-07 MaxDP=8.85D-06 DE=-6.72D-09 OVMax= 1.76D-05

 Cycle  11  Pass 1  IDiag  1:
 RMSU=  7.30D-08    CP:  9.78D-01  1.83D+00  7.55D-01  5.69D-01  6.13D-01
                    CP:  6.41D-01  7.49D-01  7.56D-01  7.77D-01  6.12D-01
 E= -1203.62576958592     Delta-E=       -0.000000001704 Rises=F Damp=F
 DIIS: error= 3.88D-07 at cycle  11 NSaved=  11.
 NSaved=11 IEnMin=11 EnMin= -1203.62576958592     IErMin=11 ErrMin= 3.88D-07
 ErrMax= 3.88D-07  0.00D+00 EMaxC= 1.00D-01 BMatC= 1.78D-10 BMatP= 1.96D-09
 IDIUse=1 WtCom= 1.00D+00 WtEn= 0.00D+00
 Coeff-Com:  0.721D-05-0.979D-05-0.140D-03-0.331D-03-0.736D-03-0.174D-02
 Coeff-Com:  0.243D-02 0.216D-01 0.142D+00 0.329D+00 0.507D+00
 Coeff:      0.721D-05-0.979D-05-0.140D-03-0.331D-03-0.736D-03-0.174D-02
 Coeff:      0.243D-02 0.216D-01 0.142D+00 0.329D+00 0.507D+00
 Gap=     0.105 Goal=   None    Shift=    0.000
 RMSDP=3.74D-08 MaxDP=2.32D-06 DE=-1.70D-09 OVMax= 2.75D-06

 Cycle  12  Pass 1  IDiag  1:
 RMSU=  2.17D-08    CP:  9.78D-01  1.83D+00  7.55D-01  5.69D-01  6.14D-01
                    CP:  6.41D-01  7.49D-01  7.60D-01  7.77D-01  6.56D-01
                    CP:  6.51D-01
 E= -1203.62576958607     Delta-E=       -0.000000000156 Rises=F Damp=F
 DIIS: error= 9.77D-08 at cycle  12 NSaved=  12.
 NSaved=12 IEnMin=12 EnMin= -1203.62576958607     IErMin=12 ErrMin= 9.77D-08
 ErrMax= 9.77D-08  0.00D+00 EMaxC= 1.00D-01 BMatC= 6.74D-12 BMatP= 1.78D-10
 IDIUse=1 WtCom= 1.00D+00 WtEn= 0.00D+00
 Coeff-Com:  0.162D-06 0.895D-06-0.237D-04-0.629D-04-0.165D-03-0.603D-03
 Coeff-Com: -0.121D-02-0.111D-02 0.109D-01 0.659D-01 0.173D+00 0.754D+00
 Coeff:      0.162D-06 0.895D-06-0.237D-04-0.629D-04-0.165D-03-0.603D-03
 Coeff:     -0.121D-02-0.111D-02 0.109D-01 0.659D-01 0.173D+00 0.754D+00
 Gap=     0.105 Goal=   None    Shift=    0.000
 RMSDP=1.02D-08 MaxDP=4.41D-07 DE=-1.56D-10 OVMax= 6.22D-07

 Cycle  13  Pass 1  IDiag  1:
 RMSU=  7.47D-09    CP:  9.78D-01  1.83D+00  7.55D-01  5.69D-01  6.14D-01
                    CP:  6.41D-01  7.49D-01  7.60D-01  7.81D-01  6.71D-01
                    CP:  6.80D-01  8.11D-01
[...]
    30  H   -0.001581   0.003104   0.013179  -0.134560  -0.056783  -0.012263
    31  H   -0.000730   0.000611  -0.012107  -0.128829   0.118989   0.003847
    32  C    0.001502  -0.003657   0.016525   0.002090   0.086432  -0.074332
    33  H    0.000172  -0.002218  -0.009581   0.044808   0.051910  -0.079285
    34  H    0.000239   0.000496   0.001258   0.057190   0.015936   0.106864
    35  C    0.001463  -0.003844   0.006646  -0.228857   0.079915  -1.128489
    36  H   -0.000008  -0.000441  -0.003419  -0.039955  -0.068846   0.295190
    37  C   -0.000077  -0.002580  -0.000388   0.142668  -0.230928   0.441685
    38  C   -0.000012   0.000581   0.003788  -0.017712   0.106638  -0.376474
    39  H   -0.000003   0.000044  -0.000091   0.004408  -0.002620   0.058818
    40  N    0.000003   0.000045  -0.000098   0.002167   0.005674   0.001449
    41  H    0.000000   0.000005   0.000027  -0.000223   0.001762  -0.003867
    42  C   -0.000008   0.000011  -0.000662  -0.012230  -0.009670  -0.060596
    43  H   -0.000002  -0.000043   0.000004   0.000176  -0.002564  -0.007549
    44  N   -0.000070   0.000674  -0.002773   0.029893   0.026080   0.053117
    45  H    0.000000   0.000001  -0.000020  -0.000132  -0.001065  -0.003474
              25         26         27         28         29         30
     1  S    0.006127  -0.000146  -0.000719   0.008339  -0.115907   0.041637
     2  C    0.027774   0.009902   0.195808  -0.114259  -0.156210   0.109894
     3  N    0.041115   0.007400  -0.186930   0.243795  -0.232467  -0.083617
     4  C    0.042272  -0.005815   0.001420   0.074089  -0.162846  -0.035465
     5  C   -0.000186   0.000014  -0.008227  -0.003877   0.022442  -0.001136
     6  C    0.000635  -0.000014   0.001089  -0.000270   0.003747  -0.001128
     7  C   -0.000375   0.000070   0.003845  -0.000481  -0.000033  -0.000068
     8  C   -0.002582   0.000646  -0.001156  -0.001154   0.001506  -0.000172
     9  C   -0.005706   0.002117  -0.003636  -0.008400   0.001983   0.004364
    10  H    0.002949  -0.000050  -0.009659   0.001745  -0.000844  -0.000156
    11  H   -0.009477   0.000506   0.001805  -0.001396   0.004367   0.000633
    12  H    0.000618  -0.000041   0.000845   0.000051  -0.000309   0.000042
    13  H   -0.000367   0.000107  -0.001429  -0.000076   0.001009  -0.000075
    14  H   -0.000037   0.000024  -0.000142  -0.000135   0.000493   0.000029
    15  H   -0.000100   0.000009   0.000031  -0.000027  -0.000073  -0.000020
    16  H    0.000026  -0.000021   0.000411   0.000062  -0.000470  -0.000099
    17  H    0.000022   0.000019  -0.000073  -0.000009   0.001410   0.000180
    18  H    0.000428  -0.000035   0.009179  -0.000690  -0.001771   0.000023
    19  H   -0.000233   0.000040  -0.000134  -0.000213   0.002743  -0.001581
    20  H    0.003002  -0.000719   0.011360   0.001756  -0.017877   0.003104
    21  H   -0.020719   0.011490  -0.054101  -0.018611   0.042181   0.013179
    22  N   -0.029606   0.062008  -0.053186  -0.157525   0.178034  -0.134560
    23  C   -0.140604  -0.036335   0.177704   0.207233  -0.257186  -0.056783
    24  C    0.294624  -0.236689   0.166323  -0.117570   0.098140  -0.012263
    25  H    1.446937  -0.236242  -0.084523   0.110363  -0.052089  -0.002810
    26  H   -0.236242   1.632427  -0.072521  -0.079200   0.048342   0.000067
    27  H   -0.084523  -0.072521   1.608366  -0.412260  -0.096855  -0.014331
    28  H    0.110363  -0.079200  -0.412260   1.557738  -0.072917   0.008814
    29  C   -0.052089   0.048342  -0.096855  -0.072917   5.884796   0.279625
    30  H   -0.002810   0.000067  -0.014331   0.008814   0.279625   1.531203
    31  H   -0.007807   0.006348   0.028664  -0.058589   0.272741  -0.417255
    32  C   -0.087247   0.095550   0.018384  -0.003668  -0.146383   0.080817
    33  H   -0.008864   0.010561   0.019989  -0.013149  -0.155514  -0.135522
    34  H    0.018980  -0.004514  -0.002117   0.007555  -0.030227  -0.045368
    35  C   -0.377124   0.002325   0.017661   0.043334   0.015471   0.094955
    36  H    0.064577  -0.094934   0.021478  -0.012618  -0.089166   0.013634
    37  C    0.177019   0.017402  -0.038332  -0.001502  -0.176214  -0.059200
    38  C   -0.066388   0.044376  -0.011508   0.018064   0.114407   0.000691
    39  H    0.006995   0.004424   0.000164   0.001110  -0.001427  -0.000660
    40  N    0.000289  -0.002419   0.000566  -0.000376   0.002112   0.000181
    41  H   -0.002385  -0.000552  -0.000051   0.000172  -0.000657  -0.000034
    42  C    0.008488   0.010995  -0.003805   0.002248  -0.006018  -0.004657
    43  H   -0.000677   0.000928  -0.000229  -0.000004  -0.001927  -0.000253
    44  N   -0.024776   0.027059  -0.002408   0.007120   0.025707  -0.005787
    45  H    0.000594   0.000383  -0.000022  -0.000136   0.001396   0.000057
              31         32         33         34         35         36
     1  S   -0.012529   0.075579  -0.023945   0.010416   0.052230  -0.000729
     2  C   -0.062917  -0.259861   0.061358   0.014954   0.153011  -0.006409
     3  N    0.037904  -0.078118   0.018382  -0.007588  -0.067799  -0.014080
     4  C    0.009379  -0.103567  -0.013312   0.002577   0.005768  -0.008634
     5  C    0.002734  -0.011461   0.002926  -0.000911   0.009207   0.001245
     6  C    0.000714  -0.000215  -0.000077  -0.000005   0.000085  -0.000018
     7  C   -0.000073   0.000314  -0.000032   0.000004  -0.000298   0.000023
     8  C    0.000061  -0.001931  -0.000486  -0.000037   0.000050  -0.000030
     9  C   -0.002429   0.000573   0.000168  -0.000367   0.001680   0.000466
    10  H    0.000179  -0.000072  -0.000322   0.000002  -0.001221  -0.000175
    11  H   -0.000139  -0.001014   0.001112  -0.000263   0.005799   0.000124
    12  H   -0.000009  -0.000071  -0.000080  -0.000000  -0.000016  -0.000008
    13  H    0.000054  -0.000173   0.000085  -0.000010  -0.000295  -0.000019
    14  H   -0.000005   0.000067   0.000039  -0.000001  -0.000017   0.000007
    15  H   -0.000002   0.000016  -0.000012   0.000002  -0.000012   0.000001
    16  H    0.000028  -0.000138  -0.000040  -0.000003  -0.000002  -0.000001
    17  H    0.000030   0.000085   0.000116  -0.000012   0.000030   0.000012
    18  H    0.000498  -0.001902   0.000269  -0.000151  -0.001250   0.000091
    19  H   -0.000730   0.001502   0.000172   0.000239   0.001463  -0.000008
    20  H    0.000611  -0.003657  -0.002218   0.000496  -0.003844  -0.000441
    21  H   -0.012107   0.016525  -0.009581   0.001258   0.006646  -0.003419
    22  N   -0.128829   0.002090   0.044808   0.057190  -0.228857  -0.039955
    23  C    0.118989   0.086432   0.051910   0.015936   0.079915  -0.068846
    24  C    0.003847  -0.074332  -0.079285   0.106864  -1.128489   0.295190
    25  H   -0.007807  -0.087247  -0.008864   0.018980  -0.377124   0.064577
    26  H    0.006348   0.095550   0.010561  -0.004514   0.002325  -0.094934
    27  H    0.028664   0.018384   0.019989  -0.002117   0.017661   0.021478
    28  H   -0.058589  -0.003668  -0.013149   0.007555   0.043334  -0.012618
    29  C    0.272741  -0.146383  -0.155514  -0.030227   0.015471  -0.089166
    30  H   -0.417255   0.080817  -0.135522  -0.045368   0.094955   0.013634
    31  H    1.511643  -0.226876   0.111101  -0.070932   0.032404  -0.004397
    32  C   -0.226876   6.670808   0.220797  -0.244697  -0.822082   0.249366
    33  H    0.111101   0.220797   1.368941  -0.233605  -0.300646   0.060175
    34  H   -0.070932  -0.244697  -0.233605   1.630343  -0.060772  -0.083952
    35  C    0.032404  -0.822082  -0.300646  -0.060772  13.227830  -1.022295
    36  H   -0.004397   0.249366   0.060175  -0.083952  -1.022295   1.851798
    37  C    0.027407   0.323093   0.120009   0.074125  -3.423544   0.355867
    38  C    0.015321  -0.342345  -0.044071   0.027092   0.220853  -0.160486
    39  H    0.001145   0.043372   0.004005   0.005904  -0.194155  -0.011139
    40  N   -0.000738   0.003050   0.002882  -0.001663   0.256319   0.008772
    41  H   -0.000092  -0.003051   0.000672   0.000356   0.028650   0.000213
    42  C    0.003531  -0.063931  -0.002722   0.018268  -0.604369   0.023360
    43  H    0.000092  -0.006717  -0.001516   0.001206  -0.041538  -0.003562
    44  N    0.004893   0.006394  -0.030725   0.031911  -0.133870  -0.001019
    45  H    0.000155  -0.002469  -0.001412  -0.000785   0.025234   0.000177
              37         38         39         40         41         42
     1  S   -0.005863   0.000026  -0.000112   0.000166   0.000042   0.000092
     2  C   -0.100410  -0.031402   0.000132   0.003581  -0.000109  -0.012649
     3  N    0.000607   0.012500   0.001002  -0.000541  -0.000013   0.005443
     4  C   -0.012612   0.005560   0.000469   0.000205   0.000002   0.001354
     5  C    0.000380  -0.000259  -0.000034  -0.000004  -0.000000   0.000139
     6  C    0.000172   0.000022   0.000001  -0.000001   0.000000   0.000019
     7  C   -0.000093  -0.000012  -0.000001   0.000000  -0.000000  -0.000010
     8  C   -0.000487  -0.000033  -0.000004   0.000004   0.000000  -0.000070
     9  C   -0.001055  -0.000479  -0.000046   0.000017   0.000001  -0.000721
    10  H    0.000335  -0.000091  -0.000001  -0.000002   0.000000   0.000069
    11  H   -0.000948   0.000459  -0.000013   0.000042   0.000010  -0.000107
    12  H   -0.000060   0.000003   0.000000   0.000001   0.000000  -0.000008
    13  H    0.000164  -0.000004  -0.000000  -0.000002  -0.000000   0.000014
    14  H   -0.000001  -0.000001  -0.000000  -0.000000  -0.000000  -0.000002
    15  H   -0.000007  -0.000000  -0.000000   0.000000   0.000000  -0.000001
    16  H    0.000009   0.000003   0.000000  -0.000000   0.000000   0.000001
    17  H    0.000038  -0.000003  -0.000001  -0.000001  -0.000000   0.000005
    18  H    0.000094  -0.000076  -0.000002   0.000004  -0.000000   0.000004
    19  H   -0.000077  -0.000012  -0.000003   0.000003   0.000000  -0.000008
    20  H   -0.002580   0.000581   0.000044   0.000045   0.000005   0.000011
    21  H   -0.000388   0.003788  -0.000091  -0.000098   0.000027  -0.000662
    22  N    0.142668  -0.017712   0.004408   0.002167  -0.000223  -0.012230
    23  C   -0.230928   0.106638  -0.002620   0.005674   0.001762  -0.009670
    24  C    0.441685  -0.376474   0.058818   0.001449  -0.003867  -0.060596
    25  H    0.177019  -0.066388   0.006995   0.000289  -0.002385   0.008488
    26  H    0.017402   0.044376   0.004424  -0.002419  -0.000552   0.010995
    27  H   -0.038332  -0.011508   0.000164   0.000566  -0.000051  -0.003805
    28  H   -0.001502   0.018064   0.001110  -0.000376   0.000172   0.002248
    29  C   -0.176214   0.114407  -0.001427   0.002112  -0.000657  -0.006018
    30  H   -0.059200   0.000691  -0.000660   0.000181  -0.000034  -0.004657
    31  H    0.027407   0.015321   0.001145  -0.000738  -0.000092   0.003531
    32  C    0.323093  -0.342345   0.043372   0.003050  -0.003051  -0.063931
    33  H    0.120009  -0.044071   0.004005   0.002882   0.000672  -0.002722
    34  H    0.074125   0.027092   0.005904  -0.001663   0.000356   0.018268
    35  C   -3.423544   0.220853  -0.194155   0.256319   0.028650  -0.604369
    36  H    0.355867  -0.160486  -0.011139   0.008772   0.000213   0.023360
    37  C   10.562109  -2.973777   0.603505   0.077102  -0.095767   0.261657
    38  C   -2.973777   9.569754  -0.349392  -0.454348   0.032685  -0.288480
    39  H    0.603505  -0.349392   1.267061  -0.097166  -0.023724  -0.045783
    40  N    0.077102  -0.454348  -0.097166   7.235734   0.426546  -0.010726
    41  H   -0.095767   0.032685  -0.023724   0.426546   0.515713  -0.034152
    42  C    0.261657  -0.288480  -0.045783  -0.010726  -0.034152   5.461854
    43  H    0.263004   0.015616   0.000964  -0.147151  -0.010229   0.362861
    44  N   -0.402507  -0.084891   0.045390   0.065005   0.000062   0.158150
    45  H   -0.086660   0.026273  -0.023600   0.420975  -0.070353  -0.032317
              43         44         45
     1  S   -0.000013  -0.005135   0.000009
     2  C   -0.001002   0.017203  -0.000001
     3  N    0.000103   0.013298   0.000047
     4  C   -0.000066   0.008999   0.000031
     5  C    0.000013  -0.000366   0.000000
     6  C    0.000002   0.000005  -0.000000
     7  C   -0.000000  -0.000023  -0.000000
     8  C   -0.000026   0.000032   0.000001
     9  C   -0.000060  -0.001061   0.000004
    10  H    0.000007   0.000098   0.000001
    11  H   -0.000064  -0.000224   0.000001
    12  H   -0.000003   0.000011   0.000000
    13  H    0.000002   0.000005   0.000000
    14  H   -0.000000  -0.000005  -0.000000
    15  H   -0.000000  -0.000002  -0.000000
    16  H    0.000000   0.000001   0.000000
    17  H    0.000001  -0.000007   0.000000
    18  H   -0.000001   0.000067   0.000000
    19  H   -0.000002  -0.000070   0.000000
    20  H   -0.000043   0.000674   0.000001
    21  H    0.000004  -0.002773  -0.000020
    22  N    0.000176   0.029893  -0.000132
    23  C   -0.002564   0.026080  -0.001065
    24  C   -0.007549   0.053117  -0.003474
    25  H   -0.000677  -0.024776   0.000594
    26  H    0.000928   0.027059   0.000383
    27  H   -0.000229  -0.002408  -0.000022
    28  H   -0.000004   0.007120  -0.000136
    29  C   -0.001927   0.025707   0.001396
    30  H   -0.000253  -0.005787   0.000057
    31  H    0.000092   0.004893   0.000155
    32  C   -0.006717   0.006394  -0.002469
    33  H   -0.001516  -0.030725  -0.001412
    34  H    0.001206   0.031911  -0.000785
    35  C   -0.041538  -0.133870   0.025234
    36  H   -0.003562  -0.001019   0.000177
    37  C    0.263004  -0.402507  -0.086660
    38  C    0.015616  -0.084891   0.026273
    39  H    0.000964   0.045390  -0.023600
    40  N   -0.147151   0.065005   0.420975
    41  H   -0.010229   0.000062  -0.070353
    42  C    0.362861   0.158150  -0.032317
    43  H    1.035405  -0.247930  -0.009550
    44  N   -0.247930   7.961136   0.000431
    45  H   -0.009550   0.000431   0.516427
 Mulliken charges:
               1
     1  S   -0.292117
     2  C   -0.187236
     3  N   -0.311837
     4  C   -0.630304
     5  C    0.520275
     6  C    0.381489
     7  C    0.423800
     8  C    0.409729
     9  C    0.751700
    10  H   -0.161880
    11  H   -0.180657
    12  H   -0.109200
    13  H   -0.103961
    14  H   -0.116953
    15  H   -0.134587
    16  H   -0.110904
    17  H   -0.101694
    18  H   -0.156261
    19  H   -0.119921
    20  H   -0.309192
    21  H   -0.113360
    22  N   -0.120059
    23  C    0.815533
    24  C    0.505064
    25  H   -0.092910
    26  H   -0.225292
    27  H   -0.226736
    28  H   -0.214478
    29  C    0.772735
    30  H   -0.170130
    31  H   -0.184019
    32  C    0.591167
    33  H   -0.043343
    34  H   -0.237695
    35  C    0.131574
    36  H   -0.320239
    37  C    0.164561
    38  C    0.987534
    39  H   -0.298939
    40  N   -0.797657
    41  H    0.238342
    42  C    0.875133
    43  H   -0.197707
    44  N   -0.539162
    45  H    0.239795
 Sum of Mulliken charges =   1.00000
 Mulliken charges with hydrogens summed into heavy atoms:
               1
     1  S   -0.292117
     2  C   -0.187236
     3  N   -0.425197
     4  C   -0.939496
     5  C    0.244093
     6  C    0.168892
     7  C    0.172260
     8  C    0.196567
     9  C    0.409162
    22  N   -0.120059
    23  C    0.374319
    24  C    0.186861
    29  C    0.418586
    32  C    0.310129
    35  C   -0.188665
    37  C    0.164561
    38  C    0.688595
    40  N   -0.319520
    42  C    0.677426
    44  N   -0.539162
 Electronic spatial extent (au):  <R**2>=           9335.3862
 Charge=              1.0000 electrons
 Dipole moment (field-independent basis, Debye):
    X=            -25.7152    Y=             -7.6266    Z=              3.3183  Tot=             27.0268
 Quadrupole moment (field-independent basis, Debye-Ang):
   XX=             44.5875   YY=           -116.2858   ZZ=           -123.4067
   XY=             30.5257   XZ=             13.9385   YZ=             11.0913
 Traceless Quadrupole moment (field-independent basis, Debye-Ang):
   XX=            109.6225   YY=            -51.2508   ZZ=            -58.3717
   XY=             30.5257   XZ=             13.9385   YZ=             11.0913
 Octapole moment (field-independent basis, Debye-Ang**2):
  XXX=           -984.2990  YYY=            -45.6765  ZZZ=             14.9223  XYY=           -109.3582
  XXY=           -252.8175  XXZ=            -68.9401  XZZ=            -46.8004  YZZ=            -18.4445
  YYZ=             -4.4937  XYZ=            -29.3914
 Hexadecapole moment (field-independent basis, Debye-Ang**3):
 XXXX=          -3623.1332 YYYY=          -1480.5600 ZZZZ=           -791.2081 XXXY=           1502.5722
 XXXZ=            458.2342 YYYX=            207.2042 YYYZ=             64.1291 ZZZX=             64.0827
 ZZZY=             46.9236 XXYY=          -1451.5008 XXZZ=          -1653.6569 YYZZ=           -376.2037
 XXYZ=            208.7384 YYXZ=             81.2955 ZZXY=             56.3796
 N-N= 1.710720276712D+03 E-N=-6.215690186635D+03  KE= 1.196660810732D+03
 Leave Link  601 at Sun Jul 18 20:02:13 2021, MaxMem=   262144000 cpu:               0.7 elap:               0.7
 (Enter /dades/curu/g16A03_MST/g16/l9999.exe)
 1\1\GINC-PIRINEUS25\SP\RMP2-FC\Aug-CC-pVDZ\C15H25N4S1(1+)\UBATOR02\18-
 Jul-2021\0\\#p mp2/aug-cc-pVDZ scf=tight maxdisk=180GB geom=allcheck\\
 SET_328_BBB227_conf1.geo_075_180_060 geometry\\1,1\S,0,-0.7302285407,-
 0.9076603066,-2.445423363\C,0,-0.5009683251,-0.9848882041,-0.756075389
 \N,0,-1.4394048312,-0.5271229029,0.1087820573\C,0,-2.7141001075,0.0986
 549282,-0.2540488932\C,0,-3.8625871213,-0.9223952621,-0.2836857575\C,0
 ,-5.1975019779,-0.247611695,-0.6286737097\C,0,-5.5080821127,0.90992164
 14,0.3284514983\C,0,-4.3583649712,1.9243936232,0.3645939943\C,0,-3.020
 0795134,1.2549609682,0.7099968761\H,0,-3.0648989003,0.8685331509,1.738
 4938677\H,0,-2.2037654846,1.9843292257,0.6789475984\H,0,-4.5714314171,
 2.7185577585,1.0877711574\H,0,-4.2741333725,2.4106272484,-0.6159905963
 \H,0,-5.6704698416,0.5109903091,1.3387151363\H,0,-6.4393483326,1.40627
 88244,0.0345521368\H,0,-6.0041270006,-0.9880635209,-0.6080244389\H,0,-
 5.1523691272,0.1350242003,-1.6567921288\H,0,-3.9385218984,-1.403143816
 9,0.7013190684\H,0,-3.6251549748,-1.7065773311,-1.0085597671\H,0,-2.57
 32147128,0.4930082275,-1.2625416737\H,0,-1.3602437145,-0.793296019,1.0
 812594931\N,0,0.6347828367,-1.5104538477,-0.1971936516\C,0,1.102642427
 5,-1.2404585107,1.1670440242\C,0,2.2673226481,-0.2404567288,1.15560854
 63\H,0,1.9026783851,0.7277233744,0.7982398537\H,0,2.6280506776,-0.0982
 355426,2.1791651472\H,0,0.3067782026,-0.8475665527,1.7951472797\H,0,1.
 4195364798,-2.191482668,1.6098111313\C,0,1.69928539,-2.0835492099,-1.0
 229582482\H,0,1.2813150873,-2.3052662113,-2.0008537074\H,0,2.017556436
 3,-3.0208722064,-0.5481544735\C,0,2.8828226677,-1.11928338,-1.15004341
 97\H,0,2.5530009205,-0.2262705673,-1.6909895537\H,0,3.6777852744,-1.58
 91584662,-1.7374472865\C,0,3.4248310634,-0.7134327748,0.2442537491\H,0
 ,3.9060812036,-1.5839879356,0.703388172\C,0,4.4481072678,0.3687771336,
 0.1162353421\C,0,5.7510222988,0.377499213,0.4338486182\H,0,6.412685092
 5,-0.3594183494,0.8590206813\N,0,6.2740319739,1.7062075043,0.094704452
 7\H,0,7.0443364763,1.6830440126,-0.602457336\C,0,5.0686937383,2.385798
 9149,-0.4433266358\H,0,5.15318866,3.4063012459,-0.7846624344\N,0,4.051
 014845,1.6346922276,-0.429329196\H,0,6.6734462249,2.2113282777,0.91188
 17782\\Version=ES64L-G16RevA.03\State=1-A\HF=-1197.7503914\MP2=-1200.7
 215912\RMSD=2.017e-09\PG=C01 [X(C15H25N4S1)]\\@


 TWO ROADS DIVERGED IN A WOOD, AND I--
 I TOOK THE ONE LESS TRAVELED BY,
 AND THAT HAS MADE ALL THE DIFFERENCE.

                       -- ROBERT FROST
 Job cpu time:       0 days  5 hours 57 minutes 44.3 seconds.
 Elapsed time:       0 days  2 hours  3 minutes 38.6 seconds.
 File lengths (MBytes):  RWF= 174839 Int=      0 D2E=      0 Chk=     38 Scr=      1
 Normal termination of Gaussian 16 at Sun Jul 18 20:02:16 2021.
