 Entering Gaussian System, Link 0=g16
 Input=SET_328_BBB29_conf1.geo_120_180_180_OCTANOL.dat
 Output=SET_328_BBB29_conf1.geo_120_180_180_OCTANOL.log
 Initial command:
 /dades/curu/g16A03_MST/g16/l1.exe "/tmp/ubator02/1839606/Gau-81833.inp" -scrdir="/tmp/ubator02/1839606/"
 Entering Link 1 = /dades/curu/g16A03_MST/g16/l1.exe PID=     81834.
  
 Copyright (c) 1988,1990,1992,1993,1995,1998,2003,2009,2016,
            Gaussian, Inc.  All Rights Reserved.
  
 This is part of the Gaussian(R) 16 program.  It is based on
 the Gaussian(R) 09 system (copyright 2009, Gaussian, Inc.),
 the Gaussian(R) 03 system (copyright 2003, Gaussian, Inc.),
 the Gaussian(R) 98 system (copyright 1998, Gaussian, Inc.),
 the Gaussian(R) 94 system (copyright 1995, Gaussian, Inc.),
 the Gaussian 92(TM) system (copyright 1992, Gaussian, Inc.),
 the Gaussian 90(TM) system (copyright 1990, Gaussian, Inc.),
 the Gaussian 88(TM) system (copyright 1988, Gaussian, Inc.),
 the Gaussian 86(TM) system (copyright 1986, Carnegie Mellon
 University), and the Gaussian 82(TM) system (copyright 1983,
 Carnegie Mellon University). Gaussian is a federally registered
 trademark of Gaussian, Inc.
  
 This software contains proprietary and confidential information,
 including trade secrets, belonging to Gaussian, Inc.
  
 This software is provided under written license and may be
 used, copied, transmitted, or stored only in accord with that
 written license.
  
 The following legend is applicable only to US Government
 contracts under FAR:
  
                    RESTRICTED RIGHTS LEGEND
  
 Use, reproduction and disclosure by the US Government is
 subject to restrictions as set forth in subparagraphs (a)
 and (c) of the Commercial Computer Software - Restricted
 Rights clause in FAR 52.227-19.
  
 Gaussian, Inc.
 340 Quinnipiac St., Bldg. 40, Wallingford CT 06492
  
  
 ---------------------------------------------------------------
 Warning -- This program may not be used in any manner that
 competes with the business of Gaussian, Inc. or will provide
 assistance to any competitor of Gaussian, Inc.  The licensee
 of this program is prohibited from giving any competitor of
 Gaussian, Inc. access to this program.  By using this program,
 the user acknowledges that Gaussian, Inc. is engaged in the
 business of creating and licensing software in the field of
 computational chemistry and represents and warrants to the
 licensee that it is not a competitor of Gaussian, Inc. and that
 it will not use this program in any manner prohibited above.
 ---------------------------------------------------------------
  

 Cite this work as:
 Gaussian 16, Revision A.03,
 M. J. Frisch, G. W. Trucks, H. B. Schlegel, G. E. Scuseria, 
 M. A. Robb, J. R. Cheeseman, G. Scalmani, V. Barone, 
 G. A. Petersson, H. Nakatsuji, X. Li, M. Caricato, A. V. Marenich, 
 J. Bloino, B. G. Janesko, R. Gomperts, B. Mennucci, H. P. Hratchian, 
 J. V. Ortiz, A. F. Izmaylov, J. L. Sonnenberg, D. Williams-Young, 
 F. Ding, F. Lipparini, F. Egidi, J. Goings, B. Peng, A. Petrone, 
 T. Henderson, D. Ranasinghe, V. G. Zakrzewski, J. Gao, N. Rega, 
 G. Zheng, W. Liang, M. Hada, M. Ehara, K. Toyota, R. Fukuda, 
 J. Hasegawa, M. Ishida, T. Nakajima, Y. Honda, O. Kitao, H. Nakai, 
 T. Vreven, K. Throssell, J. A. Montgomery, Jr., J. E. Peralta, 
 F. Ogliaro, M. J. Bearpark, J. J. Heyd, E. N. Brothers, K. N. Kudin, 
 V. N. Staroverov, T. A. Keith, R. Kobayashi, J. Normand, 
 K. Raghavachari, A. P. Rendell, J. C. Burant, S. S. Iyengar, 
 J. Tomasi, M. Cossi, J. M. Millam, M. Klene, C. Adamo, R. Cammi, 
 J. W. Ochterski, R. L. Martin, K. Morokuma, O. Farkas, 
 J. B. Foresman, and D. J. Fox, Gaussian, Inc., Wallingford CT, 2016.
 
 ******************************************
 Gaussian 16:  ES64L-G16RevA.03 25-Dec-2016
                18-Jul-2021 
 ******************************************
 %mem=800MB
 %nproc=4
 Will use up to    4 processors via shared memory.
 %chk=SET_328_BBB29_conf1.geo_120_180_180.chk
 ---------------------------------------------------------------
 #p b3lyp/6-31G(d) opt freq scrf=(iefpcm,read,solvent=n-octanol)
 ---------------------------------------------------------------
 1/18=20,19=15,26=3,38=1,40=2/1,3;
 2/9=110,12=2,17=6,18=5,40=1/2;
 3/5=1,6=6,7=1,11=2,25=1,30=1,70=2203,71=1,72=25,74=-5/1,2,3;
 4//1;
 5/5=2,38=5,53=25/2;
 6/7=2,8=2,9=2,10=2,28=1/1;
 7//1,2,3,16;
 1/18=20,19=15,26=3/3(2);
 2/9=110/2;
 99//99;
 2/9=110/2;
 3/5=1,6=6,7=1,11=2,25=1,30=1,70=2205,71=1,72=25,74=-5/1,2,3;
 4/5=5,16=3,69=1/1;
 5/5=2,38=5,53=25/2;
 7//1,2,3,16;
 1/18=20,19=15,26=3/3(-5);
 2/9=110/2;
 6/7=2,8=2,9=2,10=2,19=2,28=1/1;
 99/9=1/99;
 Leave Link    1 at Sun Jul 18 13:50:51 2021, MaxMem=   104857600 cpu:               0.0 elap:               0.0
 (Enter /dades/curu/g16A03_MST/g16/l101.exe)
 --------------------------------------------
 SET_328_BBB29_conf1.geo_120_180_180 geometry
 --------------------------------------------
 Symbolic Z-matrix:
 Charge =  1 Multiplicity = 1
 N                     0.176    -4.218    -1.508 
 H                     0.729    -5.006    -1.779 
 H                    -0.482    -4.008    -2.231 
 C                     1.028    -3.087    -1.295 
 H                     1.512    -2.848    -2.245 
 H                     1.712    -3.454    -0.525 
 C                     0.275    -1.918    -0.739 
 H                    -0.132    -2.246     0.22 
 H                    -0.554    -1.718    -1.42 
 C                     1.228    -0.745    -0.543 
 H                     1.678    -0.509    -1.511 
 H                     2.017    -1.049     0.149 
 N                     0.532     0.432     0.006 
 C                     0.502     0.528     1.341 
 C                     1.628     0.913     2.08 
 H                     2.586     1.04      1.583 
 C                     1.456     1.282     3.448 
 Cl                    2.776     1.952     4.24 
 C                     0.2       1.138     4.148 
 H                     0.093     1.223     5.227 
 C                    -0.786     0.606     3.344 
 H                    -1.724     0.49      3.881 
 C                    -0.733     0.408     1.957 
 S                    -2.236     0.013     1. 
 C                    -1.73      1.057    -0.41 
 C                    -0.355     1.118    -0.781 
 C                     0.047     1.809    -1.883 
 H                     1.11      1.792    -2.109 
 C                    -0.892     2.541    -2.647 
 H                    -0.46      3.201    -3.396 
 C                    -2.217     2.484    -2.331 
 H                    -2.881     3.125    -2.905 
 C                    -2.654     1.709    -1.223 
 H                    -3.703     1.729    -0.94 
 H                    -0.314    -4.43     -0.663 
 
 ITRead=  0  0  0  0  0  0  0  0  0  0  0  0  0  0  0  0  0  0  0  0
 ITRead=  0  0  0  0  0  0  0  0  0  0  0  0  0  0  0
 MicOpt= -1 -1 -1 -1 -1 -1 -1 -1 -1 -1 -1 -1 -1 -1 -1 -1 -1 -1 -1 -1
 MicOpt= -1 -1 -1 -1 -1 -1 -1 -1 -1 -1 -1 -1 -1 -1 -1
 NAtoms=     35 NQM=       35 NQMF=       0 NMMI=      0 NMMIF=      0
                NMic=       0 NMicF=      0.
                    Isotopes and Nuclear Properties:
 (Nuclear quadrupole moments (NQMom) in fm**2, nuclear magnetic moments (NMagM)
  in nuclear magnetons)

  Atom         1           2           3           4           5           6           7           8           9          10
 IAtWgt=          14           1           1          12           1           1          12           1           1          12
 AtmWgt=  14.0030740   1.0078250   1.0078250  12.0000000   1.0078250   1.0078250  12.0000000   1.0078250   1.0078250  12.0000000
 NucSpn=           2           1           1           0           1           1           0           1           1           0
 AtZEff=  -0.0000000  -0.0000000  -0.0000000  -0.0000000  -0.0000000  -0.0000000  -0.0000000  -0.0000000  -0.0000000  -0.0000000
 NQMom=    2.0440000   0.0000000   0.0000000   0.0000000   0.0000000   0.0000000   0.0000000   0.0000000   0.0000000   0.0000000
 NMagM=    0.4037610   2.7928460   2.7928460   0.0000000   2.7928460   2.7928460   0.0000000   2.7928460   2.7928460   0.0000000
 AtZNuc=   7.0000000   1.0000000   1.0000000   6.0000000   1.0000000   1.0000000   6.0000000   1.0000000   1.0000000   6.0000000

  Atom        11          12          13          14          15          16          17          18          19          20
 IAtWgt=           1           1          14          12          12           1          12          35          12           1
 AtmWgt=   1.0078250   1.0078250  14.0030740  12.0000000  12.0000000   1.0078250  12.0000000  34.9688527  12.0000000   1.0078250
 NucSpn=           1           1           2           0           0           1           0           3           0           1
 AtZEff=  -0.0000000  -0.0000000  -0.0000000  -0.0000000  -0.0000000  -0.0000000  -0.0000000  -0.0000000  -0.0000000  -0.0000000
 NQMom=    0.0000000   0.0000000   2.0440000   0.0000000   0.0000000   0.0000000   0.0000000  -8.1650000   0.0000000   0.0000000
 NMagM=    2.7928460   2.7928460   0.4037610   0.0000000   0.0000000   2.7928460   0.0000000   0.8218740   0.0000000   2.7928460
 AtZNuc=   1.0000000   1.0000000   7.0000000   6.0000000   6.0000000   1.0000000   6.0000000  17.0000000   6.0000000   1.0000000

  Atom        21          22          23          24          25          26          27          28          29          30
 IAtWgt=          12           1          12          32          12          12          12           1          12           1
 AtmWgt=  12.0000000   1.0078250  12.0000000  31.9720718  12.0000000  12.0000000  12.0000000   1.0078250  12.0000000   1.0078250
 NucSpn=           0           1           0           0           0           0           0           1           0           1
 AtZEff=  -0.0000000  -0.0000000  -0.0000000  -0.0000000  -0.0000000  -0.0000000  -0.0000000  -0.0000000  -0.0000000  -0.0000000
 NQMom=    0.0000000   0.0000000   0.0000000   0.0000000   0.0000000   0.0000000   0.0000000   0.0000000   0.0000000   0.0000000
 NMagM=    0.0000000   2.7928460   0.0000000   0.0000000   0.0000000   0.0000000   0.0000000   2.7928460   0.0000000   2.7928460
 AtZNuc=   6.0000000   1.0000000   6.0000000  16.0000000   6.0000000   6.0000000   6.0000000   1.0000000   6.0000000   1.0000000

  Atom        31          32          33          34          35
 IAtWgt=          12           1          12           1           1
 AtmWgt=  12.0000000   1.0078250  12.0000000   1.0078250   1.0078250
 NucSpn=           0           1           0           1           1
 AtZEff=  -0.0000000  -0.0000000  -0.0000000  -0.0000000  -0.0000000
 NQMom=    0.0000000   0.0000000   0.0000000   0.0000000   0.0000000
 NMagM=    0.0000000   2.7928460   0.0000000   2.7928460   2.7928460
 AtZNuc=   6.0000000   1.0000000   6.0000000   1.0000000   1.0000000
 Leave Link  101 at Sun Jul 18 13:50:52 2021, MaxMem=   104857600 cpu:               0.1 elap:               0.1
 (Enter /dades/curu/g16A03_MST/g16/l103.exe)

 GradGradGradGradGradGradGradGradGradGradGradGradGradGradGradGradGradGrad
 Berny optimization.
 Initialization pass.
                           ----------------------------
                           !    Initial Parameters    !
                           ! (Angstroms and Degrees)  !
 --------------------------                            --------------------------
 ! Name  Definition              Value          Derivative Info.                !
 --------------------------------------------------------------------------------
 ! R1    R(1,2)                  1.0001         estimate D2E/DX2                !
 ! R2    R(1,3)                  0.9999         estimate D2E/DX2                !
 ! R3    R(1,4)                  1.4319         estimate D2E/DX2                !
 ! R4    R(1,35)                 0.9995         estimate D2E/DX2                !
 ! R5    R(4,5)                  1.0926         estimate D2E/DX2                !
 ! R6    R(4,6)                  1.0934         estimate D2E/DX2                !
 ! R7    R(4,7)                  1.4976         estimate D2E/DX2                !
 ! R8    R(7,8)                  1.0922         estimate D2E/DX2                !
 ! R9    R(7,9)                  1.0913         estimate D2E/DX2                !
 ! R10   R(7,10)                 1.524          estimate D2E/DX2                !
 ! R11   R(10,11)                1.0933         estimate D2E/DX2                !
 ! R12   R(10,12)                1.0926         estimate D2E/DX2                !
 ! R13   R(10,13)                1.4735         estimate D2E/DX2                !
 ! R14   R(13,14)                1.3388         estimate D2E/DX2                !
 ! R15   R(13,26)                1.3699         estimate D2E/DX2                !
 ! R16   R(14,15)                1.4008         estimate D2E/DX2                !
 ! R17   R(14,23)                1.3853         estimate D2E/DX2                !
 ! R18   R(15,16)                1.0867         estimate D2E/DX2                !
 ! R19   R(15,17)                1.4273         estimate D2E/DX2                !
 ! R20   R(17,18)                1.6789         estimate D2E/DX2                !
 ! R21   R(17,19)                1.4451         estimate D2E/DX2                !
 ! R22   R(19,20)                1.0876         estimate D2E/DX2                !
 ! R23   R(19,21)                1.379          estimate D2E/DX2                !
 ! R24   R(21,22)                1.087          estimate D2E/DX2                !
 ! R25   R(21,23)                1.4021         estimate D2E/DX2                !
 ! R26   R(23,24)                1.8251         estimate D2E/DX2                !
 ! R27   R(24,25)                1.8259         estimate D2E/DX2                !
 ! R28   R(25,26)                1.4255         estimate D2E/DX2                !
 ! R29   R(25,33)                1.3928         estimate D2E/DX2                !
 ! R30   R(26,27)                1.3614         estimate D2E/DX2                !
 ! R31   R(27,28)                1.0869         estimate D2E/DX2                !
 ! R32   R(27,29)                1.4147         estimate D2E/DX2                !
 ! R33   R(29,30)                1.0878         estimate D2E/DX2                !
 ! R34   R(29,31)                1.3634         estimate D2E/DX2                !
 ! R35   R(31,32)                1.0869         estimate D2E/DX2                !
 ! R36   R(31,33)                1.421          estimate D2E/DX2                !
 ! R37   R(33,34)                1.0867         estimate D2E/DX2                !
 ! A1    A(2,1,3)              109.4767         estimate D2E/DX2                !
 ! A2    A(2,1,4)              109.4898         estimate D2E/DX2                !
 ! A3    A(2,1,35)             109.4529         estimate D2E/DX2                !
 ! A4    A(3,1,4)              109.4646         estimate D2E/DX2                !
 ! A5    A(3,1,35)             109.4646         estimate D2E/DX2                !
 ! A6    A(4,1,35)             109.4788         estimate D2E/DX2                !
 ! A7    A(1,4,5)              107.8784         estimate D2E/DX2                !
 ! A8    A(1,4,6)              102.2317         estimate D2E/DX2                !
 ! A9    A(1,4,7)              111.8761         estimate D2E/DX2                !
 ! A10   A(5,4,6)              114.1179         estimate D2E/DX2                !
 ! A11   A(5,4,7)              112.0109         estimate D2E/DX2                !
 ! A12   A(6,4,7)              108.3674         estimate D2E/DX2                !
 ! A13   A(4,7,8)              106.1967         estimate D2E/DX2                !
 ! A14   A(4,7,9)              107.0574         estimate D2E/DX2                !
 ! A15   A(4,7,10)             109.5203         estimate D2E/DX2                !
 ! A16   A(8,7,9)              108.6553         estimate D2E/DX2                !
 ! A17   A(8,7,10)             110.5634         estimate D2E/DX2                !
 ! A18   A(9,7,10)             114.4699         estimate D2E/DX2                !
 ! A19   A(7,10,11)            108.0394         estimate D2E/DX2                !
 ! A20   A(7,10,12)            108.5945         estimate D2E/DX2                !
 ! A21   A(7,10,13)            111.553          estimate D2E/DX2                !
 ! A22   A(11,10,12)           108.8811         estimate D2E/DX2                !
 ! A23   A(11,10,13)           110.603          estimate D2E/DX2                !
 ! A24   A(12,10,13)           109.1091         estimate D2E/DX2                !
 ! A25   A(10,13,14)           116.0654         estimate D2E/DX2                !
 ! A26   A(10,13,26)           119.4581         estimate D2E/DX2                !
 ! A27   A(14,13,26)           121.4959         estimate D2E/DX2                !
 ! A28   A(13,14,15)           121.8544         estimate D2E/DX2                !
 ! A29   A(13,14,23)           117.205          estimate D2E/DX2                !
 ! A30   A(15,14,23)           120.3867         estimate D2E/DX2                !
 ! A31   A(14,15,16)           119.9654         estimate D2E/DX2                !
 ! A32   A(14,15,17)           118.6743         estimate D2E/DX2                !
 ! A33   A(16,15,17)           120.9556         estimate D2E/DX2                !
 ! A34   A(15,17,18)           117.4244         estimate D2E/DX2                !
 ! A35   A(15,17,19)           122.9055         estimate D2E/DX2                !
 ! A36   A(18,17,19)           119.6449         estimate D2E/DX2                !
 ! A37   A(17,19,20)           123.937          estimate D2E/DX2                !
 ! A38   A(17,19,21)           112.1775         estimate D2E/DX2                !
 ! A39   A(20,19,21)           122.5625         estimate D2E/DX2                !
 ! A40   A(19,21,22)           111.7234         estimate D2E/DX2                !
 ! A41   A(19,21,23)           127.1728         estimate D2E/DX2                !
 ! A42   A(22,21,23)           120.4137         estimate D2E/DX2                !
 ! A43   A(14,23,21)           117.4746         estimate D2E/DX2                !
 ! A44   A(14,23,24)           121.3159         estimate D2E/DX2                !
 ! A45   A(21,23,24)           121.2091         estimate D2E/DX2                !
 ! A46   A(23,24,25)            93.0355         estimate D2E/DX2                !
 ! A47   A(24,25,26)           119.5213         estimate D2E/DX2                !
 ! A48   A(24,25,33)           122.3143         estimate D2E/DX2                !
 ! A49   A(26,25,33)           117.9028         estimate D2E/DX2                !
 ! A50   A(13,26,25)           116.975          estimate D2E/DX2                !
 ! A51   A(13,26,27)           121.8692         estimate D2E/DX2                !
 ! A52   A(25,26,27)           121.1453         estimate D2E/DX2                !
 ! A53   A(26,27,28)           116.6897         estimate D2E/DX2                !
 ! A54   A(26,27,29)           120.2507         estimate D2E/DX2                !
 ! A55   A(28,27,29)           123.0228         estimate D2E/DX2                !
 ! A56   A(27,29,30)           114.9746         estimate D2E/DX2                !
 ! A57   A(27,29,31)           119.8866         estimate D2E/DX2                !
 ! A58   A(30,29,31)           124.8157         estimate D2E/DX2                !
 ! A59   A(29,31,32)           116.531          estimate D2E/DX2                !
 ! A60   A(29,31,33)           120.1593         estimate D2E/DX2                !
 ! A61   A(32,31,33)           123.0639         estimate D2E/DX2                !
 ! A62   A(25,33,31)           120.4267         estimate D2E/DX2                !
 ! A63   A(25,33,34)           119.8024         estimate D2E/DX2                !
 ! A64   A(31,33,34)           119.3331         estimate D2E/DX2                !
 ! D1    D(2,1,4,5)             62.7632         estimate D2E/DX2                !
 ! D2    D(2,1,4,6)            -57.8508         estimate D2E/DX2                !
 ! D3    D(2,1,4,7)           -173.6036         estimate D2E/DX2                !
 ! D4    D(3,1,4,5)            -57.2508         estimate D2E/DX2                !
 ! D5    D(3,1,4,6)           -177.8648         estimate D2E/DX2                !
 ! D6    D(3,1,4,7)             66.3824         estimate D2E/DX2                !
 ! D7    D(35,1,4,5)          -177.2433         estimate D2E/DX2                !
 ! D8    D(35,1,4,6)            62.1428         estimate D2E/DX2                !
 ! D9    D(35,1,4,7)           -53.6101         estimate D2E/DX2                !
 ! D10   D(1,4,7,8)             60.9854         estimate D2E/DX2                !
 ! D11   D(1,4,7,9)            -54.9619         estimate D2E/DX2                !
 ! D12   D(1,4,7,10)          -179.6056         estimate D2E/DX2                !
 ! D13   D(5,4,7,8)           -177.7402         estimate D2E/DX2                !
 ! D14   D(5,4,7,9)             66.3125         estimate D2E/DX2                !
 ! D15   D(5,4,7,10)           -58.3312         estimate D2E/DX2                !
 ! D16   D(6,4,7,8)            -50.9692         estimate D2E/DX2                !
 ! D17   D(6,4,7,9)           -166.9165         estimate D2E/DX2                !
 ! D18   D(6,4,7,10)            68.4398         estimate D2E/DX2                !
 ! D19   D(4,7,10,11)           58.3196         estimate D2E/DX2                !
 ! D20   D(4,7,10,12)          -59.627          estimate D2E/DX2                !
 ! D21   D(4,7,10,13)         -179.9084         estimate D2E/DX2                !
 ! D22   D(8,7,10,11)          175.0044         estimate D2E/DX2                !
 ! D23   D(8,7,10,12)           57.0579         estimate D2E/DX2                !
 ! D24   D(8,7,10,13)          -63.2235         estimate D2E/DX2                !
 ! D25   D(9,7,10,11)          -61.8969         estimate D2E/DX2                !
 ! D26   D(9,7,10,12)         -179.8435         estimate D2E/DX2                !
 ! D27   D(9,7,10,13)           59.8752         estimate D2E/DX2                !
 ! D28   D(7,10,13,14)          90.5492         estimate D2E/DX2                !
 ! D29   D(7,10,13,26)         -70.2235         estimate D2E/DX2                !
 ! D30   D(11,10,13,14)       -149.1734         estimate D2E/DX2                !
 ! D31   D(11,10,13,26)         50.054          estimate D2E/DX2                !
 ! D32   D(12,10,13,14)        -29.4295         estimate D2E/DX2                !
 ! D33   D(12,10,13,26)        169.7979         estimate D2E/DX2                !
 ! D34   D(10,13,14,15)         75.1551         estimate D2E/DX2                !
 ! D35   D(10,13,14,23)       -113.354          estimate D2E/DX2                !
 ! D36   D(26,13,14,15)       -124.4955         estimate D2E/DX2                !
 ! D37   D(26,13,14,23)         46.9953         estimate D2E/DX2                !
 ! D38   D(10,13,26,25)        112.3706         estimate D2E/DX2                !
 ! D39   D(10,13,26,27)        -66.4637         estimate D2E/DX2                !
 ! D40   D(14,13,26,25)        -47.3294         estimate D2E/DX2                !
 ! D41   D(14,13,26,27)        133.8362         estimate D2E/DX2                !
 ! D42   D(13,14,15,16)         -6.5567         estimate D2E/DX2                !
 ! D43   D(13,14,15,17)        166.2124         estimate D2E/DX2                !
 ! D44   D(23,14,15,16)       -177.7817         estimate D2E/DX2                !
 ! D45   D(23,14,15,17)         -5.0126         estimate D2E/DX2                !
 ! D46   D(13,14,23,21)       -175.3881         estimate D2E/DX2                !
 ! D47   D(13,14,23,24)          4.4016         estimate D2E/DX2                !
 ! D48   D(15,14,23,21)         -3.7657         estimate D2E/DX2                !
 ! D49   D(15,14,23,24)        176.024          estimate D2E/DX2                !
 ! D50   D(14,15,17,18)       -171.1885         estimate D2E/DX2                !
 ! D51   D(14,15,17,19)          6.9713         estimate D2E/DX2                !
 ! D52   D(16,15,17,18)          1.5064         estimate D2E/DX2                !
 ! D53   D(16,15,17,19)        179.6661         estimate D2E/DX2                !
 ! D54   D(15,17,19,20)        167.347          estimate D2E/DX2                !
 ! D55   D(15,17,19,21)          0.2222         estimate D2E/DX2                !
 ! D56   D(18,17,19,20)        -14.5325         estimate D2E/DX2                !
 ! D57   D(18,17,19,21)        178.3428         estimate D2E/DX2                !
 ! D58   D(17,19,21,22)        179.3276         estimate D2E/DX2                !
 ! D59   D(17,19,21,23)        -10.2648         estimate D2E/DX2                !
 ! D60   D(20,19,21,22)         11.9986         estimate D2E/DX2                !
 ! D61   D(20,19,21,23)       -177.5938         estimate D2E/DX2                !
 ! D62   D(19,21,23,14)         12.4381         estimate D2E/DX2                !
 ! D63   D(19,21,23,24)       -167.3518         estimate D2E/DX2                !
 ! D64   D(22,21,23,14)       -177.9029         estimate D2E/DX2                !
 ! D65   D(22,21,23,24)          2.3072         estimate D2E/DX2                !
 ! D66   D(14,23,24,25)        -38.5197         estimate D2E/DX2                !
 ! D67   D(21,23,24,25)        141.2622         estimate D2E/DX2                !
 ! D68   D(23,24,25,26)         37.0794         estimate D2E/DX2                !
 ! D69   D(23,24,25,33)       -148.9215         estimate D2E/DX2                !
 ! D70   D(24,25,26,13)         -3.556          estimate D2E/DX2                !
 ! D71   D(24,25,26,27)        175.2874         estimate D2E/DX2                !
 ! D72   D(33,25,26,13)       -177.8182         estimate D2E/DX2                !
 ! D73   D(33,25,26,27)          1.0252         estimate D2E/DX2                !
 ! D74   D(24,25,33,31)       -178.3673         estimate D2E/DX2                !
 ! D75   D(24,25,33,34)          9.2748         estimate D2E/DX2                !
 ! D76   D(26,25,33,31)         -4.2758         estimate D2E/DX2                !
 ! D77   D(26,25,33,34)       -176.6336         estimate D2E/DX2                !
 ! D78   D(13,26,27,28)         -0.0999         estimate D2E/DX2                !
 ! D79   D(13,26,27,29)       -177.9593         estimate D2E/DX2                !
 ! D80   D(25,26,27,28)       -178.8861         estimate D2E/DX2                !
 ! D81   D(25,26,27,29)          3.2545         estimate D2E/DX2                !
 ! D82   D(26,27,29,30)        169.4742         estimate D2E/DX2                !
 ! D83   D(26,27,29,31)         -4.3101         estimate D2E/DX2                !
 ! D84   D(28,27,29,30)         -8.2448         estimate D2E/DX2                !
 ! D85   D(28,27,29,31)        177.971          estimate D2E/DX2                !
 ! D86   D(27,29,31,32)        175.5217         estimate D2E/DX2                !
 ! D87   D(27,29,31,33)          1.0432         estimate D2E/DX2                !
 ! D88   D(30,29,31,32)          2.3877         estimate D2E/DX2                !
 ! D89   D(30,29,31,33)       -172.0907         estimate D2E/DX2                !
 ! D90   D(29,31,33,25)          3.2875         estimate D2E/DX2                !
 ! D91   D(29,31,33,34)        175.6811         estimate D2E/DX2                !
 ! D92   D(32,31,33,25)       -170.8165         estimate D2E/DX2                !
 ! D93   D(32,31,33,34)          1.577          estimate D2E/DX2                !
 --------------------------------------------------------------------------------
 Trust Radius=3.00D-01 FncErr=1.00D-07 GrdErr=1.00D-06 EigMax=2.50D+02 EigMin=1.00D-04
 Number of steps in this run=    204 maximum allowed number of steps=    210.
 GradGradGradGradGradGradGradGradGradGradGradGradGradGradGradGradGradGrad

 Leave Link  103 at Sun Jul 18 13:50:52 2021, MaxMem=   104857600 cpu:               0.0 elap:               0.0
 (Enter /dades/curu/g16A03_MST/g16/l202.exe)
                          Input orientation:                          
 ---------------------------------------------------------------------
 Center     Atomic      Atomic             Coordinates (Angstroms)
 Number     Number       Type             X           Y           Z
 ---------------------------------------------------------------------
      1          7           0        0.176000   -4.218000   -1.508000
      2          1           0        0.729000   -5.006000   -1.779000
      3          1           0       -0.482000   -4.008000   -2.231000
      4          6           0        1.028000   -3.087000   -1.295000
      5          1           0        1.512000   -2.848000   -2.245000
      6          1           0        1.712000   -3.454000   -0.525000
      7          6           0        0.275000   -1.918000   -0.739000
      8          1           0       -0.132000   -2.246000    0.220000
      9          1           0       -0.554000   -1.718000   -1.420000
     10          6           0        1.228000   -0.745000   -0.543000
     11          1           0        1.678000   -0.509000   -1.511000
     12          1           0        2.017000   -1.049000    0.149000
     13          7           0        0.532000    0.432000    0.006000
     14          6           0        0.502000    0.528000    1.341000
     15          6           0        1.628000    0.913000    2.080000
     16          1           0        2.586000    1.040000    1.583000
     17          6           0        1.456000    1.282000    3.448000
     18         17           0        2.776000    1.952000    4.240000
     19          6           0        0.200000    1.138000    4.148000
     20          1           0        0.093000    1.223000    5.227000
     21          6           0       -0.786000    0.606000    3.344000
     22          1           0       -1.724000    0.490000    3.881000
     23          6           0       -0.733000    0.408000    1.957000
     24         16           0       -2.236000    0.013000    1.000000
     25          6           0       -1.730000    1.057000   -0.410000
     26          6           0       -0.355000    1.118000   -0.781000
     27          6           0        0.047000    1.809000   -1.883000
     28          1           0        1.110000    1.792000   -2.109000
     29          6           0       -0.892000    2.541000   -2.647000
     30          1           0       -0.460000    3.201000   -3.396000
     31          6           0       -2.217000    2.484000   -2.331000
     32          1           0       -2.881000    3.125000   -2.905000
     33          6           0       -2.654000    1.709000   -1.223000
     34          1           0       -3.703000    1.729000   -0.940000
     35          1           0       -0.314000   -4.430000   -0.663000
 ---------------------------------------------------------------------
                    Distance matrix (angstroms):
                    1          2          3          4          5
     1  N    0.000000
     2  H    1.000097   0.000000
     3  H    0.999896   1.633043   0.000000
     4  C    1.431934   2.001554   2.001109   0.000000
     5  H    2.050601   2.342479   2.306910   1.092647   0.000000
     6  H    1.977190   2.224300   2.833900   1.093364   1.834567
     7  C    2.427172   3.289903   2.677165   1.497567   2.159422
     8  H    2.640006   3.514957   3.038839   2.085211   3.023469
     9  H    2.605886   3.547663   2.430433   2.095832   2.495172
    10  C    3.754951   4.464618   4.052236   2.467887   2.720307
    11  H    4.001586   4.603850   4.174566   2.667441   2.457078
    12  H    4.022125   4.586281   4.545886   2.686392   3.036884
    13  N    4.903206   5.726856   5.074048   3.784439   4.097048
    14  C    5.545051   6.356971   5.856854   4.504819   5.027611
    15  C    6.427224   7.122825   6.874086   5.267886   5.732731
    16  H    6.558121   7.162793   7.031467   5.267103   5.560900
    17  C    7.513344   8.209080   7.999437   6.462770   7.033512
    18  Cl   8.824308   9.425091   9.381365   7.686563   8.166573
    19  C    7.789586   8.553240   8.224237   6.939918   7.647221
    20  H    8.658614   9.396221   9.127746   7.873170   8.626551
    21  C    6.909293   7.748219   7.243068   6.200739   6.960448
    22  H    7.403822   8.261890   7.689676   6.867271   7.690372
    23  C    5.850845   6.738437   6.091256   5.088384   5.770474
    24  S    5.478063   6.457896   5.448332   5.052793   5.723884
    25  C    5.715248   6.684371   5.525194   5.055940   5.396926
    26  C    5.411413   6.298765   5.328649   4.456334   4.621487
    27  C    6.040033   6.849830   5.851362   5.027815   4.895398
    28  H    6.111764   6.816661   6.015758   4.947116   4.659367
    29  C    6.937004   7.767771   6.574995   6.098253   5.914570
    30  H    7.681836   8.448861   7.302561   6.794651   6.465600
    31  C    7.163838   8.067448   6.720587   6.529882   6.507155
    32  H    8.075674   8.967337   7.555737   7.514075   7.443842
    33  C    6.574150   7.539566   6.198204   6.046811   6.258298
    34  H    7.122926   8.105971   6.704826   6.760343   7.060324
    35  H    0.999534   1.632508   1.632462   2.001009   2.887858
                    6          7          8          9         10
     6  H    0.000000
     7  C    2.114252   0.000000
     8  H    2.326935   1.092206   0.000000
     9  H    2.991568   1.091330   1.773829   0.000000
    10  C    2.751956   1.523993   2.164433   2.211647   0.000000
    11  H    3.105862   2.132996   3.047889   2.540037   1.093261
    12  H    2.516213   2.139689   2.460905   3.085346   1.092612
    13  N    4.095773   2.478623   2.767377   2.799173   1.473481
    14  C    4.560963   3.218827   3.058378   3.712516   2.386852
    15  C    5.085644   4.218048   4.066507   4.892166   3.128753
    16  H    5.040196   4.413861   4.476951   5.146278   3.090350
    17  C    6.187080   5.400531   5.038701   6.061149   4.482052
    18  Cl   7.284378   6.783977   6.499236   7.522858   5.705016
    19  C    6.723804   5.764333   5.195273   6.303005   5.158290
    20  H    7.588214   6.744788   6.095460   7.297308   6.201141
    21  C    6.139443   4.916013   4.280303   5.305704   4.581503
    22  H    6.839157   5.580221   4.839740   5.860441   5.459973
    23  C    5.201288   3.700643   3.228326   3.994502   3.380078
    24  S    5.471053   3.613586   3.184069   3.417877   3.867132
    25  C    5.675360   3.602623   3.722944   3.178632   3.466217
    26  C    5.024063   3.100961   3.516849   2.913901   2.456278
    27  C    5.684677   3.905285   4.571397   3.607672   3.116613
    28  H    5.512892   4.042057   4.824132   3.945088   2.983731
    29  C    6.871952   4.988490   5.631399   4.445093   4.440609
    30  H    7.566323   5.814124   6.546209   5.301884   5.153627
    31  C    7.345646   5.303030   5.764350   4.610021   5.048902
    32  H    8.369187   6.331172   6.794871   5.574478   6.118809
    33  C    6.797480   4.687049   4.907622   4.024070   4.642676
    34  H    7.507192   5.400509   5.467931   4.693443   5.531098
    35  H    2.253064   2.581248   2.362767   2.825879   3.996422
                   11         12         13         14         15
    11  H    0.000000
    12  H    1.778235   0.000000
    13  N    2.121341   2.102150   0.000000
    14  C    3.254574   2.490586   1.338783   0.000000
    15  C    3.862624   2.780203   2.394588   1.400793   0.000000
    16  H    3.577248   2.596929   2.659983   2.159575   1.086693
    17  C    5.277182   4.078196   3.663829   2.432711   1.427294
    18  Cl   6.351073   5.130143   5.027195   3.950070   2.657635
    19  C    6.076296   4.906777   4.214834   2.888348   2.523179
    20  H    7.135313   5.886412   5.298796   3.968791   3.515101
    21  C    5.557477   4.561125   3.592999   2.382653   2.742142
    22  H    6.453315   5.503765   4.484253   3.377591   3.828633
    23  C    4.322133   3.599196   2.325339   1.385309   2.417535
    24  S    4.679423   4.465429   2.970761   2.806804   4.111800
    25  C    3.908839   4.334481   2.383343   2.885770   4.182942
    26  C    2.704278   3.344723   1.369939   2.363352   3.487067
    27  C    2.858613   4.022199   2.387399   3.498880   4.359787
    28  H    2.444346   3.740654   2.580099   3.724226   4.311460
    29  C    4.147035   5.400740   3.676148   4.679695   5.598689
    30  H    4.678501   6.063419   4.497225   5.523544   6.291364
    31  C    4.980108   6.046424   4.150816   4.970159   6.058794
    32  H    5.994470   7.123173   5.232087   6.018107   7.076316
    33  C    4.875315   5.595283   3.645787   4.234288   5.466164
    34  H    5.855753   6.451481   4.529056   4.932280   6.181085
    35  H    4.478996   4.186176   4.980193   5.409587   6.312136
                   16         17         18         19         20
    16  H    0.000000
    17  C    2.194012   0.000000
    18  Cl   2.815580   1.678858   0.000000
    19  C    3.504543   1.445085   2.703116   0.000000
    20  H    4.418968   2.241895   2.950271   1.087619   0.000000
    21  C    3.828820   2.344004   3.911825   1.378998   2.167722
    22  H    4.915222   3.305624   4.745137   2.047674   2.377077
    23  C    3.399274   2.789028   4.461962   2.490757   3.469784
    24  S    4.964504   4.608029   6.275147   4.136378   4.975527
    25  C    4.753966   5.008531   6.536632   4.950437   5.926774
    26  C    3.774130   4.603375   5.975714   4.960188   6.025595
    27  C    4.364749   5.539185   6.705149   6.070141   7.134256
    28  H    4.046597   5.591070   6.565893   6.356561   7.427984
    29  C    5.678238   6.651858   7.825082   7.023738   8.044080
    30  H    6.224024   7.361654   8.386906   7.848790   8.864221
    31  C    6.361866   6.952163   8.269892   7.044931   8.003098
    32  H    7.374107   7.909920   9.188504   7.948933   8.865196
    33  C    5.981538   6.236399   7.706382   6.108928   7.027425
    34  H    6.811150   6.787462   8.298167   6.439754   7.259307
    35  H    6.586002   7.256732   8.620756   7.376486   8.173993
                   21         22         23         24         25
    21  C    0.000000
    22  H    1.087046   0.000000
    23  C    1.402063   2.165775   0.000000
    24  S    2.819306   2.964765   1.825071   0.000000
    25  C    3.897057   4.328303   2.649132   1.825944   0.000000
    26  C    4.178939   4.899264   2.853704   2.816229   1.425478
    27  C    5.427949   6.172511   4.161346   4.092602   2.427542
    28  H    5.893778   6.753285   4.673806   4.901677   3.390048
    29  C    6.296629   6.893012   5.076592   4.636564   2.812236
    30  H    7.229654   7.867779   6.044004   5.713347   3.889194
    31  C    6.146566   6.542784   4.989887   4.147501   2.442077
    32  H    7.055805   7.371002   5.969509   5.034838   3.438961
    33  C    5.056038   5.329322   3.936400   2.827166   1.392785
    34  H    5.303082   5.356641   4.354142   2.976633   2.150631
    35  H    6.452916   6.844153   5.517808   5.118584   5.672410
                   26         27         28         29         30
    26  C    0.000000
    27  C    1.361429   0.000000
    28  H    2.089039   1.086892   0.000000
    29  C    2.407333   1.414652   2.204189   0.000000
    30  H    3.344868   2.117518   2.471143   1.087761   0.000000
    31  C    2.781277   2.404584   3.405448   1.363352   2.176089
    32  H    3.862655   3.368905   4.282358   2.088957   2.471457
    33  C    2.414549   2.782265   3.867762   2.413430   3.429523
    34  H    3.407008   3.867577   4.953332   3.387464   4.326173
    35  H    5.549406   6.367405   6.544614   7.270845   8.106958
                   31         32         33         34         35
    31  C    0.000000
    32  H    1.086855   0.000000
    33  C    1.421006   2.210364   0.000000
    34  H    2.170968   2.546709   1.086688   0.000000
    35  H    7.362542   8.288189   6.593673   7.035292   0.000000
 Stoichiometry    C15H16ClN2S(1+)
 Framework group  C1[X(C15H16ClN2S)]
 Deg. of freedom    99
 Full point group                 C1      NOp   1
 Largest Abelian subgroup         C1      NOp   1
 Largest concise Abelian subgroup C1      NOp   1
                         Standard orientation:                         
 ---------------------------------------------------------------------
 Center     Atomic      Atomic             Coordinates (Angstroms)
 Number     Number       Type             X           Y           Z
 ---------------------------------------------------------------------
      1          7           0        3.229360    3.835249    0.544398
      2          1           0        3.503341    4.757884    0.272602
      3          1           0        4.041787    3.259615    0.636048
      4          6           0        2.362128    3.281548   -0.451472
      5          1           0        2.927610    3.204160   -1.383201
      6          1           0        1.548604    4.011409   -0.481910
      7          6           0        1.796232    1.961561   -0.027090
      8          1           0        1.221742    2.154356    0.881593
      9          1           0        2.640466    1.317102    0.223798
     10          6           0        0.892018    1.417907   -1.126813
     11          1           0        1.487039    1.324903   -2.039238
     12          1           0        0.086348    2.134934   -1.301651
     13          7           0        0.307963    0.117543   -0.753881
     14          6           0       -0.870895    0.161983   -0.120902
     15          6           0       -2.063632    0.445562   -0.798532
     16          1           0       -2.036884    0.741395   -1.843840
     17          6           0       -3.303395    0.187644   -0.140021
     18         17           0       -4.706197    0.321698   -1.052566
     19          6           0       -3.387633   -0.214649    1.245380
     20          1           0       -4.311253   -0.224873    1.819607
     21          6           0       -2.145266   -0.309984    1.836203
     22          1           0       -2.217865   -0.601538    2.880901
     23          6           0       -0.897737   -0.260104    1.198265
     24         16           0        0.631180   -0.739049    2.072283
     25          6           0        1.333416   -1.556094    0.598047
     26          6           0        1.112715   -0.989333   -0.691162
     27          6           0        1.698577   -1.515945   -1.801538
     28          1           0        1.495400   -1.015418   -2.744685
     29          6           0        2.488608   -2.685371   -1.703895
     30          1           0        2.766136   -3.132930   -2.655680
     31          6           0        2.736786   -3.237504   -0.482303
     32          1           0        3.285756   -4.175504   -0.475970
     33          6           0        2.185604   -2.653877    0.690231
     34          1           0        2.332974   -3.144221    1.648738
     35          1           0        2.748856    3.875041    1.419956
 ---------------------------------------------------------------------
 Rotational constants (GHZ):           0.3745535           0.2222216           0.1823898
 Leave Link  202 at Sun Jul 18 13:50:52 2021, MaxMem=   104857600 cpu:               0.0 elap:               0.0
 (Enter /dades/curu/g16A03_MST/g16/l301.exe)
 Standard basis: 6-31G(d) (6D, 7F)
 Ernie: Thresh=  0.10000D-02 Tol=  0.10000D-05 Strict=F.
 There are   325 symmetry adapted cartesian basis functions of A   symmetry.
 There are   325 symmetry adapted basis functions of A   symmetry.
   325 basis functions,   644 primitive gaussians,   325 cartesian basis functions
    76 alpha electrons       76 beta electrons
       nuclear repulsion energy      1660.9903659824 Hartrees.
 IExCor=  402 DFT=T Ex+Corr=B3LYP ExCW=0 ScaHFX=  0.200000
 ScaDFX=  0.800000  0.720000  1.000000  0.810000 ScalE2=  1.000000  1.000000
 IRadAn=      5 IRanWt=     -1 IRanGd=            0 ICorTp=0 IEmpDi=  4
 NAtoms=   35 NActive=   35 NUniq=   35 SFac= 1.00D+00 NAtFMM=   60 NAOKFM=F Big=F
 Integral buffers will be    131072 words long.
 Raffenetti 2 integral format.
 Two-electron integral symmetry is turned on.
 Using the following non-standard input for PCM:
 MSTModel=DFT cav MSTCharged
 --- end of non-standard input.
 MST model for solvation energy: B3LYP parametrization.
 MST cavity parameters:
 ISph   IAn     Re0     Alpha   Atom Type   QCorr
 ------------------------------------------------
   1      7     1.50     1.15      NH+        T
   2      1     0.90     1.15      NH+        T
   3      1     0.90     1.15      NH+        T
   4      6     1.50     1.50      CN+        F
   5      1     1.20     1.50      CN+        F
   6      1     1.20     1.50      CN+        F
   7      6     1.50     1.50      CH2        F
   8      1     1.20     1.50      CH2        F
   9      1     1.20     1.50      CH2        F
  10      6     1.50     1.50      CH2        F
  11      1     1.20     1.50      CH2        F
  12      1     1.20     1.50      CH2        F
  13      7     1.50     1.50      Nc         F
  14      6     1.50     1.50      C          F
  15      6     1.50     1.50      CH         F
  16      1     1.20     1.50      CH         F
  17      6     1.50     1.50      C          F
  18     17     1.80     1.50      Cl         F
  19      6     1.50     1.50      CH         F
  20      1     1.20     1.50      CH         F
  21      6     1.50     1.50      CH         F
  22      1     1.20     1.50      CH         F
  23      6     1.50     1.50      C          F
  24     16     1.75     1.50      S          F
  25      6     1.50     1.50      C          F
  26      6     1.50     1.50      C          F
  27      6     1.50     1.50      CH         F
  28      1     1.20     1.50      CH         F
  29      6     1.50     1.50      CH         F
  30      1     1.20     1.50      CH         F
  31      6     1.50     1.50      CH         F
  32      1     1.20     1.50      CH         F
  33      6     1.50     1.50      CH         F
  34      1     1.20     1.50      CH         F
  35      1     0.90     1.15      NH+        T
 ------------------------------------------------------------------------------
 Polarizable Continuum Model (PCM)
 =================================
 Model                : PCM.
 Atomic radii         : MST.
 Polarization charges : Total charges.
 Charge compensation  : None.
 Solution method      : On-the-fly selection.
 Cavity type          : Scaled VdW (van der Waals Surface) (Alpha=1.500).
 Cavity algorithm     : GePol (No added spheres)
                        Default sphere list used, NSphG=   35.
                        Lebedev-Laikov grids with approx.  5.0 points / Ang**2.
                        Smoothing algorithm: York/Karplus (Gamma=1.0000).
                        Polarization charges: spherical gaussians, with
                                              point-specific exponents (IZeta= 3).
                        Self-potential: point-specific (ISelfS= 7).
                        Self-field    : sphere-specific E.n sum rule (ISelfD= 2).
 1st derivatives      : Analytical E(r).r(x)/FMM algorithm (CHGder, D1EAlg=3).
                        Cavity 1st derivative terms included.
 Solvent              : n-Octanol, Eps=   9.862900 Eps(inf)=   2.043470
 ------------------------------------------------------------------------------
 GePol: Number of generator spheres                  =      35
 GePol: Total number of spheres                      =      35
 GePol: Number of exposed spheres                    =      35 (100.00%)
 GePol: Number of points                             =    3289
 GePol: Average weight of points                     =       0.11
 GePol: Minimum weight of points                     =   0.20D-09
 GePol: Maximum weight of points                     =    0.22065
 GePol: Number of points with low weight             =     177
 GePol: Fraction of low-weight points (<1% of avg)   =       5.38%
 GePol: Cavity surface area                          =    376.058 Ang**2
 GePol: Cavity volume                                =    454.300 Ang**3
 Surface areas from nonelectrostatic (unscaled) cavity and vdw tensions:
 Sphere =    1 Type =  NH+ Surf =       12.070 Tension =       -0.274
 Sphere =    2 Type =  NH+ Surf =        3.855 Tension =       -0.274
 Sphere =    3 Type =  NH+ Surf =        3.853 Tension =       -0.274
 Sphere =    4 Type =  CN+ Surf =        3.588 Tension =       -0.227
 Sphere =    5 Type =  CN+ Surf =       10.014 Tension =       -0.227
 Sphere =    6 Type =  CN+ Surf =        9.813 Tension =       -0.227
 Sphere =    7 Type =  CH2 Surf =        3.530 Tension =       -0.194
 Sphere =    8 Type =  CH2 Surf =        9.927 Tension =       -0.194
 Sphere =    9 Type =  CH2 Surf =        9.998 Tension =       -0.194
 Sphere =   10 Type =  CH2 Surf =        3.539 Tension =       -0.194
 Sphere =   11 Type =  CH2 Surf =        9.888 Tension =       -0.194
 Sphere =   12 Type =  CH2 Surf =        9.755 Tension =       -0.194
 Sphere =   13 Type =  Nc  Surf =        4.827 Tension =       -0.161
 Sphere =   14 Type =  C   Surf =        5.291 Tension =       -0.205
 Sphere =   15 Type =  CH  Surf =        7.529 Tension =       -0.195
 Sphere =   16 Type =  CH  Surf =       10.044 Tension =       -0.195
 Sphere =   17 Type =  C   Surf =        5.271 Tension =       -0.205
 Sphere =   18 Type =  Cl  Surf =       32.071 Tension =       -0.163
 Sphere =   19 Type =  CH  Surf =        7.849 Tension =       -0.195
 Sphere =   20 Type =  CH  Surf =       10.246 Tension =       -0.195
 Sphere =   21 Type =  CH  Surf =        7.461 Tension =       -0.195
 Sphere =   22 Type =  CH  Surf =       10.119 Tension =       -0.195
 Sphere =   23 Type =  C   Surf =        5.778 Tension =       -0.205
 Sphere =   24 Type =  S   Surf =       24.366 Tension =       -0.186
 Sphere =   25 Type =  C   Surf =        5.912 Tension =       -0.205
 Sphere =   26 Type =  C   Surf =        5.553 Tension =       -0.205
 Sphere =   27 Type =  CH  Surf =        7.610 Tension =       -0.195
 Sphere =   28 Type =  CH  Surf =       10.139 Tension =       -0.195
 Sphere =   29 Type =  CH  Surf =        7.762 Tension =       -0.195
 Sphere =   30 Type =  CH  Surf =       10.224 Tension =       -0.195
 Sphere =   31 Type =  CH  Surf =        7.810 Tension =       -0.195
 Sphere =   32 Type =  CH  Surf =       10.224 Tension =       -0.195
 Sphere =   33 Type =  CH  Surf =        7.809 Tension =       -0.195
 Sphere =   34 Type =  CH  Surf =       10.232 Tension =       -0.195
 Sphere =   35 Type =  NH+ Surf =        3.848 Tension =       -0.274
 PCM non-electrostatic energy =        -0.0195372960 Hartrees.
 Nuclear repulsion after PCM non-electrostatic terms =     1660.9708286864 Hartrees.
 Leave Link  301 at Sun Jul 18 13:50:52 2021, MaxMem=   104857600 cpu:               0.2 elap:               0.4
 (Enter /dades/curu/g16A03_MST/g16/l302.exe)
 NPDir=0 NMtPBC=     1 NCelOv=     1 NCel=       1 NClECP=     1 NCelD=      1
         NCelK=      1 NCelE2=     1 NClLst=     1 CellRange=     0.0.
 One-electron integrals computed using PRISM.
 One-electron integral symmetry used in STVInt
 NBasis=   325 RedAO= T EigKep=  4.86D-04  NBF=   325
 NBsUse=   325 1.00D-06 EigRej= -1.00D+00 NBFU=   325
 Precomputing XC quadrature grid using
 IXCGrd= 4 IRadAn=           5 IRanWt=          -1 IRanGd=           0 AccXCQ= 0.00D+00.
 Generated NRdTot=       0 NPtTot=           0 NUsed=           0 NTot=          32
 NSgBfM=   322   322   322   322   322 MxSgAt=    35 MxSgA2=    35.
 Leave Link  302 at Sun Jul 18 13:50:53 2021, MaxMem=   104857600 cpu:               4.4 elap:               1.2
 (Enter /dades/curu/g16A03_MST/g16/l303.exe)
 DipDrv:  MaxL=1.
 Leave Link  303 at Sun Jul 18 13:50:53 2021, MaxMem=   104857600 cpu:               0.1 elap:               0.1
 (Enter /dades/curu/g16A03_MST/g16/l401.exe)
 ExpMin= 1.17D-01 ExpMax= 2.52D+04 ExpMxC= 3.78D+03 IAcc=3 IRadAn=         5 AccDes= 0.00D+00
 Harris functional with IExCor=  402 and IRadAn=       5 diagonalized for initial guess.
 HarFok:  IExCor=  402 AccDes= 0.00D+00 IRadAn=         5 IDoV= 1 UseB2=F ITyADJ=14
 ICtDFT=  3500011 ScaDFX=  1.000000  1.000000  1.000000  1.000000
 FoFCou: FMM=F IPFlag=           0 FMFlag=      100000 FMFlg1=           0
         NFxFlg=           0 DoJE=T BraDBF=F KetDBF=T FulRan=T
         wScrn=  0.000000 ICntrl=       500 IOpCl=  0 I1Cent=   200000004 NGrid=           0
         NMat0=    1 NMatS0=      1 NMatT0=    0 NMatD0=    1 NMtDS0=    0 NMtDT0=    0
 Petite list used in FoFCou.
 Harris En= -1548.76452235974    
 JPrj=0 DoOrth=F DoCkMO=F.
 Leave Link  401 at Sun Jul 18 13:51:02 2021, MaxMem=   104857600 cpu:              34.9 elap:               8.8
 (Enter /dades/curu/g16A03_MST/g16/l502.exe)
 Integral symmetry usage will be decided dynamically.
 Closed shell SCF:
 Using DIIS extrapolation, IDIIS=  1040.
 NGot=   104857600 LenX=   104640758 LenY=   104534692
 Requested convergence on RMS density matrix=1.00D-08 within 128 cycles.
 Requested convergence on MAX density matrix=1.00D-06.
 Requested convergence on             energy=1.00D-06.
 No special actions if energy rises.
 Fock matrices will be formed incrementally for  20 cycles.

 Cycle   1  Pass 1  IDiag  1:
 FoFJK:  IHMeth= 1 ICntrl=       0 DoSepK=F KAlg= 0 I1Cent=           0 FoldK=F
 IRaf= 820000000 NMat=       1 IRICut=       1 DoRegI=T DoRafI=F ISym2E= 0 IDoP0=0 IntGTp=1.
 FoFCou: FMM=F IPFlag=           0 FMFlag=      100000 FMFlg1=           0
         NFxFlg=           0 DoJE=F BraDBF=F KetDBF=F FulRan=T
         wScrn=  0.000000 ICntrl=         0 IOpCl=  0 I1Cent=           0 NGrid=           0
         NMat0=    1 NMatS0=      1 NMatT0=    0 NMatD0=    1 NMtDS0=    0 NMtDT0=    0
 Symmetry not used in FoFCou.
 Inv3:  Mode=1 IEnd=    32452563.
 Iteration    1 A*A^-1 deviation from unit magnitude is 7.88D-15 for   1645.
 Iteration    1 A*A^-1 deviation from orthogonality  is 3.98D-15 for   3285   3060.
 Iteration    1 A^-1*A deviation from unit magnitude is 7.44D-15 for   1645.
 Iteration    1 A^-1*A deviation from orthogonality  is 4.05D-15 for   3285   3060.
 E= -1548.52257010047    
 DIIS: error= 2.26D-02 at cycle   1 NSaved=   1.
 NSaved= 1 IEnMin= 1 EnMin= -1548.52257010047     IErMin= 1 ErrMin= 2.26D-02
 ErrMax= 2.26D-02  0.00D+00 EMaxC= 1.00D-01 BMatC= 4.06D-01 BMatP= 4.06D-01
 IDIUse=3 WtCom= 7.74D-01 WtEn= 2.26D-01
 Coeff-Com:  0.100D+01
 Coeff-En:   0.100D+01
 Coeff:      0.100D+01
 Gap=     0.317 Goal=   None    Shift=    0.000
 GapD=    0.317 DampG=1.000 DampE=0.500 DampFc=0.5000 IDamp=-1.
 Damping current iteration by 5.00D-01
 RMSDP=4.97D-03 MaxDP=1.78D-01              OVMax= 2.02D-01

 Cycle   2  Pass 1  IDiag  1:
 RMSU=  2.46D-03    CP:  9.83D-01
 E= -1548.70575984106     Delta-E=       -0.183189740586 Rises=F Damp=T
 DIIS: error= 6.92D-03 at cycle   2 NSaved=   2.
 NSaved= 2 IEnMin= 2 EnMin= -1548.70575984106     IErMin= 2 ErrMin= 6.92D-03
 ErrMax= 6.92D-03  0.00D+00 EMaxC= 1.00D-01 BMatC= 2.75D-02 BMatP= 4.06D-01
 IDIUse=3 WtCom= 9.31D-01 WtEn= 6.92D-02
 Coeff-Com:  0.676D-01 0.932D+00
 Coeff-En:   0.151D+00 0.849D+00
 Coeff:      0.734D-01 0.927D+00
 Gap=     0.220 Goal=   None    Shift=    0.000
 RMSDP=1.35D-03 MaxDP=7.80D-02 DE=-1.83D-01 OVMax= 1.51D-01

 Cycle   3  Pass 1  IDiag  1:
 RMSU=  1.26D-03    CP:  9.76D-01  8.15D-01
 E= -1548.94212561757     Delta-E=       -0.236365776513 Rises=F Damp=F
 DIIS: error= 3.30D-03 at cycle   3 NSaved=   3.
 NSaved= 3 IEnMin= 3 EnMin= -1548.94212561757     IErMin= 3 ErrMin= 3.30D-03
 ErrMax= 3.30D-03  0.00D+00 EMaxC= 1.00D-01 BMatC= 8.84D-03 BMatP= 2.75D-02
 IDIUse=3 WtCom= 9.67D-01 WtEn= 3.30D-02
 Coeff-Com: -0.259D-01 0.325D+00 0.701D+00
 Coeff-En:   0.000D+00 0.000D+00 0.100D+01
 Coeff:     -0.250D-01 0.314D+00 0.711D+00
 Gap=     0.184 Goal=   None    Shift=    0.000
 RMSDP=5.89D-04 MaxDP=4.00D-02 DE=-2.36D-01 OVMax= 4.43D-02

 Cycle   4  Pass 1  IDiag  1:
 RMSU=  4.89D-04    CP:  9.77D-01  8.92D-01  7.89D-01
 E= -1548.94727296180     Delta-E=       -0.005147344227 Rises=F Damp=F
 DIIS: error= 2.35D-03 at cycle   4 NSaved=   4.
 NSaved= 4 IEnMin= 4 EnMin= -1548.94727296180     IErMin= 4 ErrMin= 2.35D-03
 ErrMax= 2.35D-03  0.00D+00 EMaxC= 1.00D-01 BMatC= 4.43D-03 BMatP= 8.84D-03
 IDIUse=3 WtCom= 9.76D-01 WtEn= 2.35D-02
 Coeff-Com: -0.210D-01 0.930D-01 0.442D+00 0.487D+00
 Coeff-En:   0.000D+00 0.000D+00 0.335D+00 0.665D+00
 Coeff:     -0.205D-01 0.908D-01 0.439D+00 0.491D+00
 Gap=     0.176 Goal=   None    Shift=    0.000
 RMSDP=2.94D-04 MaxDP=1.18D-02 DE=-5.15D-03 OVMax= 2.01D-02

 Cycle   5  Pass 1  IDiag  1:
 RMSU=  1.63D-04    CP:  9.77D-01  8.92D-01  8.34D-01  5.14D-01
 E= -1548.95169772950     Delta-E=       -0.004424767701 Rises=F Damp=F
 DIIS: error= 5.75D-04 at cycle   5 NSaved=   5.
 NSaved= 5 IEnMin= 5 EnMin= -1548.95169772950     IErMin= 5 ErrMin= 5.75D-04
 ErrMax= 5.75D-04  0.00D+00 EMaxC= 1.00D-01 BMatC= 2.91D-04 BMatP= 4.43D-03
 IDIUse=3 WtCom= 9.94D-01 WtEn= 5.75D-03
 Coeff-Com: -0.842D-02 0.225D-01 0.179D+00 0.272D+00 0.535D+00
 Coeff-En:   0.000D+00 0.000D+00 0.000D+00 0.000D+00 0.100D+01
 Coeff:     -0.837D-02 0.224D-01 0.178D+00 0.270D+00 0.538D+00
 Gap=     0.176 Goal=   None    Shift=    0.000
 RMSDP=8.25D-05 MaxDP=5.87D-03 DE=-4.42D-03 OVMax= 5.35D-03

 Cycle   6  Pass 1  IDiag  1:
 RMSU=  3.89D-05    CP:  9.76D-01  8.86D-01  8.52D-01  5.68D-01  6.22D-01
 E= -1548.95199735101     Delta-E=       -0.000299621513 Rises=F Damp=F
 DIIS: error= 1.40D-04 at cycle   6 NSaved=   6.
 NSaved= 6 IEnMin= 6 EnMin= -1548.95199735101     IErMin= 6 ErrMin= 1.40D-04
 ErrMax= 1.40D-04  0.00D+00 EMaxC= 1.00D-01 BMatC= 2.35D-05 BMatP= 2.91D-04
 IDIUse=3 WtCom= 9.99D-01 WtEn= 1.40D-03
 Coeff-Com: -0.278D-02 0.394D-02 0.609D-01 0.106D+00 0.291D+00 0.541D+00
 Coeff-En:   0.000D+00 0.000D+00 0.000D+00 0.000D+00 0.000D+00 0.100D+01
 Coeff:     -0.277D-02 0.393D-02 0.608D-01 0.106D+00 0.290D+00 0.542D+00
 Gap=     0.176 Goal=   None    Shift=    0.000
 RMSDP=1.89D-05 MaxDP=9.33D-04 DE=-3.00D-04 OVMax= 1.64D-03

 Cycle   7  Pass 1  IDiag  1:
 RMSU=  1.31D-05    CP:  9.76D-01  8.87D-01  8.53D-01  5.67D-01  6.68D-01
                    CP:  7.10D-01
 E= -1548.95201848535     Delta-E=       -0.000021134340 Rises=F Damp=F
 DIIS: error= 5.37D-05 at cycle   7 NSaved=   7.
 NSaved= 7 IEnMin= 7 EnMin= -1548.95201848535     IErMin= 7 ErrMin= 5.37D-05
 ErrMax= 5.37D-05  0.00D+00 EMaxC= 1.00D-01 BMatC= 2.59D-06 BMatP= 2.35D-05
 IDIUse=1 WtCom= 1.00D+00 WtEn= 0.00D+00
 Coeff-Com: -0.102D-02 0.770D-03 0.234D-01 0.422D-01 0.130D+00 0.319D+00
 Coeff-Com:  0.485D+00
 Coeff:     -0.102D-02 0.770D-03 0.234D-01 0.422D-01 0.130D+00 0.319D+00
 Coeff:      0.485D+00
 Gap=     0.176 Goal=   None    Shift=    0.000
 RMSDP=8.20D-06 MaxDP=3.27D-04 DE=-2.11D-05 OVMax= 6.91D-04

 Cycle   8  Pass 1  IDiag  1:
 RMSU=  5.22D-06    CP:  9.76D-01  8.87D-01  8.53D-01  5.71D-01  6.67D-01
                    CP:  7.30D-01  5.43D-01
 E= -1548.95202104572     Delta-E=       -0.000002560363 Rises=F Damp=F
 DIIS: error= 2.03D-05 at cycle   8 NSaved=   8.
 NSaved= 8 IEnMin= 8 EnMin= -1548.95202104572     IErMin= 8 ErrMin= 2.03D-05
 ErrMax= 2.03D-05  0.00D+00 EMaxC= 1.00D-01 BMatC= 3.75D-07 BMatP= 2.59D-06
 IDIUse=1 WtCom= 1.00D+00 WtEn= 0.00D+00
 Coeff-Com: -0.881D-04-0.389D-03 0.320D-02 0.578D-02 0.254D-01 0.921D-01
 Coeff-Com:  0.299D+00 0.575D+00
 Coeff:     -0.881D-04-0.389D-03 0.320D-02 0.578D-02 0.254D-01 0.921D-01
 Coeff:      0.299D+00 0.575D+00
 Gap=     0.176 Goal=   None    Shift=    0.000
 RMSDP=2.77D-06 MaxDP=1.05D-04 DE=-2.56D-06 OVMax= 1.90D-04

 Cycle   9  Pass 1  IDiag  1:
 RMSU=  1.65D-06    CP:  9.76D-01  8.87D-01  8.53D-01  5.71D-01  6.70D-01
                    CP:  7.39D-01  6.43D-01  6.83D-01
 E= -1548.95202142762     Delta-E=       -0.000000381907 Rises=F Damp=F
 DIIS: error= 3.98D-06 at cycle   9 NSaved=   9.
 NSaved= 9 IEnMin= 9 EnMin= -1548.95202142762     IErMin= 9 ErrMin= 3.98D-06
 ErrMax= 3.98D-06  0.00D+00 EMaxC= 1.00D-01 BMatC= 2.79D-08 BMatP= 3.75D-07
 IDIUse=1 WtCom= 1.00D+00 WtEn= 0.00D+00
 Coeff-Com:  0.105D-03-0.323D-03-0.138D-02-0.288D-02-0.402D-02 0.498D-02
 Coeff-Com:  0.939D-01 0.280D+00 0.630D+00
 Coeff:      0.105D-03-0.323D-03-0.138D-02-0.288D-02-0.402D-02 0.498D-02
 Coeff:      0.939D-01 0.280D+00 0.630D+00
 Gap=     0.176 Goal=   None    Shift=    0.000
 RMSDP=7.97D-07 MaxDP=5.64D-05 DE=-3.82D-07 OVMax= 5.04D-05

 Cycle  10  Pass 1  IDiag  1:
 RMSU=  4.76D-07    CP:  9.76D-01  8.87D-01  8.53D-01  5.71D-01  6.71D-01
                    CP:  7.44D-01  6.55D-01  7.54D-01  8.18D-01
 E= -1548.95202145587     Delta-E=       -0.000000028250 Rises=F Damp=F
 DIIS: error= 1.49D-06 at cycle  10 NSaved=  10.
 NSaved=10 IEnMin=10 EnMin= -1548.95202145587     IErMin=10 ErrMin= 1.49D-06
 ErrMax= 1.49D-06  0.00D+00 EMaxC= 1.00D-01 BMatC= 2.79D-09 BMatP= 2.79D-08
 IDIUse=1 WtCom= 1.00D+00 WtEn= 0.00D+00
 Coeff-Com:  0.607D-04-0.139D-03-0.875D-03-0.187D-02-0.355D-02-0.373D-02
 Coeff-Com:  0.283D-01 0.102D+00 0.330D+00 0.549D+00
 Coeff:      0.607D-04-0.139D-03-0.875D-03-0.187D-02-0.355D-02-0.373D-02
 Coeff:      0.283D-01 0.102D+00 0.330D+00 0.549D+00
 Gap=     0.176 Goal=   None    Shift=    0.000
 RMSDP=2.39D-07 MaxDP=1.18D-05 DE=-2.82D-08 OVMax= 1.69D-05

 Cycle  11  Pass 1  IDiag  1:
 RMSU=  1.77D-07    CP:  9.76D-01  8.87D-01  8.53D-01  5.71D-01  6.71D-01
                    CP:  7.45D-01  6.59D-01  7.54D-01  8.33D-01  7.09D-01
 E= -1548.95202145850     Delta-E=       -0.000000002628 Rises=F Damp=F
 DIIS: error= 6.89D-07 at cycle  11 NSaved=  11.
 NSaved=11 IEnMin=11 EnMin= -1548.95202145850     IErMin=11 ErrMin= 6.89D-07
 ErrMax= 6.89D-07  0.00D+00 EMaxC= 1.00D-01 BMatC= 3.27D-10 BMatP= 2.79D-09
 IDIUse=1 WtCom= 1.00D+00 WtEn= 0.00D+00
 Coeff-Com:  0.168D-04-0.259D-04-0.243D-03-0.571D-03-0.118D-02-0.261D-02
 Coeff-Com:  0.168D-02 0.129D-01 0.873D-01 0.290D+00 0.613D+00
 Coeff:      0.168D-04-0.259D-04-0.243D-03-0.571D-03-0.118D-02-0.261D-02
 Coeff:      0.168D-02 0.129D-01 0.873D-01 0.290D+00 0.613D+00
 Gap=     0.176 Goal=   None    Shift=    0.000
 RMSDP=9.16D-08 MaxDP=3.55D-06 DE=-2.63D-09 OVMax= 7.93D-06

 Cycle  12  Pass 1  IDiag  1:
 RMSU=  5.65D-08    CP:  9.76D-01  8.87D-01  8.53D-01  5.71D-01  6.71D-01
                    CP:  7.45D-01  6.60D-01  7.60D-01  8.49D-01  7.78D-01
                    CP:  7.32D-01
 E= -1548.95202145891     Delta-E=       -0.000000000404 Rises=F Damp=F
 DIIS: error= 1.76D-07 at cycle  12 NSaved=  12.
 NSaved=12 IEnMin=12 EnMin= -1548.95202145891     IErMin=12 ErrMin= 1.76D-07
 ErrMax= 1.76D-07  0.00D+00 EMaxC= 1.00D-01 BMatC= 2.95D-11 BMatP= 3.27D-10
 IDIUse=1 WtCom= 1.00D+00 WtEn= 0.00D+00
 Coeff-Com:  0.268D-05 0.231D-06-0.315D-04-0.984D-04-0.198D-03-0.881D-03
 Coeff-Com: -0.189D-02-0.360D-02 0.121D-01 0.842D-01 0.296D+00 0.614D+00
 Coeff:      0.268D-05 0.231D-06-0.315D-04-0.984D-04-0.198D-03-0.881D-03
 Coeff:     -0.189D-02-0.360D-02 0.121D-01 0.842D-01 0.296D+00 0.614D+00
 Gap=     0.176 Goal=   None    Shift=    0.000
 RMSDP=2.90D-08 MaxDP=1.42D-06 DE=-4.04D-10 OVMax= 2.49D-06

 Cycle  13  Pass 1  IDiag  1:
 RMSU=  1.84D-08    CP:  9.76D-01  8.87D-01  8.53D-01  5.71D-01  6.71D-01
                    CP:  7.45D-01  6.60D-01  7.59D-01  8.55D-01  7.91D-01
                    CP:  7.96D-01  7.41D-01
 E= -1548.95202145888     Delta-E=        0.000000000023 Rises=F Damp=F
 DIIS: error= 8.21D-08 at cycle  13 NSaved=  13.
 NSaved=13 IEnMin=12 EnMin= -1548.95202145891     IErMin=13 ErrMin= 8.21D-08
 ErrMax= 8.21D-08  0.00D+00 EMaxC= 1.00D-01 BMatC= 4.12D-12 BMatP= 2.95D-11
 IDIUse=1 WtCom= 1.00D+00 WtEn= 0.00D+00
 Coeff-Com: -0.782D-06 0.367D-05 0.171D-04 0.252D-04 0.562D-04-0.137D-03
 Coeff-Com: -0.141D-02-0.403D-02-0.566D-02 0.580D-02 0.772D-01 0.318D+00
 Coeff-Com:  0.610D+00
 Coeff:     -0.782D-06 0.367D-05 0.171D-04 0.252D-04 0.562D-04-0.137D-03
 Coeff:     -0.141D-02-0.403D-02-0.566D-02 0.580D-02 0.772D-01 0.318D+00
 Coeff:      0.610D+00
 Gap=     0.176 Goal=   None    Shift=    0.000
 RMSDP=1.05D-08 MaxDP=3.90D-07 DE= 2.25D-11 OVMax= 9.84D-07

 Cycle  14  Pass 1  IDiag  1:
 RMSU=  7.04D-09    CP:  9.76D-01  8.87D-01  8.53D-01  5.71D-01  6.71D-01
                    CP:  7.45D-01  6.60D-01  7.59D-01  8.55D-01  7.94D-01
                    CP:  8.07D-01  8.20D-01  7.65D-01
 E= -1548.95202145892     Delta-E=       -0.000000000036 Rises=F Damp=F
 DIIS: error= 2.07D-08 at cycle  14 NSaved=  14.
 NSaved=14 IEnMin=14 EnMin= -1548.95202145892     IErMin=14 ErrMin= 2.07D-08
 ErrMax= 2.07D-08  0.00D+00 EMaxC= 1.00D-01 BMatC= 5.73D-13 BMatP= 4.12D-12
 IDIUse=1 WtCom= 1.00D+00 WtEn= 0.00D+00
 Coeff-Com: -0.550D-06 0.145D-05 0.106D-04 0.208D-04 0.464D-04 0.333D-04
 Coeff-Com: -0.444D-03-0.142D-02-0.382D-02-0.659D-02 0.389D-02 0.877D-01
 Coeff-Com:  0.326D+00 0.594D+00
 Coeff:     -0.550D-06 0.145D-05 0.106D-04 0.208D-04 0.464D-04 0.333D-04
 Coeff:     -0.444D-03-0.142D-02-0.382D-02-0.659D-02 0.389D-02 0.877D-01
 Coeff:      0.326D+00 0.594D+00
 Gap=     0.176 Goal=   None    Shift=    0.000
 RMSDP=3.47D-09 MaxDP=1.91D-07 DE=-3.57D-11 OVMax= 2.94D-07

 Error on total polarization charges =  0.00799
 SCF Done:  E(RB3LYP) =  -1548.95202146     A.U. after   14 cycles
            NFock= 14  Conv=0.35D-08     -V/T= 2.0058
 KE= 1.540078099642D+03 PE=-6.944196685945D+03 EE= 2.194195736158D+03
 Leave Link  502 at Sun Jul 18 13:55:59 2021, MaxMem=   104857600 cpu:            1150.5 elap:             296.8
 (Enter /dades/curu/g16A03_MST/g16/l601.exe)
 Copying SCF densities to generalized density rwf, IOpCl= 0 IROHF=0.

 **********************************************************************

            Population analysis using the SCF density.

 **********************************************************************

 Orbital symmetries:
       Occupied  (A) (A) (A) (A) (A) (A) (A) (A) (A) (A) (A) (A)
                 (A) (A) (A) (A) (A) (A) (A) (A) (A) (A) (A) (A)
                 (A) (A) (A) (A) (A) (A) (A) (A) (A) (A) (A) (A)
                 (A) (A) (A) (A) (A) (A) (A) (A) (A) (A) (A) (A)
                 (A) (A) (A) (A) (A) (A) (A) (A) (A) (A) (A) (A)
                 (A) (A) (A) (A) (A) (A) (A) (A) (A) (A) (A) (A)
                 (A) (A) (A) (A)
       Virtual   (A) (A) (A) (A) (A) (A) (A) (A) (A) (A) (A) (A)
                 (A) (A) (A) (A) (A) (A) (A) (A) (A) (A) (A) (A)
                 (A) (A) (A) (A) (A) (A) (A) (A) (A) (A) (A) (A)
                 (A) (A) (A) (A) (A) (A) (A) (A) (A) (A) (A) (A)
                 (A) (A) (A) (A) (A) (A) (A) (A) (A) (A) (A) (A)
                 (A) (A) (A) (A) (A) (A) (A) (A) (A) (A) (A) (A)
                 (A) (A) (A) (A) (A) (A) (A) (A) (A) (A) (A) (A)
                 (A) (A) (A) (A) (A) (A) (A) (A) (A) (A) (A) (A)
                 (A) (A) (A) (A) (A) (A) (A) (A) (A) (A) (A) (A)
                 (A) (A) (A) (A) (A) (A) (A) (A) (A) (A) (A) (A)
                 (A) (A) (A) (A) (A) (A) (A) (A) (A) (A) (A) (A)
                 (A) (A) (A) (A) (A) (A) (A) (A) (A) (A) (A) (A)
                 (A) (A) (A) (A) (A) (A) (A) (A) (A) (A) (A) (A)
                 (A) (A) (A) (A) (A) (A) (A) (A) (A) (A) (A) (A)
                 (A) (A) (A) (A) (A) (A) (A) (A) (A) (A) (A) (A)
                 (A) (A) (A) (A) (A) (A) (A) (A) (A) (A) (A) (A)
                 (A) (A) (A) (A) (A) (A) (A) (A) (A) (A) (A) (A)
                 (A) (A) (A) (A) (A) (A) (A) (A) (A) (A) (A) (A)
                 (A) (A) (A) (A) (A) (A) (A) (A) (A) (A) (A) (A)
                 (A) (A) (A) (A) (A) (A) (A) (A) (A) (A) (A) (A)
                 (A) (A) (A) (A) (A) (A) (A) (A) (A)
 The electronic state is 1-A.
 Alpha  occ. eigenvalues -- -101.56080 -88.91273 -14.46259 -14.35769 -10.26871
 Alpha  occ. eigenvalues --  -10.26581 -10.24751 -10.24541 -10.24019 -10.23834
 Alpha  occ. eigenvalues --  -10.23556 -10.21674 -10.21648 -10.21604 -10.21228
 Alpha  occ. eigenvalues --  -10.21138 -10.20369 -10.20285 -10.20170  -9.47870
 Alpha  occ. eigenvalues --   -7.97148  -7.24230  -7.23310  -7.23249  -5.93655
 Alpha  occ. eigenvalues --   -5.93344  -5.92632  -1.04211  -0.99974  -0.91134
 Alpha  occ. eigenvalues --   -0.87177  -0.85898  -0.82609  -0.80360  -0.78091
 Alpha  occ. eigenvalues --   -0.75327  -0.74896  -0.72094  -0.68675  -0.66123
 Alpha  occ. eigenvalues --   -0.64529  -0.62203  -0.62113  -0.61363  -0.59173
 Alpha  occ. eigenvalues --   -0.57676  -0.55297  -0.53940  -0.51072  -0.50696
 Alpha  occ. eigenvalues --   -0.49576  -0.49306  -0.48154  -0.47318  -0.45552
 Alpha  occ. eigenvalues --   -0.45126  -0.43558  -0.42714  -0.42308  -0.41476
 Alpha  occ. eigenvalues --   -0.41088  -0.39913  -0.39569  -0.39110  -0.37964
 Alpha  occ. eigenvalues --   -0.37282  -0.36322  -0.36243  -0.34077  -0.32114
 Alpha  occ. eigenvalues --   -0.30330  -0.29891  -0.27051  -0.25711  -0.23538
 Alpha  occ. eigenvalues --   -0.20998
 Alpha virt. eigenvalues --   -0.03387  -0.03165  -0.01970  -0.01484   0.00484
 Alpha virt. eigenvalues --    0.03073   0.04376   0.06171   0.07941   0.08090
 Alpha virt. eigenvalues --    0.09157   0.10190   0.11040   0.11942   0.12290
 Alpha virt. eigenvalues --    0.12949   0.13147   0.13766   0.14433   0.14728
 Alpha virt. eigenvalues --    0.15970   0.16457   0.17080   0.17460   0.17678
 Alpha virt. eigenvalues --    0.18695   0.20512   0.21514   0.22709   0.22809
 Alpha virt. eigenvalues --    0.24567   0.26081   0.26350   0.27869   0.29630
 Alpha virt. eigenvalues --    0.30562   0.31142   0.31222   0.34732   0.35648
 Alpha virt. eigenvalues --    0.35929   0.37991   0.39077   0.39739   0.40821
 Alpha virt. eigenvalues --    0.42947   0.43873   0.46220   0.46641   0.47885
 Alpha virt. eigenvalues --    0.49286   0.49560   0.50937   0.51918   0.52951
 Alpha virt. eigenvalues --    0.53173   0.53415   0.54015   0.54856   0.55758
 Alpha virt. eigenvalues --    0.56621   0.57494   0.58033   0.58167   0.59085
 Alpha virt. eigenvalues --    0.59216   0.59647   0.60645   0.60940   0.61300
 Alpha virt. eigenvalues --    0.61744   0.62455   0.63636   0.64040   0.64693
 Alpha virt. eigenvalues --    0.64918   0.67958   0.68925   0.70099   0.71001
 Alpha virt. eigenvalues --    0.73324   0.74282   0.75032   0.75435   0.78066
 Alpha virt. eigenvalues --    0.79287   0.80496   0.80732   0.81654   0.81751
 Alpha virt. eigenvalues --    0.82403   0.82796   0.83367   0.83840   0.84542
 Alpha virt. eigenvalues --    0.84650   0.85085   0.85961   0.86777   0.87410
 Alpha virt. eigenvalues --    0.88363   0.88827   0.89228   0.89894   0.90088
 Alpha virt. eigenvalues --    0.90539   0.90853   0.91930   0.93508   0.93887
 Alpha virt. eigenvalues --    0.94654   0.95581   0.96509   0.97271   0.99659
 Alpha virt. eigenvalues --    1.00107   1.00733   1.01182   1.02076   1.05214
 Alpha virt. eigenvalues --    1.07403   1.08261   1.10426   1.10947   1.12047
 Alpha virt. eigenvalues --    1.13065   1.17002   1.17440   1.19839   1.20799
 Alpha virt. eigenvalues --    1.23492   1.23927   1.25338   1.29207   1.30756
 Alpha virt. eigenvalues --    1.32039   1.33947   1.35672   1.36199   1.39479
 Alpha virt. eigenvalues --    1.40049   1.41323   1.44734   1.45213   1.46483
 Alpha virt. eigenvalues --    1.47542   1.49006   1.50028   1.52256   1.54758
 Alpha virt. eigenvalues --    1.55475   1.57029   1.58247   1.59997   1.64092
 Alpha virt. eigenvalues --    1.67028   1.72642   1.74575   1.75105   1.78101
 Alpha virt. eigenvalues --    1.78965   1.79332   1.82490   1.83528   1.85140
 Alpha virt. eigenvalues --    1.87552   1.88538   1.89744   1.90356   1.92866
 Alpha virt. eigenvalues --    1.94266   1.95023   1.96511   1.97228   1.98946
 Alpha virt. eigenvalues --    1.99994   2.00937   2.03698   2.04815   2.05938
 Alpha virt. eigenvalues --    2.07331   2.07737   2.09384   2.10080   2.11568
 Alpha virt. eigenvalues --    2.14268   2.14561   2.15187   2.17759   2.19900
 Alpha virt. eigenvalues --    2.21487   2.22448   2.24588   2.26943   2.28784
 Alpha virt. eigenvalues --    2.29720   2.30390   2.31968   2.33968   2.36329
 Alpha virt. eigenvalues --    2.38872   2.41282   2.44243   2.46181   2.48184
 Alpha virt. eigenvalues --    2.50961   2.53453   2.55559   2.57311   2.58155
 Alpha virt. eigenvalues --    2.60248   2.62367   2.64106   2.64323   2.67952
 Alpha virt. eigenvalues --    2.69405   2.70773   2.72560   2.74679   2.75038
 Alpha virt. eigenvalues --    2.76974   2.81634   2.83509   2.86842   2.94811
 Alpha virt. eigenvalues --    2.97896   3.13326   3.17150   3.31043   3.37001
 Alpha virt. eigenvalues --    3.77118   3.93465   4.02782   4.07684   4.09846
 Alpha virt. eigenvalues --    4.10010   4.11244   4.15767   4.18841   4.24807
 Alpha virt. eigenvalues --    4.28358   4.32942   4.33829   4.37203   4.39310
 Alpha virt. eigenvalues --    4.41360   4.52660   4.68280   4.70423
          Condensed to atoms (all electrons):
               1          2          3          4          5          6
     1  N    6.661740   0.306800   0.303463   0.242867  -0.039339  -0.048186
     2  H    0.306800   0.268131  -0.010067  -0.019180  -0.002142  -0.003700
     3  H    0.303463  -0.010067   0.278587  -0.021546  -0.003964   0.005233
     4  C    0.242867  -0.019180  -0.021546   5.050652   0.386009   0.389944
     5  H   -0.039339  -0.002142  -0.003964   0.386009   0.503145  -0.023012
     6  H   -0.048186  -0.003700   0.005233   0.389944  -0.023012   0.521070
     7  C   -0.053754   0.004089  -0.002166   0.339910  -0.037746  -0.041014
     8  H   -0.002291  -0.000098  -0.000538  -0.040978   0.005286  -0.007400
     9  H   -0.001599  -0.000073   0.005072  -0.048792  -0.004308   0.005689
    10  C    0.002883  -0.000091  -0.000053  -0.035000  -0.002262  -0.002023
    11  H   -0.000083   0.000009   0.000003  -0.003061   0.005551  -0.000305
    12  H   -0.000031   0.000007   0.000012  -0.003015  -0.000304   0.004179
    13  N   -0.000074   0.000001   0.000000   0.004898   0.000022  -0.000002
    14  C    0.000001  -0.000000   0.000000  -0.000241   0.000009   0.000010
    15  C    0.000000  -0.000000  -0.000000  -0.000004   0.000000  -0.000005
    16  H   -0.000000   0.000000   0.000000  -0.000003  -0.000000  -0.000000
    17  C    0.000000  -0.000000  -0.000000  -0.000000  -0.000000  -0.000000
    18  Cl  -0.000000   0.000000   0.000000   0.000000   0.000000   0.000000
    19  C   -0.000000   0.000000  -0.000000   0.000000   0.000000   0.000000
    20  H   -0.000000   0.000000   0.000000   0.000000   0.000000   0.000000
    21  C   -0.000000   0.000000   0.000000   0.000002  -0.000000   0.000000
    22  H    0.000000  -0.000000  -0.000000  -0.000000  -0.000000  -0.000000
    23  C    0.000002  -0.000000   0.000000  -0.000041  -0.000002   0.000001
    24  S   -0.000022   0.000001   0.000001   0.000524  -0.000008  -0.000001
    25  C    0.000002  -0.000000  -0.000002  -0.000007  -0.000001  -0.000002
    26  C    0.000002  -0.000000  -0.000003  -0.000249   0.000022   0.000006
    27  C    0.000001  -0.000000  -0.000000  -0.000038  -0.000005  -0.000000
    28  H    0.000000  -0.000000   0.000000  -0.000009  -0.000003  -0.000000
    29  C    0.000000  -0.000000   0.000000  -0.000000  -0.000000  -0.000000
    30  H   -0.000000   0.000000  -0.000000   0.000000   0.000000  -0.000000
    31  C   -0.000000   0.000000   0.000000   0.000000   0.000000   0.000000
    32  H   -0.000000   0.000000  -0.000000   0.000000   0.000000   0.000000
    33  C   -0.000000   0.000000  -0.000000   0.000003   0.000000  -0.000000
    34  H    0.000000  -0.000000  -0.000000  -0.000000  -0.000000  -0.000000
    35  H    0.304146  -0.010165  -0.011229  -0.021739   0.004466  -0.003999
               7          8          9         10         11         12
     1  N   -0.053754  -0.002291  -0.001599   0.002883  -0.000083  -0.000031
     2  H    0.004089  -0.000098  -0.000073  -0.000091   0.000009   0.000007
     3  H   -0.002166  -0.000538   0.005072  -0.000053   0.000003   0.000012
     4  C    0.339910  -0.040978  -0.048792  -0.035000  -0.003061  -0.003015
     5  H   -0.037746   0.005286  -0.004308  -0.002262   0.005551  -0.000304
     6  H   -0.041014  -0.007400   0.005689  -0.002023  -0.000305   0.004179
     7  C    5.129521   0.376539   0.382314   0.357390  -0.057742  -0.045124
     8  H    0.376539   0.546248  -0.032426  -0.030729   0.005096  -0.004800
     9  H    0.382314  -0.032426   0.543286  -0.026604  -0.004316   0.004399
    10  C    0.357390  -0.030729  -0.026604   4.908154   0.377035   0.377282
    11  H   -0.057742   0.005096  -0.004316   0.377035   0.565285  -0.025737
    12  H   -0.045124  -0.004800   0.004399   0.377282  -0.025737   0.543754
    13  N   -0.072353  -0.002148  -0.005661   0.319568  -0.036058  -0.036004
    14  C   -0.000836   0.004513  -0.000267  -0.040658   0.003857   0.001310
    15  C   -0.000028   0.000186  -0.000012  -0.010456   0.000405   0.003542
    16  H    0.000110  -0.000003   0.000001   0.001791  -0.000301   0.000753
    17  C    0.000014  -0.000008   0.000000   0.000046  -0.000002  -0.000118
    18  Cl  -0.000000   0.000000  -0.000000  -0.000004   0.000000   0.000007
    19  C   -0.000000  -0.000005   0.000000   0.000009   0.000000  -0.000002
    20  H   -0.000000   0.000000  -0.000000   0.000000   0.000000  -0.000000
    21  C   -0.000086  -0.000014  -0.000001  -0.000188   0.000008  -0.000012
    22  H    0.000001  -0.000004   0.000000   0.000002  -0.000000   0.000000
    23  C    0.000533   0.000580   0.000130   0.005366  -0.000382  -0.000264
    24  S   -0.000115   0.000660  -0.001275  -0.000546   0.000025  -0.000027
    25  C    0.000868  -0.000276   0.001655   0.003391  -0.000592  -0.000230
    26  C   -0.000736  -0.000453   0.006566  -0.038542  -0.002790   0.004024
    27  C   -0.000331   0.000029   0.000609  -0.007909   0.003987   0.000140
    28  H    0.000271  -0.000001   0.000021   0.001398   0.001026  -0.000165
    29  C    0.000017   0.000001  -0.000050   0.000145  -0.000193   0.000000
    30  H   -0.000001  -0.000000  -0.000000  -0.000003   0.000008  -0.000000
    31  C    0.000010   0.000000  -0.000022  -0.000004   0.000011  -0.000000
    32  H    0.000000   0.000000   0.000000  -0.000000  -0.000000   0.000000
    33  C   -0.000093  -0.000003  -0.000063  -0.000139   0.000007   0.000005
    34  H   -0.000002   0.000000  -0.000000   0.000002  -0.000000  -0.000000
    35  H   -0.001687   0.005975  -0.000647  -0.000054   0.000018  -0.000001
              13         14         15         16         17         18
     1  N   -0.000074   0.000001   0.000000  -0.000000   0.000000  -0.000000
     2  H    0.000001  -0.000000  -0.000000   0.000000  -0.000000   0.000000
     3  H    0.000000   0.000000  -0.000000   0.000000  -0.000000   0.000000
     4  C    0.004898  -0.000241  -0.000004  -0.000003  -0.000000   0.000000
     5  H    0.000022   0.000009   0.000000  -0.000000  -0.000000   0.000000
     6  H   -0.000002   0.000010  -0.000005  -0.000000  -0.000000   0.000000
     7  C   -0.072353  -0.000836  -0.000028   0.000110   0.000014  -0.000000
     8  H   -0.002148   0.004513   0.000186  -0.000003  -0.000008   0.000000
     9  H   -0.005661  -0.000267  -0.000012   0.000001   0.000000  -0.000000
    10  C    0.319568  -0.040658  -0.010456   0.001791   0.000046  -0.000004
    11  H   -0.036058   0.003857   0.000405  -0.000301  -0.000002   0.000000
    12  H   -0.036004   0.001310   0.003542   0.000753  -0.000118   0.000007
    13  N    7.116109   0.296816  -0.076279  -0.005210   0.006320  -0.000180
    14  C    0.296816   4.631407   0.500379  -0.033200   0.004934   0.005095
    15  C   -0.076279   0.500379   5.092845   0.356606   0.483276  -0.073693
    16  H   -0.005210  -0.033200   0.356606   0.547796  -0.045026  -0.001035
    17  C    0.006320   0.004934   0.483276  -0.045026   5.064947   0.216411
    18  Cl  -0.000180   0.005095  -0.073693  -0.001035   0.216411  16.921735
    19  C    0.000605  -0.030023  -0.040288   0.003775   0.485173  -0.072856
    20  H    0.000003   0.000204   0.002972  -0.000091  -0.040560   0.000741
    21  C    0.007307  -0.001634  -0.045658  -0.000299  -0.016798   0.006222
    22  H   -0.000216   0.003372   0.001120   0.000015   0.005806  -0.000283
[...]
    22  H   -0.000030   0.000003   0.000001   0.000114  -0.000004   0.000025
    23  C   -0.000481  -0.000233   0.000622   0.005815  -0.002802   0.004603
    24  S   -0.000153   0.000090  -0.000145  -0.006966  -0.000609  -0.000342
    25  C   -0.000278  -0.000628  -0.002391  -0.001263   0.002864   0.002702
    26  C    0.012678   0.003337  -0.001294  -0.011972  -0.007401  -0.003250
    27  C   -0.002616  -0.002441  -0.002133  -0.101646   0.001857   0.006394
    28  H   -0.001135  -0.000204  -0.000919  -0.043440   0.005419   0.005274
    29  C    0.001669   0.000287   0.000498   0.031351  -0.002010   0.000732
    30  H   -0.000032   0.000064  -0.000208   0.004219   0.000363  -0.000226
    31  C   -0.000398  -0.000270  -0.000970   0.011377   0.001428   0.000142
    32  H    0.000000  -0.000006  -0.000004   0.000316  -0.000011   0.000034
    33  C    0.001558   0.000221   0.000513  -0.006288  -0.000526   0.000785
    34  H    0.000031   0.000008   0.000053  -0.000234  -0.000011   0.000001
    35  H    0.398783  -0.067772  -0.059524  -0.018878   0.029752  -0.035821
               7          8          9         10         11         12
     1  N    0.016873  -0.017428   0.001505   0.103380   0.004087  -0.004921
     2  H    0.035324   0.001094  -0.002340   0.001027   0.001524   0.000642
     3  H   -0.028144  -0.007343   0.009784   0.022366   0.002588  -0.000265
     4  C   -0.178266  -0.230640  -0.106593  -0.013547  -0.007160  -0.004809
     5  H    0.124644   0.072314  -0.113165  -0.085439  -0.010005   0.000198
     6  H   -0.050590  -0.105509   0.110545  -0.020008  -0.026863  -0.007157
     7  C    7.238197  -0.186749  -0.149634  -1.029609  -0.494699  -0.169591
     8  H   -0.186749   1.614607  -0.196890   0.239695   0.151770  -0.101663
     9  H   -0.149634  -0.196890   1.726626   0.066534  -0.043734   0.065237
    10  C   -1.029609   0.239695   0.066534   7.194312   0.266832   0.036024
    11  H   -0.494699   0.151770  -0.043734   0.266832   1.953970  -0.406836
    12  H   -0.169591  -0.101663   0.065237   0.036024  -0.406836   2.286300
    13  N    0.675812  -0.217880  -0.140338  -0.645551  -0.082992  -0.374827
    14  C    0.138115  -0.045457  -0.333138  -0.379030  -0.682614   0.664672
    15  C   -0.000995  -0.029410   0.064374  -0.050235   0.180033  -0.068763
    16  H    0.058190  -0.005622   0.002727  -0.012186  -0.088946  -0.016280
    17  C   -0.008287   0.004269  -0.009393  -0.126100  -0.023181   0.045220
    18  Cl   0.001548  -0.000330   0.000236   0.006643  -0.001251  -0.001679
    19  C    0.029212  -0.006845   0.006921  -0.046395  -0.015224  -0.013494
    20  H   -0.000423  -0.000053   0.000084  -0.001139  -0.000184   0.001924
    21  C   -0.072124   0.007255  -0.004101   0.250238   0.027087  -0.021294
    22  H   -0.002546   0.000395  -0.000151   0.008966   0.000352  -0.002287
    23  C    0.004367  -0.009633   0.037697   0.085124  -0.022113   0.099642
    24  S   -0.068257   0.011161   0.000764   0.010670  -0.000137   0.011844
    25  C    0.203821  -0.060764   0.122786  -0.075397  -0.038888   0.008860
    26  C   -0.955085   0.313896  -0.053490   0.136651   0.698717  -0.601169
    27  C    0.365943  -0.053512   0.222130  -0.297458  -0.064051   0.091539
    28  H    0.111129   0.001578  -0.018562  -0.141860  -0.114951   0.038192
    29  C    0.100973   0.012561  -0.062508  -0.357970   0.072441  -0.053081
    30  H    0.001186  -0.000543   0.001219   0.011319   0.001478  -0.000017
    31  C    0.076270  -0.009124   0.064965   0.006097  -0.017686   0.009738
    32  H   -0.001886  -0.000327  -0.001766   0.005766   0.000853   0.000138
    33  C   -0.114625  -0.006312  -0.040210   0.151813  -0.012720   0.005769
    34  H   -0.003832   0.000468  -0.001080  -0.000477  -0.001925   0.000666
    35  H    0.015959   0.006617  -0.010536  -0.018635  -0.003452  -0.000477
              13         14         15         16         17         18
     1  N   -0.022262  -0.023712   0.009276   0.000335   0.000810   0.000003
     2  H   -0.000383   0.000128  -0.000570  -0.000247   0.000151  -0.000006
     3  H    0.002740   0.004148  -0.001193  -0.000201  -0.000178   0.000001
     4  C    0.005701  -0.009839  -0.059716  -0.000584   0.002858   0.000128
     5  H   -0.003335   0.030758  -0.005377   0.002559   0.001428   0.000036
     6  H    0.033886  -0.006355   0.002571   0.001376  -0.002514   0.000188
     7  C    0.675812   0.138115  -0.000995   0.058190  -0.008287   0.001548
     8  H   -0.217880  -0.045457  -0.029410  -0.005622   0.004269  -0.000330
     9  H   -0.140338  -0.333138   0.064374   0.002727  -0.009393   0.000236
    10  C   -0.645551  -0.379030  -0.050235  -0.012186  -0.126100   0.006643
    11  H   -0.082992  -0.682614   0.180033  -0.088946  -0.023181  -0.001251
    12  H   -0.374827   0.664672  -0.068763  -0.016280   0.045220  -0.001679
    13  N   12.178799  -3.579519   1.283675  -0.342988  -0.501444   0.011073
    14  C   -3.579519  33.966091  -8.390727   1.001113   0.574176  -0.037692
    15  C    1.283675  -8.390727  17.586205  -1.776410  -1.553695  -0.015532
    16  H   -0.342988   1.001113  -1.776410   2.524089   0.458839  -0.088953
    17  C   -0.501444   0.574176  -1.553695   0.458839  12.461803  -0.098352
    18  Cl   0.011073  -0.037692  -0.015532  -0.088953  -0.098352  17.593671
    19  C    0.319277  -3.414139   0.214953   0.201264  -3.264474   0.128040
    20  H    0.006799  -0.053794   0.225674  -0.015909   1.120997  -0.088603
    21  C    0.563190  -2.611172  -3.394745  -0.003254   0.892575  -0.119685
    22  H   -0.026780   0.323127   0.126764   0.007126  -0.635429   0.007176
    23  C   -0.265530  -2.632005  -0.774971  -0.069141  -2.980220   0.056168
    24  S   -0.596061   0.083442  -0.481749   0.014649   0.290586  -0.009033
    25  C   -0.421277  -1.959997   0.917568  -0.011043  -0.008365   0.000403
    26  C   -0.699472  -6.903286   0.596185  -0.219364   0.118761   0.002535
    27  C    0.930681  -0.487830   0.186713   0.025902  -0.182862   0.001213
    28  H   -0.077701  -0.005694   0.037265  -0.010867   0.002463   0.000675
    29  C   -0.418420   0.401609  -0.223374   0.006433   0.071378  -0.001150
    30  H   -0.002441   0.025263  -0.009987   0.000264   0.002289  -0.000067
    31  C    0.401040  -0.346357   0.168012   0.005879  -0.058231   0.000672
    32  H    0.000027  -0.024160   0.005169  -0.000022  -0.001332   0.000022
    33  C   -0.245566   1.787136  -0.300744  -0.005606   0.097239  -0.001249
    34  H   -0.000447   0.014137  -0.023397   0.001038   0.006265  -0.000185
    35  H   -0.002285  -0.004163   0.002493   0.000561  -0.000143   0.000010
              19         20         21         22         23         24
     1  N    0.000139   0.000014  -0.000718  -0.000030  -0.000481  -0.000153
     2  H   -0.000058  -0.000001   0.000015   0.000003  -0.000233   0.000090
     3  H   -0.000077  -0.000000   0.000196   0.000001   0.000622  -0.000145
     4  C   -0.008882  -0.000161   0.007583   0.000114   0.005815  -0.006966
     5  H   -0.000342  -0.000005   0.000780  -0.000004  -0.002802  -0.000609
     6  H    0.001365   0.000001  -0.000830   0.000025   0.004603  -0.000342
     7  C    0.029212  -0.000423  -0.072124  -0.002546   0.004367  -0.068257
     8  H   -0.006845  -0.000053   0.007255   0.000395  -0.009633   0.011161
     9  H    0.006921   0.000084  -0.004101  -0.000151   0.037697   0.000764
    10  C   -0.046395  -0.001139   0.250238   0.008966   0.085124   0.010670
    11  H   -0.015224  -0.000184   0.027087   0.000352  -0.022113  -0.000137
    12  H   -0.013494   0.001924  -0.021294  -0.002287   0.099642   0.011844
    13  N    0.319277   0.006799   0.563190  -0.026780  -0.265530  -0.596061
    14  C   -3.414139  -0.053794  -2.611172   0.323127  -2.632005   0.083442
    15  C    0.214953   0.225674  -3.394745   0.126764  -0.774971  -0.481749
    16  H    0.201264  -0.015909  -0.003254   0.007126  -0.069141   0.014649
    17  C   -3.264474   1.120997   0.892575  -0.635429  -2.980220   0.290586
    18  Cl   0.128040  -0.088603  -0.119685   0.007176   0.056168  -0.009033
    19  C   15.148297  -1.269502  -3.012672   0.254119   0.049668  -0.253550
    20  H   -1.269502   1.784461   0.176704  -0.120966  -0.360162   0.020758
    21  C   -3.012672   0.176704  19.398322  -1.611626  -5.548790   0.129840
    22  H    0.254119  -0.120966  -1.611626   1.842124   1.436647  -0.086789
    23  C    0.049668  -0.360162  -5.548790   1.436647  16.975403   0.241226
    24  S   -0.253550   0.020758   0.129840  -0.086789   0.241226  16.676379
    25  C    0.229358   0.008240  -0.833632   0.026967  -0.111239   0.202482
    26  C   -0.062549  -0.003839   1.536201  -0.028260  -0.946184  -0.175638
    27  C    0.081127   0.004371  -0.100471  -0.023281   0.737071  -0.476973
    28  H    0.009095   0.000219  -0.019482   0.000536  -0.042838   0.014168
    29  C   -0.073017  -0.001444   0.080753   0.009716  -0.132596   0.442092
    30  H   -0.001682  -0.000037   0.002952   0.000107  -0.005187  -0.003590
    31  C    0.065863   0.001430  -0.108485  -0.006193   0.153373  -0.382316
    32  H    0.001733   0.000027  -0.002570   0.000187   0.015935   0.022532
    33  C   -0.085738  -0.002859  -0.440243   0.034230  -0.499522   0.090279
    34  H   -0.003022   0.000273   0.037448  -0.001401  -0.001540  -0.063391
    35  H    0.000166   0.000006  -0.000126  -0.000022   0.000365  -0.000486
              25         26         27         28         29         30
     1  N   -0.000278   0.012678  -0.002616  -0.001135   0.001669  -0.000032
     2  H   -0.000628   0.003337  -0.002441  -0.000204   0.000287   0.000064
     3  H   -0.002391  -0.001294  -0.002133  -0.000919   0.000498  -0.000208
     4  C   -0.001263  -0.011972  -0.101646  -0.043440   0.031351   0.004219
     5  H    0.002864  -0.007401   0.001857   0.005419  -0.002010   0.000363
     6  H    0.002702  -0.003250   0.006394   0.005274   0.000732  -0.000226
     7  C    0.203821  -0.955085   0.365943   0.111129   0.100973   0.001186
     8  H   -0.060764   0.313896  -0.053512   0.001578   0.012561  -0.000543
     9  H    0.122786  -0.053490   0.222130  -0.018562  -0.062508   0.001219
    10  C   -0.075397   0.136651  -0.297458  -0.141860  -0.357970   0.011319
    11  H   -0.038888   0.698717  -0.064051  -0.114951   0.072441   0.001478
    12  H    0.008860  -0.601169   0.091539   0.038192  -0.053081  -0.000017
    13  N   -0.421277  -0.699472   0.930681  -0.077701  -0.418420  -0.002441
    14  C   -1.959997  -6.903286  -0.487830  -0.005694   0.401609   0.025263
    15  C    0.917568   0.596185   0.186713   0.037265  -0.223374  -0.009987
    16  H   -0.011043  -0.219364   0.025902  -0.010867   0.006433   0.000264
    17  C   -0.008365   0.118761  -0.182862   0.002463   0.071378   0.002289
    18  Cl   0.000403   0.002535   0.001213   0.000675  -0.001150  -0.000067
    19  C    0.229358  -0.062549   0.081127   0.009095  -0.073017  -0.001682
    20  H    0.008240  -0.003839   0.004371   0.000219  -0.001444  -0.000037
    21  C   -0.833632   1.536201  -0.100471  -0.019482   0.080753   0.002952
    22  H    0.026967  -0.028260  -0.023281   0.000536   0.009716   0.000107
    23  C   -0.111239  -0.946184   0.737071  -0.042838  -0.132596  -0.005187
    24  S    0.202482  -0.175638  -0.476973   0.014168   0.442092  -0.003590
    25  C   14.477234  -2.196413  -0.407891   0.097039  -1.104676  -0.130671
    26  C   -2.196413  22.934935  -6.167487   0.691628   0.607250   0.248871
    27  C   -0.407891  -6.167487  16.203393  -1.535602  -4.256520   0.467219
    28  H    0.097039   0.691628  -1.535602   2.638545   0.378014  -0.115500
    29  C   -1.104676   0.607250  -4.256520   0.378014  12.482881  -0.931882
    30  H   -0.130671   0.248871   0.467219  -0.115500  -0.931882   1.777172
    31  C   -0.161776  -1.943099   2.855869  -0.229498  -3.465216   0.360790
    32  H    0.026649  -0.131850  -0.001902  -0.014804   0.527672  -0.055556
    33  C   -3.972679  -0.594518  -3.386066   0.090525   1.888619  -0.121895
    34  H    0.683435   0.248891   0.093401   0.006597  -0.251829  -0.010115
    35  H    0.002350  -0.006584   0.004865   0.000232  -0.000849  -0.000080
              31         32         33         34         35
     1  N   -0.000398   0.000000   0.001558   0.000031   0.398783
     2  H   -0.000270  -0.000006   0.000221   0.000008  -0.067772
     3  H   -0.000970  -0.000004   0.000513   0.000053  -0.059524
     4  C    0.011377   0.000316  -0.006288  -0.000234  -0.018878
     5  H    0.001428  -0.000011  -0.000526  -0.000011   0.029752
     6  H    0.000142   0.000034   0.000785   0.000001  -0.035821
     7  C    0.076270  -0.001886  -0.114625  -0.003832   0.015959
     8  H   -0.009124  -0.000327  -0.006312   0.000468   0.006617
     9  H    0.064965  -0.001766  -0.040210  -0.001080  -0.010536
    10  C    0.006097   0.005766   0.151813  -0.000477  -0.018635
    11  H   -0.017686   0.000853  -0.012720  -0.001925  -0.003452
    12  H    0.009738   0.000138   0.005769   0.000666  -0.000477
    13  N    0.401040   0.000027  -0.245566  -0.000447  -0.002285
    14  C   -0.346357  -0.024160   1.787136   0.014137  -0.004163
    15  C    0.168012   0.005169  -0.300744  -0.023397   0.002493
    16  H    0.005879  -0.000022  -0.005606   0.001038   0.000561
    17  C   -0.058231  -0.001332   0.097239   0.006265  -0.000143
    18  Cl   0.000672   0.000022  -0.001249  -0.000185   0.000010
    19  C    0.065863   0.001733  -0.085738  -0.003022   0.000166
    20  H    0.001430   0.000027  -0.002859   0.000273   0.000006
    21  C   -0.108485  -0.002570  -0.440243   0.037448  -0.000126
    22  H   -0.006193   0.000187   0.034230  -0.001401  -0.000022
    23  C    0.153373   0.015935  -0.499522  -0.001540   0.000365
    24  S   -0.382316   0.022532   0.090279  -0.063391  -0.000486
    25  C   -0.161776   0.026649  -3.972679   0.683435   0.002350
    26  C   -1.943099  -0.131850  -0.594518   0.248891  -0.006584
    27  C    2.855869  -0.001902  -3.386066   0.093401   0.004865
    28  H   -0.229498  -0.014804   0.090525   0.006597   0.000232
    29  C   -3.465216   0.527672   1.888619  -0.251829  -0.000849
    30  H    0.360790  -0.055556  -0.121895  -0.010115  -0.000080
    31  C   10.290326  -0.697892  -1.871358   0.079841   0.000921
    32  H   -0.697892   1.657175   0.179671  -0.075416   0.000030
    33  C   -1.871358   0.179671  13.993336  -0.918114  -0.000715
    34  H    0.079841  -0.075416  -0.918114   1.677724  -0.000050
    35  H    0.000921   0.000030  -0.000715  -0.000050   0.540273
 Mulliken charges:
               1
     1  N   -0.523024
     2  H    0.168097
     3  H    0.241960
     4  C    1.300945
     5  H   -0.120901
     6  H   -0.119815
     7  C    0.317780
     8  H   -0.145646
     9  H   -0.216504
    10  C    0.697578
    11  H   -0.202120
    12  H   -0.517994
    13  N   -0.745203
    14  C   -1.083234
    15  C    1.554657
    16  H   -0.644723
    17  C   -0.697908
    18  Cl  -0.346676
    19  C    0.791064
    20  H   -0.432898
    21  C    0.794883
    22  H   -0.532918
    23  C    0.501460
    24  S    0.343222
    25  C    0.486509
    26  C   -0.438333
    27  C    1.271054
    28  H   -0.755538
    29  C    0.219613
    30  H   -0.515057
    31  C    0.744838
    32  H   -0.434431
    33  C    0.305859
    34  H   -0.493809
    35  H    0.227216
 Sum of Mulliken charges =   1.00000
 Mulliken charges with hydrogens summed into heavy atoms:
               1
     1  N    0.114250
     4  C    1.060229
     7  C   -0.044370
    10  C   -0.022536
    13  N   -0.745203
    14  C   -1.083234
    15  C    0.909934
    17  C   -0.697908
    18  Cl  -0.346676
    19  C    0.358166
    21  C    0.261964
    23  C    0.501460
    24  S    0.343222
    25  C    0.486509
    26  C   -0.438333
    27  C    0.515515
    29  C   -0.295444
    31  C    0.310406
    33  C   -0.187950
 Electronic spatial extent (au):  <R**2>=           6827.5300
 Charge=              1.0000 electrons
 Dipole moment (field-independent basis, Debye):
    X=             16.4625    Y=             15.4678    Z=              3.3534  Tot=             22.8366
 Quadrupole moment (field-independent basis, Debye-Ang):
   XX=            -59.6355   YY=            -49.3600   ZZ=           -120.7139
   XY=             61.7358   XZ=              7.5861   YZ=             15.1781
 Traceless Quadrupole moment (field-independent basis, Debye-Ang):
   XX=             16.9343   YY=             27.2098   ZZ=            -44.1441
   XY=             61.7358   XZ=              7.5861   YZ=             15.1781
 Octapole moment (field-independent basis, Debye-Ang**2):
  XXX=            245.4118  YYY=            284.7120  ZZZ=             14.4185  XYY=            267.8218
  XXY=            195.7356  XXZ=             59.7808  XZZ=             41.3474  YZZ=             47.3746
  YYZ=             69.5847  XYZ=             78.1506
 Hexadecapole moment (field-independent basis, Debye-Ang**3):
 XXXX=          -4085.1156 YYYY=          -1858.1006 ZZZZ=           -741.4453 XXXY=           1034.3805
 XXXZ=            151.7867 YYYX=            979.1821 YYYZ=            285.8236 ZZZX=             73.5279
 ZZZY=             66.1024 XXYY=           -384.1939 XXZZ=           -864.9535 YYZZ=           -547.5983
 XXYZ=            250.6143 YYXZ=            234.7647 ZZXY=            131.7598
 N-N= 1.631777671310D+03 E-N=-6.885249186820D+03  KE= 1.542422853350D+03
 Leave Link  601 at Sun Jul 18 19:45:34 2021, MaxMem=   262144000 cpu:               0.5 elap:               0.4
 (Enter /dades/curu/g16A03_MST/g16/l9999.exe)
 1\1\GINC-PIRINEUS28\SP\RMP2-FC\Aug-CC-pVDZ\C15H16Cl1N2S1(1+)\UBATOR02\
 18-Jul-2021\0\\#p mp2/aug-cc-pVDZ scf=tight maxdisk=180GB geom=allchec
 k\\SET_328_BBB29_conf1.geo_120_180_180 geometry\\1,1\N,0,0.6945318991,
 -4.1221200912,-2.2273249905\H,0,1.3793508238,-4.8011302645,-2.58553956
 11\H,0,0.1488497985,-3.7940901912,-3.0348639267\C,0,1.3589383768,-2.98
 85340588,-1.4993934459\H,0,2.0565227921,-2.5335303454,-2.2019176365\H,
 0,1.9311655398,-3.4354339611,-0.6853403713\C,0,0.332269062,-1.98890485
 98,-0.9875148453\H,0,-0.4008753558,-2.4920127934,-0.3493533726\H,0,-0.
 211360652,-1.5448607024,-1.8263750714\C,0,1.0091923482,-0.8866782618,-
 0.1651876565\H,0,1.7955488522,-0.3905457356,-0.7504069272\H,0,1.495594
 5665,-1.3478540392,0.6936669368\N,0,0.0295229432,0.0643602098,0.349979
 2575\C,0,0.1808578659,0.5705257647,1.6606369197\C,0,1.4097988286,0.541
 6751958,2.3355271575\H,0,2.302901568,0.1662863475,1.8529933292\C,0,1.4
 877505153,1.0112007622,3.6451664699\Cl,0,3.0333417116,0.9323289885,4.4
 780877775\C,0,0.390014391,1.5559485379,4.3003741917\H,0,0.4769170001,1
 .9199830157,5.3158050139\C,0,-0.8194412536,1.6301496043,3.609773945\H,
 0,-1.6888447505,2.0654290663,4.0899736613\C,0,-0.9342501146,1.13052747
 08,2.3143476867\S,0,-2.5108304297,1.1196505054,1.4897118749\C,0,-1.930
 1017861,1.4205950583,-0.1651959356\C,0,-0.7238908116,0.829228795,-0.57
 67221874\C,0,-0.3024042486,1.0200449705,-1.8981479802\H,0,0.6367020186
 ,0.5959703538,-2.2314515512\C,0,-1.07810996,1.759128307,-2.7910859973\
 H,0,-0.7353421211,1.8843658827,-3.8118707786\C,0,-2.2713324564,2.34548
 11204,-2.3734817956\H,0,-2.8715465563,2.9259374737,-3.063816878\C,0,-2
 .6861687915,2.1876021671,-1.050013893\H,0,-3.6040280221,2.6476129844,-
 0.7003223804\H,0,0.0507564085,-4.6443372774,-1.6207170394\\Version=ES6
 4L-G16RevA.03\State=1-A\HF=-1543.1207575\MP2=-1545.8227588\RMSD=6.792e
 -09\PG=C01 [X(C15H16Cl1N2S1)]\\@


 EVERYBODY NEEDS BEAUTY AS WELL AS BREAD, PLACES TO PLAY IN AND PRAY IN,
 WHERE NATURE MAY HEAL AND CHEER AND GIVE STRENGTH TO BODY AND SOUL ALIKE.

                                    -- JOHN MUIR
 Job cpu time:       0 days  4 hours 24 minutes  7.6 seconds.
 Elapsed time:       0 days  1 hours 17 minutes 57.6 seconds.
 File lengths (MBytes):  RWF= 104347 Int=      0 D2E=      0 Chk=     29 Scr=      1
 Normal termination of Gaussian 16 at Sun Jul 18 19:45:36 2021.
