 Entering Gaussian System, Link 0=g16
 Input=SET_328_BBB20_conf1.geo_060_180_180_OCTANOL.dat
 Output=SET_328_BBB20_conf1.geo_060_180_180_OCTANOL.log
 Initial command:
 /dades/curu/g16A03_MST/g16/l1.exe "/tmp/ubator02/1839500/Gau-211868.inp" -scrdir="/tmp/ubator02/1839500/"
 Entering Link 1 = /dades/curu/g16A03_MST/g16/l1.exe PID=    211876.
  
 Copyright (c) 1988,1990,1992,1993,1995,1998,2003,2009,2016,
            Gaussian, Inc.  All Rights Reserved.
  
 This is part of the Gaussian(R) 16 program.  It is based on
 the Gaussian(R) 09 system (copyright 2009, Gaussian, Inc.),
 the Gaussian(R) 03 system (copyright 2003, Gaussian, Inc.),
 the Gaussian(R) 98 system (copyright 1998, Gaussian, Inc.),
 the Gaussian(R) 94 system (copyright 1995, Gaussian, Inc.),
 the Gaussian 92(TM) system (copyright 1992, Gaussian, Inc.),
 the Gaussian 90(TM) system (copyright 1990, Gaussian, Inc.),
 the Gaussian 88(TM) system (copyright 1988, Gaussian, Inc.),
 the Gaussian 86(TM) system (copyright 1986, Carnegie Mellon
 University), and the Gaussian 82(TM) system (copyright 1983,
 Carnegie Mellon University). Gaussian is a federally registered
 trademark of Gaussian, Inc.
  
 This software contains proprietary and confidential information,
 including trade secrets, belonging to Gaussian, Inc.
  
 This software is provided under written license and may be
 used, copied, transmitted, or stored only in accord with that
 written license.
  
 The following legend is applicable only to US Government
 contracts under FAR:
  
                    RESTRICTED RIGHTS LEGEND
  
 Use, reproduction and disclosure by the US Government is
 subject to restrictions as set forth in subparagraphs (a)
 and (c) of the Commercial Computer Software - Restricted
 Rights clause in FAR 52.227-19.
  
 Gaussian, Inc.
 340 Quinnipiac St., Bldg. 40, Wallingford CT 06492
  
  
 ---------------------------------------------------------------
 Warning -- This program may not be used in any manner that
 competes with the business of Gaussian, Inc. or will provide
 assistance to any competitor of Gaussian, Inc.  The licensee
 of this program is prohibited from giving any competitor of
 Gaussian, Inc. access to this program.  By using this program,
 the user acknowledges that Gaussian, Inc. is engaged in the
 business of creating and licensing software in the field of
 computational chemistry and represents and warrants to the
 licensee that it is not a competitor of Gaussian, Inc. and that
 it will not use this program in any manner prohibited above.
 ---------------------------------------------------------------
  

 Cite this work as:
 Gaussian 16, Revision A.03,
 M. J. Frisch, G. W. Trucks, H. B. Schlegel, G. E. Scuseria, 
 M. A. Robb, J. R. Cheeseman, G. Scalmani, V. Barone, 
 G. A. Petersson, H. Nakatsuji, X. Li, M. Caricato, A. V. Marenich, 
 J. Bloino, B. G. Janesko, R. Gomperts, B. Mennucci, H. P. Hratchian, 
 J. V. Ortiz, A. F. Izmaylov, J. L. Sonnenberg, D. Williams-Young, 
 F. Ding, F. Lipparini, F. Egidi, J. Goings, B. Peng, A. Petrone, 
 T. Henderson, D. Ranasinghe, V. G. Zakrzewski, J. Gao, N. Rega, 
 G. Zheng, W. Liang, M. Hada, M. Ehara, K. Toyota, R. Fukuda, 
 J. Hasegawa, M. Ishida, T. Nakajima, Y. Honda, O. Kitao, H. Nakai, 
 T. Vreven, K. Throssell, J. A. Montgomery, Jr., J. E. Peralta, 
 F. Ogliaro, M. J. Bearpark, J. J. Heyd, E. N. Brothers, K. N. Kudin, 
 V. N. Staroverov, T. A. Keith, R. Kobayashi, J. Normand, 
 K. Raghavachari, A. P. Rendell, J. C. Burant, S. S. Iyengar, 
 J. Tomasi, M. Cossi, J. M. Millam, M. Klene, C. Adamo, R. Cammi, 
 J. W. Ochterski, R. L. Martin, K. Morokuma, O. Farkas, 
 J. B. Foresman, and D. J. Fox, Gaussian, Inc., Wallingford CT, 2016.
 
 ******************************************
 Gaussian 16:  ES64L-G16RevA.03 25-Dec-2016
                18-Jul-2021 
 ******************************************
 %mem=800MB
 %nproc=4
 Will use up to    4 processors via shared memory.
 %chk=SET_328_BBB20_conf1.geo_060_180_180.chk
 ---------------------------------------------------------------
 #p b3lyp/6-31G(d) opt freq scrf=(iefpcm,read,solvent=n-octanol)
 ---------------------------------------------------------------
 1/18=20,19=15,26=3,38=1,40=2/1,3;
 2/9=110,12=2,17=6,18=5,40=1/2;
 3/5=1,6=6,7=1,11=2,25=1,30=1,70=2203,71=1,72=25,74=-5/1,2,3;
 4//1;
 5/5=2,38=5,53=25/2;
 6/7=2,8=2,9=2,10=2,28=1/1;
 7//1,2,3,16;
 1/18=20,19=15,26=3/3(2);
 2/9=110/2;
 99//99;
 2/9=110/2;
 3/5=1,6=6,7=1,11=2,25=1,30=1,70=2205,71=1,72=25,74=-5/1,2,3;
 4/5=5,16=3,69=1/1;
 5/5=2,38=5,53=25/2;
 7//1,2,3,16;
 1/18=20,19=15,26=3/3(-5);
 2/9=110/2;
 6/7=2,8=2,9=2,10=2,19=2,28=1/1;
 99/9=1/99;
 Leave Link    1 at Sun Jul 18 13:31:18 2021, MaxMem=   104857600 cpu:               0.0 elap:               0.0
 (Enter /dades/curu/g16A03_MST/g16/l101.exe)
 --------------------------------------------
 SET_328_BBB20_conf1.geo_060_180_180 geometry
 --------------------------------------------
 Symbolic Z-matrix:
 Charge =  1 Multiplicity = 1
 N                    -2.493     1.179     3.995 
 H                    -2.883     1.991     3.561 
 H                    -2.51      1.291     4.989 
 C                    -1.088     1.001     3.54 
 H                    -0.635     0.21      4.144 
 H                    -0.479     1.902     3.649 
 C                    -1.018     0.652     2.024 
 H                    -1.41      1.509     1.473 
 H                    -1.617    -0.232     1.794 
 C                     0.447     0.423     1.536 
 H                     0.961    -0.297     2.178 
 H                     1.001     1.328     1.796 
 N                     0.56      0.058     0.093 
 C                     0.065     1.01     -0.856 
 C                     0.626     2.268    -0.835 
 H                     1.462     2.493    -0.178 
 C                     0.173     3.203    -1.759 
 H                     0.632     4.188    -1.796 
 C                    -0.822     2.904    -2.711 
 H                    -1.089     3.644    -3.46 
 C                    -1.364     1.571    -2.676 
 H                    -2.289     1.331    -3.195 
 C                    -0.951     0.601    -1.76 
 C                    -1.672    -0.679    -1.582 
 H                    -2.501    -0.862    -2.27 
 H                    -2.032    -0.664    -0.551 
 C                    -0.7      -1.918    -1.881 
 H                    -0.318    -1.717    -2.884 
 H                    -1.285    -2.837    -1.961 
 C                     0.616    -2.112    -1.042 
 C                     1.413    -3.276    -1.25 
 H                     1.041    -3.978    -1.991 
 C                     2.601    -3.594    -0.625 
 H                     3.134    -4.523    -0.809 
 C                     3.151    -2.574     0.094 
 H                     4.172    -2.72      0.438 
 C                     2.512    -1.345     0.263 
 H                     3.048    -0.515     0.717 
 C                     1.197    -1.135    -0.23 
 H                    -3.03      0.375     3.741 
 
 ITRead=  0  0  0  0  0  0  0  0  0  0  0  0  0  0  0  0  0  0  0  0
 ITRead=  0  0  0  0  0  0  0  0  0  0  0  0  0  0  0  0  0  0  0  0
 MicOpt= -1 -1 -1 -1 -1 -1 -1 -1 -1 -1 -1 -1 -1 -1 -1 -1 -1 -1 -1 -1
 MicOpt= -1 -1 -1 -1 -1 -1 -1 -1 -1 -1 -1 -1 -1 -1 -1 -1 -1 -1 -1 -1
 NAtoms=     40 NQM=       40 NQMF=       0 NMMI=      0 NMMIF=      0
                NMic=       0 NMicF=      0.
                    Isotopes and Nuclear Properties:
 (Nuclear quadrupole moments (NQMom) in fm**2, nuclear magnetic moments (NMagM)
  in nuclear magnetons)

  Atom         1           2           3           4           5           6           7           8           9          10
 IAtWgt=          14           1           1          12           1           1          12           1           1          12
 AtmWgt=  14.0030740   1.0078250   1.0078250  12.0000000   1.0078250   1.0078250  12.0000000   1.0078250   1.0078250  12.0000000
 NucSpn=           2           1           1           0           1           1           0           1           1           0
 AtZEff=  -0.0000000  -0.0000000  -0.0000000  -0.0000000  -0.0000000  -0.0000000  -0.0000000  -0.0000000  -0.0000000  -0.0000000
 NQMom=    2.0440000   0.0000000   0.0000000   0.0000000   0.0000000   0.0000000   0.0000000   0.0000000   0.0000000   0.0000000
 NMagM=    0.4037610   2.7928460   2.7928460   0.0000000   2.7928460   2.7928460   0.0000000   2.7928460   2.7928460   0.0000000
 AtZNuc=   7.0000000   1.0000000   1.0000000   6.0000000   1.0000000   1.0000000   6.0000000   1.0000000   1.0000000   6.0000000

  Atom        11          12          13          14          15          16          17          18          19          20
 IAtWgt=           1           1          14          12          12           1          12           1          12           1
 AtmWgt=   1.0078250   1.0078250  14.0030740  12.0000000  12.0000000   1.0078250  12.0000000   1.0078250  12.0000000   1.0078250
 NucSpn=           1           1           2           0           0           1           0           1           0           1
 AtZEff=  -0.0000000  -0.0000000  -0.0000000  -0.0000000  -0.0000000  -0.0000000  -0.0000000  -0.0000000  -0.0000000  -0.0000000
 NQMom=    0.0000000   0.0000000   2.0440000   0.0000000   0.0000000   0.0000000   0.0000000   0.0000000   0.0000000   0.0000000
 NMagM=    2.7928460   2.7928460   0.4037610   0.0000000   0.0000000   2.7928460   0.0000000   2.7928460   0.0000000   2.7928460
 AtZNuc=   1.0000000   1.0000000   7.0000000   6.0000000   6.0000000   1.0000000   6.0000000   1.0000000   6.0000000   1.0000000

  Atom        21          22          23          24          25          26          27          28          29          30
 IAtWgt=          12           1          12          12           1           1          12           1           1          12
 AtmWgt=  12.0000000   1.0078250  12.0000000  12.0000000   1.0078250   1.0078250  12.0000000   1.0078250   1.0078250  12.0000000
 NucSpn=           0           1           0           0           1           1           0           1           1           0
 AtZEff=  -0.0000000  -0.0000000  -0.0000000  -0.0000000  -0.0000000  -0.0000000  -0.0000000  -0.0000000  -0.0000000  -0.0000000
 NQMom=    0.0000000   0.0000000   0.0000000   0.0000000   0.0000000   0.0000000   0.0000000   0.0000000   0.0000000   0.0000000
 NMagM=    0.0000000   2.7928460   0.0000000   0.0000000   2.7928460   2.7928460   0.0000000   2.7928460   2.7928460   0.0000000
 AtZNuc=   6.0000000   1.0000000   6.0000000   6.0000000   1.0000000   1.0000000   6.0000000   1.0000000   1.0000000   6.0000000

  Atom        31          32          33          34          35          36          37          38          39          40
 IAtWgt=          12           1          12           1          12           1          12           1          12           1
 AtmWgt=  12.0000000   1.0078250  12.0000000   1.0078250  12.0000000   1.0078250  12.0000000   1.0078250  12.0000000   1.0078250
 NucSpn=           0           1           0           1           0           1           0           1           0           1
 AtZEff=  -0.0000000  -0.0000000  -0.0000000  -0.0000000  -0.0000000  -0.0000000  -0.0000000  -0.0000000  -0.0000000  -0.0000000
 NQMom=    0.0000000   0.0000000   0.0000000   0.0000000   0.0000000   0.0000000   0.0000000   0.0000000   0.0000000   0.0000000
 NMagM=    0.0000000   2.7928460   0.0000000   2.7928460   0.0000000   2.7928460   0.0000000   2.7928460   0.0000000   2.7928460
 AtZNuc=   6.0000000   1.0000000   6.0000000   1.0000000   6.0000000   1.0000000   6.0000000   1.0000000   6.0000000   1.0000000
 Leave Link  101 at Sun Jul 18 13:31:18 2021, MaxMem=   104857600 cpu:               0.1 elap:               0.1
 (Enter /dades/curu/g16A03_MST/g16/l103.exe)

 GradGradGradGradGradGradGradGradGradGradGradGradGradGradGradGradGradGrad
 Berny optimization.
 Initialization pass.
                           ----------------------------
                           !    Initial Parameters    !
                           ! (Angstroms and Degrees)  !
 --------------------------                            --------------------------
 ! Name  Definition              Value          Derivative Info.                !
 --------------------------------------------------------------------------------
 ! R1    R(1,2)                  0.9999         estimate D2E/DX2                !
 ! R2    R(1,3)                  1.0004         estimate D2E/DX2                !
 ! R3    R(1,4)                  1.4875         estimate D2E/DX2                !
 ! R4    R(1,40)                 0.9997         estimate D2E/DX2                !
 ! R5    R(4,5)                  1.0935         estimate D2E/DX2                !
 ! R6    R(4,6)                  1.093          estimate D2E/DX2                !
 ! R7    R(4,7)                  1.5572         estimate D2E/DX2                !
 ! R8    R(7,8)                  1.0917         estimate D2E/DX2                !
 ! R9    R(7,9)                  1.0923         estimate D2E/DX2                !
 ! R10   R(7,10)                 1.561          estimate D2E/DX2                !
 ! R11   R(10,11)                1.0931         estimate D2E/DX2                !
 ! R12   R(10,12)                1.0925         estimate D2E/DX2                !
 ! R13   R(10,13)                1.4927         estimate D2E/DX2                !
 ! R14   R(13,14)                1.4325         estimate D2E/DX2                !
 ! R15   R(13,39)                1.3904         estimate D2E/DX2                !
 ! R16   R(14,15)                1.3776         estimate D2E/DX2                !
 ! R17   R(14,23)                1.4201         estimate D2E/DX2                !
 ! R18   R(15,16)                1.0868         estimate D2E/DX2                !
 ! R19   R(15,17)                1.3904         estimate D2E/DX2                !
 ! R20   R(17,18)                1.0873         estimate D2E/DX2                !
 ! R21   R(17,19)                1.4092         estimate D2E/DX2                !
 ! R22   R(19,20)                1.0862         estimate D2E/DX2                !
 ! R23   R(19,21)                1.4394         estimate D2E/DX2                !
 ! R24   R(21,22)                1.0875         estimate D2E/DX2                !
 ! R25   R(21,23)                1.3966         estimate D2E/DX2                !
 ! R26   R(23,24)                1.4798         estimate D2E/DX2                !
 ! R27   R(24,25)                1.0927         estimate D2E/DX2                !
 ! R28   R(24,26)                1.0921         estimate D2E/DX2                !
 ! R29   R(24,27)                1.6029         estimate D2E/DX2                !
 ! R30   R(27,28)                1.0919         estimate D2E/DX2                !
 ! R31   R(27,29)                1.0923         estimate D2E/DX2                !
 ! R32   R(27,30)                1.5727         estimate D2E/DX2                !
 ! R33   R(30,31)                1.426          estimate D2E/DX2                !
 ! R34   R(30,39)                1.3969         estimate D2E/DX2                !
 ! R35   R(31,32)                1.0864         estimate D2E/DX2                !
 ! R36   R(31,33)                1.3795         estimate D2E/DX2                !
 ! R37   R(33,34)                1.0867         estimate D2E/DX2                !
 ! R38   R(33,35)                1.3638         estimate D2E/DX2                !
 ! R39   R(35,36)                1.0872         estimate D2E/DX2                !
 ! R40   R(35,37)                1.3955         estimate D2E/DX2                !
 ! R41   R(37,38)                1.0873         estimate D2E/DX2                !
 ! R42   R(37,39)                1.42           estimate D2E/DX2                !
 ! A1    A(2,1,3)              109.4941         estimate D2E/DX2                !
 ! A2    A(2,1,4)              109.4395         estimate D2E/DX2                !
 ! A3    A(2,1,40)             109.4711         estimate D2E/DX2                !
 ! A4    A(3,1,4)              109.4726         estimate D2E/DX2                !
 ! A5    A(3,1,40)             109.4733         estimate D2E/DX2                !
 ! A6    A(4,1,40)             109.4767         estimate D2E/DX2                !
 ! A7    A(1,4,5)              107.9926         estimate D2E/DX2                !
 ! A8    A(1,4,6)              113.3995         estimate D2E/DX2                !
 ! A9    A(1,4,7)              111.5341         estimate D2E/DX2                !
 ! A10   A(5,4,6)              108.0838         estimate D2E/DX2                !
 ! A11   A(5,4,7)              110.9159         estimate D2E/DX2                !
 ! A12   A(6,4,7)              104.88           estimate D2E/DX2                !
 ! A13   A(4,7,8)              107.4151         estimate D2E/DX2                !
 ! A14   A(4,7,9)              111.2053         estimate D2E/DX2                !
 ! A15   A(4,7,10)             112.2966         estimate D2E/DX2                !
 ! A16   A(8,7,9)              109.3984         estimate D2E/DX2                !
 ! A17   A(8,7,10)             107.12           estimate D2E/DX2                !
 ! A18   A(9,7,10)             109.2746         estimate D2E/DX2                !
 ! A19   A(7,10,11)            110.7526         estimate D2E/DX2                !
 ! A20   A(7,10,12)            106.2591         estimate D2E/DX2                !
 ! A21   A(7,10,13)            114.1492         estimate D2E/DX2                !
 ! A22   A(11,10,12)            99.6378         estimate D2E/DX2                !
 ! A23   A(11,10,13)           111.7845         estimate D2E/DX2                !
 ! A24   A(12,10,13)           113.2177         estimate D2E/DX2                !
 ! A25   A(10,13,14)           116.8569         estimate D2E/DX2                !
 ! A26   A(10,13,39)           117.9718         estimate D2E/DX2                !
 ! A27   A(14,13,39)           125.0738         estimate D2E/DX2                !
 ! A28   A(13,14,15)           117.1344         estimate D2E/DX2                !
 ! A29   A(13,14,23)           118.525          estimate D2E/DX2                !
 ! A30   A(15,14,23)           124.3368         estimate D2E/DX2                !
 ! A31   A(14,15,16)           120.7655         estimate D2E/DX2                !
 ! A32   A(14,15,17)           118.1178         estimate D2E/DX2                !
 ! A33   A(16,15,17)           120.8728         estimate D2E/DX2                !
 ! A34   A(15,17,18)           119.6212         estimate D2E/DX2                !
 ! A35   A(15,17,19)           122.4338         estimate D2E/DX2                !
 ! A36   A(18,17,19)           117.8589         estimate D2E/DX2                !
 ! A37   A(17,19,20)           119.66           estimate D2E/DX2                !
 ! A38   A(17,19,21)           116.484          estimate D2E/DX2                !
 ! A39   A(20,19,21)           123.7181         estimate D2E/DX2                !
 ! A40   A(19,21,22)           120.8683         estimate D2E/DX2                !
 ! A41   A(19,21,23)           123.2159         estimate D2E/DX2                !
 ! A42   A(22,21,23)           114.2848         estimate D2E/DX2                !
 ! A43   A(14,23,21)           115.4067         estimate D2E/DX2                !
 ! A44   A(14,23,24)           121.4068         estimate D2E/DX2                !
 ! A45   A(21,23,24)           122.3819         estimate D2E/DX2                !
 ! A46   A(23,24,25)           116.0239         estimate D2E/DX2                !
 ! A47   A(23,24,26)           105.2047         estimate D2E/DX2                !
 ! A48   A(23,24,27)           110.5304         estimate D2E/DX2                !
 ! A49   A(25,24,26)           110.279          estimate D2E/DX2                !
 ! A50   A(25,24,27)           102.3069         estimate D2E/DX2                !
 ! A51   A(26,24,27)           112.7427         estimate D2E/DX2                !
 ! A52   A(24,27,28)           103.9572         estimate D2E/DX2                !
 ! A53   A(24,27,29)           109.8294         estimate D2E/DX2                !
 ! A54   A(24,27,30)           120.2156         estimate D2E/DX2                !
 ! A55   A(28,27,29)           105.959          estimate D2E/DX2                !
 ! A56   A(28,27,30)           102.7088         estimate D2E/DX2                !
 ! A57   A(29,27,30)           112.546          estimate D2E/DX2                !
 ! A58   A(27,30,31)           119.3778         estimate D2E/DX2                !
 ! A59   A(27,30,39)           124.8789         estimate D2E/DX2                !
 ! A60   A(31,30,39)           115.0387         estimate D2E/DX2                !
 ! A61   A(30,31,32)           115.8216         estimate D2E/DX2                !
 ! A62   A(30,31,33)           127.1141         estimate D2E/DX2                !
 ! A63   A(32,31,33)           117.061          estimate D2E/DX2                !
 ! A64   A(31,33,34)           122.8687         estimate D2E/DX2                !
 ! A65   A(31,33,35)           114.4408         estimate D2E/DX2                !
 ! A66   A(34,33,35)           122.062          estimate D2E/DX2                !
 ! A67   A(33,35,36)           116.4296         estimate D2E/DX2                !
 ! A68   A(33,35,37)           122.5397         estimate D2E/DX2                !
 ! A69   A(36,35,37)           120.6613         estimate D2E/DX2                !
 ! A70   A(35,37,38)           119.8091         estimate D2E/DX2                !
 ! A71   A(35,37,39)           120.8142         estimate D2E/DX2                !
 ! A72   A(38,37,39)           119.2467         estimate D2E/DX2                !
 ! A73   A(13,39,30)           122.9947         estimate D2E/DX2                !
 ! A74   A(13,39,37)           118.0661         estimate D2E/DX2                !
 ! A75   A(30,39,37)           118.9166         estimate D2E/DX2                !
 ! D1    D(2,1,4,5)            171.0546         estimate D2E/DX2                !
 ! D2    D(2,1,4,6)             51.3087         estimate D2E/DX2                !
 ! D3    D(2,1,4,7)            -66.8267         estimate D2E/DX2                !
 ! D4    D(3,1,4,5)             51.0451         estimate D2E/DX2                !
 ! D5    D(3,1,4,6)            -68.7008         estimate D2E/DX2                !
 ! D6    D(3,1,4,7)            173.1638         estimate D2E/DX2                !
 ! D7    D(40,1,4,5)           -68.9616         estimate D2E/DX2                !
 ! D8    D(40,1,4,6)           171.2925         estimate D2E/DX2                !
 ! D9    D(40,1,4,7)            53.1571         estimate D2E/DX2                !
 ! D10   D(1,4,7,8)             64.0364         estimate D2E/DX2                !
 ! D11   D(1,4,7,9)            -55.638          estimate D2E/DX2                !
 ! D12   D(1,4,7,10)          -178.4428         estimate D2E/DX2                !
 ! D13   D(5,4,7,8)           -175.5455         estimate D2E/DX2                !
 ! D14   D(5,4,7,9)             64.7801         estimate D2E/DX2                !
 ! D15   D(5,4,7,10)           -58.0247         estimate D2E/DX2                !
 ! D16   D(6,4,7,8)            -59.0978         estimate D2E/DX2                !
 ! D17   D(6,4,7,9)           -178.7721         estimate D2E/DX2                !
 ! D18   D(6,4,7,10)            58.4231         estimate D2E/DX2                !
 ! D19   D(4,7,10,11)           51.5959         estimate D2E/DX2                !
 ! D20   D(4,7,10,12)          -55.6819         estimate D2E/DX2                !
 ! D21   D(4,7,10,13)          178.8116         estimate D2E/DX2                !
 ! D22   D(8,7,10,11)          169.2921         estimate D2E/DX2                !
 ! D23   D(8,7,10,12)           62.0143         estimate D2E/DX2                !
 ! D24   D(8,7,10,13)          -63.4922         estimate D2E/DX2                !
 ! D25   D(9,7,10,11)          -72.2908         estimate D2E/DX2                !
 ! D26   D(9,7,10,12)         -179.5686         estimate D2E/DX2                !
 ! D27   D(9,7,10,13)           54.9249         estimate D2E/DX2                !
 ! D28   D(7,10,13,14)          60.6091         estimate D2E/DX2                !
 ! D29   D(7,10,13,39)        -122.7988         estimate D2E/DX2                !
 ! D30   D(11,10,13,14)       -172.7092         estimate D2E/DX2                !
 ! D31   D(11,10,13,39)          3.8829         estimate D2E/DX2                !
 ! D32   D(12,10,13,14)        -61.1402         estimate D2E/DX2                !
 ! D33   D(12,10,13,39)        115.452          estimate D2E/DX2                !
 ! D34   D(10,13,14,15)         58.6349         estimate D2E/DX2                !
 ! D35   D(10,13,14,23)       -122.0442         estimate D2E/DX2                !
 ! D36   D(39,13,14,15)       -117.6872         estimate D2E/DX2                !
 ! D37   D(39,13,14,23)         61.6337         estimate D2E/DX2                !
 ! D38   D(10,13,39,30)        127.022          estimate D2E/DX2                !
 ! D39   D(10,13,39,37)        -54.7276         estimate D2E/DX2                !
 ! D40   D(14,13,39,30)        -56.6933         estimate D2E/DX2                !
 ! D41   D(14,13,39,37)        121.5572         estimate D2E/DX2                !
 ! D42   D(13,14,15,16)          4.8028         estimate D2E/DX2                !
 ! D43   D(13,14,15,17)        179.1769         estimate D2E/DX2                !
 ! D44   D(23,14,15,16)       -174.4746         estimate D2E/DX2                !
 ! D45   D(23,14,15,17)         -0.1005         estimate D2E/DX2                !
 ! D46   D(13,14,23,21)       -178.615          estimate D2E/DX2                !
 ! D47   D(13,14,23,24)         11.4252         estimate D2E/DX2                !
 ! D48   D(15,14,23,21)          0.653          estimate D2E/DX2                !
 ! D49   D(15,14,23,24)       -169.3067         estimate D2E/DX2                !
 ! D50   D(14,15,17,18)       -177.0627         estimate D2E/DX2                !
 ! D51   D(14,15,17,19)         -0.5107         estimate D2E/DX2                !
 ! D52   D(16,15,17,18)         -2.6948         estimate D2E/DX2                !
 ! D53   D(16,15,17,19)        173.8572         estimate D2E/DX2                !
 ! D54   D(15,17,19,20)       -175.3838         estimate D2E/DX2                !
 ! D55   D(15,17,19,21)          0.5061         estimate D2E/DX2                !
 ! D56   D(18,17,19,20)          1.226          estimate D2E/DX2                !
 ! D57   D(18,17,19,21)        177.1159         estimate D2E/DX2                !
 ! D58   D(17,19,21,22)        164.7035         estimate D2E/DX2                !
 ! D59   D(17,19,21,23)          0.1018         estimate D2E/DX2                !
 ! D60   D(20,19,21,22)        -19.5907         estimate D2E/DX2                !
 ! D61   D(20,19,21,23)        175.8075         estimate D2E/DX2                !
 ! D62   D(19,21,23,14)         -0.6415         estimate D2E/DX2                !
 ! D63   D(19,21,23,24)        169.2102         estimate D2E/DX2                !
 ! D64   D(22,21,23,14)       -166.1616         estimate D2E/DX2                !
 ! D65   D(22,21,23,24)          3.6901         estimate D2E/DX2                !
 ! D66   D(14,23,24,25)        174.285          estimate D2E/DX2                !
 ! D67   D(14,23,24,26)         52.1183         estimate D2E/DX2                !
 ! D68   D(14,23,24,27)        -69.8579         estimate D2E/DX2                !
 ! D69   D(21,23,24,25)          5.0322         estimate D2E/DX2                !
 ! D70   D(21,23,24,26)       -117.1345         estimate D2E/DX2                !
 ! D71   D(21,23,24,27)        120.8893         estimate D2E/DX2                !
 ! D72   D(23,24,27,28)        -54.734          estimate D2E/DX2                !
 ! D73   D(23,24,27,29)       -167.7379         estimate D2E/DX2                !
 ! D74   D(23,24,27,30)         59.2869         estimate D2E/DX2                !
 ! D75   D(25,24,27,28)         69.4062         estimate D2E/DX2                !
 ! D76   D(25,24,27,29)        -43.5976         estimate D2E/DX2                !
 ! D77   D(25,24,27,30)       -176.5729         estimate D2E/DX2                !
 ! D78   D(26,24,27,28)       -172.1628         estimate D2E/DX2                !
 ! D79   D(26,24,27,29)         74.8333         estimate D2E/DX2                !
 ! D80   D(26,24,27,30)        -58.1419         estimate D2E/DX2                !
 ! D81   D(24,27,30,31)        175.0703         estimate D2E/DX2                !
 ! D82   D(24,27,30,39)        -15.044          estimate D2E/DX2                !
 ! D83   D(28,27,30,31)        -70.255          estimate D2E/DX2                !
 ! D84   D(28,27,30,39)         99.6307         estimate D2E/DX2                !
 ! D85   D(29,27,30,31)         43.2486         estimate D2E/DX2                !
 ! D86   D(29,27,30,39)       -146.8657         estimate D2E/DX2                !
 ! D87   D(27,30,31,32)         -0.5807         estimate D2E/DX2                !
 ! D88   D(27,30,31,33)        178.7288         estimate D2E/DX2                !
 ! D89   D(39,30,31,32)       -171.4313         estimate D2E/DX2                !
 ! D90   D(39,30,31,33)          7.8782         estimate D2E/DX2                !
 ! D91   D(27,30,39,13)         10.4409         estimate D2E/DX2                !
 ! D92   D(27,30,39,37)       -167.7953         estimate D2E/DX2                !
 ! D93   D(31,30,39,13)       -179.2831         estimate D2E/DX2                !
 ! D94   D(31,30,39,37)          2.4807         estimate D2E/DX2                !
 ! D95   D(30,31,33,34)        177.5383         estimate D2E/DX2                !
 ! D96   D(30,31,33,35)        -11.3895         estimate D2E/DX2                !
 ! D97   D(32,31,33,34)         -3.1597         estimate D2E/DX2                !
 ! D98   D(32,31,33,35)        167.9125         estimate D2E/DX2                !
 ! D99   D(31,33,35,36)       -168.488          estimate D2E/DX2                !
 ! D100  D(31,33,35,37)          4.5689         estimate D2E/DX2                !
 ! D101  D(34,33,35,36)          2.6644         estimate D2E/DX2                !
 ! D102  D(34,33,35,37)        175.7213         estimate D2E/DX2                !
 ! D103  D(33,35,37,38)       -170.9943         estimate D2E/DX2                !
 ! D104  D(33,35,37,39)          4.8302         estimate D2E/DX2                !
 ! D105  D(36,35,37,38)          1.7763         estimate D2E/DX2                !
 ! D106  D(36,35,37,39)        177.6008         estimate D2E/DX2                !
 ! D107  D(35,37,39,13)        173.2263         estimate D2E/DX2                !
 ! D108  D(35,37,39,30)         -8.4501         estimate D2E/DX2                !
 ! D109  D(38,37,39,13)        -10.926          estimate D2E/DX2                !
 ! D110  D(38,37,39,30)        167.3976         estimate D2E/DX2                !
 --------------------------------------------------------------------------------
 Trust Radius=3.00D-01 FncErr=1.00D-07 GrdErr=1.00D-06 EigMax=2.50D+02 EigMin=1.00D-04
 Number of steps in this run=    237 maximum allowed number of steps=    240.
 GradGradGradGradGradGradGradGradGradGradGradGradGradGradGradGradGradGrad

 Leave Link  103 at Sun Jul 18 13:31:18 2021, MaxMem=   104857600 cpu:               0.0 elap:               0.0
 (Enter /dades/curu/g16A03_MST/g16/l202.exe)
                          Input orientation:                          
 ---------------------------------------------------------------------
 Center     Atomic      Atomic             Coordinates (Angstroms)
 Number     Number       Type             X           Y           Z
 ---------------------------------------------------------------------
      1          7           0       -2.493000    1.179000    3.995000
      2          1           0       -2.883000    1.991000    3.561000
      3          1           0       -2.510000    1.291000    4.989000
      4          6           0       -1.088000    1.001000    3.540000
      5          1           0       -0.635000    0.210000    4.144000
      6          1           0       -0.479000    1.902000    3.649000
      7          6           0       -1.018000    0.652000    2.024000
      8          1           0       -1.410000    1.509000    1.473000
      9          1           0       -1.617000   -0.232000    1.794000
     10          6           0        0.447000    0.423000    1.536000
     11          1           0        0.961000   -0.297000    2.178000
     12          1           0        1.001000    1.328000    1.796000
     13          7           0        0.560000    0.058000    0.093000
     14          6           0        0.065000    1.010000   -0.856000
     15          6           0        0.626000    2.268000   -0.835000
     16          1           0        1.462000    2.493000   -0.178000
     17          6           0        0.173000    3.203000   -1.759000
     18          1           0        0.632000    4.188000   -1.796000
     19          6           0       -0.822000    2.904000   -2.711000
     20          1           0       -1.089000    3.644000   -3.460000
     21          6           0       -1.364000    1.571000   -2.676000
     22          1           0       -2.289000    1.331000   -3.195000
     23          6           0       -0.951000    0.601000   -1.760000
     24          6           0       -1.672000   -0.679000   -1.582000
     25          1           0       -2.501000   -0.862000   -2.270000
     26          1           0       -2.032000   -0.664000   -0.551000
     27          6           0       -0.700000   -1.918000   -1.881000
     28          1           0       -0.318000   -1.717000   -2.884000
     29          1           0       -1.285000   -2.837000   -1.961000
     30          6           0        0.616000   -2.112000   -1.042000
     31          6           0        1.413000   -3.276000   -1.250000
     32          1           0        1.041000   -3.978000   -1.991000
     33          6           0        2.601000   -3.594000   -0.625000
     34          1           0        3.134000   -4.523000   -0.809000
     35          6           0        3.151000   -2.574000    0.094000
     36          1           0        4.172000   -2.720000    0.438000
     37          6           0        2.512000   -1.345000    0.263000
     38          1           0        3.048000   -0.515000    0.717000
     39          6           0        1.197000   -1.135000   -0.230000
     40          1           0       -3.030000    0.375000    3.741000
 ---------------------------------------------------------------------
                    Distance matrix (angstroms):
                    1          2          3          4          5
     1  N    0.000000
     2  H    0.999900   0.000000
     3  H    1.000434   1.633497   0.000000
     4  C    1.487526   2.050016   2.050801   0.000000
     5  H    2.100792   2.926663   2.323405   1.093483   0.000000
     6  H    2.167635   2.407256   2.508761   1.092961   1.769809
     7  C    2.517577   2.762882   3.380179   1.557227   2.199194
     8  H    2.764466   2.600346   3.690499   2.152728   3.069571
     9  H    2.757299   3.109144   3.650343   2.201964   2.584993
    10  C    3.906638   4.200970   4.628227   2.589657   2.831564
    11  H    4.172551   4.682304   4.740391   2.781771   2.582522
    12  H    4.131082   4.317436   4.745918   2.740873   3.072381
    13  N    5.079671   5.255260   5.908977   3.935348   4.226314
    14  C    5.486723   5.400274   6.393247   4.544701   5.111751
    15  C    5.851750   5.631574   6.686404   4.866591   5.533166
    16  H    5.897673   5.754229   6.627177   4.748904   5.318758
    17  C    6.656775   6.253837   7.509310   5.875230   6.667557
    18  H    7.235702   6.773440   8.018790   6.448896   7.260398
    19  C    7.123082   6.664779   8.046186   6.539661   7.367743
    20  H    7.976495   7.432717   8.884900   7.482343   8.355794
    21  C    6.777208   6.433034   7.755252   6.248178   6.992579
    22  H    7.194499   6.814101   8.187081   6.849199   7.606134
    23  C    5.985973   5.829045   6.961004   5.316838   5.925365
    24  C    5.935414   5.919955   6.910947   5.422024   5.886660
    25  H    6.589080   6.502776   7.571563   6.262862   6.765393
    26  H    4.926996   4.968075   5.894244   4.516596   4.975792
    27  C    6.879944   7.047066   7.795555   6.169145   6.390089
    28  H    7.774193   7.865527   8.708447   7.017706   7.294286
    29  H    7.284329   7.507041   8.175788   6.710444   6.854030
    30  C    6.772587   7.089797   7.597713   5.795611   5.818185
    31  C    7.912894   8.327222   8.670210   6.891432   6.741049
    32  H    8.655403   9.047179   9.438875   7.740481   7.614890
    33  C    8.371067   8.876321   9.027876   7.215953   6.905467
    34  H    9.341004   9.886020   9.963641   8.200833   7.819134
    35  C    7.820329   8.322768   8.422955   6.528757   6.203785
    36  H    8.501569   9.039894   9.024901   7.150933   6.739925
    37  C    6.734124   7.149246   7.382686   5.403929   5.232953
    38  H    6.657147   7.038830   7.238991   5.232025   5.082759
    39  C    6.068057   6.386702   6.845823   4.898635   4.929211
    40  H    0.999650   1.632625   1.633083   2.050278   2.434268
                    6          7          8          9         10
     6  H    0.000000
     7  C    2.119822   0.000000
     8  H    2.399205   1.091657   0.000000
     9  H    3.047954   1.092317   1.782406   0.000000
    10  C    2.740381   1.561029   2.152165   2.180753   0.000000
    11  H    3.012149   2.200172   3.062728   2.607252   1.093051
    12  H    2.439976   2.141336   2.439264   3.047545   1.092493
    13  N    4.138235   2.563529   2.809039   2.777918   1.492730
    14  C    4.624568   3.097653   2.801583   3.375528   2.492420
    15  C    4.632627   3.672611   3.169896   4.265289   3.009602
    16  H    4.331592   3.793216   3.455784   4.560115   2.872790
    17  C    5.600372   4.715630   3.977606   5.256152   4.319780
    18  H    6.009005   5.460604   4.693950   6.122295   5.031071
    19  C    6.447577   5.246918   4.449452   5.546309   5.079639
    20  H    7.344695   6.247508   5.384771   6.550319   6.139556
    21  C    6.395187   4.801487   4.149718   4.826564   4.726370
    22  H    7.102287   5.414281   4.753372   5.271117   5.540083
    23  C    5.583249   3.784937   3.389312   3.710574   3.584648
    24  C    5.953837   3.899040   3.766831   3.405908   3.927657
    25  H    6.838329   4.788520   4.563110   4.206477   4.982727
    26  H    5.161024   3.064421   3.034038   2.420305   3.417979
    27  C    6.724741   4.685622   4.847447   4.145975   4.297881
    28  H    7.470152   5.494600   5.530189   5.077038   4.970033
    29  H    7.387818   5.303266   5.540370   4.582169   5.084922
    30  C    6.270303   4.439595   4.851963   4.069838   3.619512
    31  C    7.375063   5.661980   6.187106   5.264292   4.730492
    32  H    8.288208   6.465029   6.936416   5.951782   5.671099
    33  C    7.613113   6.175992   6.821315   5.911525   5.044396
    34  H    8.614416   7.214265   7.889264   6.910882   6.097697
    35  C    6.771226   5.613603   6.274970   5.577525   4.286372
    36  H    7.301041   6.389200   7.079152   6.445262   4.995966
    37  C    5.563640   4.421542   4.999150   4.542177   3.001762
    38  H    5.184423   4.427470   4.953976   4.796065   2.883714
    39  C    5.203747   3.630442   4.085021   3.581980   2.471562
    40  H    2.974524   2.659504   3.009016   2.481094   4.117506
                   11         12         13         14         15
    11  H    0.000000
    12  H    1.669775   0.000000
    13  N    2.152685   2.169698   0.000000
    14  C    3.422897   2.830252   1.432456   0.000000
    15  C    3.971098   2.818933   2.397841   1.377580   0.000000
    16  H    3.685897   2.338038   2.610799   2.147227   1.086816
    17  C    5.326435   4.103564   3.670245   2.374094   1.390399
    18  H    6.001345   4.606324   4.542071   3.362257   2.147081
    19  C    6.109649   5.110788   4.227535   2.795538   2.453686
    20  H    7.177815   6.112078   5.310594   3.879496   3.424212
    21  C    5.697049   5.064687   3.695715   2.381000   2.799141
    22  H    6.487065   5.977808   4.533020   3.333958   3.865850
    23  C    4.468780   4.121161   2.451852   1.420124   2.474155
    24  C    4.606106   4.752248   2.886281   2.529222   3.810987
    25  H    5.664748   5.795900   3.974908   3.476800   4.651264
    26  H    4.066962   4.321523   2.766674   2.700502   3.967650
    27  C    4.675686   5.191363   3.064123   3.195158   4.513866
    28  H    5.410738   5.737089   3.575477   3.419942   4.579275
    29  H    5.350461   6.057068   4.000496   4.224090   5.566042
    30  C    3.712364   4.476167   2.449543   3.175702   4.384900
    31  C    4.563982   5.535763   3.694159   4.510226   5.614938
    32  H    5.562079   6.518942   4.567681   5.207777   6.365617
    33  C    4.627809   5.713784   4.244798   5.261319   6.189327
    34  H    5.612769   6.750549   5.331476   6.327326   7.239366
    35  C    3.784691   4.769162   3.693333   4.823998   5.539281
    36  H    4.382813   5.318431   4.569776   5.696910   6.250983
    37  C    2.677897   3.431929   2.409899   3.575751   4.220944
    38  H    2.556876   2.958226   2.628279   3.701114   4.002484
    39  C    2.560548   3.195225   1.390448   2.504860   3.503209
    40  H    4.338506   4.576046   5.128011   5.578052   6.155450
                   16         17         18         19         20
    16  H    0.000000
    17  C    2.159903   0.000000
    18  H    2.485930   1.087325   0.000000
    19  C    3.435355   1.409159   2.144760   0.000000
    20  H    4.313227   2.163452   2.454928   1.086227   0.000000
    21  C    3.882829   2.422123   3.406920   1.439402   2.233296
    22  H    4.952023   3.409974   4.318784   2.204694   2.619197
    23  C    3.450356   2.834393   3.920938   2.494965   3.488394
    24  C    4.674907   4.301776   5.389054   3.851627   4.749221
    25  H    5.598023   4.892405   5.961784   4.146840   4.869690
    26  H    4.723750   4.612481   5.673520   4.342847   5.283029
    27  C    5.199171   5.196312   6.250175   4.894432   5.794860
    28  H    5.311773   5.070809   6.079085   4.651622   5.446700
    29  H    6.255717   6.216765   7.283731   5.808266   6.654981
    30  C    4.761117   5.381409   6.344980   5.478473   6.471884
    31  C    5.867959   6.616201   7.524585   6.732172   7.683131
    32  H    6.733354   7.236989   8.178561   7.165968   8.049208
    33  C    6.208760   7.306186   8.112196   7.634941   8.604764
    34  H    7.240028   8.328331   9.116781   8.627159   9.568773
    35  C    5.348008   6.758389   7.459364   7.325383   8.322983
    36  H    5.907531   7.476680   8.077303   8.153871   9.130883
    37  C    4.003402   5.499428   6.195803   6.165568   7.191526
    38  H    3.516317   5.312224   5.854095   6.198197   7.201346
    39  C    3.638037   4.712182   5.577267   5.152208   6.204638
    40  H    6.326338   6.964682   7.655559   7.273198   8.142987
                   21         22         23         24         25
    21  C    0.000000
    22  H    1.087468   0.000000
    23  C    1.396612   2.093411   0.000000
    24  C    2.520754   2.650011   1.479840   0.000000
    25  H    2.716081   2.389523   2.191568   1.092737   0.000000
    26  H    3.155483   3.322169   2.056810   1.092147   1.792798
    27  C    3.639511   3.848054   2.534364   1.602905   2.123690
    28  H    3.456635   3.643057   2.652770   2.146151   2.423533
    29  H    4.466311   4.461277   3.460029   2.224944   2.339821
    30  C    4.489415   4.992863   3.214247   2.753186   3.575776
    31  C    5.765294   6.221919   4.569434   4.046215   4.710328
    32  H    6.086432   6.381536   4.998866   4.290810   4.725787
    33  C    6.826789   7.400853   5.612749   5.260380   6.016665
    34  H    7.800931   8.328940   6.621707   6.202540   6.876821
    35  C    6.726006   7.460573   5.508570   5.446222   6.361175
    36  H    7.665310   8.447119   6.488865   6.511407   7.437362
    37  C    5.671345   6.493716   4.457781   4.620978   5.637335
    38  H    5.943870   6.869864   4.834562   5.252685   6.311417
    39  C    4.456913   5.198517   3.157293   3.204216   4.232178
    40  H    6.736754   7.040676   5.885093   5.593694   6.159718
                   26         27         28         29         30
    26  H    0.000000
    27  C    2.261778   0.000000
    28  H    3.080502   1.091940   0.000000
    29  H    2.695930   1.092331   1.743966   0.000000
    30  C    3.057726   1.572709   2.102699   2.232484   0.000000
    31  C    4.379403   2.589806   2.845487   2.824437   1.425962
    32  H    4.743366   2.699404   2.785041   2.590957   2.136161
    33  C    5.482250   3.909362   4.140866   4.178390   2.512059
    34  H    6.453371   4.757601   4.908723   4.867983   3.493928
    35  C    5.561260   4.377346   4.651547   4.895946   2.816055
    36  H    6.610210   5.455030   5.674662   5.962192   3.899385
    37  C    4.666293   3.904102   4.248634   4.646445   2.426135
    38  H    5.237979   4.771322   5.073654   5.598058   3.399870
    39  C    3.278921   2.633913   3.110895   3.471814   1.396937
    40  H    4.527338   6.503356   7.458018   6.773092   6.508116
                   31         32         33         34         35
    31  C    0.000000
    32  H    1.086402   0.000000
    33  C    1.379526   2.108794   0.000000
    34  H    2.170560   2.464711   1.086732   0.000000
    35  C    2.306466   3.281850   1.363767   2.148092   0.000000
    36  H    3.281853   4.157615   2.088513   2.425544   1.087241
    37  C    2.688072   3.765242   2.419600   3.411122   1.395465
    38  H    3.763700   4.832565   3.388365   4.289538   2.153652
    39  C    2.381373   3.347851   2.859007   3.945346   2.448227
    40  H    7.614469   8.269067   8.156168   9.093283   7.758993
                   36         37         38         39         40
    36  H    0.000000
    37  C    2.162603   0.000000
    38  H    2.490631   1.087342   0.000000
    39  C    3.436433   1.419991   2.169657   0.000000
    40  H    8.506329   6.765253   6.846807   5.993035   0.000000
 Stoichiometry    C17H21N2(1+)
 Framework group  C1[X(C17H21N2)]
 Deg. of freedom   114
 Full point group                 C1      NOp   1
 Largest Abelian subgroup         C1      NOp   1
 Largest concise Abelian subgroup C1      NOp   1
                         Standard orientation:                         
 ---------------------------------------------------------------------
 Center     Atomic      Atomic             Coordinates (Angstroms)
 Number     Number       Type             X           Y           Z
 ---------------------------------------------------------------------
      1          7           0        3.894474   -3.027676    0.992570
      2          1           0        4.549136   -2.274592    0.928673
      3          1           0        4.366239   -3.894831    0.830243
      4          6           0        2.828124   -2.844624   -0.028274
      5          1           0        2.219901   -3.753129   -0.048030
      6          1           0        3.216287   -2.674245   -1.035678
      7          6           0        1.951124   -1.595058    0.278995
      8          1           0        2.596064   -0.717308    0.206058
      9          1           0        1.524224   -1.649171    1.282980
     10          6           0        0.801512   -1.408243   -0.760381
     11          1           0        0.228045   -2.331842   -0.873787
     12          1           0        1.279917   -1.368327   -1.741746
     13          7           0       -0.082934   -0.236821   -0.488781
     14          6           0        0.537376    1.054335   -0.480927
     15          6           0        1.185774    1.446866   -1.631242
     16          1           0        1.152829    0.830635   -2.525862
     17          6           0        1.780147    2.703646   -1.652086
     18          1           0        2.256809    3.057673   -2.562983
     19          6           0        1.731188    3.581188   -0.550609
     20          1           0        2.145380    4.581246   -0.641270
     21          6           0        1.037585    3.106521    0.617930
     22          1           0        1.159948    3.601021    1.578702
     23          6           0        0.435534    1.848515    0.691959
     24          6           0       -0.067083    1.284059    1.964236
     25          1           0       -0.018223    1.943864    2.833916
     26          1           0        0.531434    0.386760    2.135754
     27          6           0       -1.635842    0.971950    1.859879
     28          1           0       -2.073559    1.923085    1.549910
     29          1           0       -2.039438    0.765280    2.853651
     30          6           0       -2.173270   -0.027460    0.770952
     31          6           0       -3.556506   -0.373770    0.761161
     32          1           0       -4.164207    0.083118    1.537191
     33          6           0       -4.199256   -1.208855   -0.129119
     34          1           0       -5.254351   -1.456517   -0.048971
     35          6           0       -3.457615   -1.545760   -1.222886
     36          1           0       -3.988078   -2.037892   -2.034372
     37          6           0       -2.125887   -1.157701   -1.375311
     38          1           0       -1.620129   -1.322115   -2.323724
     39          6           0       -1.445226   -0.469697   -0.336213
     40          1           0        3.484929   -3.036710    1.904432
 ---------------------------------------------------------------------
 Rotational constants (GHZ):           0.4046352           0.3109564           0.2249031
 Leave Link  202 at Sun Jul 18 13:31:18 2021, MaxMem=   104857600 cpu:               0.0 elap:               0.0
 (Enter /dades/curu/g16A03_MST/g16/l301.exe)
 Standard basis: 6-31G(d) (6D, 7F)
 Ernie: Thresh=  0.10000D-02 Tol=  0.10000D-05 Strict=F.
 There are   327 symmetry adapted cartesian basis functions of A   symmetry.
 There are   327 symmetry adapted basis functions of A   symmetry.
   327 basis functions,   616 primitive gaussians,   327 cartesian basis functions
    68 alpha electrons       68 beta electrons
       nuclear repulsion energy      1409.6194197838 Hartrees.
 IExCor=  402 DFT=T Ex+Corr=B3LYP ExCW=0 ScaHFX=  0.200000
 ScaDFX=  0.800000  0.720000  1.000000  0.810000 ScalE2=  1.000000  1.000000
 IRadAn=      5 IRanWt=     -1 IRanGd=            0 ICorTp=0 IEmpDi=  4
 NAtoms=   40 NActive=   40 NUniq=   40 SFac= 1.00D+00 NAtFMM=   60 NAOKFM=F Big=F
 Integral buffers will be    131072 words long.
 Raffenetti 2 integral format.
 Two-electron integral symmetry is turned on.
 Using the following non-standard input for PCM:
 MSTModel=DFT cav MSTCharged
 --- end of non-standard input.
 MST model for solvation energy: B3LYP parametrization.
 MST cavity parameters:
 ISph   IAn     Re0     Alpha   Atom Type   QCorr
 ------------------------------------------------
   1      7     1.50     1.15      NH+        T
   2      1     0.90     1.15      NH+        T
   3      1     0.90     1.15      NH+        T
   4      6     1.50     1.50      CN+        F
   5      1     1.20     1.50      CN+        F
   6      1     1.20     1.50      CN+        F
   7      6     1.50     1.50      CH2        F
   8      1     1.20     1.50      CH2        F
   9      1     1.20     1.50      CH2        F
  10      6     1.50     1.50      CH2        F
  11      1     1.20     1.50      CH2        F
  12      1     1.20     1.50      CH2        F
  13      7     1.50     1.50      N          F
  14      6     1.50     1.50      C          F
  15      6     1.50     1.50      CH         F
  16      1     1.20     1.50      CH         F
  17      6     1.50     1.50      CH         F
  18      1     1.20     1.50      CH         F
  19      6     1.50     1.50      CH         F
  20      1     1.20     1.50      CH         F
  21      6     1.50     1.50      CH         F
  22      1     1.20     1.50      CH         F
  23      6     1.50     1.50      C          F
  24      6     1.50     1.50      CH2        F
  25      1     1.20     1.50      CH2        F
  26      1     1.20     1.50      CH2        F
  27      6     1.50     1.50      CH2        F
  28      1     1.20     1.50      CH2        F
  29      1     1.20     1.50      CH2        F
  30      6     1.50     1.50      C          F
  31      6     1.50     1.50      CH         F
  32      1     1.20     1.50      CH         F
  33      6     1.50     1.50      CH         F
  34      1     1.20     1.50      CH         F
  35      6     1.50     1.50      CH         F
  36      1     1.20     1.50      CH         F
  37      6     1.50     1.50      CH         F
  38      1     1.20     1.50      CH         F
  39      6     1.50     1.50      C          F
  40      1     0.90     1.15      NH+        T
 ------------------------------------------------------------------------------
 Polarizable Continuum Model (PCM)
 =================================
 Model                : PCM.
 Atomic radii         : MST.
 Polarization charges : Total charges.
 Charge compensation  : None.
 Solution method      : On-the-fly selection.
 Cavity type          : Scaled VdW (van der Waals Surface) (Alpha=1.500).
 Cavity algorithm     : GePol (No added spheres)
                        Default sphere list used, NSphG=   40.
                        Lebedev-Laikov grids with approx.  5.0 points / Ang**2.
                        Smoothing algorithm: York/Karplus (Gamma=1.0000).
                        Polarization charges: spherical gaussians, with
                                              point-specific exponents (IZeta= 3).
                        Self-potential: point-specific (ISelfS= 7).
                        Self-field    : sphere-specific E.n sum rule (ISelfD= 2).
 1st derivatives      : Analytical E(r).r(x)/FMM algorithm (CHGder, D1EAlg=3).
                        Cavity 1st derivative terms included.
 Solvent              : n-Octanol, Eps=   9.862900 Eps(inf)=   2.043470
 ------------------------------------------------------------------------------
 GePol: Number of generator spheres                  =      40
 GePol: Total number of spheres                      =      40
 GePol: Number of exposed spheres                    =      40 (100.00%)
 GePol: Number of points                             =    3497
 GePol: Average weight of points                     =       0.10
 GePol: Minimum weight of points                     =   0.14D-11
 GePol: Maximum weight of points                     =    0.21373
 GePol: Number of points with low weight             =     261
 GePol: Fraction of low-weight points (<1% of avg)   =       7.46%
 GePol: Cavity surface area                          =    365.984 Ang**2
 GePol: Cavity volume                                =    432.921 Ang**3
 Surface areas from nonelectrostatic (unscaled) cavity and vdw tensions:
 Sphere =    1 Type =  NH+ Surf =       12.692 Tension =       -0.274
 Sphere =    2 Type =  NH+ Surf =        3.858 Tension =       -0.274
 Sphere =    3 Type =  NH+ Surf =        3.861 Tension =       -0.274
 Sphere =    4 Type =  CN+ Surf =        4.093 Tension =       -0.227
 Sphere =    5 Type =  CN+ Surf =       10.044 Tension =       -0.227
 Sphere =    6 Type =  CN+ Surf =        9.952 Tension =       -0.227
 Sphere =    7 Type =  CH2 Surf =        3.908 Tension =       -0.194
 Sphere =    8 Type =  CH2 Surf =        9.976 Tension =       -0.194
 Sphere =    9 Type =  CH2 Surf =       10.006 Tension =       -0.194
 Sphere =   10 Type =  CH2 Surf =        3.753 Tension =       -0.194
 Sphere =   11 Type =  CH2 Surf =        9.720 Tension =       -0.194
 Sphere =   12 Type =  CH2 Surf =        9.609 Tension =       -0.194
 Sphere =   13 Type =  N   Surf =        5.403 Tension =       -0.115
 Sphere =   14 Type =  C   Surf =        5.808 Tension =       -0.205
 Sphere =   15 Type =  CH  Surf =        7.599 Tension =       -0.195
 Sphere =   16 Type =  CH  Surf =        9.959 Tension =       -0.195
 Sphere =   17 Type =  CH  Surf =        7.757 Tension =       -0.195
 Sphere =   18 Type =  CH  Surf =       10.219 Tension =       -0.195
 Sphere =   19 Type =  CH  Surf =        8.129 Tension =       -0.195
 Sphere =   20 Type =  CH  Surf =       10.267 Tension =       -0.195
 Sphere =   21 Type =  CH  Surf =        7.836 Tension =       -0.195
 Sphere =   22 Type =  CH  Surf =       10.056 Tension =       -0.195
 Sphere =   23 Type =  C   Surf =        5.947 Tension =       -0.205
 Sphere =   24 Type =  CH2 Surf =        4.041 Tension =       -0.194
 Sphere =   25 Type =  CH2 Surf =        9.880 Tension =       -0.194
 Sphere =   26 Type =  CH2 Surf =        9.912 Tension =       -0.194
 Sphere =   27 Type =  CH2 Surf =        4.348 Tension =       -0.194
 Sphere =   28 Type =  CH2 Surf =        9.787 Tension =       -0.194
 Sphere =   29 Type =  CH2 Surf =       10.088 Tension =       -0.194
 Sphere =   30 Type =  C   Surf =        6.597 Tension =       -0.205
 Sphere =   31 Type =  CH  Surf =        7.542 Tension =       -0.195
 Sphere =   32 Type =  CH  Surf =       10.149 Tension =       -0.195
 Sphere =   33 Type =  CH  Surf =        7.774 Tension =       -0.195
 Sphere =   34 Type =  CH  Surf =       10.260 Tension =       -0.195
 Sphere =   35 Type =  CH  Surf =        7.607 Tension =       -0.195
 Sphere =   36 Type =  CH  Surf =       10.199 Tension =       -0.195
 Sphere =   37 Type =  CH  Surf =        7.568 Tension =       -0.195
 Sphere =   38 Type =  CH  Surf =       10.201 Tension =       -0.195
 Sphere =   39 Type =  C   Surf =        5.808 Tension =       -0.205
 Sphere =   40 Type =  NH+ Surf =        3.855 Tension =       -0.274
 PCM non-electrostatic energy =        -0.0185042970 Hartrees.
 Nuclear repulsion after PCM non-electrostatic terms =     1409.6009154869 Hartrees.
 Leave Link  301 at Sun Jul 18 13:31:18 2021, MaxMem=   104857600 cpu:               0.1 elap:               0.2
 (Enter /dades/curu/g16A03_MST/g16/l302.exe)
 NPDir=0 NMtPBC=     1 NCelOv=     1 NCel=       1 NClECP=     1 NCelD=      1
         NCelK=      1 NCelE2=     1 NClLst=     1 CellRange=     0.0.
 One-electron integrals computed using PRISM.
 One-electron integral symmetry used in STVInt
 NBasis=   327 RedAO= T EigKep=  4.48D-04  NBF=   327
 NBsUse=   327 1.00D-06 EigRej= -1.00D+00 NBFU=   327
 Precomputing XC quadrature grid using
 IXCGrd= 4 IRadAn=           5 IRanWt=          -1 IRanGd=           0 AccXCQ= 0.00D+00.
 Generated NRdTot=       0 NPtTot=           0 NUsed=           0 NTot=          32
 NSgBfM=   326   326   326   326   326 MxSgAt=    40 MxSgA2=    40.
 Leave Link  302 at Sun Jul 18 13:31:20 2021, MaxMem=   104857600 cpu:               5.5 elap:               1.5
 (Enter /dades/curu/g16A03_MST/g16/l303.exe)
 DipDrv:  MaxL=1.
 Leave Link  303 at Sun Jul 18 13:31:20 2021, MaxMem=   104857600 cpu:               0.1 elap:               0.1
 (Enter /dades/curu/g16A03_MST/g16/l401.exe)
 ExpMin= 1.61D-01 ExpMax= 4.17D+03 ExpMxC= 6.27D+02 IAcc=3 IRadAn=         5 AccDes= 0.00D+00
 Harris functional with IExCor=  402 and IRadAn=       5 diagonalized for initial guess.
 HarFok:  IExCor=  402 AccDes= 0.00D+00 IRadAn=         5 IDoV= 1 UseB2=F ITyADJ=14
 ICtDFT=  3500011 ScaDFX=  1.000000  1.000000  1.000000  1.000000
 FoFCou: FMM=F IPFlag=           0 FMFlag=      100000 FMFlg1=           0
         NFxFlg=           0 DoJE=T BraDBF=F KetDBF=T FulRan=T
         wScrn=  0.000000 ICntrl=       500 IOpCl=  0 I1Cent=   200000004 NGrid=           0
         NMat0=    1 NMatS0=      1 NMatT0=    0 NMatD0=    1 NMtDS0=    0 NMtDT0=    0
 Petite list used in FoFCou.
 Harris En= -769.748372880743    
 JPrj=0 DoOrth=F DoCkMO=F.
 Leave Link  401 at Sun Jul 18 13:31:30 2021, MaxMem=   104857600 cpu:              41.1 elap:              10.4
 (Enter /dades/curu/g16A03_MST/g16/l502.exe)
 Integral symmetry usage will be decided dynamically.
 Closed shell SCF:
 Using DIIS extrapolation, IDIIS=  1040.
 NGot=   104857600 LenX=   104637961 LenY=   104530591
 Requested convergence on RMS density matrix=1.00D-08 within 128 cycles.
 Requested convergence on MAX density matrix=1.00D-06.
 Requested convergence on             energy=1.00D-06.
 No special actions if energy rises.
 Fock matrices will be formed incrementally for  20 cycles.

 Cycle   1  Pass 1  IDiag  1:
 FoFJK:  IHMeth= 1 ICntrl=       0 DoSepK=F KAlg= 0 I1Cent=           0 FoldK=F
 IRaf= 830000000 NMat=       1 IRICut=       1 DoRegI=T DoRafI=F ISym2E= 0 IDoP0=0 IntGTp=1.
 FoFCou: FMM=F IPFlag=           0 FMFlag=      100000 FMFlg1=           0
         NFxFlg=           0 DoJE=F BraDBF=F KetDBF=F FulRan=T
         wScrn=  0.000000 ICntrl=         0 IOpCl=  0 I1Cent=           0 NGrid=           0
         NMat0=    1 NMatS0=      1 NMatT0=    0 NMatD0=    1 NMtDS0=    0 NMtDT0=    0
 Symmetry not used in FoFCou.
 Inv3:  Mode=1 IEnd=    36687027.
 Iteration    1 A*A^-1 deviation from unit magnitude is 8.44D-15 for   3485.
 Iteration    1 A*A^-1 deviation from orthogonality  is 5.17D-15 for   3471    970.
 Iteration    1 A^-1*A deviation from unit magnitude is 7.99D-15 for   3485.
 Iteration    1 A^-1*A deviation from orthogonality  is 5.37D-15 for   3466   1937.
 E= -769.407913427231    
 DIIS: error= 1.98D-02 at cycle   1 NSaved=   1.
 NSaved= 1 IEnMin= 1 EnMin= -769.407913427231     IErMin= 1 ErrMin= 1.98D-02
 ErrMax= 1.98D-02  0.00D+00 EMaxC= 1.00D-01 BMatC= 3.62D-01 BMatP= 3.62D-01
 IDIUse=3 WtCom= 8.02D-01 WtEn= 1.98D-01
 Coeff-Com:  0.100D+01
 Coeff-En:   0.100D+01
 Coeff:      0.100D+01
 Gap=     0.232 Goal=   None    Shift=    0.000
 GapD=    0.232 DampG=1.000 DampE=0.500 DampFc=0.5000 IDamp=-1.
 Damping current iteration by 5.00D-01
 RMSDP=4.11D-03 MaxDP=1.19D-01              OVMax= 1.63D-01

 Cycle   2  Pass 1  IDiag  1:
 RMSU=  2.01D-03    CP:  9.75D-01
 E= -769.597725878113     Delta-E=       -0.189812450882 Rises=F Damp=T
 DIIS: error= 5.05D-03 at cycle   2 NSaved=   2.
 NSaved= 2 IEnMin= 2 EnMin= -769.597725878113     IErMin= 2 ErrMin= 5.05D-03
 ErrMax= 5.05D-03  0.00D+00 EMaxC= 1.00D-01 BMatC= 2.33D-02 BMatP= 3.62D-01
 IDIUse=3 WtCom= 9.50D-01 WtEn= 5.05D-02
 Coeff-Com: -0.134D-01 0.101D+01
 Coeff-En:   0.000D+00 0.100D+01
 Coeff:     -0.127D-01 0.101D+01
 Gap=     0.230 Goal=   None    Shift=    0.000
 RMSDP=1.11D-03 MaxDP=3.94D-02 DE=-1.90D-01 OVMax= 1.19D-01

 Cycle   3  Pass 1  IDiag  1:
 RMSU=  1.09D-03    CP:  9.66D-01  9.85D-01
 E= -769.781464103813     Delta-E=       -0.183738225700 Rises=F Damp=F
 DIIS: error= 6.36D-03 at cycle   3 NSaved=   3.
 NSaved= 3 IEnMin= 3 EnMin= -769.781464103813     IErMin= 2 ErrMin= 5.05D-03
 ErrMax= 6.36D-03  0.00D+00 EMaxC= 1.00D-01 BMatC= 1.93D-02 BMatP= 2.33D-02
 IDIUse=3 WtCom= 9.36D-01 WtEn= 6.36D-02
 Coeff-Com: -0.548D-01 0.503D+00 0.552D+00
 Coeff-En:   0.000D+00 0.000D+00 0.100D+01
 Coeff:     -0.514D-01 0.471D+00 0.580D+00
 Gap=     0.205 Goal=   None    Shift=    0.000
 RMSDP=8.09D-04 MaxDP=3.43D-02 DE=-1.84D-01 OVMax= 8.21D-02

 Cycle   4  Pass 1  IDiag  1:
 RMSU=  6.51D-04    CP:  9.65D-01  1.05D+00  5.76D-01
 E= -769.792212580825     Delta-E=       -0.010748477012 Rises=F Damp=F
 DIIS: error= 4.28D-03 at cycle   4 NSaved=   4.
 NSaved= 4 IEnMin= 4 EnMin= -769.792212580825     IErMin= 4 ErrMin= 4.28D-03
 ErrMax= 4.28D-03  0.00D+00 EMaxC= 1.00D-01 BMatC= 8.68D-03 BMatP= 1.93D-02
 IDIUse=3 WtCom= 9.57D-01 WtEn= 4.28D-02
 Coeff-Com: -0.280D-01 0.117D+00 0.410D+00 0.501D+00
 Coeff-En:   0.000D+00 0.000D+00 0.356D+00 0.644D+00
 Coeff:     -0.268D-01 0.112D+00 0.407D+00 0.507D+00
 Gap=     0.190 Goal=   None    Shift=    0.000
 RMSDP=3.95D-04 MaxDP=1.42D-02 DE=-1.07D-02 OVMax= 3.41D-02

 Cycle   5  Pass 1  IDiag  1:
 RMSU=  1.20D-04    CP:  9.65D-01  1.04D+00  7.17D-01  4.73D-01
 E= -769.801639513012     Delta-E=       -0.009426932187 Rises=F Damp=F
 DIIS: error= 4.09D-04 at cycle   5 NSaved=   5.
 NSaved= 5 IEnMin= 5 EnMin= -769.801639513012     IErMin= 5 ErrMin= 4.09D-04
 ErrMax= 4.09D-04  0.00D+00 EMaxC= 1.00D-01 BMatC= 1.34D-04 BMatP= 8.68D-03
 IDIUse=3 WtCom= 9.96D-01 WtEn= 4.09D-03
 Coeff-Com: -0.836D-02 0.233D-01 0.144D+00 0.217D+00 0.625D+00
 Coeff-En:   0.000D+00 0.000D+00 0.000D+00 0.000D+00 0.100D+01
 Coeff:     -0.832D-02 0.232D-01 0.143D+00 0.216D+00 0.626D+00
 Gap=     0.189 Goal=   None    Shift=    0.000
 RMSDP=5.96D-05 MaxDP=2.25D-03 DE=-9.43D-03 OVMax= 5.06D-03

 Cycle   6  Pass 1  IDiag  1:
 RMSU=  3.86D-05    CP:  9.65D-01  1.04D+00  7.23D-01  5.15D-01  7.05D-01
 E= -769.801748591198     Delta-E=       -0.000109078186 Rises=F Damp=F
 DIIS: error= 1.76D-04 at cycle   6 NSaved=   6.
 NSaved= 6 IEnMin= 6 EnMin= -769.801748591198     IErMin= 6 ErrMin= 1.76D-04
 ErrMax= 1.76D-04  0.00D+00 EMaxC= 1.00D-01 BMatC= 3.37D-05 BMatP= 1.34D-04
 IDIUse=3 WtCom= 9.98D-01 WtEn= 1.76D-03
 Coeff-Com: -0.250D-02 0.372D-02 0.498D-01 0.840D-01 0.381D+00 0.484D+00
 Coeff-En:   0.000D+00 0.000D+00 0.000D+00 0.000D+00 0.190D+00 0.810D+00
 Coeff:     -0.250D-02 0.371D-02 0.497D-01 0.839D-01 0.381D+00 0.484D+00
 Gap=     0.189 Goal=   None    Shift=    0.000
 RMSDP=2.05D-05 MaxDP=9.60D-04 DE=-1.09D-04 OVMax= 2.09D-03

 Cycle   7  Pass 1  IDiag  1:
 RMSU=  8.85D-06    CP:  9.65D-01  1.04D+00  7.23D-01  5.16D-01  7.57D-01
                    CP:  5.51D-01
 E= -769.801783200691     Delta-E=       -0.000034609493 Rises=F Damp=F
 DIIS: error= 3.26D-05 at cycle   7 NSaved=   7.
 NSaved= 7 IEnMin= 7 EnMin= -769.801783200691     IErMin= 7 ErrMin= 3.26D-05
 ErrMax= 3.26D-05  0.00D+00 EMaxC= 1.00D-01 BMatC= 9.31D-07 BMatP= 3.37D-05
 IDIUse=1 WtCom= 1.00D+00 WtEn= 0.00D+00
 Coeff-Com: -0.715D-03 0.571D-03 0.157D-01 0.269D-01 0.145D+00 0.227D+00
 Coeff-Com:  0.585D+00
 Coeff:     -0.715D-03 0.571D-03 0.157D-01 0.269D-01 0.145D+00 0.227D+00
 Coeff:      0.585D+00
 Gap=     0.189 Goal=   None    Shift=    0.000
 RMSDP=4.30D-06 MaxDP=1.57D-04 DE=-3.46D-05 OVMax= 3.33D-04

 Cycle   8  Pass 1  IDiag  1:
 RMSU=  2.94D-06    CP:  9.65D-01  1.04D+00  7.24D-01  5.16D-01  7.59D-01
                    CP:  5.79D-01  6.78D-01
 E= -769.801784055478     Delta-E=       -0.000000854788 Rises=F Damp=F
 DIIS: error= 8.86D-06 at cycle   8 NSaved=   8.
 NSaved= 8 IEnMin= 8 EnMin= -769.801784055478     IErMin= 8 ErrMin= 8.86D-06
 ErrMax= 8.86D-06  0.00D+00 EMaxC= 1.00D-01 BMatC= 1.40D-07 BMatP= 9.31D-07
 IDIUse=1 WtCom= 1.00D+00 WtEn= 0.00D+00
 Coeff-Com:  0.326D-04-0.352D-03 0.552D-03 0.624D-03 0.179D-01 0.455D-01
 Coeff-Com:  0.304D+00 0.632D+00
 Coeff:      0.326D-04-0.352D-03 0.552D-03 0.624D-03 0.179D-01 0.455D-01
 Coeff:      0.304D+00 0.632D+00
 Gap=     0.189 Goal=   None    Shift=    0.000
 RMSDP=1.42D-06 MaxDP=5.68D-05 DE=-8.55D-07 OVMax= 1.01D-04

 Cycle   9  Pass 1  IDiag  1:
 RMSU=  9.09D-07    CP:  9.65D-01  1.04D+00  7.24D-01  5.16D-01  7.62D-01
                    CP:  5.81D-01  7.48D-01  7.45D-01
 E= -769.801784192535     Delta-E=       -0.000000137056 Rises=F Damp=F
 DIIS: error= 3.71D-06 at cycle   9 NSaved=   9.
 NSaved= 9 IEnMin= 9 EnMin= -769.801784192535     IErMin= 9 ErrMin= 3.71D-06
 ErrMax= 3.71D-06  0.00D+00 EMaxC= 1.00D-01 BMatC= 8.05D-09 BMatP= 1.40D-07
 IDIUse=1 WtCom= 1.00D+00 WtEn= 0.00D+00
 Coeff-Com:  0.516D-04-0.176D-03-0.494D-03-0.123D-02 0.742D-03 0.860D-02
 Coeff-Com:  0.103D+00 0.280D+00 0.609D+00
 Coeff:      0.516D-04-0.176D-03-0.494D-03-0.123D-02 0.742D-03 0.860D-02
 Coeff:      0.103D+00 0.280D+00 0.609D+00
 Gap=     0.189 Goal=   None    Shift=    0.000
 RMSDP=3.98D-07 MaxDP=1.18D-05 DE=-1.37D-07 OVMax= 4.00D-05

 Cycle  10  Pass 1  IDiag  1:
 RMSU=  2.81D-07    CP:  9.65D-01  1.04D+00  7.24D-01  5.16D-01  7.62D-01
                    CP:  5.83D-01  7.56D-01  7.91D-01  7.85D-01
 E= -769.801784200078     Delta-E=       -0.000000007544 Rises=F Damp=F
 DIIS: error= 1.41D-06 at cycle  10 NSaved=  10.
 NSaved=10 IEnMin=10 EnMin= -769.801784200078     IErMin=10 ErrMin= 1.41D-06
 ErrMax= 1.41D-06  0.00D+00 EMaxC= 1.00D-01 BMatC= 1.58D-09 BMatP= 8.05D-09
 IDIUse=1 WtCom= 1.00D+00 WtEn= 0.00D+00
 Coeff-Com:  0.281D-04-0.609D-04-0.390D-03-0.914D-03-0.212D-02-0.118D-02
 Coeff-Com:  0.199D-01 0.787D-01 0.351D+00 0.555D+00
 Coeff:      0.281D-04-0.609D-04-0.390D-03-0.914D-03-0.212D-02-0.118D-02
 Coeff:      0.199D-01 0.787D-01 0.351D+00 0.555D+00
 Gap=     0.189 Goal=   None    Shift=    0.000
 RMSDP=1.41D-07 MaxDP=5.06D-06 DE=-7.54D-09 OVMax= 1.01D-05

 Cycle  11  Pass 1  IDiag  1:
 RMSU=  8.10D-08    CP:  9.65D-01  1.04D+00  7.24D-01  5.16D-01  7.62D-01
                    CP:  5.83D-01  7.60D-01  8.00D-01  8.52D-01  7.22D-01
 E= -769.801784201500     Delta-E=       -0.000000001422 Rises=F Damp=F
 DIIS: error= 2.89D-07 at cycle  11 NSaved=  11.
 NSaved=11 IEnMin=11 EnMin= -769.801784201500     IErMin=11 ErrMin= 2.89D-07
 ErrMax= 2.89D-07  0.00D+00 EMaxC= 1.00D-01 BMatC= 5.07D-11 BMatP= 1.58D-09
 IDIUse=1 WtCom= 1.00D+00 WtEn= 0.00D+00
 Coeff-Com:  0.572D-05-0.707D-05-0.808D-04-0.226D-03-0.693D-03-0.982D-03
 Coeff-Com: -0.131D-02 0.485D-02 0.812D-01 0.178D+00 0.739D+00
 Coeff:      0.572D-05-0.707D-05-0.808D-04-0.226D-03-0.693D-03-0.982D-03
 Coeff:     -0.131D-02 0.485D-02 0.812D-01 0.178D+00 0.739D+00
 Gap=     0.189 Goal=   None    Shift=    0.000
 RMSDP=3.83D-08 MaxDP=1.42D-06 DE=-1.42D-09 OVMax= 3.83D-06

 Cycle  12  Pass 1  IDiag  1:
 RMSU=  2.30D-08    CP:  9.65D-01  1.04D+00  7.24D-01  5.16D-01  7.62D-01
                    CP:  5.83D-01  7.60D-01  8.04D-01  8.70D-01  7.67D-01
                    CP:  8.70D-01
 E= -769.801784201595     Delta-E=       -0.000000000094 Rises=F Damp=F
 DIIS: error= 1.50D-07 at cycle  12 NSaved=  12.
 NSaved=12 IEnMin=12 EnMin= -769.801784201595     IErMin=12 ErrMin= 1.50D-07
 ErrMax= 1.50D-07  0.00D+00 EMaxC= 1.00D-01 BMatC= 1.27D-11 BMatP= 5.07D-11
 IDIUse=1 WtCom= 1.00D+00 WtEn= 0.00D+00
 Coeff-Com:  0.205D-06 0.285D-05-0.334D-05-0.281D-04-0.179D-03-0.499D-03
 Coeff-Com: -0.356D-02-0.740D-02 0.301D-02 0.249D-01 0.397D+00 0.587D+00
 Coeff:      0.205D-06 0.285D-05-0.334D-05-0.281D-04-0.179D-03-0.499D-03
 Coeff:     -0.356D-02-0.740D-02 0.301D-02 0.249D-01 0.397D+00 0.587D+00
 Gap=     0.189 Goal=   None    Shift=    0.000
 RMSDP=1.44D-08 MaxDP=5.90D-07 DE=-9.41D-11 OVMax= 1.13D-06

 Cycle  13  Pass 1  IDiag  1:
 RMSU=  9.10D-09    CP:  9.65D-01  1.04D+00  7.24D-01  5.16D-01  7.62D-01
                    CP:  5.83D-01  7.61D-01  8.04D-01  8.78D-01  7.73D-01
                    CP:  9.35D-01  7.85D-01
 E= -769.801784201597     Delta-E=       -0.000000000003 Rises=F Damp=F
 DIIS: error= 2.23D-08 at cycle  13 NSaved=  13.
 NSaved=13 IEnMin=13 EnMin= -769.801784201597     IErMin=13 ErrMin= 2.23D-08
 ErrMax= 2.23D-08  0.00D+00 EMaxC= 1.00D-01 BMatC= 6.09D-13 BMatP= 1.27D-11
 IDIUse=1 WtCom= 1.00D+00 WtEn= 0.00D+00
 Coeff-Com: -0.447D-06 0.156D-05 0.813D-05 0.132D-04 0.146D-04-0.742D-04
 Coeff-Com: -0.114D-02-0.301D-02-0.657D-02-0.109D-01 0.748D-01 0.230D+00
 Coeff-Com:  0.717D+00
 Coeff:     -0.447D-06 0.156D-05 0.813D-05 0.132D-04 0.146D-04-0.742D-04
 Coeff:     -0.114D-02-0.301D-02-0.657D-02-0.109D-01 0.748D-01 0.230D+00
 Coeff:      0.717D+00
 Gap=     0.189 Goal=   None    Shift=    0.000
 RMSDP=3.96D-09 MaxDP=1.15D-07 DE=-2.96D-12 OVMax= 4.43D-07

 Error on total polarization charges =  0.00847
 SCF Done:  E(RB3LYP) =  -769.801784202     A.U. after   13 cycles
            NFock= 13  Conv=0.40D-08     -V/T= 2.0101
 KE= 7.621406247505D+02 PE=-4.586139597521D+03 EE= 1.644596273082D+03
 Leave Link  502 at Sun Jul 18 13:36:49 2021, MaxMem=   104857600 cpu:            1239.9 elap:             318.9
 (Enter /dades/curu/g16A03_MST/g16/l601.exe)
 Copying SCF densities to generalized density rwf, IOpCl= 0 IROHF=0.

 **********************************************************************

            Population analysis using the SCF density.

 **********************************************************************

 Orbital symmetries:
       Occupied  (A) (A) (A) (A) (A) (A) (A) (A) (A) (A) (A) (A)
                 (A) (A) (A) (A) (A) (A) (A) (A) (A) (A) (A) (A)
                 (A) (A) (A) (A) (A) (A) (A) (A) (A) (A) (A) (A)
                 (A) (A) (A) (A) (A) (A) (A) (A) (A) (A) (A) (A)
                 (A) (A) (A) (A) (A) (A) (A) (A) (A) (A) (A) (A)
                 (A) (A) (A) (A) (A) (A) (A) (A)
       Virtual   (A) (A) (A) (A) (A) (A) (A) (A) (A) (A) (A) (A)
                 (A) (A) (A) (A) (A) (A) (A) (A) (A) (A) (A) (A)
                 (A) (A) (A) (A) (A) (A) (A) (A) (A) (A) (A) (A)
                 (A) (A) (A) (A) (A) (A) (A) (A) (A) (A) (A) (A)
                 (A) (A) (A) (A) (A) (A) (A) (A) (A) (A) (A) (A)
                 (A) (A) (A) (A) (A) (A) (A) (A) (A) (A) (A) (A)
                 (A) (A) (A) (A) (A) (A) (A) (A) (A) (A) (A) (A)
                 (A) (A) (A) (A) (A) (A) (A) (A) (A) (A) (A) (A)
                 (A) (A) (A) (A) (A) (A) (A) (A) (A) (A) (A) (A)
                 (A) (A) (A) (A) (A) (A) (A) (A) (A) (A) (A) (A)
                 (A) (A) (A) (A) (A) (A) (A) (A) (A) (A) (A) (A)
                 (A) (A) (A) (A) (A) (A) (A) (A) (A) (A) (A) (A)
                 (A) (A) (A) (A) (A) (A) (A) (A) (A) (A) (A) (A)
                 (A) (A) (A) (A) (A) (A) (A) (A) (A) (A) (A) (A)
                 (A) (A) (A) (A) (A) (A) (A) (A) (A) (A) (A) (A)
                 (A) (A) (A) (A) (A) (A) (A) (A) (A) (A) (A) (A)
                 (A) (A) (A) (A) (A) (A) (A) (A) (A) (A) (A) (A)
                 (A) (A) (A) (A) (A) (A) (A) (A) (A) (A) (A) (A)
                 (A) (A) (A) (A) (A) (A) (A) (A) (A) (A) (A) (A)
                 (A) (A) (A) (A) (A) (A) (A) (A) (A) (A) (A) (A)
                 (A) (A) (A) (A) (A) (A) (A) (A) (A) (A) (A) (A)
                 (A) (A) (A) (A) (A) (A) (A)
 The electronic state is 1-A.
 Alpha  occ. eigenvalues --  -14.46493 -14.35219 -10.27398 -10.23965 -10.23214
 Alpha  occ. eigenvalues --  -10.23008 -10.22078 -10.20500 -10.20429 -10.20365
 Alpha  occ. eigenvalues --  -10.20334 -10.20174 -10.19989 -10.19839 -10.19568
 Alpha  occ. eigenvalues --  -10.19054 -10.19050 -10.18868 -10.18678  -1.02707
 Alpha  occ. eigenvalues --   -0.95558  -0.86251  -0.84946  -0.80990  -0.80133
 Alpha  occ. eigenvalues --   -0.76358  -0.75633  -0.73355  -0.72049  -0.69149
 Alpha  occ. eigenvalues --   -0.65453  -0.64802  -0.61525  -0.60944  -0.60822
 Alpha  occ. eigenvalues --   -0.59043  -0.58489  -0.57138  -0.53069  -0.52353
 Alpha  occ. eigenvalues --   -0.50862  -0.49297  -0.48186  -0.47922  -0.47655
 Alpha  occ. eigenvalues --   -0.45933  -0.44668  -0.43762  -0.43679  -0.42355
 Alpha  occ. eigenvalues --   -0.41433  -0.40567  -0.40233  -0.39149  -0.38872
 Alpha  occ. eigenvalues --   -0.38511  -0.37944  -0.36386  -0.36054  -0.35161
 Alpha  occ. eigenvalues --   -0.34561  -0.34073  -0.33599  -0.28502  -0.25547
 Alpha  occ. eigenvalues --   -0.24788  -0.24173  -0.20603
 Alpha virt. eigenvalues --   -0.01679  -0.01430  -0.00596   0.00046   0.03622
 Alpha virt. eigenvalues --    0.06525   0.08147   0.08877   0.09436   0.10079
 Alpha virt. eigenvalues --    0.10396   0.10901   0.12204   0.12823   0.13318
 Alpha virt. eigenvalues --    0.13486   0.14297   0.14637   0.15554   0.15900
 Alpha virt. eigenvalues --    0.16011   0.16363   0.17158   0.17383   0.17595
 Alpha virt. eigenvalues --    0.18553   0.19311   0.19869   0.20877   0.21062
 Alpha virt. eigenvalues --    0.21451   0.22352   0.24574   0.25367   0.27329
 Alpha virt. eigenvalues --    0.28858   0.29733   0.31289   0.31537   0.33235
 Alpha virt. eigenvalues --    0.34858   0.35003   0.38209   0.39918   0.45765
 Alpha virt. eigenvalues --    0.46615   0.47569   0.48016   0.48322   0.49319
 Alpha virt. eigenvalues --    0.50290   0.51246   0.51795   0.52684   0.53215
 Alpha virt. eigenvalues --    0.53737   0.54100   0.54954   0.56043   0.57080
 Alpha virt. eigenvalues --    0.57364   0.58300   0.58742   0.58958   0.59345
 Alpha virt. eigenvalues --    0.59869   0.60298   0.61197   0.61405   0.61949
 Alpha virt. eigenvalues --    0.62368   0.62730   0.63691   0.65143   0.65900
 Alpha virt. eigenvalues --    0.66152   0.66837   0.69047   0.69623   0.71869
 Alpha virt. eigenvalues --    0.72844   0.73387   0.74611   0.75895   0.76368
 Alpha virt. eigenvalues --    0.77818   0.79723   0.80879   0.81538   0.82610
 Alpha virt. eigenvalues --    0.82963   0.83504   0.83557   0.84029   0.84270
 Alpha virt. eigenvalues --    0.84676   0.85051   0.85944   0.87270   0.88358
 Alpha virt. eigenvalues --    0.88501   0.89783   0.90229   0.90312   0.90735
 Alpha virt. eigenvalues --    0.91711   0.92524   0.92983   0.94399   0.94728
 Alpha virt. eigenvalues --    0.95516   0.96973   0.98220   0.99259   1.00836
 Alpha virt. eigenvalues --    1.01378   1.02296   1.03456   1.04373   1.05906
 Alpha virt. eigenvalues --    1.07817   1.10927   1.11987   1.12459   1.15813
 Alpha virt. eigenvalues --    1.16572   1.17314   1.18589   1.20348   1.20754
 Alpha virt. eigenvalues --    1.23401   1.24383   1.26813   1.29243   1.32485
 Alpha virt. eigenvalues --    1.33352   1.35183   1.36549   1.37048   1.39803
 Alpha virt. eigenvalues --    1.41048   1.42107   1.44340   1.46546   1.47764
 Alpha virt. eigenvalues --    1.50036   1.51416   1.51998   1.54768   1.55692
 Alpha virt. eigenvalues --    1.57702   1.57891   1.61064   1.62104   1.63843
 Alpha virt. eigenvalues --    1.69128   1.71976   1.73161   1.74540   1.77341
 Alpha virt. eigenvalues --    1.77902   1.78706   1.79835   1.80103   1.82179
 Alpha virt. eigenvalues --    1.83715   1.85068   1.86034   1.87274   1.88592
 Alpha virt. eigenvalues --    1.89178   1.90936   1.92076   1.92369   1.92891
 Alpha virt. eigenvalues --    1.94817   1.95241   1.95765   1.97637   1.98598
 Alpha virt. eigenvalues --    2.00606   2.00768   2.01953   2.04570   2.07560
 Alpha virt. eigenvalues --    2.08524   2.09584   2.11552   2.14281   2.15601
 Alpha virt. eigenvalues --    2.16618   2.17804   2.19303   2.20580   2.23796
 Alpha virt. eigenvalues --    2.24123   2.24637   2.25805   2.27385   2.28710
 Alpha virt. eigenvalues --    2.30043   2.30457   2.31224   2.32338   2.33249
 Alpha virt. eigenvalues --    2.34448   2.36511   2.37512   2.37975   2.38401
 Alpha virt. eigenvalues --    2.42579   2.47798   2.50071   2.54434   2.54694
 Alpha virt. eigenvalues --    2.57576   2.57835   2.58933   2.62144   2.62495
 Alpha virt. eigenvalues --    2.62805   2.63704   2.66370   2.67043   2.69154
 Alpha virt. eigenvalues --    2.71234   2.73153   2.75069   2.76762   2.78030
 Alpha virt. eigenvalues --    2.80531   2.82318   2.85272   2.90852   2.98479
 Alpha virt. eigenvalues --    2.99544   3.15368   3.15668   3.37719   3.39591
 Alpha virt. eigenvalues --    3.74593   4.06383   4.07988   4.08953   4.11544
 Alpha virt. eigenvalues --    4.12969   4.14618   4.18741   4.21140   4.27766
 Alpha virt. eigenvalues --    4.31928   4.36395   4.39905   4.40483   4.41840
 Alpha virt. eigenvalues --    4.48834   4.52694   4.72464   4.73534
          Condensed to atoms (all electrons):
               1          2          3          4          5          6
     1  N    6.642883   0.303261   0.304767   0.245560  -0.036427  -0.027862
     2  H    0.303261   0.272071  -0.009617  -0.018143   0.003605  -0.003391
     3  H    0.304767  -0.009617   0.265865  -0.016904  -0.002502  -0.001147
     4  C    0.245560  -0.018143  -0.016904   5.019177   0.384477   0.381189
     5  H   -0.036427   0.003605  -0.002502   0.384477   0.504546  -0.030180
     6  H   -0.027862  -0.003391  -0.001147   0.381189  -0.030180   0.502255
     7  C   -0.044719  -0.000751   0.003057   0.339069  -0.034045  -0.040379
     8  H   -0.000993   0.003074  -0.000064  -0.039385   0.004502  -0.005982
     9  H   -0.001933  -0.000336  -0.000008  -0.033632  -0.003862   0.004695
    10  C    0.001888  -0.000052  -0.000057  -0.025807  -0.001448  -0.001241
    11  H    0.000004   0.000008   0.000001  -0.003206   0.003889  -0.000613
[...]
    39  C    3.423311   1.408200   2.156467   0.000000
    40  H    8.551324   6.787035   6.368420   6.314830   0.000000
 Stoichiometry    C17H21N2(1+)
 Framework group  C1[X(C17H21N2)]
 Deg. of freedom   114
 Full point group                 C1      NOp   1
 RotChk:  IX=0 Diff= 5.37D-15
 Largest Abelian subgroup         C1      NOp   1
 Largest concise Abelian subgroup C1      NOp   1
                         Standard orientation:                         
 ---------------------------------------------------------------------
 Center     Atomic      Atomic             Coordinates (Angstroms)
 Number     Number       Type             X           Y           Z
 ---------------------------------------------------------------------
      1          7           0        4.683990   -2.008203    0.901289
      2          1           0        5.135732   -1.116651    0.657977
      3          1           0        5.365470   -2.752021    0.699719
      4          6           0        3.401709   -2.221254    0.150653
      5          1           0        3.038604   -3.208056    0.437085
      6          1           0        3.663087   -2.245837   -0.908195
      7          6           0        2.380158   -1.136771    0.453665
      8          1           0        2.783477   -0.157106    0.180947
      9          1           0        2.156047   -1.116212    1.524490
     10          6           0        1.082947   -1.407082   -0.315788
     11          1           0        0.688752   -2.374481    0.000384
     12          1           0        1.300526   -1.492330   -1.391993
     13          7           0        0.058735   -0.408257   -0.022569
     14          6           0        0.385671    0.952771   -0.325421
     15          6           0        1.131570    1.294089   -1.459965
     16          1           0        1.451110    0.516740   -2.145252
     17          6           0        1.454901    2.626527   -1.716266
     18          1           0        2.030841    2.879410   -2.601678
     19          6           0        1.027462    3.627699   -0.844141
     20          1           0        1.272964    4.666210   -1.039496
     21          6           0        0.286791    3.284278    0.287404
     22          1           0       -0.040081    4.053861    0.979003
     23          6           0       -0.030171    1.953500    0.567824
     24          6           0       -0.821193    1.554964    1.779920
     25          1           0       -0.905904    2.407071    2.460982
     26          1           0       -0.298028    0.753675    2.312700
     27          6           0       -2.231028    1.083549    1.411214
     28          1           0       -2.749447    1.917874    0.921739
     29          1           0       -2.790946    0.891125    2.333718
     30          6           0       -2.359347   -0.145316    0.526355
     31          6           0       -3.659448   -0.645576    0.374572
     32          1           0       -4.462123   -0.130885    0.897507
     33          6           0       -3.954895   -1.767264   -0.392317
     34          1           0       -4.975771   -2.123182   -0.471453
     35          6           0       -2.916541   -2.419475   -1.052572
     36          1           0       -3.111455   -3.290421   -1.671055
     37          6           0       -1.616094   -1.939182   -0.932221
     38          1           0       -0.824693   -2.435238   -1.480919
     39          6           0       -1.307290   -0.815944   -0.141016
     40          1           0        4.541549   -2.005394    1.921352
 ---------------------------------------------------------------------
 Rotational constants (GHZ):           0.4357810           0.3068589           0.2155395
 Leave Link  202 at Sun Jul 18 17:24:26 2021, MaxMem=   262144000 cpu:               0.0 elap:               0.0
 (Enter /dades/curu/g16A03_MST/g16/l301.exe)
 Standard basis: Aug-CC-pVDZ (5D, 7F)
 Ernie: Thresh=  0.10000D-02 Tol=  0.10000D-05 Strict=F.
 Ernie:  38 primitive shells out of 622 were deleted.
 There are   664 symmetry adapted cartesian basis functions of A   symmetry.
 There are   626 symmetry adapted basis functions of A   symmetry.
   626 basis functions,  1048 primitive gaussians,   664 cartesian basis functions
    68 alpha electrons       68 beta electrons
       nuclear repulsion energy      1414.6816215651 Hartrees.
 IExCor=    0 DFT=F Ex=HF Corr=None ExCW=0 ScaHFX=  1.000000
 ScaDFX=  1.000000  1.000000  1.000000  1.000000 ScalE2=  1.000000  1.000000
 IRadAn=      5 IRanWt=     -1 IRanGd=            0 ICorTp=0 IEmpDi=  4
 NAtoms=   40 NActive=   40 NUniq=   40 SFac= 1.00D+00 NAtFMM=   60 NAOKFM=F Big=F
 Integral buffers will be    131072 words long.
 Raffenetti 1 integral format.
 Two-electron integral symmetry is turned on.
 Leave Link  301 at Sun Jul 18 17:24:26 2021, MaxMem=   262144000 cpu:               0.1 elap:               0.1
 (Enter /dades/curu/g16A03_MST/g16/l302.exe)
 NPDir=0 NMtPBC=     1 NCelOv=     1 NCel=       1 NClECP=     1 NCelD=      1
         NCelK=      1 NCelE2=     1 NClLst=     1 CellRange=     0.0.
 One-electron integrals computed using PRISM.
 One-electron integral symmetry used in STVInt
 NBasis=   626 RedAO= T EigKep=  1.02D-06  NBF=   626
 NBsUse=   625 1.00D-06 EigRej=  7.78D-07 NBFU=   625
 Leave Link  302 at Sun Jul 18 17:24:27 2021, MaxMem=   262144000 cpu:               2.9 elap:               1.3
 (Enter /dades/curu/g16A03_MST/g16/l303.exe)
 DipDrv:  MaxL=1.
 Leave Link  303 at Sun Jul 18 17:24:28 2021, MaxMem=   262144000 cpu:               0.2 elap:               0.1
 (Enter /dades/curu/g16A03_MST/g16/l401.exe)
 ExpMin= 2.97D-02 ExpMax= 9.05D+03 ExpMxC= 3.09D+02 IAcc=3 IRadAn=         5 AccDes= 0.00D+00
 Harris functional with IExCor=  205 and IRadAn=       5 diagonalized for initial guess.
 HarFok:  IExCor=  205 AccDes= 0.00D+00 IRadAn=         5 IDoV= 1 UseB2=F ITyADJ=14
 ICtDFT=  3500011 ScaDFX=  1.000000  1.000000  1.000000  1.000000
 FoFCou: FMM=F IPFlag=           0 FMFlag=      100000 FMFlg1=           0
         NFxFlg=           0 DoJE=T BraDBF=F KetDBF=T FulRan=T
         wScrn=  0.000000 ICntrl=       500 IOpCl=  0 I1Cent=   200000004 NGrid=           0
         NMat0=    1 NMatS0=      1 NMatT0=    0 NMatD0=    1 NMtDS0=    0 NMtDT0=    0
 Petite list used in FoFCou.
 Harris En= -765.967190283612    
 JPrj=0 DoOrth=F DoCkMO=F.
 Leave Link  401 at Sun Jul 18 17:24:49 2021, MaxMem=   262144000 cpu:              84.1 elap:              21.5
 (Enter /dades/curu/g16A03_MST/g16/l502.exe)
 Integral symmetry usage will be decided dynamically.
 Closed shell SCF:
 Using DIIS extrapolation, IDIIS=  1040.
 NGot=   262144000 LenX=   261251926 LenY=   260810366
 Requested convergence on RMS density matrix=1.00D-08 within 128 cycles.
 Requested convergence on MAX density matrix=1.00D-06.
 Requested convergence on             energy=1.00D-06.
 No special actions if energy rises.
 Fock matrices will be formed incrementally for  20 cycles.

 Cycle   1  Pass 0  IDiag  1:
 FoFJK:  IHMeth= 1 ICntrl=       0 DoSepK=F KAlg= 0 I1Cent=           0 FoldK=F
 IRaf= 940000000 NMat=       1 IRICut=       1 DoRegI=T DoRafI=F ISym2E= 0 IDoP0=0 IntGTp=1.
 FoFCou: FMM=F IPFlag=           0 FMFlag=      100000 FMFlg1=           0
         NFxFlg=           0 DoJE=F BraDBF=F KetDBF=F FulRan=T
         wScrn=  0.000000 ICntrl=         0 IOpCl=  0 I1Cent=           0 NGrid=           0
         NMat0=    1 NMatS0=      1 NMatT0=    0 NMatD0=    1 NMtDS0=    0 NMtDT0=    0
 Symmetry not used in FoFCou.
 E= -764.014348691582    
 DIIS: error= 1.42D-02 at cycle   1 NSaved=   1.
 NSaved= 1 IEnMin= 1 EnMin= -764.014348691582     IErMin= 1 ErrMin= 1.42D-02
 ErrMax= 1.42D-02  0.00D+00 EMaxC= 1.00D-01 BMatC= 8.69D-01 BMatP= 8.69D-01
 IDIUse=3 WtCom= 8.58D-01 WtEn= 1.42D-01
 Coeff-Com:  0.100D+01
 Coeff-En:   0.100D+01
 Coeff:      0.100D+01
 Gap=     0.489 Goal=   None    Shift=    0.000
 GapD=    0.489 DampG=2.000 DampE=0.500 DampFc=1.0000 IDamp=-1.
 RMSDP=9.25D-02 MaxDP=8.25D+00              OVMax= 1.66D-01

 Cycle   2  Pass 0  IDiag  1:
 RMSU=  2.90D-02    CP:  4.47D-01
 E= -764.639532994519     Delta-E=       -0.625184302938 Rises=F Damp=F
 DIIS: error= 7.94D-03 at cycle   2 NSaved=   2.
 NSaved= 2 IEnMin= 2 EnMin= -764.639532994519     IErMin= 2 ErrMin= 7.94D-03
 ErrMax= 7.94D-03  0.00D+00 EMaxC= 1.00D-01 BMatC= 1.05D-01 BMatP= 8.69D-01
 IDIUse=3 WtCom= 9.21D-01 WtEn= 7.94D-02
 Coeff-Com:  0.194D+00 0.806D+00
 Coeff-En:   0.000D+00 0.100D+01
 Coeff:      0.178D+00 0.822D+00
 Gap=     0.277 Goal=   None    Shift=    0.000
 RMSDP=6.56D-03 MaxDP=5.44D-01 DE=-6.25D-01 OVMax= 5.48D-02

 Cycle   3  Pass 0  IDiag  1:
 RMSU=  6.39D-03    CP:  4.55D-01  9.81D-01
 E= -764.737573280429     Delta-E=       -0.098040285910 Rises=F Damp=F
 DIIS: error= 1.66D-03 at cycle   3 NSaved=   3.
 NSaved= 3 IEnMin= 3 EnMin= -764.737573280429     IErMin= 3 ErrMin= 1.66D-03
 ErrMax= 1.66D-03  0.00D+00 EMaxC= 1.00D-01 BMatC= 8.56D-03 BMatP= 1.05D-01
 IDIUse=3 WtCom= 9.83D-01 WtEn= 1.66D-02
 Coeff-Com: -0.176D-01 0.173D+00 0.845D+00
 Coeff-En:   0.000D+00 0.000D+00 0.100D+01
 Coeff:     -0.173D-01 0.170D+00 0.847D+00
 Gap=     0.274 Goal=   None    Shift=    0.000
 RMSDP=2.62D-03 MaxDP=2.32D-01 DE=-9.80D-02 OVMax= 3.50D-02

 Cycle   4  Pass 0  IDiag  1:
 RMSU=  1.36D-03    CP:  4.43D-01  9.90D-01  8.29D-01
 E= -764.746240004032     Delta-E=       -0.008666723602 Rises=F Damp=F
 DIIS: error= 6.68D-04 at cycle   4 NSaved=   4.
 NSaved= 4 IEnMin= 4 EnMin= -764.746240004032     IErMin= 4 ErrMin= 6.68D-04
 ErrMax= 6.68D-04  0.00D+00 EMaxC= 1.00D-01 BMatC= 1.09D-03 BMatP= 8.56D-03
 IDIUse=3 WtCom= 9.93D-01 WtEn= 6.68D-03
 Coeff-Com: -0.148D-01 0.219D-01 0.299D+00 0.693D+00
 Coeff-En:   0.000D+00 0.000D+00 0.000D+00 0.100D+01
 Coeff:     -0.147D-01 0.218D-01 0.297D+00 0.696D+00
 Gap=     0.264 Goal=   None    Shift=    0.000
 RMSDP=5.82D-04 MaxDP=7.88D-02 DE=-8.67D-03 OVMax= 6.73D-03

 Cycle   5  Pass 0  IDiag  1:
 RMSU=  4.03D-04    CP:  4.41D-01  9.87D-01  8.29D-01  8.80D-01
 E= -764.747384400883     Delta-E=       -0.001144396852 Rises=F Damp=F
 DIIS: error= 1.71D-04 at cycle   5 NSaved=   5.
 NSaved= 5 IEnMin= 5 EnMin= -764.747384400883     IErMin= 5 ErrMin= 1.71D-04
 ErrMax= 1.71D-04  0.00D+00 EMaxC= 1.00D-01 BMatC= 5.97D-05 BMatP= 1.09D-03
 IDIUse=3 WtCom= 9.98D-01 WtEn= 1.71D-03
 Coeff-Com:  0.321D-03-0.174D-01-0.591D-01 0.664D-01 0.101D+01
 Coeff-En:   0.000D+00 0.000D+00 0.000D+00 0.000D+00 0.100D+01
 Coeff:      0.320D-03-0.173D-01-0.590D-01 0.663D-01 0.101D+01
 Gap=     0.267 Goal=   None    Shift=    0.000
 RMSDP=2.28D-04 MaxDP=1.51D-02 DE=-1.14D-03 OVMax= 5.85D-03

 Cycle   6  Pass 0  IDiag  1:
 RMSU=  1.38D-04    CP:  4.40D-01  9.88D-01  8.43D-01  9.71D-01  9.59D-01
 E= -764.747513755661     Delta-E=       -0.000129354778 Rises=F Damp=F
 DIIS: error= 6.59D-05 at cycle   6 NSaved=   6.
 NSaved= 6 IEnMin= 6 EnMin= -764.747513755661     IErMin= 6 ErrMin= 6.59D-05
 ErrMax= 6.59D-05  0.00D+00 EMaxC= 1.00D-01 BMatC= 1.16D-05 BMatP= 5.97D-05
 IDIUse=1 WtCom= 1.00D+00 WtEn= 0.00D+00
 Coeff-Com:  0.146D-02-0.697D-02-0.408D-01-0.644D-01 0.257D+00 0.854D+00
 Coeff:      0.146D-02-0.697D-02-0.408D-01-0.644D-01 0.257D+00 0.854D+00
 Gap=     0.267 Goal=   None    Shift=    0.000
 RMSDP=6.98D-05 MaxDP=4.90D-03 DE=-1.29D-04 OVMax= 1.46D-03

 Cycle   7  Pass 0  IDiag  1:
 RMSU=  5.27D-05    CP:  4.40D-01  9.88D-01  8.42D-01  9.70D-01  1.03D+00
                    CP:  9.85D-01
 E= -764.747533230706     Delta-E=       -0.000019475045 Rises=F Damp=F
 DIIS: error= 2.69D-05 at cycle   7 NSaved=   7.
 NSaved= 7 IEnMin= 7 EnMin= -764.747533230706     IErMin= 7 ErrMin= 2.69D-05
 ErrMax= 2.69D-05  0.00D+00 EMaxC= 1.00D-01 BMatC= 1.31D-06 BMatP= 1.16D-05
 IDIUse=1 WtCom= 1.00D+00 WtEn= 0.00D+00
 Coeff-Com:  0.256D-03 0.651D-03 0.201D-03-0.287D-01-0.692D-01 0.156D+00
 Coeff-Com:  0.941D+00
 Coeff:      0.256D-03 0.651D-03 0.201D-03-0.287D-01-0.692D-01 0.156D+00
 Coeff:      0.941D+00
 Gap=     0.267 Goal=   None    Shift=    0.000
 RMSDP=2.21D-05 MaxDP=1.24D-03 DE=-1.95D-05 OVMax= 1.01D-03

 Cycle   8  Pass 0  IDiag  1:
 RMSU=  1.69D-05    CP:  4.40D-01  9.88D-01  8.42D-01  9.72D-01  1.05D+00
                    CP:  1.06D+00  1.05D+00
 E= -764.747536584208     Delta-E=       -0.000003353502 Rises=F Damp=F
 DIIS: error= 1.44D-05 at cycle   8 NSaved=   8.
 NSaved= 8 IEnMin= 8 EnMin= -764.747536584208     IErMin= 8 ErrMin= 1.44D-05
 ErrMax= 1.44D-05  0.00D+00 EMaxC= 1.00D-01 BMatC= 2.06D-07 BMatP= 1.31D-06
 IDIUse=1 WtCom= 1.00D+00 WtEn= 0.00D+00
 Coeff-Com: -0.212D-03 0.907D-03 0.628D-02 0.862D-02-0.223D-01-0.142D+00
 Coeff-Com: -0.727D-01 0.122D+01
 Coeff:     -0.212D-03 0.907D-03 0.628D-02 0.862D-02-0.223D-01-0.142D+00
 Coeff:     -0.727D-01 0.122D+01
 Gap=     0.268 Goal=   None    Shift=    0.000
 RMSDP=1.41D-05 MaxDP=8.14D-04 DE=-3.35D-06 OVMax= 5.59D-04

 Cycle   9  Pass 0  IDiag  1:
 RMSU=  8.67D-06    CP:  4.40D-01  9.88D-01  8.43D-01  9.69D-01  1.05D+00
                    CP:  1.06D+00  1.18D+00  1.39D+00
 E= -764.747537389951     Delta-E=       -0.000000805743 Rises=F Damp=F
 DIIS: error= 5.02D-06 at cycle   9 NSaved=   9.
 NSaved= 9 IEnMin= 9 EnMin= -764.747537389951     IErMin= 9 ErrMin= 5.02D-06
 ErrMax= 5.02D-06  0.00D+00 EMaxC= 1.00D-01 BMatC= 4.16D-08 BMatP= 2.06D-07
 IDIUse=1 WtCom= 1.00D+00 WtEn= 0.00D+00
 Coeff-Com: -0.901D-04 0.136D-03 0.165D-02 0.585D-02 0.617D-02-0.571D-01
 Coeff-Com: -0.164D+00 0.286D+00 0.921D+00
 Coeff:     -0.901D-04 0.136D-03 0.165D-02 0.585D-02 0.617D-02-0.571D-01
 Coeff:     -0.164D+00 0.286D+00 0.921D+00
 Gap=     0.268 Goal=   None    Shift=    0.000
 RMSDP=5.10D-06 MaxDP=2.62D-04 DE=-8.06D-07 OVMax= 2.16D-04

 Initial convergence to 1.0D-05 achieved.  Increase integral accuracy.
 Cycle  10  Pass 1  IDiag  1:
 E= -764.747537549575     Delta-E=       -0.000000159625 Rises=F Damp=F
 DIIS: error= 3.57D-06 at cycle   1 NSaved=   1.
 NSaved= 1 IEnMin= 1 EnMin= -764.747537549575     IErMin= 1 ErrMin= 3.57D-06
 ErrMax= 3.57D-06  0.00D+00 EMaxC= 1.00D-01 BMatC= 8.75D-09 BMatP= 8.75D-09
 IDIUse=1 WtCom= 1.00D+00 WtEn= 0.00D+00
 Coeff-Com:  0.100D+01
 Coeff:      0.100D+01
 Gap=     0.268 Goal=   None    Shift=    0.000
 RMSDP=5.10D-06 MaxDP=2.62D-04 DE=-1.60D-07 OVMax= 7.37D-05

 Cycle  11  Pass 1  IDiag  1:
 RMSU=  2.14D-06    CP:  1.00D+00
 E= -764.747537583207     Delta-E=       -0.000000033632 Rises=F Damp=F
 DIIS: error= 1.66D-06 at cycle   2 NSaved=   2.
 NSaved= 2 IEnMin= 2 EnMin= -764.747537583207     IErMin= 2 ErrMin= 1.66D-06
 ErrMax= 1.66D-06  0.00D+00 EMaxC= 1.00D-01 BMatC= 3.75D-09 BMatP= 8.75D-09
 IDIUse=1 WtCom= 1.00D+00 WtEn= 0.00D+00
 Coeff-Com: -0.124D-01 0.101D+01
 Coeff:     -0.124D-01 0.101D+01
 Gap=     0.268 Goal=   None    Shift=    0.000
 RMSDP=1.31D-06 MaxDP=9.02D-05 DE=-3.36D-08 OVMax= 4.98D-05

 Cycle  12  Pass 1  IDiag  1:
 RMSU=  9.21D-07    CP:  1.00D+00  1.43D+00
 E= -764.747537597694     Delta-E=       -0.000000014486 Rises=F Damp=F
 DIIS: error= 1.70D-06 at cycle   3 NSaved=   3.
 NSaved= 3 IEnMin= 3 EnMin= -764.747537597694     IErMin= 2 ErrMin= 1.66D-06
 ErrMax= 1.70D-06  0.00D+00 EMaxC= 1.00D-01 BMatC= 1.76D-09 BMatP= 3.75D-09
 IDIUse=1 WtCom= 1.00D+00 WtEn= 0.00D+00
 Coeff-Com: -0.730D+00 0.176D+00 0.155D+01
 Coeff:     -0.730D+00 0.176D+00 0.155D+01
 Gap=     0.268 Goal=   None    Shift=    0.000
 RMSDP=2.23D-06 MaxDP=8.22D-05 DE=-1.45D-08 OVMax= 7.65D-05

 Cycle  13  Pass 1  IDiag  1:
 RMSU=  5.47D-07    CP:  1.00D+00  2.41D+00  1.59D+00
 E= -764.747537608845     Delta-E=       -0.000000011152 Rises=F Damp=F
 DIIS: error= 1.98D-07 at cycle   4 NSaved=   4.
 NSaved= 4 IEnMin= 4 EnMin= -764.747537608845     IErMin= 4 ErrMin= 1.98D-07
 ErrMax= 1.98D-07  0.00D+00 EMaxC= 1.00D-01 BMatC= 5.69D-11 BMatP= 1.76D-09
 IDIUse=1 WtCom= 1.00D+00 WtEn= 0.00D+00
 Coeff-Com: -0.124D+00-0.174D-01 0.267D+00 0.875D+00
 Coeff:     -0.124D+00-0.174D-01 0.267D+00 0.875D+00
 Gap=     0.268 Goal=   None    Shift=    0.000
 RMSDP=2.17D-07 MaxDP=1.10D-05 DE=-1.12D-08 OVMax= 7.18D-06

 Cycle  14  Pass 1  IDiag  1:
 RMSU=  1.53D-07    CP:  1.00D+00  2.46D+00  1.65D+00  1.14D+00
 E= -764.747537609011     Delta-E=       -0.000000000166 Rises=F Damp=F
 DIIS: error= 8.47D-08 at cycle   5 NSaved=   5.
 NSaved= 5 IEnMin= 5 EnMin= -764.747537609011     IErMin= 5 ErrMin= 8.47D-08
 ErrMax= 8.47D-08  0.00D+00 EMaxC= 1.00D-01 BMatC= 1.26D-11 BMatP= 5.69D-11
 IDIUse=1 WtCom= 1.00D+00 WtEn= 0.00D+00
 Coeff-Com:  0.162D+00-0.474D-01-0.342D+00 0.143D+00 0.109D+01
 Coeff:      0.162D+00-0.474D-01-0.342D+00 0.143D+00 0.109D+01
 Gap=     0.268 Goal=   None    Shift=    0.000
 RMSDP=1.28D-07 MaxDP=9.87D-06 DE=-1.66D-10 OVMax= 2.97D-06

 Cycle  15  Pass 1  IDiag  1:
 RMSU=  5.37D-08    CP:  1.00D+00  2.48D+00  1.68D+00  1.32D+00  1.03D+00
 E= -764.747537609008     Delta-E=        0.000000000004 Rises=F Damp=F
 DIIS: error= 2.01D-08 at cycle   6 NSaved=   6.
 NSaved= 6 IEnMin= 5 EnMin= -764.747537609011     IErMin= 6 ErrMin= 2.01D-08
 ErrMax= 2.01D-08  0.00D+00 EMaxC= 1.00D-01 BMatC= 8.79D-13 BMatP= 1.26D-11
 IDIUse=1 WtCom= 1.00D+00 WtEn= 0.00D+00
 Coeff-Com:  0.426D-01-0.864D-02-0.911D-01-0.354D-01 0.231D+00 0.862D+00
 Coeff:      0.426D-01-0.864D-02-0.911D-01-0.354D-01 0.231D+00 0.862D+00
 Gap=     0.268 Goal=   None    Shift=    0.000
 RMSDP=2.06D-08 MaxDP=2.02D-06 DE= 3.64D-12 OVMax= 7.85D-07

 Cycle  16  Pass 1  IDiag  1:
 RMSU=  1.52D-08    CP:  1.00D+00  2.49D+00  1.68D+00  1.34D+00  1.09D+00
                    CP:  1.01D+00
 E= -764.747537608947     Delta-E=        0.000000000061 Rises=F Damp=F
 DIIS: error= 1.01D-08 at cycle   7 NSaved=   7.
 NSaved= 7 IEnMin= 5 EnMin= -764.747537609011     IErMin= 7 ErrMin= 1.01D-08
 ErrMax= 1.01D-08  0.00D+00 EMaxC= 1.00D-01 BMatC= 1.86D-13 BMatP= 8.79D-13
 IDIUse=1 WtCom= 1.00D+00 WtEn= 0.00D+00
 Coeff-Com: -0.139D-01 0.526D-02 0.290D-01-0.322D-01-0.110D+00 0.217D+00
 Coeff-Com:  0.906D+00
 Coeff:     -0.139D-01 0.526D-02 0.290D-01-0.322D-01-0.110D+00 0.217D+00
 Coeff:      0.906D+00
 Gap=     0.268 Goal=   None    Shift=    0.000
 RMSDP=7.76D-09 MaxDP=6.62D-07 DE= 6.09D-11 OVMax= 2.37D-07

 SCF Done:  E(RHF) =  -764.747537609     A.U. after   16 cycles
            NFock= 16  Conv=0.78D-08     -V/T= 2.0010
 KE= 7.639820067706D+02 PE=-4.595022826283D+03 EE= 1.651611660338D+03
 Leave Link  502 at Sun Jul 18 18:09:29 2021, MaxMem=   262144000 cpu:           10665.2 elap:            2679.8
 (Enter /dades/curu/g16A03_MST/g16/l801.exe)
 ExpMin= 2.97D-02 ExpMax= 9.05D+03 ExpMxC= 3.09D+02 IAcc=3 IRadAn=         5 AccDes= 0.00D+00
 HarFok:  IExCor=  205 AccDes= 0.00D+00 IRadAn=         5 IDoV=-2 UseB2=F ITyADJ=14
 ICtDFT= 12500011 ScaDFX=  1.000000  1.000000  1.000000  1.000000
 Largest valence mixing into a core orbital is  1.12D-04
 Largest core mixing into a valence orbital is  4.01D-05
 Range of M.O.s used for correlation:    20   625
 NBasis=   626 NAE=    68 NBE=    68 NFC=    19 NFV=     0
 NROrb=    606 NOA=    49 NOB=    49 NVA=   557 NVB=   557

 **** Warning!!: The largest alpha MO coefficient is  0.10614674D+03

 Leave Link  801 at Sun Jul 18 18:09:29 2021, MaxMem=   262144000 cpu:               2.1 elap:               0.6
 (Enter /dades/curu/g16A03_MST/g16/l906.exe)
 FulOut=F Deriv=F AODrv=F NAtomX=    40
   MMem=           3  MDisk=          49 MDiskD=          49
  W3Min=    18122552 MinDsk=    19000149 NBas6D=         664
 NBas2D=      221647    NTT=      220780    LW2=     2000000
    MDV=   259406350 MDiskM=        5384 NBas2p=      204651
 Disk-based method using OVN memory for 49 occupieds at a time.
 Estimated scratch disk usage= 17014749855 words.
 IMap=   1   2   3   4   5   6   7   8   9  10  11  12  13  14  15  16  17  18  19  20
 IMap=  21  22  23  24  25  26  27  28  29  30  31  32  33  34  35  36  37  38  39  40
 IMap=  41  42  43  44  45  46  47  48  49
 Actual    scratch disk usage= 16800438431 words.
 JobTyp=1 Pass  1:  I=   1 to  49 NPSUse=  4 ParTrn=T ParDer=T DoDerP=F.
Erroneous write. Write -1 instead of 6276888.
fd = 4
orig len = 8384512 left = 6276888
g_write
