 Entering Gaussian System, Link 0=g16
 Input=SET_328_BBB301_conf1.geo_090_105_255_OCTANOL.dat
 Output=SET_328_BBB301_conf1.geo_090_105_255_OCTANOL.log
 Initial command:
 /dades/curu/g16A03_MST/g16/l1.exe "/tmp/ubator02/1839645/Gau-5519.inp" -scrdir="/tmp/ubator02/1839645/"
 Entering Link 1 = /dades/curu/g16A03_MST/g16/l1.exe PID=      5520.
  
 Copyright (c) 1988,1990,1992,1993,1995,1998,2003,2009,2016,
            Gaussian, Inc.  All Rights Reserved.
  
 This is part of the Gaussian(R) 16 program.  It is based on
 the Gaussian(R) 09 system (copyright 2009, Gaussian, Inc.),
 the Gaussian(R) 03 system (copyright 2003, Gaussian, Inc.),
 the Gaussian(R) 98 system (copyright 1998, Gaussian, Inc.),
 the Gaussian(R) 94 system (copyright 1995, Gaussian, Inc.),
 the Gaussian 92(TM) system (copyright 1992, Gaussian, Inc.),
 the Gaussian 90(TM) system (copyright 1990, Gaussian, Inc.),
 the Gaussian 88(TM) system (copyright 1988, Gaussian, Inc.),
 the Gaussian 86(TM) system (copyright 1986, Carnegie Mellon
 University), and the Gaussian 82(TM) system (copyright 1983,
 Carnegie Mellon University). Gaussian is a federally registered
 trademark of Gaussian, Inc.
  
 This software contains proprietary and confidential information,
 including trade secrets, belonging to Gaussian, Inc.
  
 This software is provided under written license and may be
 used, copied, transmitted, or stored only in accord with that
 written license.
  
 The following legend is applicable only to US Government
 contracts under FAR:
  
                    RESTRICTED RIGHTS LEGEND
  
 Use, reproduction and disclosure by the US Government is
 subject to restrictions as set forth in subparagraphs (a)
 and (c) of the Commercial Computer Software - Restricted
 Rights clause in FAR 52.227-19.
  
 Gaussian, Inc.
 340 Quinnipiac St., Bldg. 40, Wallingford CT 06492
  
  
 ---------------------------------------------------------------
 Warning -- This program may not be used in any manner that
 competes with the business of Gaussian, Inc. or will provide
 assistance to any competitor of Gaussian, Inc.  The licensee
 of this program is prohibited from giving any competitor of
 Gaussian, Inc. access to this program.  By using this program,
 the user acknowledges that Gaussian, Inc. is engaged in the
 business of creating and licensing software in the field of
 computational chemistry and represents and warrants to the
 licensee that it is not a competitor of Gaussian, Inc. and that
 it will not use this program in any manner prohibited above.
 ---------------------------------------------------------------
  

 Cite this work as:
 Gaussian 16, Revision A.03,
 M. J. Frisch, G. W. Trucks, H. B. Schlegel, G. E. Scuseria, 
 M. A. Robb, J. R. Cheeseman, G. Scalmani, V. Barone, 
 G. A. Petersson, H. Nakatsuji, X. Li, M. Caricato, A. V. Marenich, 
 J. Bloino, B. G. Janesko, R. Gomperts, B. Mennucci, H. P. Hratchian, 
 J. V. Ortiz, A. F. Izmaylov, J. L. Sonnenberg, D. Williams-Young, 
 F. Ding, F. Lipparini, F. Egidi, J. Goings, B. Peng, A. Petrone, 
 T. Henderson, D. Ranasinghe, V. G. Zakrzewski, J. Gao, N. Rega, 
 G. Zheng, W. Liang, M. Hada, M. Ehara, K. Toyota, R. Fukuda, 
 J. Hasegawa, M. Ishida, T. Nakajima, Y. Honda, O. Kitao, H. Nakai, 
 T. Vreven, K. Throssell, J. A. Montgomery, Jr., J. E. Peralta, 
 F. Ogliaro, M. J. Bearpark, J. J. Heyd, E. N. Brothers, K. N. Kudin, 
 V. N. Staroverov, T. A. Keith, R. Kobayashi, J. Normand, 
 K. Raghavachari, A. P. Rendell, J. C. Burant, S. S. Iyengar, 
 J. Tomasi, M. Cossi, J. M. Millam, M. Klene, C. Adamo, R. Cammi, 
 J. W. Ochterski, R. L. Martin, K. Morokuma, O. Farkas, 
 J. B. Foresman, and D. J. Fox, Gaussian, Inc., Wallingford CT, 2016.
 
 ******************************************
 Gaussian 16:  ES64L-G16RevA.03 25-Dec-2016
                18-Jul-2021 
 ******************************************
 %mem=800MB
 %nproc=4
 Will use up to    4 processors via shared memory.
 %chk=SET_328_BBB301_conf1.geo_090_105_255.chk
 ---------------------------------------------------------------
 #p b3lyp/6-31G(d) opt freq scrf=(iefpcm,read,solvent=n-octanol)
 ---------------------------------------------------------------
 1/18=20,19=15,26=3,38=1,40=2/1,3;
 2/9=110,12=2,17=6,18=5,40=1/2;
 3/5=1,6=6,7=1,11=2,25=1,30=1,70=2203,71=1,72=25,74=-5/1,2,3;
 4//1;
 5/5=2,38=5,53=25/2;
 6/7=2,8=2,9=2,10=2,28=1/1;
 7//1,2,3,16;
 1/18=20,19=15,26=3/3(2);
 2/9=110/2;
 99//99;
 2/9=110/2;
 3/5=1,6=6,7=1,11=2,25=1,30=1,70=2205,71=1,72=25,74=-5/1,2,3;
 4/5=5,16=3,69=1/1;
 5/5=2,38=5,53=25/2;
 7//1,2,3,16;
 1/18=20,19=15,26=3/3(-5);
 2/9=110/2;
 6/7=2,8=2,9=2,10=2,19=2,28=1/1;
 99/9=1/99;
 Leave Link    1 at Sun Jul 18 14:43:04 2021, MaxMem=   104857600 cpu:               0.1 elap:               0.0
 (Enter /dades/curu/g16A03_MST/g16/l101.exe)
 ---------------------------------------------
 SET_328_BBB301_conf1.geo_090_105_255 geometry
 ---------------------------------------------
 Symbolic Z-matrix:
 Charge =  1 Multiplicity = 1
 C                    -0.234     4.042     0.94 
 H                     0.718     3.978     1.471 
 H                    -0.94      3.648     1.673 
 H                    -0.484     5.08      0.709 
 C                    -0.295     3.259    -0.367 
 C                    -1.802     3.075    -0.693 
 H                    -2.395     3.965    -0.473 
 H                    -2.209     2.443     0.099 
 H                    -2.156     2.766    -1.679 
 C                     0.371     4.116    -1.384 
 H                    -0.059     5.116    -1.288 
 H                     0.12      3.768    -2.388 
 H                     1.462     4.101    -1.33 
 N                     0.379     1.983    -0.139 
 H                     0.318     1.765     0.835 
 C                    -0.176     0.818    -0.921 
 H                    -0.471     1.072    -1.942 
 H                    -1.1       0.439    -0.476 
 C                     0.796    -0.389    -1.089 
 O                     2.013     0.245    -1.07 
 H                     1.625     1.113    -0.858 
 H                     0.692    -0.788    -2.101 
 C                     0.676    -1.487    -0.019 
 C                    -0.028    -2.644    -0.443 
 H                    -0.405    -2.817    -1.448 
 C                    -0.116    -3.703     0.419 
 C                    -0.617    -5.043    -0.036 
 O                     0.335    -5.538    -0.874 
 H                     0.345    -4.968    -1.663 
 H                    -1.593    -4.943    -0.519 
 H                    -0.76     -5.691     0.832 
 C                     0.417    -3.559     1.727 
 O                     0.298    -4.592     2.678 
 H                     0.269    -4.16      3.55 
 C                     0.986    -2.411     2.154 
 H                     1.383    -2.324     3.162 
 C                     1.127    -1.321     1.293 
 H                     1.676    -0.457     1.658 
 H                     1.344     2.09     -0.378 
 
 ITRead=  0  0  0  0  0  0  0  0  0  0  0  0  0  0  0  0  0  0  0  0
 ITRead=  0  0  0  0  0  0  0  0  0  0  0  0  0  0  0  0  0  0  0
 MicOpt= -1 -1 -1 -1 -1 -1 -1 -1 -1 -1 -1 -1 -1 -1 -1 -1 -1 -1 -1 -1
 MicOpt= -1 -1 -1 -1 -1 -1 -1 -1 -1 -1 -1 -1 -1 -1 -1 -1 -1 -1 -1
 NAtoms=     39 NQM=       39 NQMF=       0 NMMI=      0 NMMIF=      0
                NMic=       0 NMicF=      0.
                    Isotopes and Nuclear Properties:
 (Nuclear quadrupole moments (NQMom) in fm**2, nuclear magnetic moments (NMagM)
  in nuclear magnetons)

  Atom         1           2           3           4           5           6           7           8           9          10
 IAtWgt=          12           1           1           1          12          12           1           1           1          12
 AtmWgt=  12.0000000   1.0078250   1.0078250   1.0078250  12.0000000  12.0000000   1.0078250   1.0078250   1.0078250  12.0000000
 NucSpn=           0           1           1           1           0           0           1           1           1           0
 AtZEff=  -0.0000000  -0.0000000  -0.0000000  -0.0000000  -0.0000000  -0.0000000  -0.0000000  -0.0000000  -0.0000000  -0.0000000
 NQMom=    0.0000000   0.0000000   0.0000000   0.0000000   0.0000000   0.0000000   0.0000000   0.0000000   0.0000000   0.0000000
 NMagM=    0.0000000   2.7928460   2.7928460   2.7928460   0.0000000   0.0000000   2.7928460   2.7928460   2.7928460   0.0000000
 AtZNuc=   6.0000000   1.0000000   1.0000000   1.0000000   6.0000000   6.0000000   1.0000000   1.0000000   1.0000000   6.0000000

  Atom        11          12          13          14          15          16          17          18          19          20
 IAtWgt=           1           1           1          14           1          12           1           1          12          16
 AtmWgt=   1.0078250   1.0078250   1.0078250  14.0030740   1.0078250  12.0000000   1.0078250   1.0078250  12.0000000  15.9949146
 NucSpn=           1           1           1           2           1           0           1           1           0           0
 AtZEff=  -0.0000000  -0.0000000  -0.0000000  -0.0000000  -0.0000000  -0.0000000  -0.0000000  -0.0000000  -0.0000000  -0.0000000
 NQMom=    0.0000000   0.0000000   0.0000000   2.0440000   0.0000000   0.0000000   0.0000000   0.0000000   0.0000000   0.0000000
 NMagM=    2.7928460   2.7928460   2.7928460   0.4037610   2.7928460   0.0000000   2.7928460   2.7928460   0.0000000   0.0000000
 AtZNuc=   1.0000000   1.0000000   1.0000000   7.0000000   1.0000000   6.0000000   1.0000000   1.0000000   6.0000000   8.0000000

  Atom        21          22          23          24          25          26          27          28          29          30
 IAtWgt=           1           1          12          12           1          12          12          16           1           1
 AtmWgt=   1.0078250   1.0078250  12.0000000  12.0000000   1.0078250  12.0000000  12.0000000  15.9949146   1.0078250   1.0078250
 NucSpn=           1           1           0           0           1           0           0           0           1           1
 AtZEff=  -0.0000000  -0.0000000  -0.0000000  -0.0000000  -0.0000000  -0.0000000  -0.0000000  -0.0000000  -0.0000000  -0.0000000
 NQMom=    0.0000000   0.0000000   0.0000000   0.0000000   0.0000000   0.0000000   0.0000000   0.0000000   0.0000000   0.0000000
 NMagM=    2.7928460   2.7928460   0.0000000   0.0000000   2.7928460   0.0000000   0.0000000   0.0000000   2.7928460   2.7928460
 AtZNuc=   1.0000000   1.0000000   6.0000000   6.0000000   1.0000000   6.0000000   6.0000000   8.0000000   1.0000000   1.0000000

  Atom        31          32          33          34          35          36          37          38          39
 IAtWgt=           1          12          16           1          12           1          12           1           1
 AtmWgt=   1.0078250  12.0000000  15.9949146   1.0078250  12.0000000   1.0078250  12.0000000   1.0078250   1.0078250
 NucSpn=           1           0           0           1           0           1           0           1           1
 AtZEff=  -0.0000000  -0.0000000  -0.0000000  -0.0000000  -0.0000000  -0.0000000  -0.0000000  -0.0000000  -0.0000000
 NQMom=    0.0000000   0.0000000   0.0000000   0.0000000   0.0000000   0.0000000   0.0000000   0.0000000   0.0000000
 NMagM=    2.7928460   0.0000000   0.0000000   2.7928460   0.0000000   2.7928460   0.0000000   2.7928460   2.7928460
 AtZNuc=   1.0000000   6.0000000   8.0000000   1.0000000   6.0000000   1.0000000   6.0000000   1.0000000   1.0000000
 Leave Link  101 at Sun Jul 18 14:43:04 2021, MaxMem=   104857600 cpu:               0.1 elap:               0.1
 (Enter /dades/curu/g16A03_MST/g16/l103.exe)

 GradGradGradGradGradGradGradGradGradGradGradGradGradGradGradGradGradGrad
 Berny optimization.
 Initialization pass.
                           ----------------------------
                           !    Initial Parameters    !
                           ! (Angstroms and Degrees)  !
 --------------------------                            --------------------------
 ! Name  Definition              Value          Derivative Info.                !
 --------------------------------------------------------------------------------
 ! R1    R(1,2)                  1.092          estimate D2E/DX2                !
 ! R2    R(1,3)                  1.0913         estimate D2E/DX2                !
 ! R3    R(1,4)                  1.0924         estimate D2E/DX2                !
 ! R4    R(1,5)                  1.5248         estimate D2E/DX2                !
 ! R5    R(5,6)                  1.5528         estimate D2E/DX2                !
 ! R6    R(5,10)                 1.4874         estimate D2E/DX2                !
 ! R7    R(5,14)                 1.461          estimate D2E/DX2                !
 ! R8    R(6,7)                  1.0919         estimate D2E/DX2                !
 ! R9    R(6,8)                  1.0919         estimate D2E/DX2                !
 ! R10   R(6,9)                  1.0922         estimate D2E/DX2                !
 ! R11   R(10,11)                1.0928         estimate D2E/DX2                !
 ! R12   R(10,12)                1.0918         estimate D2E/DX2                !
 ! R13   R(10,13)                1.0924         estimate D2E/DX2                !
 ! R14   R(14,15)                1.0            estimate D2E/DX2                !
 ! R15   R(14,16)                1.5089         estimate D2E/DX2                !
 ! R16   R(14,39)                0.9999         estimate D2E/DX2                !
 ! R17   R(16,17)                1.0927         estimate D2E/DX2                !
 ! R18   R(16,18)                1.0934         estimate D2E/DX2                !
 ! R19   R(16,19)                1.5588         estimate D2E/DX2                !
 ! R20   R(19,20)                1.3724         estimate D2E/DX2                !
 ! R21   R(19,22)                1.0928         estimate D2E/DX2                !
 ! R22   R(19,23)                1.5378         estimate D2E/DX2                !
 ! R23   R(20,21)                0.9741         estimate D2E/DX2                !
 ! R24   R(23,24)                1.4192         estimate D2E/DX2                !
 ! R25   R(23,37)                1.3972         estimate D2E/DX2                !
 ! R26   R(24,25)                1.0872         estimate D2E/DX2                !
 ! R27   R(24,26)                1.3683         estimate D2E/DX2                !
 ! R28   R(26,27)                1.5012         estimate D2E/DX2                !
 ! R29   R(26,32)                1.4197         estimate D2E/DX2                !
 ! R30   R(27,28)                1.3615         estimate D2E/DX2                !
 ! R31   R(27,30)                1.0936         estimate D2E/DX2                !
 ! R32   R(27,31)                1.0926         estimate D2E/DX2                !
 ! R33   R(28,29)                0.9734         estimate D2E/DX2                !
 ! R34   R(32,33)                1.4091         estimate D2E/DX2                !
 ! R35   R(32,35)                1.3506         estimate D2E/DX2                !
 ! R36   R(33,34)                0.9736         estimate D2E/DX2                !
 ! R37   R(35,36)                1.0868         estimate D2E/DX2                !
 ! R38   R(35,37)                1.3962         estimate D2E/DX2                !
 ! R39   R(37,38)                1.0868         estimate D2E/DX2                !
 ! A1    A(2,1,3)              102.4877         estimate D2E/DX2                !
 ! A2    A(2,1,4)              110.9804         estimate D2E/DX2                !
 ! A3    A(2,1,5)              114.9357         estimate D2E/DX2                !
 ! A4    A(3,1,4)              109.6966         estimate D2E/DX2                !
 ! A5    A(3,1,5)              111.3738         estimate D2E/DX2                !
 ! A6    A(4,1,5)              107.3092         estimate D2E/DX2                !
 ! A7    A(1,5,6)              106.2379         estimate D2E/DX2                !
 ! A8    A(1,5,10)             105.801          estimate D2E/DX2                !
 ! A9    A(1,5,14)             107.2336         estimate D2E/DX2                !
 ! A10   A(6,5,10)             111.0564         estimate D2E/DX2                !
 ! A11   A(6,5,14)             112.1481         estimate D2E/DX2                !
 ! A12   A(10,5,14)            113.7889         estimate D2E/DX2                !
 ! A13   A(5,6,7)              112.8427         estimate D2E/DX2                !
 ! A14   A(5,6,8)              106.1436         estimate D2E/DX2                !
 ! A15   A(5,6,9)              122.5198         estimate D2E/DX2                !
 ! A16   A(7,6,8)               97.077          estimate D2E/DX2                !
 ! A17   A(7,6,9)              103.6783         estimate D2E/DX2                !
 ! A18   A(8,6,9)              111.7291         estimate D2E/DX2                !
 ! A19   A(5,10,11)            106.9183         estimate D2E/DX2                !
 ! A20   A(5,10,12)            110.0087         estimate D2E/DX2                !
 ! A21   A(5,10,13)            113.9205         estimate D2E/DX2                !
 ! A22   A(11,10,12)           106.3793         estimate D2E/DX2                !
 ! A23   A(11,10,13)           113.6535         estimate D2E/DX2                !
 ! A24   A(12,10,13)           105.7036         estimate D2E/DX2                !
 ! A25   A(5,14,15)            108.3169         estimate D2E/DX2                !
 ! A26   A(5,14,16)            115.0726         estimate D2E/DX2                !
 ! A27   A(5,14,39)            108.3289         estimate D2E/DX2                !
 ! A28   A(15,14,16)           108.3032         estimate D2E/DX2                !
 ! A29   A(15,14,39)           108.3621         estimate D2E/DX2                !
 ! A30   A(16,14,39)           108.2839         estimate D2E/DX2                !
 ! A31   A(14,16,17)           113.8336         estimate D2E/DX2                !
 ! A32   A(14,16,18)           111.5643         estimate D2E/DX2                !
 ! A33   A(14,16,19)           115.1087         estimate D2E/DX2                !
 ! A34   A(17,16,18)           103.4571         estimate D2E/DX2                !
 ! A35   A(17,16,19)           104.3374         estimate D2E/DX2                !
 ! A36   A(18,16,19)           107.6034         estimate D2E/DX2                !
 ! A37   A(16,19,20)           101.1721         estimate D2E/DX2                !
 ! A38   A(16,19,22)           108.8557         estimate D2E/DX2                !
 ! A39   A(16,19,23)           115.4175         estimate D2E/DX2                !
 ! A40   A(20,19,22)           105.4201         estimate D2E/DX2                !
 ! A41   A(20,19,23)           112.9179         estimate D2E/DX2                !
 ! A42   A(22,19,23)           112.1005         estimate D2E/DX2                !
 ! A43   A(19,20,21)            93.5228         estimate D2E/DX2                !
 ! A44   A(19,23,24)           114.3889         estimate D2E/DX2                !
 ! A45   A(19,23,37)           122.9102         estimate D2E/DX2                !
 ! A46   A(24,23,37)           122.5146         estimate D2E/DX2                !
 ! A47   A(23,24,25)           125.3032         estimate D2E/DX2                !
 ! A48   A(23,24,26)           118.3373         estimate D2E/DX2                !
 ! A49   A(25,24,26)           115.9046         estimate D2E/DX2                !
 ! A50   A(24,26,27)           121.4236         estimate D2E/DX2                !
 ! A51   A(24,26,32)           118.5383         estimate D2E/DX2                !
 ! A52   A(27,26,32)           119.6735         estimate D2E/DX2                !
 ! A53   A(26,27,28)           106.1249         estimate D2E/DX2                !
 ! A54   A(26,27,30)           110.4933         estimate D2E/DX2                !
 ! A55   A(26,27,31)           109.4076         estimate D2E/DX2                !
 ! A56   A(28,27,30)           112.6728         estimate D2E/DX2                !
 ! A57   A(28,27,31)           111.3997         estimate D2E/DX2                !
 ! A58   A(30,27,31)           106.7567         estimate D2E/DX2                !
 ! A59   A(27,28,29)           107.0491         estimate D2E/DX2                !
 ! A60   A(26,32,33)           121.0447         estimate D2E/DX2                !
 ! A61   A(26,32,35)           122.3889         estimate D2E/DX2                !
 ! A62   A(33,32,35)           116.4447         estimate D2E/DX2                !
 ! A63   A(32,33,34)           106.3619         estimate D2E/DX2                !
 ! A64   A(32,35,36)           121.0085         estimate D2E/DX2                !
 ! A65   A(32,35,37)           120.7431         estimate D2E/DX2                !
 ! A66   A(36,35,37)           118.2008         estimate D2E/DX2                !
 ! A67   A(23,37,35)           116.9821         estimate D2E/DX2                !
 ! A68   A(23,37,38)           124.95           estimate D2E/DX2                !
 ! A69   A(35,37,38)           117.6818         estimate D2E/DX2                !
 ! D1    D(2,1,5,6)            161.0402         estimate D2E/DX2                !
 ! D2    D(2,1,5,10)           -80.8392         estimate D2E/DX2                !
 ! D3    D(2,1,5,14)            40.9432         estimate D2E/DX2                !
 ! D4    D(3,1,5,6)             45.0616         estimate D2E/DX2                !
 ! D5    D(3,1,5,10)           163.1823         estimate D2E/DX2                !
 ! D6    D(3,1,5,14)           -75.0353         estimate D2E/DX2                !
 ! D7    D(4,1,5,6)            -75.0089         estimate D2E/DX2                !
 ! D8    D(4,1,5,10)            43.1117         estimate D2E/DX2                !
 ! D9    D(4,1,5,14)           164.8941         estimate D2E/DX2                !
 ! D10   D(1,5,6,7)             39.9697         estimate D2E/DX2                !
 ! D11   D(1,5,6,8)            -65.1662         estimate D2E/DX2                !
 ! D12   D(1,5,6,9)            164.9203         estimate D2E/DX2                !
 ! D13   D(10,5,6,7)           -74.6145         estimate D2E/DX2                !
 ! D14   D(10,5,6,8)          -179.7504         estimate D2E/DX2                !
 ! D15   D(10,5,6,9)            50.3361         estimate D2E/DX2                !
 ! D16   D(14,5,6,7)           156.8229         estimate D2E/DX2                !
 ! D17   D(14,5,6,8)            51.6871         estimate D2E/DX2                !
 ! D18   D(14,5,6,9)           -78.2264         estimate D2E/DX2                !
 ! D19   D(1,5,10,11)          -48.6054         estimate D2E/DX2                !
 ! D20   D(1,5,10,12)         -163.7212         estimate D2E/DX2                !
 ! D21   D(1,5,10,13)           77.8131         estimate D2E/DX2                !
 ! D22   D(6,5,10,11)           66.2513         estimate D2E/DX2                !
 ! D23   D(6,5,10,12)          -48.8644         estimate D2E/DX2                !
 ! D24   D(6,5,10,13)         -167.3302         estimate D2E/DX2                !
 ! D25   D(14,5,10,11)        -166.0725         estimate D2E/DX2                !
 ! D26   D(14,5,10,12)          78.8118         estimate D2E/DX2                !
 ! D27   D(14,5,10,13)         -39.654          estimate D2E/DX2                !
 ! D28   D(1,5,14,15)           26.1906         estimate D2E/DX2                !
 ! D29   D(1,5,14,16)          147.5296         estimate D2E/DX2                !
 ! D30   D(1,5,14,39)          -91.1473         estimate D2E/DX2                !
 ! D31   D(6,5,14,15)          -90.0636         estimate D2E/DX2                !
 ! D32   D(6,5,14,16)           31.2754         estimate D2E/DX2                !
 ! D33   D(6,5,14,39)          152.5985         estimate D2E/DX2                !
 ! D34   D(10,5,14,15)         142.8258         estimate D2E/DX2                !
 ! D35   D(10,5,14,16)         -95.8353         estimate D2E/DX2                !
 ! D36   D(10,5,14,39)          25.4878         estimate D2E/DX2                !
 ! D37   D(5,14,16,17)          38.9185         estimate D2E/DX2                !
 ! D38   D(5,14,16,18)         -77.7062         estimate D2E/DX2                !
 ! D39   D(5,14,16,19)         159.3153         estimate D2E/DX2                !
 ! D40   D(15,14,16,17)        160.265          estimate D2E/DX2                !
 ! D41   D(15,14,16,18)         43.6403         estimate D2E/DX2                !
 ! D42   D(15,14,16,19)        -79.3383         estimate D2E/DX2                !
 ! D43   D(39,14,16,17)        -82.4289         estimate D2E/DX2                !
 ! D44   D(39,14,16,18)        160.9463         estimate D2E/DX2                !
 ! D45   D(39,14,16,19)         37.9678         estimate D2E/DX2                !
 ! D46   D(14,16,19,20)        -29.6207         estimate D2E/DX2                !
 ! D47   D(14,16,19,22)       -140.3436         estimate D2E/DX2                !
 ! D48   D(14,16,19,23)         92.6098         estimate D2E/DX2                !
 ! D49   D(17,16,19,20)         95.8561         estimate D2E/DX2                !
 ! D50   D(17,16,19,22)        -14.8669         estimate D2E/DX2                !
 ! D51   D(17,16,19,23)       -141.9135         estimate D2E/DX2                !
 ! D52   D(18,16,19,20)       -154.6872         estimate D2E/DX2                !
 ! D53   D(18,16,19,22)         94.5899         estimate D2E/DX2                !
 ! D54   D(18,16,19,23)        -32.4567         estimate D2E/DX2                !
 ! D55   D(16,19,20,21)          6.08           estimate D2E/DX2                !
 ! D56   D(22,19,20,21)        119.4212         estimate D2E/DX2                !
 ! D57   D(23,19,20,21)       -117.8718         estimate D2E/DX2                !
 ! D58   D(16,19,23,24)        102.4193         estimate D2E/DX2                !
 ! D59   D(16,19,23,37)        -72.7289         estimate D2E/DX2                !
 ! D60   D(20,19,23,24)       -141.8706         estimate D2E/DX2                !
 ! D61   D(20,19,23,37)         42.9811         estimate D2E/DX2                !
 ! D62   D(22,19,23,24)        -22.9724         estimate D2E/DX2                !
 ! D63   D(22,19,23,37)        161.8793         estimate D2E/DX2                !
 ! D64   D(19,23,24,25)          4.3642         estimate D2E/DX2                !
 ! D65   D(19,23,24,26)        176.2862         estimate D2E/DX2                !
 ! D66   D(37,23,24,25)        179.534          estimate D2E/DX2                !
 ! D67   D(37,23,24,26)         -8.544          estimate D2E/DX2                !
 ! D68   D(19,23,37,35)       -178.4622         estimate D2E/DX2                !
 ! D69   D(19,23,37,38)         -5.7841         estimate D2E/DX2                !
 ! D70   D(24,23,37,35)          6.779          estimate D2E/DX2                !
 ! D71   D(24,23,37,38)        179.4571         estimate D2E/DX2                !
 ! D72   D(23,24,26,27)       -168.6354         estimate D2E/DX2                !
 ! D73   D(23,24,26,32)          4.4079         estimate D2E/DX2                !
 ! D74   D(25,24,26,27)          4.0401         estimate D2E/DX2                !
 ! D75   D(25,24,26,32)        177.0834         estimate D2E/DX2                !
 ! D76   D(24,26,27,28)         68.8233         estimate D2E/DX2                !
 ! D77   D(24,26,27,30)        -53.6169         estimate D2E/DX2                !
 ! D78   D(24,26,27,31)       -170.8752         estimate D2E/DX2                !
 ! D79   D(32,26,27,28)       -104.1425         estimate D2E/DX2                !
 ! D80   D(32,26,27,30)        133.4174         estimate D2E/DX2                !
 ! D81   D(32,26,27,31)         16.159          estimate D2E/DX2                !
 ! D82   D(24,26,32,33)        176.9164         estimate D2E/DX2                !
 ! D83   D(24,26,32,35)          1.0716         estimate D2E/DX2                !
 ! D84   D(27,26,32,33)         -9.9154         estimate D2E/DX2                !
 ! D85   D(27,26,32,35)        174.2398         estimate D2E/DX2                !
 ! D86   D(26,27,28,29)        -66.7957         estimate D2E/DX2                !
 ! D87   D(30,27,28,29)         54.2507         estimate D2E/DX2                !
 ! D88   D(31,27,28,29)        174.2047         estimate D2E/DX2                !
 ! D89   D(26,32,33,34)       -150.2496         estimate D2E/DX2                !
 ! D90   D(35,32,33,34)         25.8319         estimate D2E/DX2                !
 ! D91   D(26,32,35,36)        179.7182         estimate D2E/DX2                !
 ! D92   D(26,32,35,37)         -2.8374         estimate D2E/DX2                !
 ! D93   D(33,32,35,36)          3.6939         estimate D2E/DX2                !
 ! D94   D(33,32,35,37)       -178.8616         estimate D2E/DX2                !
 ! D95   D(32,35,37,23)         -1.0499         estimate D2E/DX2                !
 ! D96   D(32,35,37,38)       -174.2754         estimate D2E/DX2                !
 ! D97   D(36,35,37,23)        176.4648         estimate D2E/DX2                !
 ! D98   D(36,35,37,38)          3.2392         estimate D2E/DX2                !
 --------------------------------------------------------------------------------
 Trust Radius=3.00D-01 FncErr=1.00D-07 GrdErr=1.00D-06 EigMax=2.50D+02 EigMin=1.00D-04
 Number of steps in this run=    216 maximum allowed number of steps=    234.
 GradGradGradGradGradGradGradGradGradGradGradGradGradGradGradGradGradGrad

 Leave Link  103 at Sun Jul 18 14:43:04 2021, MaxMem=   104857600 cpu:               0.1 elap:               0.0
 (Enter /dades/curu/g16A03_MST/g16/l202.exe)
                          Input orientation:                          
 ---------------------------------------------------------------------
 Center     Atomic      Atomic             Coordinates (Angstroms)
 Number     Number       Type             X           Y           Z
 ---------------------------------------------------------------------
      1          6           0       -0.234000    4.042000    0.940000
      2          1           0        0.718000    3.978000    1.471000
      3          1           0       -0.940000    3.648000    1.673000
      4          1           0       -0.484000    5.080000    0.709000
      5          6           0       -0.295000    3.259000   -0.367000
      6          6           0       -1.802000    3.075000   -0.693000
      7          1           0       -2.395000    3.965000   -0.473000
      8          1           0       -2.209000    2.443000    0.099000
      9          1           0       -2.156000    2.766000   -1.679000
     10          6           0        0.371000    4.116000   -1.384000
     11          1           0       -0.059000    5.116000   -1.288000
     12          1           0        0.120000    3.768000   -2.388000
     13          1           0        1.462000    4.101000   -1.330000
     14          7           0        0.379000    1.983000   -0.139000
     15          1           0        0.318000    1.765000    0.835000
     16          6           0       -0.176000    0.818000   -0.921000
     17          1           0       -0.471000    1.072000   -1.942000
     18          1           0       -1.100000    0.439000   -0.476000
     19          6           0        0.796000   -0.389000   -1.089000
     20          8           0        2.013000    0.245000   -1.070000
     21          1           0        1.625000    1.113000   -0.858000
     22          1           0        0.692000   -0.788000   -2.101000
     23          6           0        0.676000   -1.487000   -0.019000
     24          6           0       -0.028000   -2.644000   -0.443000
     25          1           0       -0.405000   -2.817000   -1.448000
     26          6           0       -0.116000   -3.703000    0.419000
     27          6           0       -0.617000   -5.043000   -0.036000
     28          8           0        0.335000   -5.538000   -0.874000
     29          1           0        0.345000   -4.968000   -1.663000
     30          1           0       -1.593000   -4.943000   -0.519000
     31          1           0       -0.760000   -5.691000    0.832000
     32          6           0        0.417000   -3.559000    1.727000
     33          8           0        0.298000   -4.592000    2.678000
     34          1           0        0.269000   -4.160000    3.550000
     35          6           0        0.986000   -2.411000    2.154000
     36          1           0        1.383000   -2.324000    3.162000
     37          6           0        1.127000   -1.321000    1.293000
     38          1           0        1.676000   -0.457000    1.658000
     39          1           0        1.344000    2.090000   -0.378000
 ---------------------------------------------------------------------
                    Distance matrix (angstroms):
                    1          2          3          4          5
     1  C    0.000000
     2  H    1.091953   0.000000
     3  H    1.091312   1.702548   0.000000
     4  H    1.092385   1.799959   1.785457   0.000000
     5  C    1.524814   2.218417   2.174614   2.123567   0.000000
     6  C    2.461788   3.442195   2.582504   2.778984   1.552798
     7  H    2.583103   3.670160   2.612055   2.508440   2.218033
     8  H    2.676697   3.578539   2.353691   3.209594   2.132231
     9  H    3.490189   4.432981   3.673212   3.721925   2.329745
    10  C    2.402598   2.879319   3.359017   2.457838   1.487378
    11  H    2.479533   3.083967   3.420337   2.042041   2.086237
    12  H    3.357972   3.910701   4.198776   3.417246   2.125029
    13  H    2.834219   2.900735   3.872057   2.983769   2.173334
    14  N    2.404057   2.585932   2.792012   3.324948   1.460971
    15  H    2.345306   2.337063   2.414642   3.412961   2.013109
    16  C    3.723018   4.062819   3.914260   4.573446   2.505905
    17  H    4.145237   4.637578   4.463627   4.805417   2.700846
    18  H    3.966941   4.429498   3.865421   4.829344   2.934673
    19  C    4.981115   5.062645   5.190348   5.897556   3.875496
    20  O    4.848331   4.697765   5.274909   5.725127   3.860734
    21  H    3.907394   3.801988   4.405838   4.758199   2.921095
    22  H    5.782219   5.956057   6.048520   6.611543   4.512110
    23  C    5.684859   5.664635   5.642920   6.708284   4.856795
    24  C    6.830646   6.933311   6.700632   7.822737   5.909524
    25  H    7.264824   7.480222   7.198826   8.186666   6.172393
    26  C    7.763401   7.797437   7.502579   8.795488   7.008515
    27  C    9.145299   9.242928   8.863323  10.151248   8.314833
    28  O    9.766819   9.808158   9.617454  10.766549   8.834091
    29  H    9.396326   9.486411   9.328214  10.357409   8.353008
    30  H    9.203575   9.427887   8.890251  10.158661   8.305463
    31  H    9.747801   9.802161   9.378518  10.775238   9.041920
    32  C    7.669314   7.547351   7.333840   8.745310   7.167768
    33  O    8.823243   8.664765   8.392870   9.901317   8.441675
    34  H    8.621944   8.411355   8.120940   9.696179   8.408481
    35  C    6.678578   6.430990   6.375917   7.769428   6.336032
    36  H    6.933825   6.558728   6.578619   8.020107   6.814647
    37  C    5.544249   5.317741   5.395169   6.626400   5.074848
    38  H    4.940104   4.541141   4.867721   6.018685   4.668418
    39  H    2.835051   2.715736   3.442473   3.669231   2.013207
                    6          7          8          9         10
     6  C    0.000000
     7  H    1.091856   0.000000
     8  H    1.091942   1.636540   0.000000
     9  H    1.092242   1.717311   1.807878   0.000000
    10  C    2.506609   2.916072   3.413886   2.880148   0.000000
    11  H    2.749137   2.728722   3.700162   3.173766   1.092756
    12  H    2.654686   3.167216   3.655822   2.585897   1.091843
    13  H    3.480250   3.953403   4.274020   3.872202   1.092439
    14  N    2.501228   3.425632   2.639316   3.067721   2.469773
    15  H    2.923232   3.729777   2.717924   3.666452   3.233260
    16  C    2.791041   3.876632   2.795374   2.879178   3.374964
    17  H    2.709902   3.772159   3.010974   2.403753   3.207221
    18  H    2.736492   3.756289   2.361466   2.824407   4.063082
    19  C    4.348070   5.433162   4.296696   4.360783   4.534609
    20  O    4.765003   5.798730   4.901331   4.909876   4.216563
    21  H    3.952341   4.943939   4.169449   4.207423   3.296544
    22  H    4.808874   5.896691   4.867768   4.573850   4.966523
    23  C    5.235132   6.273871   4.876684   5.372507   5.774934
    24  C    5.993041   7.020147   5.561303   5.943415   6.836833
    25  H    6.102237   7.134862   5.771934   5.855702   6.976587
    26  C    7.072512   8.049082   6.500490   7.100082   8.038951
    27  C    8.230298   9.192188   7.654599   8.127020   9.310238
    28  O    8.875996   9.895489   8.432973   8.706866   9.667529
    29  H    8.380952   9.419246   8.034331   8.128346   9.088321
    30  H    8.022611   8.944148   7.437364   7.816089   9.309726
    31  H    8.958468   9.880009   8.294507   8.931673  10.117661
    32  C    7.402048   8.328140   6.750575   7.630648   8.281670
    33  O    8.634612   9.508065   7.901108   8.896389   9.609081
    34  H    8.639289   9.449712   7.851719   9.010690   9.635711
    35  C    6.780453   7.680213   6.163795   7.166965   7.449658
    36  H    7.358971   8.187675   6.708854   7.865615   7.947569
    37  C    5.643408   6.592802   5.169355   6.026147   6.107277
    38  H    5.486229   6.377169   5.092515   6.017269   5.645274
    39  H    3.311611   4.183870   3.602214   3.794677   2.462406
                   11         12         13         14         15
    11  H    0.000000
    12  H    1.749041   0.000000
    13  H    1.829052   1.741039   0.000000
    14  N    3.365670   2.882934   2.660318   0.000000
    15  H    3.984778   3.799861   3.384207   0.999960   0.000000
    16  C    4.315227   3.307900   3.691668   1.508898   2.055330
    17  H    4.117207   2.795821   3.644979   2.191627   2.968922
    18  H    4.859769   4.028199   4.550099   2.164474   2.342589
    19  C    5.574554   4.407383   4.545518   2.588971   2.927452
    20  O    5.297863   4.210950   3.903836   2.560734   2.968577
    21  H    4.364031   3.413935   3.029438   1.681183   2.235979
    22  H    6.006845   4.600727   5.008958   3.409671   3.908680
    23  C    6.763889   5.791055   5.793294   3.484754   3.381270
    24  C    7.805933   6.702139   6.964330   4.654803   4.603507
    25  H    7.942154   6.672440   7.166473   5.036679   5.170062
    26  C    8.982865   7.984409   8.151779   5.734718   5.500949
    27  C   10.251056   9.149251   9.466225   7.096992   6.926885
    28  O   10.669318   9.430804   9.715369   7.556957   7.500319
    29  H   10.099054   8.768919   9.143596   7.116188   7.181506
    30  H   10.204313   9.072434   9.580432   7.211287   7.105104
    31  H   11.035264  10.030727  10.271066   7.818596   7.533527
    32  C    9.196327   8.408708   8.313415   5.847834   5.399115
    33  O   10.492944   9.776791   9.642988   7.153508   6.618799
    34  H   10.466996   9.906323   9.668597   7.166399   6.517611
    35  C    8.342369   7.717497   7.400742   4.993349   4.430007
    36  H    8.788371   8.337274   7.839957   5.518593   4.823803
    37  C    7.035846   6.360954   6.032449   3.677845   3.222986
    38  H    6.538155   6.053253   5.454292   3.296213   2.731076
    39  H    3.457338   2.890322   2.228082   0.999897   1.621626
                   16         17         18         19         20
    16  C    0.000000
    17  H    1.092695   0.000000
    18  H    1.093363   1.716242   0.000000
    19  C    1.558800   2.113627   2.157816   0.000000
    20  O    2.267653   2.759451   3.175097   1.372372   0.000000
    21  H    1.826087   2.360075   2.832989   1.731071   0.974121
    22  H    2.173720   2.199420   2.712456   1.092777   1.968525
    23  C    2.617734   3.400297   2.659417   1.537824   2.427343
    24  C    3.497975   4.031365   3.264225   2.486225   3.592371
    25  H    3.680135   3.920805   3.468335   2.732483   3.919879
    26  C    4.715786   5.338630   4.350338   3.753452   4.726147
    27  C    5.943823   6.406823   5.520798   4.976454   5.995748
    28  O    6.376681   6.744061   6.159721   5.174065   6.024715
    29  H    5.856603   6.101254   5.721245   4.636822   5.505383
    30  H    5.946311   6.282041   5.404704   5.174083   6.342096
    31  H    6.766177   7.315515   6.277210   5.850007   6.822260
    32  C    5.149921   5.974635   4.810250   4.257041   4.984059
    33  O    6.515027   7.349603   6.100253   5.665995   6.354943
    34  H    6.705844   7.621252   6.263676   6.001541   6.617398
    35  C    4.607853   5.570579   4.403498   3.826439   4.301539
    36  H    5.382707   6.404760   5.199471   4.707419   4.990640
    37  C    3.342892   4.329582   3.344621   2.579168   2.970037
    38  H    3.421516   4.461777   3.614270   2.885313   2.836963
    39  H    2.055051   2.603199   2.951024   2.636525   2.080973
                   21         22         23         24         25
    21  H    0.000000
    22  H    2.455471   0.000000
    23  C    2.892148   2.196265   0.000000
    24  C    4.125492   2.590772   1.419169   0.000000
    25  H    4.462499   2.397219   2.231480   1.087236   0.000000
    26  C    5.277847   3.937066   2.393693   1.368309   2.086673
    27  C    6.602922   4.907416   3.783817   2.503552   2.644573
    28  O    6.774965   4.918890   4.154264   2.948350   2.877658
    29  H    6.266178   4.217185   3.863892   2.651133   2.288127
    30  H    6.866264   4.998797   4.164408   2.782158   2.606580
    31  H    7.405318   5.894930   4.523264   3.383143   3.685689
    32  C    5.474402   4.733672   2.721908   2.396696   3.362569
    33  O    6.841875   6.120825   4.130099   3.693457   4.546285
    34  H    7.005264   6.594173   4.477537   4.281415   5.218997
    35  C    4.679641   4.563506   2.381555   2.797659   3.882541
    36  H    5.294519   5.525934   3.364399   3.884501   4.969114
    37  C    3.286208   3.463026   1.397248   2.469423   3.478235
    38  H    2.966101   3.899731   2.207539   3.478618   4.421244
    39  H    1.124229   3.417121   3.656506   4.929236   5.318134
                   26         27         28         29         30
    26  C    0.000000
    27  C    1.501208   0.000000
    28  O    2.289645   1.361460   0.000000
    29  H    2.479409   1.891613   0.973407   0.000000
    30  H    2.144522   1.093556   2.048715   2.250601   0.000000
    31  H    2.130129   1.092601   2.032946   2.822903   1.754592
    32  C    1.419750   2.525783   3.269307   3.671861   3.316636
    33  O    2.462681   2.899383   3.676002   4.357507   3.730937
    34  H    3.187512   3.797905   4.634114   5.275795   4.542785
    35  C    2.427734   3.780626   4.401217   4.638817   4.495241
    36  H    3.416532   4.649749   5.264731   5.599000   5.409760
    37  C    2.825394   4.319845   4.806895   4.759209   4.878589
    38  H    3.909335   5.399896   5.833169   5.757580   5.962373
    39  H    6.027077   7.405550   7.710414   7.243244   7.622922
                   31         32         33         34         35
    31  H    0.000000
    32  C    2.594567   0.000000
    33  O    2.394761   1.409131   0.000000
    34  H    3.284863   1.925210   0.973575   0.000000
    35  C    3.943932   1.350553   2.346206   2.349874   0.000000
    36  H    4.621476   2.125466   2.560333   2.182301   1.086850
    37  C    4.782279   2.387698   3.647589   3.726947   1.396174
    38  H    5.831906   3.348469   4.476328   4.389934   2.130782
    39  H    8.150759   6.099308   7.421750   7.459712   5.176697
                   36         37         38         39
    36  H    0.000000
    37  C    2.136517   0.000000
    38  H    2.415275   1.086794   0.000000
    39  H    5.658314   3.804504   3.277610   0.000000
 Stoichiometry    C13H22NO3(1+)
 Framework group  C1[X(C13H22NO3)]
 Deg. of freedom   111
 Full point group                 C1      NOp   1
 Largest Abelian subgroup         C1      NOp   1
 Largest concise Abelian subgroup C1      NOp   1
                         Standard orientation:                         
 ---------------------------------------------------------------------
 Center     Atomic      Atomic             Coordinates (Angstroms)
 Number     Number       Type             X           Y           Z
 ---------------------------------------------------------------------
      1          6           0       -4.484594    1.559177    0.363019
      2          1           0       -4.290959    2.150393   -0.534383
      3          1           0       -4.013047    2.156347    1.145319
      4          1           0       -5.556961    1.480598    0.555785
      5          6           0       -3.924109    0.141445    0.332174
      6          6           0       -3.867175   -0.335176    1.808917
      7          1           0       -4.738115   -0.023269    2.388855
      8          1           0       -3.137166    0.306169    2.307014
      9          1           0       -3.736906   -1.384509    2.082641
     10          6           0       -4.899433   -0.662683   -0.451674
     11          1           0       -5.890789   -0.441076   -0.048911
     12          1           0       -4.728631   -1.727455   -0.280774
     13          1           0       -4.823569   -0.520743   -1.532193
     14          7           0       -2.597166    0.213712   -0.274815
     15          1           0       -2.229677    1.130499   -0.118693
     16          6           0       -1.599976   -0.791621    0.246427
     17          1           0       -2.027579   -1.778528    0.439175
     18          1           0       -1.199672   -0.493360    1.219175
     19          6           0       -0.389950   -1.072433   -0.695295
     20          8           0       -0.953534   -0.848424   -1.926391
     21          1           0       -1.794203   -0.530816   -1.550474
     22          1           0       -0.163072   -2.141092   -0.669702
     23          6           0        0.857711   -0.209847   -0.441937
     24          6           0        1.896994   -0.874418    0.259688
     25          1           0        1.889027   -1.922155    0.549976
     26          6           0        3.074538   -0.207259    0.461077
     27          6           0        4.299072   -0.915184    0.964053
     28          8           0        4.699153   -1.740089   -0.042446
     29          1           0        4.011668   -2.421830   -0.143023
     30          1           0        4.076449   -1.455348    1.888460
     31          1           0        5.069681   -0.179646    1.206792
     32          6           0        3.166965    1.146659    0.043880
     33          8           0        4.331589    1.902957    0.283285
     34          1           0        4.043431    2.828247    0.376302
     35          6           0        2.130545    1.801411   -0.522799
     36          1           0        2.224748    2.839734   -0.829807
     37          6           0        0.925142    1.144731   -0.777901
     38          1           0        0.157889    1.690507   -1.320647
     39          1           0       -2.694423    0.076991   -1.260535
 ---------------------------------------------------------------------
 Rotational constants (GHZ):           1.0142677           0.1851277           0.1754663
 Leave Link  202 at Sun Jul 18 14:43:04 2021, MaxMem=   104857600 cpu:               0.1 elap:               0.0
 (Enter /dades/curu/g16A03_MST/g16/l301.exe)
 Standard basis: 6-31G(d) (6D, 7F)
 Ernie: Thresh=  0.10000D-02 Tol=  0.10000D-05 Strict=F.
 There are   299 symmetry adapted cartesian basis functions of A   symmetry.
 There are   299 symmetry adapted basis functions of A   symmetry.
   299 basis functions,   564 primitive gaussians,   299 cartesian basis functions
    65 alpha electrons       65 beta electrons
       nuclear repulsion energy      1262.5300743328 Hartrees.
 IExCor=  402 DFT=T Ex+Corr=B3LYP ExCW=0 ScaHFX=  0.200000
 ScaDFX=  0.800000  0.720000  1.000000  0.810000 ScalE2=  1.000000  1.000000
 IRadAn=      5 IRanWt=     -1 IRanGd=            0 ICorTp=0 IEmpDi=  4
 NAtoms=   39 NActive=   39 NUniq=   39 SFac= 1.00D+00 NAtFMM=   60 NAOKFM=F Big=F
 Integral buffers will be    131072 words long.
 Raffenetti 2 integral format.
 Two-electron integral symmetry is turned on.
 Using the following non-standard input for PCM:
 MSTModel=DFT cav MSTCharged
 --- end of non-standard input.
 MST model for solvation energy: B3LYP parametrization.
 MST cavity parameters:
 ISph   IAn     Re0     Alpha   Atom Type   QCorr
 ------------------------------------------------
   1      6     1.50     1.50      CH3        F
   2      1     1.20     1.50      CH3        F
   3      1     1.20     1.50      CH3        F
   4      1     1.20     1.50      CH3        F
   5      6     1.50     1.50      CN+        F
   6      6     1.50     1.50      CH3        F
   7      1     1.20     1.50      CH3        F
   8      1     1.20     1.50      CH3        F
   9      1     1.20     1.50      CH3        F
  10      6     1.50     1.50      CH3        F
  11      1     1.20     1.50      CH3        F
  12      1     1.20     1.50      CH3        F
  13      1     1.20     1.50      CH3        F
  14      7     1.50     1.15      NH+        T
  15      1     0.90     1.15      NH+        T
  16      6     1.50     1.50      CN+        F
  17      1     1.20     1.50      CN+        F
  18      1     1.20     1.50      CN+        F
  19      6     1.50     1.50      CH         F
  20      8     1.40     1.50      OH         F
  21      1     0.90     1.50      OH         F
  22      1     1.20     1.50      CH         F
  23      6     1.50     1.50      C          F
  24      6     1.50     1.50      CH         F
  25      1     1.20     1.50      CH         F
  26      6     1.50     1.50      C          F
  27      6     1.50     1.50      CH2        F
  28      8     1.40     1.50      OH         F
  29      1     0.90     1.50      OH         F
  30      1     1.20     1.50      CH2        F
  31      1     1.20     1.50      CH2        F
  32      6     1.50     1.50      C          F
  33      8     1.40     1.50      OH         F
  34      1     0.90     1.50      OH         F
  35      6     1.50     1.50      CH         F
  36      1     1.20     1.50      CH         F
  37      6     1.50     1.50      CH         F
  38      1     1.20     1.50      CH         F
  39      1     0.90     1.15      NH+        T
 ------------------------------------------------------------------------------
 Polarizable Continuum Model (PCM)
 =================================
 Model                : PCM.
 Atomic radii         : MST.
 Polarization charges : Total charges.
 Charge compensation  : None.
 Solution method      : On-the-fly selection.
 Cavity type          : Scaled VdW (van der Waals Surface) (Alpha=1.500).
 Cavity algorithm     : GePol (No added spheres)
                        Default sphere list used, NSphG=   39.
                        Lebedev-Laikov grids with approx.  5.0 points / Ang**2.
                        Smoothing algorithm: York/Karplus (Gamma=1.0000).
                        Polarization charges: spherical gaussians, with
                                              point-specific exponents (IZeta= 3).
                        Self-potential: point-specific (ISelfS= 7).
                        Self-field    : sphere-specific E.n sum rule (ISelfD= 2).
 1st derivatives      : Analytical E(r).r(x)/FMM algorithm (CHGder, D1EAlg=3).
                        Cavity 1st derivative terms included.
 Solvent              : n-Octanol, Eps=   9.862900 Eps(inf)=   2.043470
 ------------------------------------------------------------------------------
 GePol: Number of generator spheres                  =      39
 GePol: Total number of spheres                      =      39
 GePol: Number of exposed spheres                    =      39 (100.00%)
 GePol: Number of points                             =    3276
 GePol: Average weight of points                     =       0.11
 GePol: Minimum weight of points                     =   0.16D-10
 GePol: Maximum weight of points                     =    0.21373
 GePol: Number of points with low weight             =     215
 GePol: Fraction of low-weight points (<1% of avg)   =       6.56%
 GePol: Cavity surface area                          =    364.500 Ang**2
 GePol: Cavity volume                                =    414.622 Ang**3
 Surface areas from nonelectrostatic (unscaled) cavity and vdw tensions:
 Sphere =    1 Type =  CH3 Surf =        4.326 Tension =       -0.183
 Sphere =    2 Type =  CH3 Surf =       10.065 Tension =       -0.183
 Sphere =    3 Type =  CH3 Surf =        9.811 Tension =       -0.183
 Sphere =    4 Type =  CH3 Surf =        9.046 Tension =       -0.183
 Sphere =    5 Type =  CN+ Surf =        1.611 Tension =       -0.227
 Sphere =    6 Type =  CH3 Surf =        4.318 Tension =       -0.183
 Sphere =    7 Type =  CH3 Surf =        9.836 Tension =       -0.183
 Sphere =    8 Type =  CH3 Surf =        9.538 Tension =       -0.183
 Sphere =    9 Type =  CH3 Surf =       10.124 Tension =       -0.183
 Sphere =   10 Type =  CH3 Surf =        4.622 Tension =       -0.183
 Sphere =   11 Type =  CH3 Surf =        9.044 Tension =       -0.183
 Sphere =   12 Type =  CH3 Surf =       10.019 Tension =       -0.183
 Sphere =   13 Type =  CH3 Surf =       10.129 Tension =       -0.183
 Sphere =   14 Type =  NH+ Surf =        6.925 Tension =       -0.274
 Sphere =   15 Type =  NH+ Surf =        3.808 Tension =       -0.274
 Sphere =   16 Type =  CN+ Surf =        3.380 Tension =       -0.227
 Sphere =   17 Type =  CN+ Surf =        9.621 Tension =       -0.227
 Sphere =   18 Type =  CN+ Surf =        9.734 Tension =       -0.227
 Sphere =   19 Type =  CH  Surf =        3.331 Tension =       -0.195
 Sphere =   20 Type =  OH  Surf =       14.304 Tension =       -0.238
 Sphere =   21 Type =  OH  Surf =        1.411 Tension =       -0.238
 Sphere =   22 Type =  CH  Surf =        9.661 Tension =       -0.195
 Sphere =   23 Type =  C   Surf =        6.292 Tension =       -0.205
 Sphere =   24 Type =  CH  Surf =        7.557 Tension =       -0.195
 Sphere =   25 Type =  CH  Surf =       10.105 Tension =       -0.195
 Sphere =   26 Type =  C   Surf =        5.891 Tension =       -0.205
 Sphere =   27 Type =  CH2 Surf =        4.349 Tension =       -0.194
 Sphere =   28 Type =  OH  Surf =       14.059 Tension =       -0.238
 Sphere =   29 Type =  OH  Surf =        4.434 Tension =       -0.238
 Sphere =   30 Type =  CH2 Surf =       10.098 Tension =       -0.194
 Sphere =   31 Type =  CH2 Surf =        9.281 Tension =       -0.194
 Sphere =   32 Type =  C   Surf =        6.608 Tension =       -0.205
 Sphere =   33 Type =  OH  Surf =       13.890 Tension =       -0.238
 Sphere =   34 Type =  OH  Surf =        4.412 Tension =       -0.238
 Sphere =   35 Type =  CH  Surf =        7.488 Tension =       -0.195
 Sphere =   36 Type =  CH  Surf =       10.180 Tension =       -0.195
 Sphere =   37 Type =  CH  Surf =        7.875 Tension =       -0.195
 Sphere =   38 Type =  CH  Surf =       10.244 Tension =       -0.195
 Sphere =   39 Type =  NH+ Surf =        2.926 Tension =       -0.274
 PCM non-electrostatic energy =        -0.0178986819 Hartrees.
 Nuclear repulsion after PCM non-electrostatic terms =     1262.5121756509 Hartrees.
 Leave Link  301 at Sun Jul 18 14:43:04 2021, MaxMem=   104857600 cpu:               0.1 elap:               0.1
 (Enter /dades/curu/g16A03_MST/g16/l302.exe)
 NPDir=0 NMtPBC=     1 NCelOv=     1 NCel=       1 NClECP=     1 NCelD=      1
         NCelK=      1 NCelE2=     1 NClLst=     1 CellRange=     0.0.
 One-electron integrals computed using PRISM.
 One-electron integral symmetry used in STVInt
 NBasis=   299 RedAO= T EigKep=  4.27D-04  NBF=   299
 NBsUse=   299 1.00D-06 EigRej= -1.00D+00 NBFU=   299
 Precomputing XC quadrature grid using
 IXCGrd= 4 IRadAn=           5 IRanWt=          -1 IRanGd=           0 AccXCQ= 0.00D+00.
 Generated NRdTot=       0 NPtTot=           0 NUsed=           0 NTot=          32
 NSgBfM=   297   297   297   297   297 MxSgAt=    39 MxSgA2=    39.
 Leave Link  302 at Sun Jul 18 14:43:06 2021, MaxMem=   104857600 cpu:               6.8 elap:               1.8
 (Enter /dades/curu/g16A03_MST/g16/l303.exe)
 DipDrv:  MaxL=1.
 Leave Link  303 at Sun Jul 18 14:43:06 2021, MaxMem=   104857600 cpu:               0.1 elap:               0.1
 (Enter /dades/curu/g16A03_MST/g16/l401.exe)
 ExpMin= 1.61D-01 ExpMax= 5.48D+03 ExpMxC= 8.25D+02 IAcc=3 IRadAn=         5 AccDes= 0.00D+00
 Harris functional with IExCor=  402 and IRadAn=       5 diagonalized for initial guess.
 HarFok:  IExCor=  402 AccDes= 0.00D+00 IRadAn=         5 IDoV= 1 UseB2=F ITyADJ=14
 ICtDFT=  3500011 ScaDFX=  1.000000  1.000000  1.000000  1.000000
 FoFCou: FMM=F IPFlag=           0 FMFlag=      100000 FMFlg1=           0
         NFxFlg=           0 DoJE=T BraDBF=F KetDBF=T FulRan=T
         wScrn=  0.000000 ICntrl=       500 IOpCl=  0 I1Cent=   200000004 NGrid=           0
         NMat0=    1 NMatS0=      1 NMatT0=    0 NMatD0=    1 NMtDS0=    0 NMtDT0=    0
 Petite list used in FoFCou.
 Harris En= -788.788095054252    
 JPrj=0 DoOrth=F DoCkMO=F.
 Leave Link  401 at Sun Jul 18 14:43:14 2021, MaxMem=   104857600 cpu:              31.5 elap:               7.9
 (Enter /dades/curu/g16A03_MST/g16/l502.exe)
 Integral symmetry usage will be decided dynamically.
 Closed shell SCF:
 Using DIIS extrapolation, IDIIS=  1040.
 NGot=   104857600 LenX=   104673418 LenY=   104583576
 Requested convergence on RMS density matrix=1.00D-08 within 128 cycles.
 Requested convergence on MAX density matrix=1.00D-06.
 Requested convergence on             energy=1.00D-06.
 No special actions if energy rises.
 Fock matrices will be formed incrementally for  20 cycles.

 Cycle   1  Pass 1  IDiag  1:
 FoFJK:  IHMeth= 1 ICntrl=       0 DoSepK=F KAlg= 0 I1Cent=           0 FoldK=F
 IRaf= 790000000 NMat=       1 IRICut=       1 DoRegI=T DoRafI=F ISym2E= 0 IDoP0=0 IntGTp=1.
 FoFCou: FMM=F IPFlag=           0 FMFlag=      100000 FMFlg1=           0
         NFxFlg=           0 DoJE=F BraDBF=F KetDBF=F FulRan=T
         wScrn=  0.000000 ICntrl=         0 IOpCl=  0 I1Cent=           0 NGrid=           0
         NMat0=    1 NMatS0=      1 NMatT0=    0 NMatD0=    1 NMtDS0=    0 NMtDT0=    0
 Symmetry not used in FoFCou.
 Inv3:  Mode=1 IEnd=    32196528.
 Iteration    1 A*A^-1 deviation from unit magnitude is 6.22D-15 for   1626.
 Iteration    1 A*A^-1 deviation from orthogonality  is 2.85D-15 for   3254    913.
 Iteration    1 A^-1*A deviation from unit magnitude is 5.88D-15 for   2449.
 Iteration    1 A^-1*A deviation from orthogonality  is 4.67D-14 for   2320   2192.
 E= -788.334877006514    
 DIIS: error= 3.38D-02 at cycle   1 NSaved=   1.
 NSaved= 1 IEnMin= 1 EnMin= -788.334877006514     IErMin= 1 ErrMin= 3.38D-02
 ErrMax= 3.38D-02  0.00D+00 EMaxC= 1.00D-01 BMatC= 4.76D-01 BMatP= 4.76D-01
 IDIUse=3 WtCom= 6.62D-01 WtEn= 3.38D-01
 Coeff-Com:  0.100D+01
 Coeff-En:   0.100D+01
 Coeff:      0.100D+01
 Gap=     0.223 Goal=   None    Shift=    0.000
 GapD=    0.223 DampG=1.000 DampE=0.500 DampFc=0.5000 IDamp=-1.
 Damping current iteration by 5.00D-01
 RMSDP=4.89D-03 MaxDP=1.34D-01              OVMax= 1.74D-01

 Cycle   2  Pass 1  IDiag  1:
 RMSU=  2.42D-03    CP:  9.82D-01
 E= -788.537744160875     Delta-E=       -0.202867154361 Rises=F Damp=T
 DIIS: error= 5.90D-03 at cycle   2 NSaved=   2.
 NSaved= 2 IEnMin= 2 EnMin= -788.537744160875     IErMin= 2 ErrMin= 5.90D-03
 ErrMax= 5.90D-03  0.00D+00 EMaxC= 1.00D-01 BMatC= 2.64D-02 BMatP= 4.76D-01
 IDIUse=3 WtCom= 9.41D-01 WtEn= 5.90D-02
 Coeff-Com:  0.648D-01 0.935D+00
 Coeff-En:   0.901D-01 0.910D+00
 Coeff:      0.663D-01 0.934D+00
 Gap=     0.262 Goal=   None    Shift=    0.000
 RMSDP=1.03D-03 MaxDP=2.58D-02 DE=-2.03D-01 OVMax= 9.53D-02

 Cycle   3  Pass 1  IDiag  1:
 RMSU=  1.01D-03    CP:  9.76D-01  9.21D-01
 E= -788.773467598727     Delta-E=       -0.235723437852 Rises=F Damp=F
 DIIS: error= 3.73D-03 at cycle   3 NSaved=   3.
 NSaved= 3 IEnMin= 3 EnMin= -788.773467598727     IErMin= 3 ErrMin= 3.73D-03
 ErrMax= 3.73D-03  0.00D+00 EMaxC= 1.00D-01 BMatC= 1.17D-02 BMatP= 2.64D-02
 IDIUse=3 WtCom= 9.63D-01 WtEn= 3.73D-02
 Coeff-Com: -0.129D-01 0.378D+00 0.635D+00
 Coeff-En:   0.000D+00 0.000D+00 0.100D+01
 Coeff:     -0.124D-01 0.363D+00 0.649D+00
 Gap=     0.211 Goal=   None    Shift=    0.000
 RMSDP=4.81D-04 MaxDP=1.94D-02 DE=-2.36D-01 OVMax= 1.84D-02

 Cycle   4  Pass 1  IDiag  1:
 RMSU=  4.03D-04    CP:  9.78D-01  9.49D-01  7.53D-01
 E= -788.780469242306     Delta-E=       -0.007001643579 Rises=F Damp=F
 DIIS: error= 1.89D-03 at cycle   4 NSaved=   4.
 NSaved= 4 IEnMin= 4 EnMin= -788.780469242306     IErMin= 4 ErrMin= 1.89D-03
 ErrMax= 1.89D-03  0.00D+00 EMaxC= 1.00D-01 BMatC= 2.74D-03 BMatP= 1.17D-02
 IDIUse=3 WtCom= 9.81D-01 WtEn= 1.89D-02
 Coeff-Com: -0.109D-01 0.714D-01 0.349D+00 0.591D+00
 Coeff-En:   0.000D+00 0.000D+00 0.193D+00 0.807D+00
 Coeff:     -0.106D-01 0.701D-01 0.346D+00 0.595D+00
 Gap=     0.211 Goal=   None    Shift=    0.000
 RMSDP=1.97D-04 MaxDP=6.97D-03 DE=-7.00D-03 OVMax= 7.13D-03

 Cycle   5  Pass 1  IDiag  1:
 RMSU=  9.00D-05    CP:  9.77D-01  9.47D-01  8.07D-01  5.90D-01
 E= -788.782694580629     Delta-E=       -0.002225338323 Rises=F Damp=F
 DIIS: error= 3.56D-04 at cycle   5 NSaved=   5.
 NSaved= 5 IEnMin= 5 EnMin= -788.782694580629     IErMin= 5 ErrMin= 3.56D-04
 ErrMax= 3.56D-04  0.00D+00 EMaxC= 1.00D-01 BMatC= 7.86D-05 BMatP= 2.74D-03
 IDIUse=3 WtCom= 9.96D-01 WtEn= 3.56D-03
 Coeff-Com: -0.358D-02 0.116D-01 0.114D+00 0.250D+00 0.628D+00
 Coeff-En:   0.000D+00 0.000D+00 0.000D+00 0.000D+00 0.100D+01
 Coeff:     -0.357D-02 0.116D-01 0.113D+00 0.249D+00 0.629D+00
 Gap=     0.210 Goal=   None    Shift=    0.000
 RMSDP=3.93D-05 MaxDP=1.16D-03 DE=-2.23D-03 OVMax= 2.24D-03

 Cycle   6  Pass 1  IDiag  1:
 RMSU=  2.49D-05    CP:  9.77D-01  9.48D-01  8.12D-01  6.18D-01  6.94D-01
 E= -788.782755437737     Delta-E=       -0.000060857108 Rises=F Damp=F
 DIIS: error= 1.05D-04 at cycle   6 NSaved=   6.
 NSaved= 6 IEnMin= 6 EnMin= -788.782755437737     IErMin= 6 ErrMin= 1.05D-04
 ErrMax= 1.05D-04  0.00D+00 EMaxC= 1.00D-01 BMatC= 1.12D-05 BMatP= 7.86D-05
 IDIUse=3 WtCom= 9.99D-01 WtEn= 1.05D-03
 Coeff-Com: -0.117D-02 0.133D-02 0.378D-01 0.967D-01 0.343D+00 0.523D+00
 Coeff-En:   0.000D+00 0.000D+00 0.000D+00 0.000D+00 0.440D-01 0.956D+00
 Coeff:     -0.117D-02 0.133D-02 0.378D-01 0.966D-01 0.342D+00 0.523D+00
 Gap=     0.210 Goal=   None    Shift=    0.000
 RMSDP=1.25D-05 MaxDP=5.42D-04 DE=-6.09D-05 OVMax= 1.09D-03

 Cycle   7  Pass 1  IDiag  1:
 RMSU=  5.81D-06    CP:  9.77D-01  9.48D-01  8.13D-01  6.19D-01  7.31D-01
                    CP:  5.79D-01
 E= -788.782765257764     Delta-E=       -0.000009820027 Rises=F Damp=F
 DIIS: error= 2.71D-05 at cycle   7 NSaved=   7.
 NSaved= 7 IEnMin= 7 EnMin= -788.782765257764     IErMin= 7 ErrMin= 2.71D-05
 ErrMax= 2.71D-05  0.00D+00 EMaxC= 1.00D-01 BMatC= 4.79D-07 BMatP= 1.12D-05
 IDIUse=1 WtCom= 1.00D+00 WtEn= 0.00D+00
 Coeff-Com: -0.450D-03 0.197D-03 0.142D-01 0.386D-01 0.146D+00 0.268D+00
 Coeff-Com:  0.534D+00
 Coeff:     -0.450D-03 0.197D-03 0.142D-01 0.386D-01 0.146D+00 0.268D+00
 Coeff:      0.534D+00
 Gap=     0.210 Goal=   None    Shift=    0.000
 RMSDP=3.21D-06 MaxDP=1.42D-04 DE=-9.82D-06 OVMax= 3.31D-04

 Cycle   8  Pass 1  IDiag  1:
 RMSU=  2.01D-06    CP:  9.77D-01  9.47D-01  8.13D-01  6.21D-01  7.32D-01
                    CP:  6.06D-01  6.15D-01
 E= -788.782765694252     Delta-E=       -0.000000436488 Rises=F Damp=F
 DIIS: error= 9.64D-06 at cycle   8 NSaved=   8.
 NSaved= 8 IEnMin= 8 EnMin= -788.782765694252     IErMin= 8 ErrMin= 9.64D-06
 ErrMax= 9.64D-06  0.00D+00 EMaxC= 1.00D-01 BMatC= 5.10D-08 BMatP= 4.79D-07
 IDIUse=1 WtCom= 1.00D+00 WtEn= 0.00D+00
 Coeff-Com: -0.688D-04-0.951D-04 0.215D-02 0.684D-02 0.281D-01 0.680D-01
 Coeff-Com:  0.276D+00 0.619D+00
 Coeff:     -0.688D-04-0.951D-04 0.215D-02 0.684D-02 0.281D-01 0.680D-01
 Coeff:      0.276D+00 0.619D+00
 Gap=     0.210 Goal=   None    Shift=    0.000
 RMSDP=9.88D-07 MaxDP=3.60D-05 DE=-4.36D-07 OVMax= 9.70D-05

 Cycle   9  Pass 1  IDiag  1:
 RMSU=  5.57D-07    CP:  9.77D-01  9.47D-01  8.13D-01  6.21D-01  7.32D-01
                    CP:  6.06D-01  6.80D-01  6.43D-01
 E= -788.782765742237     Delta-E=       -0.000000047984 Rises=F Damp=F
 DIIS: error= 2.26D-06 at cycle   9 NSaved=   9.
 NSaved= 9 IEnMin= 9 EnMin= -788.782765742237     IErMin= 9 ErrMin= 2.26D-06
 ErrMax= 2.26D-06  0.00D+00 EMaxC= 1.00D-01 BMatC= 5.10D-09 BMatP= 5.10D-08
 IDIUse=1 WtCom= 1.00D+00 WtEn= 0.00D+00
 Coeff-Com: -0.348D-06-0.687D-04-0.793D-05 0.518D-03 0.293D-02 0.138D-01
 Coeff-Com:  0.982D-01 0.319D+00 0.565D+00
 Coeff:     -0.348D-06-0.687D-04-0.793D-05 0.518D-03 0.293D-02 0.138D-01
 Coeff:      0.982D-01 0.319D+00 0.565D+00
 Gap=     0.210 Goal=   None    Shift=    0.000
 RMSDP=3.05D-07 MaxDP=9.68D-06 DE=-4.80D-08 OVMax= 3.19D-05

 Cycle  10  Pass 1  IDiag  1:
 RMSU=  1.79D-07    CP:  9.77D-01  9.47D-01  8.13D-01  6.21D-01  7.33D-01
                    CP:  6.08D-01  6.78D-01  7.09D-01  6.52D-01
 E= -788.782765746692     Delta-E=       -0.000000004455 Rises=F Damp=F
 DIIS: error= 7.44D-07 at cycle  10 NSaved=  10.
 NSaved=10 IEnMin=10 EnMin= -788.782765746692     IErMin=10 ErrMin= 7.44D-07
 ErrMax= 7.44D-07  0.00D+00 EMaxC= 1.00D-01 BMatC= 5.19D-10 BMatP= 5.10D-09
 IDIUse=1 WtCom= 1.00D+00 WtEn= 0.00D+00
 Coeff-Com:  0.710D-05-0.229D-04-0.262D-03-0.540D-03-0.179D-02-0.490D-03
 Coeff-Com:  0.197D-01 0.961D-01 0.294D+00 0.593D+00
 Coeff:      0.710D-05-0.229D-04-0.262D-03-0.540D-03-0.179D-02-0.490D-03
 Coeff:      0.197D-01 0.961D-01 0.294D+00 0.593D+00
 Gap=     0.210 Goal=   None    Shift=    0.000
 RMSDP=9.18D-08 MaxDP=3.30D-06 DE=-4.46D-09 OVMax= 8.13D-06

 Cycle  11  Pass 1  IDiag  1:
 RMSU=  4.47D-08    CP:  9.77D-01  9.47D-01  8.13D-01  6.21D-01  7.32D-01
                    CP:  6.08D-01  6.81D-01  7.13D-01  7.20D-01  6.40D-01
 E= -788.782765747181     Delta-E=       -0.000000000488 Rises=F Damp=F
 DIIS: error= 1.79D-07 at cycle  11 NSaved=  11.
 NSaved=11 IEnMin=11 EnMin= -788.782765747181     IErMin=11 ErrMin= 1.79D-07
 ErrMax= 1.79D-07  0.00D+00 EMaxC= 1.00D-01 BMatC= 3.16D-11 BMatP= 5.19D-10
 IDIUse=1 WtCom= 1.00D+00 WtEn= 0.00D+00
 Coeff-Com:  0.341D-05-0.804D-05-0.134D-03-0.301D-03-0.105D-02-0.919D-03
 Coeff-Com:  0.497D-02 0.327D-01 0.122D+00 0.303D+00 0.540D+00
 Coeff:      0.341D-05-0.804D-05-0.134D-03-0.301D-03-0.105D-02-0.919D-03
 Coeff:      0.497D-02 0.327D-01 0.122D+00 0.303D+00 0.540D+00
 Gap=     0.210 Goal=   None    Shift=    0.000
 RMSDP=2.35D-08 MaxDP=1.06D-06 DE=-4.88D-10 OVMax= 2.28D-06

 Cycle  12  Pass 1  IDiag  1:
 RMSU=  1.50D-08    CP:  9.77D-01  9.47D-01  8.13D-01  6.21D-01  7.32D-01
                    CP:  6.08D-01  6.82D-01  7.14D-01  7.17D-01  6.83D-01
                    CP:  6.56D-01
 E= -788.782765747223     Delta-E=       -0.000000000042 Rises=F Damp=F
 DIIS: error= 4.83D-08 at cycle  12 NSaved=  12.
 NSaved=12 IEnMin=12 EnMin= -788.782765747223     IErMin=12 ErrMin= 4.83D-08
 ErrMax= 4.83D-08  0.00D+00 EMaxC= 1.00D-01 BMatC= 2.58D-12 BMatP= 3.16D-11
 IDIUse=1 WtCom= 1.00D+00 WtEn= 0.00D+00
 Coeff-Com:  0.534D-06-0.427D-06-0.283D-04-0.699D-04-0.252D-03-0.334D-03
 Coeff-Com: -0.177D-03 0.267D-02 0.183D-01 0.632D-01 0.252D+00 0.665D+00
 Coeff:      0.534D-06-0.427D-06-0.283D-04-0.699D-04-0.252D-03-0.334D-03
 Coeff:     -0.177D-03 0.267D-02 0.183D-01 0.632D-01 0.252D+00 0.665D+00
 Gap=     0.210 Goal=   None    Shift=    0.000
 RMSDP=7.22D-09 MaxDP=2.82D-07 DE=-4.21D-11 OVMax= 7.35D-07

 Error on total polarization charges =  0.00954
 SCF Done:  E(RB3LYP) =  -788.782765747     A.U. after   12 cycles
            NFock= 12  Conv=0.72D-08     -V/T= 2.0083
 KE= 7.823219729289D+02 PE=-4.341769776319D+03 EE= 1.508152861992D+03
 Leave Link  502 at Sun Jul 18 14:46:51 2021, MaxMem=   104857600 cpu:             838.1 elap:             216.9
 (Enter /dades/curu/g16A03_MST/g16/l601.exe)
 Copying SCF densities to generalized density rwf, IOpCl= 0 IROHF=0.

 **********************************************************************

            Population analysis using the SCF density.

 **********************************************************************

 Orbital symmetries:
       Occupied  (A) (A) (A) (A) (A) (A) (A) (A) (A) (A) (A) (A)
                 (A) (A) (A) (A) (A) (A) (A) (A) (A) (A) (A) (A)
                 (A) (A) (A) (A) (A) (A) (A) (A) (A) (A) (A) (A)
                 (A) (A) (A) (A) (A) (A) (A) (A) (A) (A) (A) (A)
                 (A) (A) (A) (A) (A) (A) (A) (A) (A) (A) (A) (A)
                 (A) (A) (A) (A) (A)
       Virtual   (A) (A) (A) (A) (A) (A) (A) (A) (A) (A) (A) (A)
                 (A) (A) (A) (A) (A) (A) (A) (A) (A) (A) (A) (A)
                 (A) (A) (A) (A) (A) (A) (A) (A) (A) (A) (A) (A)
                 (A) (A) (A) (A) (A) (A) (A) (A) (A) (A) (A) (A)
                 (A) (A) (A) (A) (A) (A) (A) (A) (A) (A) (A) (A)
                 (A) (A) (A) (A) (A) (A) (A) (A) (A) (A) (A) (A)
                 (A) (A) (A) (A) (A) (A) (A) (A) (A) (A) (A) (A)
                 (A) (A) (A) (A) (A) (A) (A) (A) (A) (A) (A) (A)
                 (A) (A) (A) (A) (A) (A) (A) (A) (A) (A) (A) (A)
                 (A) (A) (A) (A) (A) (A) (A) (A) (A) (A) (A) (A)
                 (A) (A) (A) (A) (A) (A) (A) (A) (A) (A) (A) (A)
                 (A) (A) (A) (A) (A) (A) (A) (A) (A) (A) (A) (A)
                 (A) (A) (A) (A) (A) (A) (A) (A) (A) (A) (A) (A)
                 (A) (A) (A) (A) (A) (A) (A) (A) (A) (A) (A) (A)
                 (A) (A) (A) (A) (A) (A) (A) (A) (A) (A) (A) (A)
                 (A) (A) (A) (A) (A) (A) (A) (A) (A) (A) (A) (A)
                 (A) (A) (A) (A) (A) (A) (A) (A) (A) (A) (A) (A)
                 (A) (A) (A) (A) (A) (A) (A) (A) (A) (A) (A) (A)
                 (A) (A) (A) (A) (A) (A) (A) (A) (A) (A) (A) (A)
                 (A) (A) (A) (A) (A) (A)
 The electronic state is 1-A.
 Alpha  occ. eigenvalues --  -19.18102 -19.18012 -19.15286 -14.50760 -10.29600
 Alpha  occ. eigenvalues --  -10.28426 -10.28002 -10.25928 -10.23614 -10.21844
 Alpha  occ. eigenvalues --  -10.21596 -10.21590 -10.21559 -10.21391 -10.21066
 Alpha  occ. eigenvalues --  -10.20572 -10.20171  -1.11859  -1.06307  -1.05309
 Alpha  occ. eigenvalues --   -1.04661  -0.87674  -0.86631  -0.80712  -0.78503
 Alpha  occ. eigenvalues --   -0.76303  -0.74790  -0.73015  -0.69298  -0.68939
 Alpha  occ. eigenvalues --   -0.66397  -0.65242  -0.63103  -0.59738  -0.56769
 Alpha  occ. eigenvalues --   -0.55476  -0.55217  -0.53219  -0.51219  -0.50880
 Alpha  occ. eigenvalues --   -0.49924  -0.48217  -0.47901  -0.46683  -0.46526
 Alpha  occ. eigenvalues --   -0.45520  -0.44569  -0.43936  -0.42860  -0.42362
 Alpha  occ. eigenvalues --   -0.41935  -0.41692  -0.40565  -0.40232  -0.38155
 Alpha  occ. eigenvalues --   -0.37945  -0.37391  -0.37074  -0.36275  -0.34930
 Alpha  occ. eigenvalues --   -0.32737  -0.30423  -0.28273  -0.26555  -0.23821
 Alpha virt. eigenvalues --   -0.02784  -0.01803   0.00724   0.04943   0.05431
 Alpha virt. eigenvalues --    0.05982   0.06699   0.07165   0.07348   0.08369
 Alpha virt. eigenvalues --    0.08781   0.10757   0.11276   0.11605   0.12398
 Alpha virt. eigenvalues --    0.13089   0.13744   0.14701   0.15215   0.15492
 Alpha virt. eigenvalues --    0.16349   0.16673   0.17648   0.17934   0.18900
 Alpha virt. eigenvalues --    0.19854   0.20213   0.20617   0.21467   0.22436
 Alpha virt. eigenvalues --    0.23481   0.24340   0.25440   0.25939   0.27982
 Alpha virt. eigenvalues --    0.29961   0.31384   0.32550   0.33890   0.37955
 Alpha virt. eigenvalues --    0.43063   0.45775   0.46606   0.47256   0.47644
 Alpha virt. eigenvalues --    0.48492   0.49880   0.50644   0.52026   0.52993
 Alpha virt. eigenvalues --    0.54465   0.54846   0.55521   0.56613   0.57131
 Alpha virt. eigenvalues --    0.57395   0.59387   0.60181   0.60591   0.61578
 Alpha virt. eigenvalues --    0.62012   0.62629   0.64348   0.65459   0.67917
 Alpha virt. eigenvalues --    0.68732   0.69570   0.69841   0.70109   0.71482
 Alpha virt. eigenvalues --    0.71784   0.73711   0.75345   0.76625   0.77455
 Alpha virt. eigenvalues --    0.78055   0.79388   0.80417   0.80580   0.81154
 Alpha virt. eigenvalues --    0.82833   0.83375   0.84030   0.85227   0.85298
 Alpha virt. eigenvalues --    0.86147   0.86386   0.86482   0.87355   0.87936
 Alpha virt. eigenvalues --    0.88940   0.89458   0.89823   0.90633   0.91514
 Alpha virt. eigenvalues --    0.92930   0.93865   0.93962   0.94600   0.95125
 Alpha virt. eigenvalues --    0.96620   0.98134   0.98610   0.99097   1.00614
 Alpha virt. eigenvalues --    1.01239   1.03256   1.04300   1.06757   1.08691
 Alpha virt. eigenvalues --    1.10566   1.10834   1.12143   1.14132   1.16675
 Alpha virt. eigenvalues --    1.20732   1.22567   1.23195   1.24502   1.25965
 Alpha virt. eigenvalues --    1.28227   1.29989   1.31989   1.36219   1.37234
 Alpha virt. eigenvalues --    1.38607   1.40060   1.42341   1.43868   1.46615
 Alpha virt. eigenvalues --    1.47563   1.48553   1.49686   1.54308   1.56735
 Alpha virt. eigenvalues --    1.58183   1.60920   1.62574   1.64393   1.66367
 Alpha virt. eigenvalues --    1.68254   1.69166   1.70091   1.71933   1.73121
 Alpha virt. eigenvalues --    1.76148   1.77537   1.78685   1.79810   1.80036
 Alpha virt. eigenvalues --    1.81796   1.82635   1.83520   1.86068   1.86335
 Alpha virt. eigenvalues --    1.89403   1.90282   1.91902   1.93432   1.94021
 Alpha virt. eigenvalues --    1.95990   1.96452   1.98869   2.01073   2.03996
 Alpha virt. eigenvalues --    2.04659   2.06465   2.07552   2.09464   2.10354
 Alpha virt. eigenvalues --    2.11783   2.12689   2.15832   2.16538   2.18952
 Alpha virt. eigenvalues --    2.21004   2.22085   2.22469   2.22941   2.23561
 Alpha virt. eigenvalues --    2.25017   2.27005   2.28412   2.29137   2.30349
 Alpha virt. eigenvalues --    2.32646   2.33357   2.35044   2.38046   2.41376
 Alpha virt. eigenvalues --    2.42695   2.43372   2.45022   2.46001   2.46813
 Alpha virt. eigenvalues --    2.47843   2.55648   2.57286   2.58148   2.58794
 Alpha virt. eigenvalues --    2.62973   2.66182   2.67104   2.69774   2.70272
 Alpha virt. eigenvalues --    2.71120   2.73743   2.74618   2.76775   2.81952
 Alpha virt. eigenvalues --    2.85452   2.86490   2.91666   2.95404   2.98300
 Alpha virt. eigenvalues --    3.14957   3.40904   3.76895   3.88231   3.93446
 Alpha virt. eigenvalues --    4.03072   4.09965   4.12929   4.18031   4.19358
 Alpha virt. eigenvalues --    4.22950   4.27237   4.29297   4.31452   4.39473
 Alpha virt. eigenvalues --    4.45868   4.54137   4.62490   4.77252
          Condensed to atoms (all electrons):
               1          2          3          4          5          6
     1  C    5.211342   0.367347   0.365292   0.379921   0.383796  -0.065527
     2  H    0.367347   0.530523  -0.036281  -0.017748  -0.028981   0.005265
     3  H    0.365292  -0.036281   0.535842  -0.020401  -0.030588  -0.008096
     4  H    0.379921  -0.017748  -0.020401   0.492645  -0.028042  -0.003467
     5  C    0.383796  -0.028981  -0.030588  -0.028042   4.820752   0.394864
     6  C   -0.065527   0.005265  -0.008096  -0.003467   0.394864   5.187306
     7  H   -0.002801   0.000255  -0.000334   0.001663  -0.025126   0.375712
     8  H   -0.006011  -0.000287   0.005690   0.000010  -0.028866   0.360088
     9  H    0.004171  -0.000136   0.000164  -0.000096  -0.020354   0.371158
    10  C   -0.083499  -0.002491   0.006609  -0.009347   0.395279  -0.064586
    11  H   -0.012454   0.000085   0.000410   0.005901  -0.028086  -0.001950
    12  H    0.007390  -0.000116  -0.000262   0.000260  -0.034916  -0.007992
    13  H   -0.003115   0.001451  -0.000116   0.000031  -0.028807   0.005469
    14  N   -0.052167  -0.003866  -0.002094   0.004392   0.168778  -0.056007
    15  H   -0.004627   0.000850   0.004531  -0.000000  -0.023580   0.000272
    16  C    0.004414   0.000125  -0.000286  -0.000102  -0.038094  -0.009896
    17  H    0.000280  -0.000012   0.000006   0.000002  -0.000622  -0.002199
    18  H   -0.000149  -0.000005   0.000009  -0.000003  -0.003285   0.000737
    19  C   -0.000174  -0.000000   0.000001   0.000002   0.003485   0.000642
    20  O   -0.000031  -0.000005   0.000001   0.000000   0.000717  -0.000056
    21  H    0.000536  -0.000101  -0.000016  -0.000007  -0.005229   0.000195
    22  H    0.000001  -0.000000  -0.000000  -0.000000   0.000112  -0.000026
    23  C    0.000006   0.000000   0.000001  -0.000000  -0.000404   0.000006
    24  C   -0.000000   0.000000   0.000000  -0.000000   0.000003  -0.000001
    25  H   -0.000000   0.000000   0.000000   0.000000   0.000000  -0.000000
    26  C    0.000000  -0.000000   0.000000   0.000000  -0.000000  -0.000000
    27  C   -0.000000   0.000000  -0.000000   0.000000   0.000000  -0.000000
    28  O    0.000000   0.000000  -0.000000   0.000000  -0.000000   0.000000
    29  H   -0.000000  -0.000000  -0.000000  -0.000000   0.000000  -0.000000
    30  H    0.000000  -0.000000   0.000000  -0.000000   0.000000  -0.000000
    31  H    0.000000  -0.000000   0.000000  -0.000000  -0.000000  -0.000000
    32  C   -0.000000   0.000000  -0.000000   0.000000  -0.000000   0.000000
    33  O    0.000000  -0.000000   0.000000  -0.000000  -0.000000  -0.000000
    34  H   -0.000000   0.000000  -0.000000  -0.000000   0.000000  -0.000000
    35  C   -0.000000  -0.000000  -0.000000   0.000000   0.000001  -0.000000
    36  H   -0.000000  -0.000000   0.000000   0.000000   0.000000  -0.000000
    37  C   -0.000005  -0.000002  -0.000000  -0.000000   0.000087  -0.000005
    38  H   -0.000013   0.000007  -0.000001   0.000000   0.000082  -0.000001
    39  H   -0.002558   0.001791  -0.000166  -0.000030  -0.009017   0.003610
               7          8          9         10         11         12
     1  C   -0.002801  -0.006011   0.004171  -0.083499  -0.012454   0.007390
     2  H    0.000255  -0.000287  -0.000136  -0.002491   0.000085  -0.000116
     3  H   -0.000334   0.005690   0.000164   0.006609   0.000410  -0.000262
     4  H    0.001663   0.000010  -0.000096  -0.009347   0.005901   0.000260
     5  C   -0.025126  -0.028866  -0.020354   0.395279  -0.028086  -0.034916
     6  C    0.375712   0.360088   0.371158  -0.064586  -0.001950  -0.007992
     7  H    0.512983  -0.035086  -0.028897  -0.003036   0.001243  -0.000169
     8  H   -0.035086   0.551635  -0.022372   0.005953  -0.000050   0.000107
     9  H   -0.028897  -0.022372   0.503492  -0.003363  -0.000124   0.003223
    10  C   -0.003036   0.005953  -0.003363   5.158112   0.382086   0.368731
    11  H    0.001243  -0.000050  -0.000124   0.382086   0.493001  -0.024770
    12  H   -0.000169   0.000107   0.003223   0.368731  -0.024770   0.538773
    13  H   -0.000002  -0.000214  -0.000003   0.366004  -0.016231  -0.030390
    14  N    0.003844  -0.005956  -0.001024  -0.059571   0.004706  -0.000319
    15  H   -0.000026   0.001265  -0.000156   0.004431  -0.000108  -0.000181
    16  C    0.000420  -0.001503   0.000103  -0.000074  -0.000051   0.001146
    17  H    0.000003  -0.000016   0.001343   0.001072  -0.000059   0.001113
    18  H    0.000084   0.001889  -0.000307   0.000167  -0.000000   0.000034
    19  C   -0.000010   0.000075   0.000015  -0.000146   0.000003  -0.000125
    20  O    0.000000  -0.000000  -0.000001   0.000193   0.000001  -0.000031
    21  H   -0.000002  -0.000021   0.000017  -0.000294  -0.000001   0.000603
    22  H    0.000000   0.000001   0.000001  -0.000013  -0.000000  -0.000001
    23  C    0.000000  -0.000014  -0.000002   0.000007   0.000000   0.000001
    24  C    0.000000  -0.000000  -0.000000  -0.000000  -0.000000  -0.000000
    25  H   -0.000000   0.000000  -0.000000  -0.000000  -0.000000  -0.000000
    26  C    0.000000   0.000000   0.000000   0.000000  -0.000000  -0.000000
[...]
    35  C   -0.000591   0.007479   0.005308  -0.000120   0.000811  -0.000709
    36  H   -0.000015  -0.000034   0.000054  -0.000253  -0.000006   0.000025
    37  C   -0.002616  -0.003593  -0.004421   0.029823   0.001555   0.003398
    38  H    0.000007   0.000059   0.000244   0.002074  -0.000065  -0.000141
    39  H   -0.001258  -0.005810   0.012029   0.004565  -0.000634  -0.020768
              13         14         15         16         17         18
     1  C   -0.053928   0.153367  -0.035839   0.059534   0.033135  -0.009212
     2  H   -0.036573  -0.091961   0.010019  -0.006420   0.000974   0.005650
     3  H    0.015032  -0.110398   0.017879  -0.005454   0.003976  -0.000517
     4  H   -0.005193   0.086897  -0.024118   0.031715  -0.000502  -0.004720
     5  C    0.212192  -2.351133   0.067317  -0.123851  -0.004404   0.099126
     6  C   -0.013465   0.183211  -0.016356  -0.092134   0.040735  -0.041386
     7  H    0.004053   0.095742  -0.002441  -0.033699   0.005282   0.006929
     8  H   -0.011458  -0.079012   0.022680   0.068947   0.002900  -0.000079
     9  H    0.018690  -0.095376  -0.015920   0.020244  -0.017181  -0.008223
    10  C    0.148244   0.080701  -0.008276   0.055411  -0.036760   0.016351
    11  H   -0.276738   0.096669  -0.001310  -0.047133   0.013276  -0.009503
    12  H   -0.263004  -0.074480   0.011522   0.108039  -0.026173   0.006696
    13  H    1.317738  -0.068895  -0.003216   0.041537  -0.008242  -0.005007
    14  N   -0.068895   9.802910   0.229496  -0.566662  -0.143087  -0.040598
    15  H   -0.003216   0.229496   0.649657   0.083381   0.038238  -0.045780
    16  C    0.041537  -0.566662   0.083381   6.521993   0.071270  -0.146268
    17  H   -0.008242  -0.143087   0.038238   0.071270   1.841164  -0.342257
    18  H   -0.005007  -0.040598  -0.045780  -0.146268  -0.342257   1.961044
    19  C   -0.013558   0.044930  -0.203985  -0.232489  -0.150998  -0.032351
    20  O   -0.004179  -0.005471   0.005106   0.106917   0.044796   0.019387
    21  H   -0.000051   0.007522  -0.002264  -0.081137   0.004607   0.002927
    22  H   -0.000484   0.086311   0.005320   0.081106  -0.099536  -0.007554
    23  C    0.005699  -0.167133   0.185243   0.142569   0.119609  -0.139058
    24  C    0.011200   0.304269  -0.159477  -1.189917  -0.161521   0.038766
    25  H    0.001103  -0.060959   0.027604   0.204760   0.006373  -0.018597
    26  C   -0.001392   0.026582   0.082348   0.001300   0.000159  -0.050644
    27  C   -0.000156   0.009937  -0.006189  -0.047804   0.000960  -0.007340
    28  O    0.000003   0.000091  -0.001350  -0.000607  -0.000174   0.002436
    29  H    0.000001  -0.000232   0.000575  -0.001530  -0.000290   0.000499
    30  H   -0.000084   0.007018  -0.003868   0.001668   0.000648   0.005451
    31  H   -0.000012  -0.002074   0.000645  -0.001040   0.000330  -0.003264
    32  C    0.001224   0.064658  -0.014396  -0.212688  -0.020131   0.013732
    33  O   -0.000012   0.000004  -0.001423   0.003275   0.000236  -0.000050
    34  H    0.000012   0.000876  -0.000050  -0.001695  -0.000087  -0.000091
    35  C   -0.003050  -0.092962   0.047997   0.222299   0.033304  -0.036105
    36  H   -0.000061  -0.001700   0.000047   0.002273   0.000386   0.001212
    37  C   -0.003792  -0.116558  -0.059812   0.125175   0.020921   0.101330
    38  H    0.000541   0.018834   0.004578  -0.011343   0.000309  -0.005642
    39  H    0.014573   0.352325  -0.095315  -0.007616  -0.054109   0.055769
              19         20         21         22         23         24
     1  C   -0.044284   0.004422  -0.001644  -0.004146  -0.042390  -0.027093
     2  H   -0.001921   0.000605   0.000133  -0.000364   0.002080  -0.004407
     3  H    0.010434  -0.002368  -0.000248  -0.000323  -0.004219  -0.006635
     4  H   -0.003372   0.000854  -0.000033   0.000153  -0.001282   0.000449
     5  C   -0.182342  -0.000648   0.001359   0.000940   0.015276  -0.182317
     6  C    0.049220  -0.000283   0.000050  -0.001170   0.005741  -0.004891
     7  H   -0.004653  -0.000079  -0.000205   0.000269   0.003358  -0.002227
     8  H    0.002540   0.000051   0.000493  -0.000793   0.016844  -0.019179
     9  H    0.044426  -0.000528   0.000588  -0.001287  -0.029112   0.018284
    10  C   -0.022097   0.006771   0.000321   0.001656   0.068736   0.015128
    11  H    0.020455   0.001328   0.000443   0.000470   0.000338  -0.001238
    12  H   -0.045043   0.001753  -0.001696   0.003526   0.021949  -0.005658
    13  H   -0.013558  -0.004179  -0.000051  -0.000484   0.005699   0.011200
    14  N    0.044930  -0.005471   0.007522   0.086311  -0.167133   0.304269
    15  H   -0.203985   0.005106  -0.002264   0.005320   0.185243  -0.159477
    16  C   -0.232489   0.106917  -0.081137   0.081106   0.142569  -1.189917
    17  H   -0.150998   0.044796   0.004607  -0.099536   0.119609  -0.161521
    18  H   -0.032351   0.019387   0.002927  -0.007554  -0.139058   0.038766
    19  C   11.129804  -0.191178   0.111690  -0.434627  -2.218762  -1.268640
    20  O   -0.191178   8.879123   0.369412  -0.116194  -0.269631  -0.188915
    21  H    0.111690   0.369412   0.476975  -0.067172  -0.094750  -0.029110
    22  H   -0.434627  -0.116194  -0.067172   1.392587   0.060553   0.223882
    23  C   -2.218762  -0.269631  -0.094750   0.060553  25.579119  -7.456697
    24  C   -1.268640  -0.188915  -0.029110   0.223882  -7.456697  29.046627
    25  H   -0.203523   0.019277  -0.000415  -0.027733   1.365603  -2.551198
    26  C   -0.698435  -0.115261  -0.000208  -0.046779   1.398845  -4.475518
    27  C   -0.105051  -0.003102   0.000351   0.000805  -1.220775  -0.960960
    28  O    0.003102  -0.000114   0.000017   0.000808   0.018894  -0.023824
    29  H   -0.006055  -0.000144   0.000027  -0.000018  -0.011923  -0.027569
    30  H    0.011754  -0.001180  -0.000008   0.000650   0.182943   0.305432
    31  H    0.003254   0.000170  -0.000015  -0.000086  -0.088164  -0.263938
    32  C    0.082653   0.013296  -0.002268   0.043230  -7.030625   1.270926
    33  O    0.008767  -0.000341   0.000106   0.000205   0.209789  -0.167309
    34  H   -0.000847  -0.000010  -0.000008   0.000234  -0.020839   0.074619
    35  C    0.406253  -0.093720   0.024302  -0.060659   2.518585  -6.929126
    36  H    0.047663   0.003173  -0.000068  -0.000689  -0.344800   0.102419
    37  C   -0.672366   0.552573   0.020495   0.036020  -8.355707   0.032633
    38  H    0.113061  -0.104156   0.005432   0.007505   0.865789   0.067772
    39  H    0.003577   0.001083   0.000019   0.005396  -0.078155  -0.025085
              25         26         27         28         29         30
     1  C    0.004087   0.018226   0.005708  -0.000037  -0.000079   0.000309
     2  H   -0.001118   0.005279   0.000551  -0.000008   0.000002   0.000035
     3  H    0.000693  -0.002252  -0.000258   0.000043  -0.000024   0.000175
     4  H    0.000984  -0.001206   0.000180  -0.000000  -0.000005  -0.000052
     5  C    0.022985  -0.016006  -0.018800   0.000111   0.000151  -0.003053
     6  C   -0.002336   0.003082   0.004571  -0.000283  -0.000140   0.001761
     7  H    0.000791   0.003320   0.000377  -0.000045  -0.000006   0.000044
     8  H   -0.016096   0.001806   0.002580  -0.000101   0.000099   0.002226
     9  H    0.015283  -0.013283  -0.002743  -0.000102  -0.000111  -0.002885
    10  C   -0.000202  -0.018710  -0.000620   0.000026   0.000030   0.000270
    11  H    0.000485  -0.000695   0.000010   0.000001   0.000002   0.000079
    12  H   -0.002254   0.001700   0.000013   0.000005   0.000019   0.000011
    13  H    0.001103  -0.001392  -0.000156   0.000003   0.000001  -0.000084
    14  N   -0.060959   0.026582   0.009937   0.000091  -0.000232   0.007018
    15  H    0.027604   0.082348  -0.006189  -0.001350   0.000575  -0.003868
    16  C    0.204760   0.001300  -0.047804  -0.000607  -0.001530   0.001668
    17  H    0.006373   0.000159   0.000960  -0.000174  -0.000290   0.000648
    18  H   -0.018597  -0.050644  -0.007340   0.002436   0.000499   0.005451
    19  C   -0.203523  -0.698435  -0.105051   0.003102  -0.006055   0.011754
    20  O    0.019277  -0.115261  -0.003102  -0.000114  -0.000144  -0.001180
    21  H   -0.000415  -0.000208   0.000351   0.000017   0.000027  -0.000008
    22  H   -0.027733  -0.046779   0.000805   0.000808  -0.000018   0.000650
    23  C    1.365603   1.398845  -1.220775   0.018894  -0.011923   0.182943
    24  C   -2.551198  -4.475518  -0.960960  -0.023824  -0.027569   0.305432
    25  H    2.858444   0.548147  -0.081341  -0.049296   0.001039  -0.103936
    26  C    0.548147  20.345794  -0.884586   0.283863  -0.006554   0.180700
    27  C   -0.081341  -0.884586   6.397383   0.085040  -0.005373   0.008747
    28  O   -0.049296   0.283863   0.085040   8.487201   0.277264   0.061340
    29  H    0.001039  -0.006554  -0.005373   0.277264   0.604778  -0.033188
    30  H   -0.103936   0.180700   0.008747   0.061340  -0.033188   1.200703
    31  H    0.039202  -0.176295   0.141288  -0.089206   0.015113  -0.202730
    32  C   -0.335930  -4.754031   0.489897  -0.281037   0.021705  -0.304342
    33  O   -0.000922   0.200913   0.041128  -0.004891  -0.001961   0.003175
    34  H   -0.002660  -0.058217  -0.018019  -0.000196  -0.000864   0.003155
    35  C    0.131755   1.861543   0.286304  -0.010308   0.004126  -0.082247
    36  H    0.009185  -0.344885   0.016184  -0.000036   0.000001  -0.000903
    37  C    0.053365  -7.176648   0.513480  -0.055053  -0.000105   0.001594
    38  H   -0.020920   0.030825  -0.009170  -0.000857   0.000462  -0.002181
    39  H    0.006144  -0.022306  -0.004352   0.000054  -0.000060   0.000094
              31         32         33         34         35         36
     1  C    0.000929  -0.013412   0.000501  -0.000206  -0.013495   0.000058
     2  H    0.000038  -0.002787   0.000047  -0.000034   0.000792   0.000061
     3  H    0.000211  -0.000952   0.000114  -0.000044  -0.002863   0.000141
     4  H    0.000042   0.000038   0.000025  -0.000004  -0.000976   0.000011
     5  C   -0.000022   0.021270  -0.000945   0.000258  -0.002111   0.000527
     6  C   -0.000088  -0.005307   0.000010   0.000024   0.007091  -0.000154
     7  H    0.000093  -0.000158  -0.000019   0.000000  -0.000591  -0.000015
     8  H   -0.000931  -0.006110   0.000324  -0.000037   0.007479  -0.000034
     9  H    0.000405  -0.002259   0.000009  -0.000020   0.005308   0.000054
    10  C   -0.000224   0.004502  -0.000053   0.000050  -0.000120  -0.000253
    11  H   -0.000015  -0.000200   0.000000   0.000002   0.000811  -0.000006
    12  H   -0.000023   0.000333  -0.000011  -0.000003  -0.000709   0.000025
    13  H   -0.000012   0.001224  -0.000012   0.000012  -0.003050  -0.000061
    14  N   -0.002074   0.064658   0.000004   0.000876  -0.092962  -0.001700
    15  H    0.000645  -0.014396  -0.001423  -0.000050   0.047997   0.000047
    16  C   -0.001040  -0.212688   0.003275  -0.001695   0.222299   0.002273
    17  H    0.000330  -0.020131   0.000236  -0.000087   0.033304   0.000386
    18  H   -0.003264   0.013732  -0.000050  -0.000091  -0.036105   0.001212
    19  C    0.003254   0.082653   0.008767  -0.000847   0.406253   0.047663
    20  O    0.000170   0.013296  -0.000341  -0.000010  -0.093720   0.003173
    21  H   -0.000015  -0.002268   0.000106  -0.000008   0.024302  -0.000068
    22  H   -0.000086   0.043230   0.000205   0.000234  -0.060659  -0.000689
    23  C   -0.088164  -7.030625   0.209789  -0.020839   2.518585  -0.344800
    24  C   -0.263938   1.270926  -0.167309   0.074619  -6.929126   0.102419
    25  H    0.039202  -0.335930  -0.000922  -0.002660   0.131755   0.009185
    26  C   -0.176295  -4.754031   0.200913  -0.058217   1.861543  -0.344885
    27  C    0.141288   0.489897   0.041128  -0.018019   0.286304   0.016184
    28  O   -0.089206  -0.281037  -0.004891  -0.000196  -0.010308  -0.000036
    29  H    0.015113   0.021705  -0.001961  -0.000864   0.004126   0.000001
    30  H   -0.202730  -0.304342   0.003175   0.003155  -0.082247  -0.000903
    31  H    1.183661   0.469005  -0.015328  -0.004871   0.083599   0.004092
    32  C    0.469005  19.297527  -1.357555   0.072234  -6.803914   1.200281
    33  O   -0.015328  -1.357555   9.187509   0.259151   0.826463  -0.143991
    34  H   -0.004871   0.072234   0.259151   0.543903  -0.134233   0.008005
    35  C    0.083599  -6.803914   0.826463  -0.134233  21.344577  -1.873783
    36  H    0.004092   1.200281  -0.143991   0.008005  -1.873783   2.068982
    37  C    0.065144   3.221264  -0.067768   0.038866  -6.847865   0.982478
    38  H   -0.000295  -0.331032   0.001918  -0.001002   0.755313  -0.101780
    39  H    0.000012   0.002762  -0.000100  -0.000048   0.016459   0.000803
              37         38         39
     1  C   -0.019951  -0.004099  -0.000822
     2  H   -0.007708  -0.000825  -0.014701
     3  H   -0.005688  -0.001807  -0.005848
     4  H    0.002901   0.000155   0.008317
     5  C    0.055942  -0.008064  -0.040137
     6  C   -0.018422   0.001740  -0.000811
     7  H   -0.002616   0.000007  -0.001258
     8  H   -0.003593   0.000059  -0.005810
     9  H   -0.004421   0.000244   0.012029
    10  C    0.029823   0.002074   0.004565
    11  H    0.001555  -0.000065  -0.000634
    12  H    0.003398  -0.000141  -0.020768
    13  H   -0.003792   0.000541   0.014573
    14  N   -0.116558   0.018834   0.352325
    15  H   -0.059812   0.004578  -0.095315
    16  C    0.125175  -0.011343  -0.007616
    17  H    0.020921   0.000309  -0.054109
    18  H    0.101330  -0.005642   0.055769
    19  C   -0.672366   0.113061   0.003577
    20  O    0.552573  -0.104156   0.001083
    21  H    0.020495   0.005432   0.000019
    22  H    0.036020   0.007505   0.005396
    23  C   -8.355707   0.865789  -0.078155
    24  C    0.032633   0.067772  -0.025085
    25  H    0.053365  -0.020920   0.006144
    26  C   -7.176648   0.030825  -0.022306
    27  C    0.513480  -0.009170  -0.004352
    28  O   -0.055053  -0.000857   0.000054
    29  H   -0.000105   0.000462  -0.000060
    30  H    0.001594  -0.002181   0.000094
    31  H    0.065144  -0.000295   0.000012
    32  C    3.221264  -0.331032   0.002762
    33  O   -0.067768   0.001918  -0.000100
    34  H    0.038866  -0.001002  -0.000048
    35  C   -6.847865   0.755313   0.016459
    36  H    0.982478  -0.101780   0.000803
    37  C   25.186723  -1.805267   0.008887
    38  H   -1.805267   2.241888  -0.001826
    39  H    0.008887  -0.001826   0.625123
 Mulliken charges:
               1
     1  C    1.342706
     2  H   -0.003185
     3  H   -0.002190
     4  H    0.027131
     5  C   -3.429261
     6  C    1.278671
     7  H   -0.024646
     8  H   -0.002470
     9  H   -0.026279
    10  C    1.308490
    11  H    0.004738
    12  H   -0.041035
    13  H   -0.019293
    14  N   -0.583661
    15  H    0.211732
    16  C    0.856077
    17  H   -0.218141
    18  H   -0.383056
    19  C    0.642995
    20  O   -0.932594
    21  H    0.254031
    22  H   -0.082012
    23  C    0.786461
    24  C    0.620044
    25  H   -0.837876
    26  C   -0.130526
    27  C    1.371144
    28  O   -0.702776
    29  H    0.170337
    30  H   -0.239324
    31  H   -0.158615
    32  C    1.188599
    33  O   -0.980991
    34  H    0.242696
    35  C    0.404475
    36  H   -0.634903
    37  C    0.168776
    38  H   -0.708034
    39  H    0.261767
 Sum of Mulliken charges =   1.00000
 Mulliken charges with hydrogens summed into heavy atoms:
               1
     1  C    1.364462
     5  C   -3.429261
     6  C    1.225276
    10  C    1.252900
    14  N   -0.110162
    16  C    0.254880
    19  C    0.560983
    20  O   -0.678563
    23  C    0.786461
    24  C   -0.217832
    26  C   -0.130526
    27  C    0.973205
    28  O   -0.532439
    32  C    1.188599
    33  O   -0.738295
    35  C   -0.230428
    37  C   -0.539259
 Electronic spatial extent (au):  <R**2>=           5577.9811
 Charge=              1.0000 electrons
 Dipole moment (field-independent basis, Debye):
    X=            -11.3069    Y=             -1.3807    Z=              0.3308  Tot=             11.3957
 Quadrupole moment (field-independent basis, Debye-Ang):
   XX=            -69.7238   YY=            -91.5161   ZZ=            -83.2371
   XY=            -10.6971   XZ=             -6.6070   YZ=             -1.4222
 Traceless Quadrupole moment (field-independent basis, Debye-Ang):
   XX=             11.7685   YY=            -10.0238   ZZ=             -1.7447
   XY=            -10.6971   XZ=             -6.6070   YZ=             -1.4222
 Octapole moment (field-independent basis, Debye-Ang**2):
  XXX=           -190.4599  YYY=            -12.0872  ZZZ=              5.9963  XYY=            -30.6419
  XXY=            -30.9792  XXZ=            -45.4207  XZZ=             16.6253  YZZ=            -18.1453
  YYZ=              4.0834  XYZ=             24.7276
 Hexadecapole moment (field-independent basis, Debye-Ang**3):
 XXXX=          -4929.1932 YYYY=          -1134.4372 ZZZZ=           -685.9702 XXXY=           -299.9398
 XXXZ=           -131.5558 YYYX=             36.5271 YYYZ=            -48.9180 ZZZX=            -39.2796
 ZZZY=             -1.2790 XXYY=          -1002.4783 XXZZ=           -783.2138 YYZZ=           -287.5365
 XXYZ=             -6.9807 YYXZ=            -57.8164 ZZXY=            -12.6530
 N-N= 1.273110930741D+03 E-N=-4.362922174903D+03  KE= 7.829848827794D+02
 Leave Link  601 at Sun Jul 18 20:13:50 2021, MaxMem=   262144000 cpu:               0.6 elap:               0.5
 (Enter /dades/curu/g16A03_MST/g16/l9999.exe)
 1\1\GINC-PIRINEUS35\SP\RMP2-FC\Aug-CC-pVDZ\C13H22N1O3(1+)\UBATOR02\18-
 Jul-2021\0\\#p mp2/aug-cc-pVDZ scf=tight maxdisk=180GB geom=allcheck\\
 SET_328_BBB301_conf1.geo_090_105_255 geometry\\1,1\C,0,-0.7053117532,3
 .4918961154,1.1512623416\H,0,0.2793547816,3.8790607414,1.4259510863\H,
 0,-1.0340989694,2.7912128625,1.9241526589\H,0,-1.4031719563,4.33218722
 58,1.1478078978\C,0,-0.6905094215,2.8440972097,-0.2391019809\C,0,-2.05
 7701748,2.237720569,-0.5780219698\H,0,-2.8079762491,3.0297021414,-0.55
 4347273\H,0,-2.3564275489,1.4778779379,0.1493475742\H,0,-2.0796295083,
 1.7951813502,-1.5771380587\C,0,-0.2353778505,3.8485806865,-1.305210845
 4\H,0,-0.9434682977,4.6788586136,-1.3257408928\H,0,-0.2130590843,3.411
 8427696,-2.3065367413\H,0,0.7512403043,4.2605388148,-1.0778083292\N,0,
 0.3427515512,1.6970881126,-0.1629407871\H,0,0.0706428501,1.0660808634,
 0.6044467904\C,0,0.5685580795,0.8784713684,-1.4013014505\H,0,0.8642318
 261,1.5651984762,-2.1924184121\H,0,-0.3718318255,0.4020063201,-1.67238
 52475\C,0,1.6792665108,-0.1560164484,-1.1413985045\O,0,2.8277746332,0.
 5234963304,-0.648764734\H,0,3.3409888407,0.8555951035,-1.402813651\H,0
 ,1.8934959027,-0.6291236923,-2.1067173511\C,0,1.254249098,-1.218093892
 2,-0.1401937521\C,0,0.1072121948,-1.9913931982,-0.3733779187\H,0,-0.48
 48961939,-1.8299385189,-1.2719944065\C,0,-0.3144157638,-2.9811904735,0
 .5106990647\C,0,-1.5309261841,-3.8201465848,0.2146068017\O,0,-1.212060
 6521,-5.1470194417,-0.1987951673\H,0,-0.6775545032,-5.0741177058,-1.00
 53633206\H,0,-2.141734324,-3.3080106429,-0.5413535247\H,0,-2.137920258
 4,-3.9380007798,1.1151434308\C,0,0.4444693865,-3.2048020624,1.67534680
 38\O,0,-0.0021624512,-4.1634474595,2.5291989379\H,0,0.5855476478,-4.21
 35440556,3.3022391446\C,0,1.5895565311,-2.4463194573,1.9227650009\H,0,
 2.1674802653,-2.623228541,2.8237718156\C,0,1.993462249,-1.4644301218,1
 .0185038421\H,0,2.8900754562,-0.8865763403,1.2087024046\H,0,1.25987643
 44,2.0757058042,0.1217787228\\Version=ES64L-G16RevA.03\State=1-A\HF=-7
 84.0294681\MP2=-786.6650277\RMSD=5.914e-09\PG=C01 [X(C13H22N1O3)]\\@


 TO DRY ONE'S EYES AND LAUGH AT A FALL
 AND BAFFLED, GET UP AND BEGIN AGAIN.
           R. BROWNING
 Job cpu time:       0 days  3 hours 32 minutes  0.2 seconds.
 Elapsed time:       0 days  1 hours  4 minutes  8.7 seconds.
 File lengths (MBytes):  RWF= 102482 Int=      0 D2E=      0 Chk=     28 Scr=      1
 Normal termination of Gaussian 16 at Sun Jul 18 20:13:53 2021.
