 Entering Gaussian System, Link 0=g16
 Input=SET_328_BBB324_conf1.geo_180_315_180_OCTANOL.dat
 Output=SET_328_BBB324_conf1.geo_180_315_180_OCTANOL.log
 Initial command:
 /dades/curu/g16A03_MST/g16/l1.exe "/tmp/ubator02/1839708/Gau-158592.inp" -scrdir="/tmp/ubator02/1839708/"
 Entering Link 1 = /dades/curu/g16A03_MST/g16/l1.exe PID=    158593.
  
 Copyright (c) 1988,1990,1992,1993,1995,1998,2003,2009,2016,
            Gaussian, Inc.  All Rights Reserved.
  
 This is part of the Gaussian(R) 16 program.  It is based on
 the Gaussian(R) 09 system (copyright 2009, Gaussian, Inc.),
 the Gaussian(R) 03 system (copyright 2003, Gaussian, Inc.),
 the Gaussian(R) 98 system (copyright 1998, Gaussian, Inc.),
 the Gaussian(R) 94 system (copyright 1995, Gaussian, Inc.),
 the Gaussian 92(TM) system (copyright 1992, Gaussian, Inc.),
 the Gaussian 90(TM) system (copyright 1990, Gaussian, Inc.),
 the Gaussian 88(TM) system (copyright 1988, Gaussian, Inc.),
 the Gaussian 86(TM) system (copyright 1986, Carnegie Mellon
 University), and the Gaussian 82(TM) system (copyright 1983,
 Carnegie Mellon University). Gaussian is a federally registered
 trademark of Gaussian, Inc.
  
 This software contains proprietary and confidential information,
 including trade secrets, belonging to Gaussian, Inc.
  
 This software is provided under written license and may be
 used, copied, transmitted, or stored only in accord with that
 written license.
  
 The following legend is applicable only to US Government
 contracts under FAR:
  
                    RESTRICTED RIGHTS LEGEND
  
 Use, reproduction and disclosure by the US Government is
 subject to restrictions as set forth in subparagraphs (a)
 and (c) of the Commercial Computer Software - Restricted
 Rights clause in FAR 52.227-19.
  
 Gaussian, Inc.
 340 Quinnipiac St., Bldg. 40, Wallingford CT 06492
  
  
 ---------------------------------------------------------------
 Warning -- This program may not be used in any manner that
 competes with the business of Gaussian, Inc. or will provide
 assistance to any competitor of Gaussian, Inc.  The licensee
 of this program is prohibited from giving any competitor of
 Gaussian, Inc. access to this program.  By using this program,
 the user acknowledges that Gaussian, Inc. is engaged in the
 business of creating and licensing software in the field of
 computational chemistry and represents and warrants to the
 licensee that it is not a competitor of Gaussian, Inc. and that
 it will not use this program in any manner prohibited above.
 ---------------------------------------------------------------
  

 Cite this work as:
 Gaussian 16, Revision A.03,
 M. J. Frisch, G. W. Trucks, H. B. Schlegel, G. E. Scuseria, 
 M. A. Robb, J. R. Cheeseman, G. Scalmani, V. Barone, 
 G. A. Petersson, H. Nakatsuji, X. Li, M. Caricato, A. V. Marenich, 
 J. Bloino, B. G. Janesko, R. Gomperts, B. Mennucci, H. P. Hratchian, 
 J. V. Ortiz, A. F. Izmaylov, J. L. Sonnenberg, D. Williams-Young, 
 F. Ding, F. Lipparini, F. Egidi, J. Goings, B. Peng, A. Petrone, 
 T. Henderson, D. Ranasinghe, V. G. Zakrzewski, J. Gao, N. Rega, 
 G. Zheng, W. Liang, M. Hada, M. Ehara, K. Toyota, R. Fukuda, 
 J. Hasegawa, M. Ishida, T. Nakajima, Y. Honda, O. Kitao, H. Nakai, 
 T. Vreven, K. Throssell, J. A. Montgomery, Jr., J. E. Peralta, 
 F. Ogliaro, M. J. Bearpark, J. J. Heyd, E. N. Brothers, K. N. Kudin, 
 V. N. Staroverov, T. A. Keith, R. Kobayashi, J. Normand, 
 K. Raghavachari, A. P. Rendell, J. C. Burant, S. S. Iyengar, 
 J. Tomasi, M. Cossi, J. M. Millam, M. Klene, C. Adamo, R. Cammi, 
 J. W. Ochterski, R. L. Martin, K. Morokuma, O. Farkas, 
 J. B. Foresman, and D. J. Fox, Gaussian, Inc., Wallingford CT, 2016.
 
 ******************************************
 Gaussian 16:  ES64L-G16RevA.03 25-Dec-2016
                18-Jul-2021 
 ******************************************
 %mem=800MB
 %nproc=4
 Will use up to    4 processors via shared memory.
 %chk=SET_328_BBB324_conf1.geo_180_315_180.chk
 ---------------------------------------------------------------
 #p b3lyp/6-31G(d) opt freq scrf=(iefpcm,read,solvent=n-octanol)
 ---------------------------------------------------------------
 1/18=20,19=15,26=3,38=1,40=2/1,3;
 2/9=110,12=2,17=6,18=5,40=1/2;
 3/5=1,6=6,7=1,11=2,25=1,30=1,70=2203,71=1,72=25,74=-5/1,2,3;
 4//1;
 5/5=2,38=5,53=25/2;
 6/7=2,8=2,9=2,10=2,28=1/1;
 7//1,2,3,16;
 1/18=20,19=15,26=3/3(2);
 2/9=110/2;
 99//99;
 2/9=110/2;
 3/5=1,6=6,7=1,11=2,25=1,30=1,70=2205,71=1,72=25,74=-5/1,2,3;
 4/5=5,16=3,69=1/1;
 5/5=2,38=5,53=25/2;
 7//1,2,3,16;
 1/18=20,19=15,26=3/3(-5);
 2/9=110/2;
 6/7=2,8=2,9=2,10=2,19=2,28=1/1;
 99/9=1/99;
 Leave Link    1 at Sun Jul 18 16:28:40 2021, MaxMem=   104857600 cpu:               0.0 elap:               0.0
 (Enter /dades/curu/g16A03_MST/g16/l101.exe)
 ---------------------------------------------
 SET_328_BBB324_conf1.geo_180_315_180 geometry
 ---------------------------------------------
 Symbolic Z-matrix:
 Charge =  1 Multiplicity = 1
 C                     0.185     1.905     1.666 
 H                     0.827     2.492     2.328 
 H                     0.311     0.892     2.057 
 H                    -0.866     2.205     1.667 
 N                     0.735     1.917     0.255 
 C                    -0.047     1.002    -0.631 
 H                    -0.437     1.589    -1.467 
 H                    -0.915     0.613    -0.092 
 C                     0.819    -0.071    -1.148 
 C                     1.032    -1.389    -0.845 
 C                     0.084    -2.094     0.03 
 N                     0.31     -3.346     0.307 
 O                    -0.685    -3.769     1.178 
 C                    -1.459    -2.649     1.353 
 N                    -1.092    -1.62      0.622 
 C                    -2.672    -2.775     2.278 
 C                    -3.947    -3.184     1.542 
 H                    -4.238    -2.433     0.805 
 H                    -4.726    -3.163     2.307 
 H                    -3.763    -4.076     0.939 
 O                    -2.589    -3.852     3.264 
 H                    -3.36     -3.742     3.848 
 C                    -2.704    -1.49      3.082 
 O                    -3.782    -1.471     4.003 
 H                    -3.689    -0.726     4.624 
 H                    -2.94     -0.758     2.305 
 H                    -1.777    -1.33      3.639 
 N                     2.22     -1.876    -1.425 
 C                     2.822    -0.814    -1.995 
 H                     3.784    -0.896    -2.476 
 N                     2.031     0.246    -1.717 
 C                     2.298     1.42     -2.337 
 C                     2.456     1.453    -3.725 
 H                     2.311     0.537    -4.291 
 C                     2.684     2.637    -4.345 
 H                     2.672     2.743    -5.427 
 C                     2.783     3.826    -3.58 
 H                     3.055     4.715    -4.144 
 C                     2.677     3.753    -2.169 
 Cl                    2.795     5.23     -1.308 
 C                     2.317     2.565    -1.581 
 C                     1.908     2.592    -0.111 
 O                     2.569     3.191     0.715 
 H                     2.55     -2.82     -1.416 
 
 ITRead=  0  0  0  0  0  0  0  0  0  0  0  0  0  0  0  0  0  0  0  0
 ITRead=  0  0  0  0  0  0  0  0  0  0  0  0  0  0  0  0  0  0  0  0
 ITRead=  0  0  0  0
 MicOpt= -1 -1 -1 -1 -1 -1 -1 -1 -1 -1 -1 -1 -1 -1 -1 -1 -1 -1 -1 -1
 MicOpt= -1 -1 -1 -1 -1 -1 -1 -1 -1 -1 -1 -1 -1 -1 -1 -1 -1 -1 -1 -1
 MicOpt= -1 -1 -1 -1
 NAtoms=     44 NQM=       44 NQMF=       0 NMMI=      0 NMMIF=      0
                NMic=       0 NMicF=      0.
                    Isotopes and Nuclear Properties:
 (Nuclear quadrupole moments (NQMom) in fm**2, nuclear magnetic moments (NMagM)
  in nuclear magnetons)

  Atom         1           2           3           4           5           6           7           8           9          10
 IAtWgt=          12           1           1           1          14          12           1           1          12          12
 AtmWgt=  12.0000000   1.0078250   1.0078250   1.0078250  14.0030740  12.0000000   1.0078250   1.0078250  12.0000000  12.0000000
 NucSpn=           0           1           1           1           2           0           1           1           0           0
 AtZEff=  -0.0000000  -0.0000000  -0.0000000  -0.0000000  -0.0000000  -0.0000000  -0.0000000  -0.0000000  -0.0000000  -0.0000000
 NQMom=    0.0000000   0.0000000   0.0000000   0.0000000   2.0440000   0.0000000   0.0000000   0.0000000   0.0000000   0.0000000
 NMagM=    0.0000000   2.7928460   2.7928460   2.7928460   0.4037610   0.0000000   2.7928460   2.7928460   0.0000000   0.0000000
 AtZNuc=   6.0000000   1.0000000   1.0000000   1.0000000   7.0000000   6.0000000   1.0000000   1.0000000   6.0000000   6.0000000

  Atom        11          12          13          14          15          16          17          18          19          20
 IAtWgt=          12          14          16          12          14          12          12           1           1           1
 AtmWgt=  12.0000000  14.0030740  15.9949146  12.0000000  14.0030740  12.0000000  12.0000000   1.0078250   1.0078250   1.0078250
 NucSpn=           0           2           0           0           2           0           0           1           1           1
 AtZEff=  -0.0000000  -0.0000000  -0.0000000  -0.0000000  -0.0000000  -0.0000000  -0.0000000  -0.0000000  -0.0000000  -0.0000000
 NQMom=    0.0000000   2.0440000   0.0000000   0.0000000   2.0440000   0.0000000   0.0000000   0.0000000   0.0000000   0.0000000
 NMagM=    0.0000000   0.4037610   0.0000000   0.0000000   0.4037610   0.0000000   0.0000000   2.7928460   2.7928460   2.7928460
 AtZNuc=   6.0000000   7.0000000   8.0000000   6.0000000   7.0000000   6.0000000   6.0000000   1.0000000   1.0000000   1.0000000

  Atom        21          22          23          24          25          26          27          28          29          30
 IAtWgt=          16           1          12          16           1           1           1          14          12           1
 AtmWgt=  15.9949146   1.0078250  12.0000000  15.9949146   1.0078250   1.0078250   1.0078250  14.0030740  12.0000000   1.0078250
 NucSpn=           0           1           0           0           1           1           1           2           0           1
 AtZEff=  -0.0000000  -0.0000000  -0.0000000  -0.0000000  -0.0000000  -0.0000000  -0.0000000  -0.0000000  -0.0000000  -0.0000000
 NQMom=    0.0000000   0.0000000   0.0000000   0.0000000   0.0000000   0.0000000   0.0000000   2.0440000   0.0000000   0.0000000
 NMagM=    0.0000000   2.7928460   0.0000000   0.0000000   2.7928460   2.7928460   2.7928460   0.4037610   0.0000000   2.7928460
 AtZNuc=   8.0000000   1.0000000   6.0000000   8.0000000   1.0000000   1.0000000   1.0000000   7.0000000   6.0000000   1.0000000

  Atom        31          32          33          34          35          36          37          38          39          40
 IAtWgt=          14          12          12           1          12           1          12           1          12          35
 AtmWgt=  14.0030740  12.0000000  12.0000000   1.0078250  12.0000000   1.0078250  12.0000000   1.0078250  12.0000000  34.9688527
 NucSpn=           2           0           0           1           0           1           0           1           0           3
 AtZEff=  -0.0000000  -0.0000000  -0.0000000  -0.0000000  -0.0000000  -0.0000000  -0.0000000  -0.0000000  -0.0000000  -0.0000000
 NQMom=    2.0440000   0.0000000   0.0000000   0.0000000   0.0000000   0.0000000   0.0000000   0.0000000   0.0000000  -8.1650000
 NMagM=    0.4037610   0.0000000   0.0000000   2.7928460   0.0000000   2.7928460   0.0000000   2.7928460   0.0000000   0.8218740
 AtZNuc=   7.0000000   6.0000000   6.0000000   1.0000000   6.0000000   1.0000000   6.0000000   1.0000000   6.0000000  17.0000000

  Atom        41          42          43          44
 IAtWgt=          12          12          16           1
 AtmWgt=  12.0000000  12.0000000  15.9949146   1.0078250
 NucSpn=           0           0           0           1
 AtZEff=  -0.0000000  -0.0000000  -0.0000000  -0.0000000
 NQMom=    0.0000000   0.0000000   0.0000000   0.0000000
 NMagM=    0.0000000   0.0000000   0.0000000   2.7928460
 AtZNuc=   6.0000000   6.0000000   8.0000000   1.0000000
 Leave Link  101 at Sun Jul 18 16:28:40 2021, MaxMem=   104857600 cpu:               0.2 elap:               0.1
 (Enter /dades/curu/g16A03_MST/g16/l103.exe)

 GradGradGradGradGradGradGradGradGradGradGradGradGradGradGradGradGradGrad
 Berny optimization.
 Initialization pass.
                           ----------------------------
                           !    Initial Parameters    !
                           ! (Angstroms and Degrees)  !
 --------------------------                            --------------------------
 ! Name  Definition              Value          Derivative Info.                !
 --------------------------------------------------------------------------------
 ! R1    R(1,2)                  1.0932         estimate D2E/DX2                !
 ! R2    R(1,3)                  1.0931         estimate D2E/DX2                !
 ! R3    R(1,4)                  1.093          estimate D2E/DX2                !
 ! R4    R(1,5)                  1.5145         estimate D2E/DX2                !
 ! R5    R(5,6)                  1.4946         estimate D2E/DX2                !
 ! R6    R(5,42)                 1.402          estimate D2E/DX2                !
 ! R7    R(6,7)                  1.0934         estimate D2E/DX2                !
 ! R8    R(6,8)                  1.0933         estimate D2E/DX2                !
 ! R9    R(6,9)                  1.4726         estimate D2E/DX2                !
 ! R10   R(9,10)                 1.3691         estimate D2E/DX2                !
 ! R11   R(9,31)                 1.3759         estimate D2E/DX2                !
 ! R12   R(10,11)                1.4702         estimate D2E/DX2                !
 ! R13   R(10,28)                1.4089         estimate D2E/DX2                !
 ! R14   R(11,12)                1.302          estimate D2E/DX2                !
 ! R15   R(11,15)                1.3993         estimate D2E/DX2                !
 ! R16   R(12,13)                1.3884         estimate D2E/DX2                !
 ! R17   R(13,14)                1.3726         estimate D2E/DX2                !
 ! R18   R(14,15)                1.3145         estimate D2E/DX2                !
 ! R19   R(14,16)                1.5306         estimate D2E/DX2                !
 ! R20   R(16,17)                1.5279         estimate D2E/DX2                !
 ! R21   R(16,21)                1.4625         estimate D2E/DX2                !
 ! R22   R(16,23)                1.5161         estimate D2E/DX2                !
 ! R23   R(17,18)                1.0917         estimate D2E/DX2                !
 ! R24   R(17,19)                1.092          estimate D2E/DX2                !
 ! R25   R(17,20)                1.0923         estimate D2E/DX2                !
 ! R26   R(21,22)                0.9734         estimate D2E/DX2                !
 ! R27   R(23,24)                1.418          estimate D2E/DX2                !
 ! R28   R(23,26)                1.0933         estimate D2E/DX2                !
 ! R29   R(23,27)                1.0932         estimate D2E/DX2                !
 ! R30   R(24,25)                0.9743         estimate D2E/DX2                !
 ! R31   R(28,29)                1.3473         estimate D2E/DX2                !
 ! R32   R(28,44)                1.0001         estimate D2E/DX2                !
 ! R33   R(29,30)                1.0787         estimate D2E/DX2                !
 ! R34   R(29,31)                1.3515         estimate D2E/DX2                !
 ! R35   R(31,32)                1.3542         estimate D2E/DX2                !
 ! R36   R(32,33)                1.3974         estimate D2E/DX2                !
 ! R37   R(32,41)                1.3722         estimate D2E/DX2                !
 ! R38   R(33,34)                1.0865         estimate D2E/DX2                !
 ! R39   R(33,35)                1.3558         estimate D2E/DX2                !
 ! R40   R(35,36)                1.0872         estimate D2E/DX2                !
 ! R41   R(35,37)                1.4173         estimate D2E/DX2                !
 ! R42   R(37,38)                1.0874         estimate D2E/DX2                !
 ! R43   R(37,39)                1.4169         estimate D2E/DX2                !
 ! R44   R(39,40)                1.7137         estimate D2E/DX2                !
 ! R45   R(39,41)                1.3736         estimate D2E/DX2                !
 ! R46   R(41,42)                1.5261         estimate D2E/DX2                !
 ! R47   R(42,43)                1.2157         estimate D2E/DX2                !
 ! A1    A(2,1,3)              102.3165         estimate D2E/DX2                !
 ! A2    A(2,1,4)              114.6323         estimate D2E/DX2                !
 ! A3    A(2,1,5)              110.2844         estimate D2E/DX2                !
 ! A4    A(3,1,4)              111.3997         estimate D2E/DX2                !
 ! A5    A(3,1,5)              107.3818         estimate D2E/DX2                !
 ! A6    A(4,1,5)              110.3587         estimate D2E/DX2                !
 ! A7    A(1,5,6)              110.9435         estimate D2E/DX2                !
 ! A8    A(1,5,42)             123.4287         estimate D2E/DX2                !
 ! A9    A(6,5,42)             125.2942         estimate D2E/DX2                !
 ! A10   A(5,6,7)              108.1319         estimate D2E/DX2                !
 ! A11   A(5,6,8)              109.9366         estimate D2E/DX2                !
 ! A12   A(5,6,9)              110.2741         estimate D2E/DX2                !
 ! A13   A(7,6,8)              106.5455         estimate D2E/DX2                !
 ! A14   A(7,6,9)              109.4204         estimate D2E/DX2                !
 ! A15   A(8,6,9)              112.3784         estimate D2E/DX2                !
 ! A16   A(6,9,10)             135.6646         estimate D2E/DX2                !
 ! A17   A(6,9,31)             119.6909         estimate D2E/DX2                !
 ! A18   A(10,9,31)            100.153          estimate D2E/DX2                !
 ! A19   A(9,10,11)            119.5419         estimate D2E/DX2                !
 ! A20   A(9,10,28)            111.8919         estimate D2E/DX2                !
 ! A21   A(11,10,28)           128.5354         estimate D2E/DX2                !
 ! A22   A(10,11,12)           118.4118         estimate D2E/DX2                !
 ! A23   A(10,11,15)           129.1443         estimate D2E/DX2                !
 ! A24   A(12,11,15)           112.4319         estimate D2E/DX2                !
 ! A25   A(11,12,13)           107.5798         estimate D2E/DX2                !
 ! A26   A(12,13,14)           103.621          estimate D2E/DX2                !
 ! A27   A(13,14,15)           114.2303         estimate D2E/DX2                !
 ! A28   A(13,14,16)           117.1771         estimate D2E/DX2                !
 ! A29   A(15,14,16)           128.445          estimate D2E/DX2                !
 ! A30   A(11,15,14)           101.8142         estimate D2E/DX2                !
 ! A31   A(14,16,17)           113.093          estimate D2E/DX2                !
 ! A32   A(14,16,21)           115.028          estimate D2E/DX2                !
 ! A33   A(14,16,23)           105.5112         estimate D2E/DX2                !
 ! A34   A(17,16,21)           100.0776         estimate D2E/DX2                !
 ! A35   A(17,16,23)           117.6909         estimate D2E/DX2                !
 ! A36   A(21,16,23)           105.5344         estimate D2E/DX2                !
 ! A37   A(16,17,18)           111.3135         estimate D2E/DX2                !
 ! A38   A(16,17,19)           104.6358         estimate D2E/DX2                !
 ! A39   A(16,17,20)           110.1174         estimate D2E/DX2                !
 ! A40   A(18,17,19)           105.6371         estimate D2E/DX2                !
 ! A41   A(18,17,20)           103.5318         estimate D2E/DX2                !
 ! A42   A(19,17,20)           121.5066         estimate D2E/DX2                !
 ! A43   A(16,21,22)           106.0392         estimate D2E/DX2                !
 ! A44   A(16,23,24)           111.8289         estimate D2E/DX2                !
 ! A45   A(16,23,26)           101.2532         estimate D2E/DX2                !
 ! A46   A(16,23,27)           112.1064         estimate D2E/DX2                !
 ! A47   A(24,23,26)           106.7703         estimate D2E/DX2                !
 ! A48   A(24,23,27)           108.1645         estimate D2E/DX2                !
 ! A49   A(26,23,27)           116.561          estimate D2E/DX2                !
 ! A50   A(23,24,25)           110.5886         estimate D2E/DX2                !
 ! A51   A(10,28,29)           106.1692         estimate D2E/DX2                !
 ! A52   A(10,28,44)           126.9297         estimate D2E/DX2                !
 ! A53   A(29,28,44)           126.9011         estimate D2E/DX2                !
 ! A54   A(28,29,30)           121.8187         estimate D2E/DX2                !
 ! A55   A(28,29,31)           105.6463         estimate D2E/DX2                !
 ! A56   A(30,29,31)           132.3236         estimate D2E/DX2                !
 ! A57   A(9,31,29)            114.8288         estimate D2E/DX2                !
 ! A58   A(9,31,32)            124.2441         estimate D2E/DX2                !
 ! A59   A(29,31,32)           118.0577         estimate D2E/DX2                !
 ! A60   A(31,32,33)           119.8362         estimate D2E/DX2                !
 ! A61   A(31,32,41)           118.2858         estimate D2E/DX2                !
 ! A62   A(33,32,41)           121.7344         estimate D2E/DX2                !
 ! A63   A(32,33,34)           118.8463         estimate D2E/DX2                !
 ! A64   A(32,33,35)           119.595          estimate D2E/DX2                !
 ! A65   A(34,33,35)           121.3636         estimate D2E/DX2                !
 ! A66   A(33,35,36)           122.5724         estimate D2E/DX2                !
 ! A67   A(33,35,37)           119.8365         estimate D2E/DX2                !
 ! A68   A(36,35,37)           117.138          estimate D2E/DX2                !
 ! A69   A(35,37,38)           115.048          estimate D2E/DX2                !
 ! A70   A(35,37,39)           119.2799         estimate D2E/DX2                !
 ! A71   A(38,37,39)           125.2657         estimate D2E/DX2                !
 ! A72   A(37,39,40)           116.7942         estimate D2E/DX2                !
 ! A73   A(37,39,41)           119.3723         estimate D2E/DX2                !
 ! A74   A(40,39,41)           123.2578         estimate D2E/DX2                !
 ! A75   A(32,41,39)           119.3063         estimate D2E/DX2                !
 ! A76   A(32,41,42)           122.8028         estimate D2E/DX2                !
 ! A77   A(39,41,42)           117.8587         estimate D2E/DX2                !
 ! A78   A(5,42,41)            117.8519         estimate D2E/DX2                !
 ! A79   A(5,42,43)            120.9814         estimate D2E/DX2                !
 ! A80   A(41,42,43)           121.1621         estimate D2E/DX2                !
 ! D1    D(2,1,5,6)            173.9384         estimate D2E/DX2                !
 ! D2    D(2,1,5,42)             0.2616         estimate D2E/DX2                !
 ! D3    D(3,1,5,6)             63.2065         estimate D2E/DX2                !
 ! D4    D(3,1,5,42)          -110.4702         estimate D2E/DX2                !
 ! D5    D(4,1,5,6)            -58.392          estimate D2E/DX2                !
 ! D6    D(4,1,5,42)           127.9313         estimate D2E/DX2                !
 ! D7    D(1,5,6,7)            122.4191         estimate D2E/DX2                !
 ! D8    D(1,5,6,8)              6.4721         estimate D2E/DX2                !
 ! D9    D(1,5,6,9)           -117.9808         estimate D2E/DX2                !
 ! D10   D(42,5,6,7)           -64.0472         estimate D2E/DX2                !
 ! D11   D(42,5,6,8)          -179.9941         estimate D2E/DX2                !
 ! D12   D(42,5,6,9)            55.553          estimate D2E/DX2                !
 ! D13   D(1,5,42,41)         -177.6497         estimate D2E/DX2                !
 ! D14   D(1,5,42,43)            1.5776         estimate D2E/DX2                !
 ! D15   D(6,5,42,41)            9.5902         estimate D2E/DX2                !
 ! D16   D(6,5,42,43)         -171.1824         estimate D2E/DX2                !
 ! D17   D(5,6,9,10)           101.3426         estimate D2E/DX2                !
 ! D18   D(5,6,9,31)           -49.5747         estimate D2E/DX2                !
 ! D19   D(7,6,9,10)          -139.8407         estimate D2E/DX2                !
 ! D20   D(7,6,9,31)            69.2419         estimate D2E/DX2                !
 ! D21   D(8,6,9,10)           -21.6955         estimate D2E/DX2                !
 ! D22   D(8,6,9,31)          -172.6129         estimate D2E/DX2                !
 ! D23   D(6,9,10,11)           13.4146         estimate D2E/DX2                !
 ! D24   D(6,9,10,28)         -164.7366         estimate D2E/DX2                !
 ! D25   D(31,9,10,11)         168.0123         estimate D2E/DX2                !
 ! D26   D(31,9,10,28)         -10.1389         estimate D2E/DX2                !
 ! D27   D(6,9,31,29)          171.5676         estimate D2E/DX2                !
 ! D28   D(6,9,31,32)          -28.0585         estimate D2E/DX2                !
 ! D29   D(10,9,31,29)          11.7554         estimate D2E/DX2                !
 ! D30   D(10,9,31,32)         172.1293         estimate D2E/DX2                !
 ! D31   D(9,10,11,12)        -179.7976         estimate D2E/DX2                !
 ! D32   D(9,10,11,15)           1.566          estimate D2E/DX2                !
 ! D33   D(28,10,11,12)         -1.9908         estimate D2E/DX2                !
 ! D34   D(28,10,11,15)        179.3729         estimate D2E/DX2                !
 ! D35   D(9,10,28,29)           5.6782         estimate D2E/DX2                !
 ! D36   D(9,10,28,44)        -174.2916         estimate D2E/DX2                !
 ! D37   D(11,10,28,29)       -172.2655         estimate D2E/DX2                !
 ! D38   D(11,10,28,44)          7.7646         estimate D2E/DX2                !
 ! D39   D(10,11,12,13)        177.888          estimate D2E/DX2                !
 ! D40   D(15,11,12,13)         -3.2562         estimate D2E/DX2                !
 ! D41   D(10,11,15,14)       -175.8713         estimate D2E/DX2                !
 ! D42   D(12,11,15,14)          5.4263         estimate D2E/DX2                !
 ! D43   D(11,12,13,14)         -0.2627         estimate D2E/DX2                !
 ! D44   D(12,13,14,15)          3.9839         estimate D2E/DX2                !
 ! D45   D(12,13,14,16)        179.9447         estimate D2E/DX2                !
 ! D46   D(13,14,15,11)         -5.6535         estimate D2E/DX2                !
 ! D47   D(16,14,15,11)        178.9355         estimate D2E/DX2                !
 ! D48   D(13,14,16,17)        -90.8096         estimate D2E/DX2                !
 ! D49   D(13,14,16,21)         23.3338         estimate D2E/DX2                !
 ! D50   D(13,14,16,23)        139.2034         estimate D2E/DX2                !
 ! D51   D(15,14,16,17)         84.4861         estimate D2E/DX2                !
 ! D52   D(15,14,16,21)       -161.3705         estimate D2E/DX2                !
 ! D53   D(15,14,16,23)        -45.5009         estimate D2E/DX2                !
 ! D54   D(14,16,17,18)        -62.4833         estimate D2E/DX2                !
 ! D55   D(14,16,17,19)       -176.1193         estimate D2E/DX2                !
 ! D56   D(14,16,17,20)         51.7462         estimate D2E/DX2                !
 ! D57   D(21,16,17,18)        174.6353         estimate D2E/DX2                !
 ! D58   D(21,16,17,19)         60.9994         estimate D2E/DX2                !
 ! D59   D(21,16,17,20)        -71.1352         estimate D2E/DX2                !
 ! D60   D(23,16,17,18)         61.0278         estimate D2E/DX2                !
 ! D61   D(23,16,17,19)        -52.6081         estimate D2E/DX2                !
 ! D62   D(23,16,17,20)        175.2574         estimate D2E/DX2                !
 ! D63   D(14,16,21,22)        172.8333         estimate D2E/DX2                !
 ! D64   D(17,16,21,22)        -65.6576         estimate D2E/DX2                !
 ! D65   D(23,16,21,22)         56.9771         estimate D2E/DX2                !
 ! D66   D(14,16,23,24)       -179.401          estimate D2E/DX2                !
 ! D67   D(14,16,23,26)         67.2323         estimate D2E/DX2                !
 ! D68   D(14,16,23,27)        -57.7212         estimate D2E/DX2                !
 ! D69   D(17,16,23,24)         53.3447         estimate D2E/DX2                !
 ! D70   D(17,16,23,26)        -60.0219         estimate D2E/DX2                !
 ! D71   D(17,16,23,27)        175.0246         estimate D2E/DX2                !
 ! D72   D(21,16,23,24)        -57.2032         estimate D2E/DX2                !
 ! D73   D(21,16,23,26)       -170.5698         estimate D2E/DX2                !
 ! D74   D(21,16,23,27)         64.4767         estimate D2E/DX2                !
 ! D75   D(16,23,24,25)        169.0826         estimate D2E/DX2                !
 ! D76   D(26,23,24,25)        -81.0244         estimate D2E/DX2                !
 ! D77   D(27,23,24,25)         45.1596         estimate D2E/DX2                !
 ! D78   D(10,28,29,30)        177.0901         estimate D2E/DX2                !
 ! D79   D(10,28,29,31)          1.7662         estimate D2E/DX2                !
 ! D80   D(44,28,29,30)         -2.94           estimate D2E/DX2                !
 ! D81   D(44,28,29,31)       -178.264          estimate D2E/DX2                !
 ! D82   D(28,29,31,9)          -8.9046         estimate D2E/DX2                !
 ! D83   D(28,29,31,32)       -170.566          estimate D2E/DX2                !
 ! D84   D(30,29,31,9)         176.4714         estimate D2E/DX2                !
 ! D85   D(30,29,31,32)         14.81           estimate D2E/DX2                !
 ! D86   D(9,31,32,33)        -109.2017         estimate D2E/DX2                !
 ! D87   D(9,31,32,41)          66.5185         estimate D2E/DX2                !
 ! D88   D(29,31,32,33)         50.5901         estimate D2E/DX2                !
 ! D89   D(29,31,32,41)       -133.6897         estimate D2E/DX2                !
 ! D90   D(31,32,33,34)          3.0669         estimate D2E/DX2                !
 ! D91   D(31,32,33,35)        178.061          estimate D2E/DX2                !
 ! D92   D(41,32,33,34)       -172.5015         estimate D2E/DX2                !
 ! D93   D(41,32,33,35)          2.4926         estimate D2E/DX2                !
 ! D94   D(31,32,41,39)        175.4748         estimate D2E/DX2                !
 ! D95   D(31,32,41,42)         -6.6344         estimate D2E/DX2                !
 ! D96   D(33,32,41,39)         -8.8905         estimate D2E/DX2                !
 ! D97   D(33,32,41,42)        169.0003         estimate D2E/DX2                !
 ! D98   D(32,33,35,36)       -170.9698         estimate D2E/DX2                !
 ! D99   D(32,33,35,37)          1.0814         estimate D2E/DX2                !
 ! D100  D(34,33,35,36)          3.8948         estimate D2E/DX2                !
 ! D101  D(34,33,35,37)        175.946          estimate D2E/DX2                !
 ! D102  D(33,35,37,38)        174.7425         estimate D2E/DX2                !
 ! D103  D(33,35,37,39)          1.6741         estimate D2E/DX2                !
 ! D104  D(36,35,37,38)        -12.7822         estimate D2E/DX2                !
 ! D105  D(36,35,37,39)        174.1493         estimate D2E/DX2                !
 ! D106  D(35,37,39,40)       -179.5885         estimate D2E/DX2                !
 ! D107  D(35,37,39,41)         -8.0037         estimate D2E/DX2                !
 ! D108  D(38,37,39,40)          8.107          estimate D2E/DX2                !
 ! D109  D(38,37,39,41)        179.6918         estimate D2E/DX2                !
 ! D110  D(37,39,41,32)         11.4796         estimate D2E/DX2                !
 ! D111  D(37,39,41,42)       -166.5151         estimate D2E/DX2                !
 ! D112  D(40,39,41,32)       -177.5079         estimate D2E/DX2                !
 ! D113  D(40,39,41,42)          4.4974         estimate D2E/DX2                !
 ! D114  D(32,41,42,5)         -45.3151         estimate D2E/DX2                !
 ! D115  D(32,41,42,43)        135.4591         estimate D2E/DX2                !
 ! D116  D(39,41,42,5)         132.6045         estimate D2E/DX2                !
 ! D117  D(39,41,42,43)        -46.6213         estimate D2E/DX2                !
 --------------------------------------------------------------------------------
 Trust Radius=3.00D-01 FncErr=1.00D-07 GrdErr=1.00D-06 EigMax=2.50D+02 EigMin=1.00D-04
 Number of steps in this run=    254 maximum allowed number of steps=    264.
 GradGradGradGradGradGradGradGradGradGradGradGradGradGradGradGradGradGrad

 Leave Link  103 at Sun Jul 18 16:28:40 2021, MaxMem=   104857600 cpu:               0.1 elap:               0.0
 (Enter /dades/curu/g16A03_MST/g16/l202.exe)
                          Input orientation:                          
 ---------------------------------------------------------------------
 Center     Atomic      Atomic             Coordinates (Angstroms)
 Number     Number       Type             X           Y           Z
 ---------------------------------------------------------------------
      1          6           0        0.185000    1.905000    1.666000
      2          1           0        0.827000    2.492000    2.328000
      3          1           0        0.311000    0.892000    2.057000
      4          1           0       -0.866000    2.205000    1.667000
      5          7           0        0.735000    1.917000    0.255000
      6          6           0       -0.047000    1.002000   -0.631000
      7          1           0       -0.437000    1.589000   -1.467000
      8          1           0       -0.915000    0.613000   -0.092000
      9          6           0        0.819000   -0.071000   -1.148000
     10          6           0        1.032000   -1.389000   -0.845000
     11          6           0        0.084000   -2.094000    0.030000
     12          7           0        0.310000   -3.346000    0.307000
     13          8           0       -0.685000   -3.769000    1.178000
     14          6           0       -1.459000   -2.649000    1.353000
     15          7           0       -1.092000   -1.620000    0.622000
     16          6           0       -2.672000   -2.775000    2.278000
     17          6           0       -3.947000   -3.184000    1.542000
     18          1           0       -4.238000   -2.433000    0.805000
     19          1           0       -4.726000   -3.163000    2.307000
     20          1           0       -3.763000   -4.076000    0.939000
     21          8           0       -2.589000   -3.852000    3.264000
     22          1           0       -3.360000   -3.742000    3.848000
     23          6           0       -2.704000   -1.490000    3.082000
     24          8           0       -3.782000   -1.471000    4.003000
     25          1           0       -3.689000   -0.726000    4.624000
     26          1           0       -2.940000   -0.758000    2.305000
     27          1           0       -1.777000   -1.330000    3.639000
     28          7           0        2.220000   -1.876000   -1.425000
     29          6           0        2.822000   -0.814000   -1.995000
     30          1           0        3.784000   -0.896000   -2.476000
     31          7           0        2.031000    0.246000   -1.717000
     32          6           0        2.298000    1.420000   -2.337000
     33          6           0        2.456000    1.453000   -3.725000
     34          1           0        2.311000    0.537000   -4.291000
     35          6           0        2.684000    2.637000   -4.345000
     36          1           0        2.672000    2.743000   -5.427000
     37          6           0        2.783000    3.826000   -3.580000
     38          1           0        3.055000    4.715000   -4.144000
     39          6           0        2.677000    3.753000   -2.169000
     40         17           0        2.795000    5.230000   -1.308000
     41          6           0        2.317000    2.565000   -1.581000
     42          6           0        1.908000    2.592000   -0.111000
     43          8           0        2.569000    3.191000    0.715000
     44          1           0        2.550000   -2.820000   -1.416000
 ---------------------------------------------------------------------
                    Distance matrix (angstroms):
                    1          2          3          4          5
     1  C    0.000000
     2  H    1.093150   0.000000
     3  H    1.093127   1.702850   0.000000
     4  H    1.092978   1.839983   1.805934   0.000000
     5  N    1.514452   2.153234   2.116035   2.154040   0.000000
     6  C    2.479000   3.426318   2.713965   2.720069   1.494572
     7  H    3.209740   4.100626   3.669317   3.222647   2.108661
     8  H    2.443323   3.524430   2.489803   2.372961   2.131508
     9  C    3.496445   4.318751   3.384887   3.992947   2.434668
    10  C    4.227643   5.017182   3.760905   4.778010   3.496834
    11  C    4.321886   5.183073   3.616138   4.697198   4.069711
    12  N    5.425450   6.199514   4.585100   5.834910   5.280388
    13  O    5.761017   6.542841   4.846605   5.996712   5.932868
    14  C    4.851765   5.710193   4.020845   4.900159   5.183396
    15  N    3.891823   4.847839   3.215242   3.971615   3.997873
    16  C    5.517191   6.323511   4.732232   5.332481   6.141257
    17  C    6.556426   7.458274   5.916888   6.208825   7.042563
    18  H    6.254798   7.226990   5.772047   5.798661   6.629912
    19  H    7.086143   7.925609   6.471236   6.642637   7.735608
    20  H    7.203304   8.132407   6.521382   6.955110   7.524354
    21  O    6.587240   7.265775   5.689674   6.496644   7.306464
    22  H    7.015466   7.661862   6.177206   6.807614   7.855123
    23  C    4.677329   5.375202   3.976779   4.362739   5.605916
    24  O    5.709294   6.305067   5.111099   5.241462   6.777119
    25  H    5.538935   6.001783   5.020698   5.030302   6.756137
    26  H    4.155179   4.975271   3.654176   3.672586   4.986356
    27  H    4.267013   4.806997   3.435077   4.149088   5.320208
    28  N    5.290696   5.924937   4.840499   5.978162   4.406186
    29  C    5.267794   5.796377   5.063029   6.010487   4.108093
    30  H    6.160728   6.580335   5.983875   6.957237   4.966662
    31  N    4.195794   4.780811   4.197474   4.866389   2.891477
    32  C    4.552362   5.007519   4.851205   5.163249   3.067318
    33  C    5.867250   6.353894   6.192517   6.377684   4.360910
    34  H    6.471256   7.059422   6.665068   6.955093   5.005426
    35  C    6.550797   6.928088   7.047110   6.995232   5.047475
    36  H    7.562940   7.975403   8.062926   7.945547   6.059651
    37  C    6.161198   6.364743   6.818718   6.593470   4.748243
    38  H    7.063222   7.196700   7.784425   7.445943   5.706348
    39  C    4.932788   5.023508   5.625154   5.446471   3.608052
    40  Cl   5.168404   4.958847   6.025921   5.603942   4.202682
    41  C    3.940055   4.183983   4.478617   4.561863   2.508690
    42  C    2.568740   2.669697   3.184436   3.317549   1.401966
    43  O    2.870828   2.474860   3.490692   3.698341   2.279963
    44  H    6.116991   6.723363   5.554619   6.813558   5.340940
                    6          7          8          9         10
     6  C    0.000000
     7  H    1.093419   0.000000
     8  H    1.093282   1.752622   0.000000
     9  C    1.472608   2.105920   2.142370   0.000000
    10  C    2.631904   3.378362   2.892373   1.369051   0.000000
    11  C    3.168485   4.009606   2.888033   2.453658   1.470154
    12  N    4.462331   5.297104   4.163353   3.619631   2.382905
    13  O    5.142175   5.980443   4.568120   4.620335   3.564410
    14  C    4.388599   5.192064   3.608962   4.253277   3.553011
    15  N    3.088190   3.884666   2.351045   3.030548   2.591684
    16  C    5.442301   6.169663   4.492493   5.588933   5.039220
    17  C    6.120010   6.644976   5.126421   6.296160   5.806052
    18  H    5.605872   5.982146   4.596200   5.913248   5.620083
    19  H    6.918967   7.431023   5.876827   7.228037   6.799761
    20  H    6.485340   6.995951   5.582185   6.433531   5.778810
    21  O    6.722656   7.524490   5.831058   6.736184   6.005155
    22  H    7.317305   8.075439   6.361419   7.476650   6.844744
    23  C    5.201546   5.942468   4.206828   5.684891   5.421183
    24  O    6.445146   7.104472   5.415881   7.047127   6.832600
    25  H    6.623079   7.282514   5.632819   7.353032   7.255162
    26  H    4.481868   5.099157   3.424306   5.150268   5.108566
    27  H    5.163722   6.032197   4.294025   5.589246   5.291523
    28  N    3.748681   4.366651   4.219032   2.301642   1.408869
    29  C    3.659168   4.083415   4.429775   2.298144   2.203911
    30  H    4.656500   5.001015   5.480980   3.351930   3.236775
    31  N    2.463537   2.820846   3.384410   1.375934   2.105139
    32  C    2.929878   2.875011   4.001830   2.413347   3.423346
    33  C    4.005152   3.672398   5.026722   3.412224   4.289422
    34  H    4.378583   4.078380   5.295701   3.531880   4.149727
    35  C    4.891358   4.372851   5.927680   4.586098   5.584602
    36  H    5.781493   5.165191   6.772422   5.446287   6.384180
    37  C    4.967945   4.453913   6.013711   4.995851   6.143489
    38  H    5.979126   5.397432   7.000429   6.073015   7.227361
    39  C    4.165768   3.856513   5.203460   4.372366   5.558702
    40  Cl   5.139190   4.871138   6.046441   5.659574   6.865399
    41  C    2.988974   2.924053   4.058725   3.062677   4.222208
    42  C    2.573038   2.888558   3.447627   3.058244   4.141798
    43  O    3.667001   4.045190   4.408581   4.144142   5.076649
    44  H    4.687037   5.325791   5.054176   3.259630   2.162898
                   11         12         13         14         15
    11  C    0.000000
    12  N    1.302040   0.000000
    13  O    2.171380   1.388379   0.000000
    14  C    2.106942   2.170089   1.372626   0.000000
    15  N    1.399327   2.245864   2.256764   1.314493   0.000000
    16  C    3.621160   3.619835   2.479154   1.530644   2.563740
    17  C    4.441082   4.435484   3.333971   2.551880   3.382827
    18  H    4.404002   4.665391   3.814162   2.840740   3.254501
    19  H    5.428037   5.421696   4.239287   3.442034   4.292555
    20  H    4.421992   4.185887   3.102492   2.741558   3.642343
    21  O    4.549093   4.171820   2.825509   2.525080   3.768686
    22  H    5.399460   5.115115   3.779584   3.321668   4.478145
    23  C    4.177615   4.497728   3.591019   2.425437   2.943984
    24  O    5.578424   5.824131   4.780464   3.715712   4.323131
    25  H    6.100147   6.441497   5.491701   4.401167   4.853828
    26  H    4.013116   4.610016   3.926993   2.583708   2.643981
    27  H    4.131815   4.418376   3.632865   2.658323   3.107348
    28  N    2.593655   2.967966   4.335676   4.674383   3.901934
    29  C    3.638086   4.245041   5.576648   5.736139   4.776790
    30  H    4.626580   5.080971   6.448085   6.724827   5.822126
    31  N    3.509760   4.467760   5.646052   5.475950   4.325044
    32  C    4.780448   5.801520   6.941126   6.654916   5.430413
    33  C    5.683979   6.625160   7.821418   7.611814   6.397503
    34  H    5.527452   6.342184   7.578101   7.497882   6.353788
    35  C    6.948596   7.941868   9.104423   8.807579   7.553232
    36  H    7.737775   8.691014   9.864158   9.597251   8.354272
    37  C    7.440638   8.524206   9.609871   9.179035   7.895020
    38  H    8.521244   9.608650  10.690629  10.238247   8.946764
    39  C    6.763628   7.882199   8.893027   8.396224   7.131912
    40  Cl   7.923430   9.073656   9.963563   9.341096   8.109018
    41  C    5.411829   6.521696   7.532838   7.074767   5.829984
    42  C    5.030453   6.163455   6.989098   6.399068   5.222857
    43  O    5.880108   6.928341   7.697044   7.123021   6.046263
    44  H    2.949432   2.874544   4.253782   4.875314   4.342535
                   16         17         18         19         20
    16  C    0.000000
    17  C    1.527940   0.000000
    18  H    2.176936   1.091719   0.000000
    19  H    2.090526   1.092020   1.739841   0.000000
    20  H    2.162361   1.092304   1.715526   1.905876   0.000000
    21  O    1.462537   2.292525   3.283206   2.440766   2.614207
    22  H    1.968079   2.444089   3.426983   2.139130   2.955714
    23  C    1.516135   2.605050   2.902953   2.736428   3.521552
    24  O    2.430667   3.003018   3.370547   2.574959   4.021751
    25  H    3.276646   3.950576   4.219006   3.518924   4.980683
    26  H    2.034906   2.735269   2.596234   2.995634   3.681360
    27  H    2.177469   3.541698   3.912120   3.718967   4.332980
    28  N    6.200974   6.967485   6.854846   7.989437   6.798881
    29  C    7.231050   7.996664   7.765614   8.999850   7.912726
    30  H    8.234749   9.008198   8.802262  10.021800   8.873096
    31  N    6.870566   7.623809   7.268967   8.571517   7.700939
    32  C    7.974782   8.674300   8.212008   9.586824   8.813280
    33  C    8.955913   9.499551   8.968363  10.453402   9.539324
    34  H    8.885460   9.329110   8.813598  10.331649   9.248035
    35  C   10.091611  10.607119  10.007072  11.523767  10.702749
    36  H   10.879967  11.291920  10.647859  12.223993  11.332870
    37  C   10.375278  10.984893  10.377753  11.827425  11.212184
    38  H   11.407923  11.989696  11.347879  12.814923  12.231259
    39  C    9.539517  10.284496   9.743126  11.075651  10.603137
    40  Cl  10.335739  11.152240  10.613643  11.835376  11.604224
    41  C    8.264236   9.057694   8.581435   9.875747   9.349849
    42  C    7.449054   8.389017   7.991433   9.109155   8.816176
    43  O    8.093467   9.153295   8.830217   9.804326   9.641249
    44  H    6.396635   7.147956   7.152591   8.180376   6.854016
                   21         22         23         24         25
    21  O    0.000000
    22  H    0.973446   0.000000
    23  C    2.371791   2.467508   0.000000
    24  O    2.763789   2.315070   1.417987   0.000000
    25  H    3.582105   3.131561   1.982848   0.974328   0.000000
    26  H    3.258177   3.385484   1.093274   2.024978   2.437168
    27  H    2.675902   2.892631   1.093242   2.042646   2.234006
    28  N    7.001270   7.900815   6.686391   8.102544   8.534002
    29  C    8.134215   8.996163   7.534559   8.945416   9.285043
    30  H    9.071971   9.956376   8.563781   9.977596  10.309444
    31  N    7.934001   8.714141   6.961632   8.334114   8.594851
    32  C    9.113065   9.844462   7.928030   9.247696   9.428945
    33  C   10.121323  10.870336   9.034495  10.352990  10.593152
    34  H   10.017552  10.803398   9.144402  10.485569  10.820000
    35  C   11.305244  12.014442  10.060964  11.330222  11.505123
    36  H   12.112210  12.824425  10.918917  12.179360  12.390274
    37  C   11.603896  12.255050  10.136531  11.342809  11.397943
    38  H   12.654117  13.287029  11.130282  12.303852  12.327361
    39  C   10.727734  11.350096   9.166090  10.349031  10.331130
    40  Cl  11.505362  12.040147   9.729825  10.787356  10.616252
    41  C    9.419169  10.073759   7.962226   9.201530   9.241469
    42  C    8.552121   9.140299   6.937472   8.112279   8.047096
    43  O    9.094296   9.645477   7.437673   8.537001   8.353786
    44  H    7.026859   7.967928   7.043112   8.442724   8.932612
                   26         27         28         29         30
    26  H    0.000000
    27  H    1.859922   0.000000
    28  N    6.464397   6.474428   0.000000
    29  C    7.189839   7.291023   1.347274   0.000000
    30  H    8.251617   8.276853   2.123934   1.078670   0.000000
    31  N    6.472661   6.758060   2.150318   1.351505   2.225591
    32  C    7.329972   7.738262   3.420737   2.319978   2.755245
    33  C    8.388459   8.938225   4.053139   2.875090   2.973447
    34  H    8.529786   9.114951   3.747640   2.712552   2.741796
    35  C    9.347615   9.969045   5.395263   4.177433   4.145510
    36  H   10.175233  10.889228   6.128252   4.945035   4.815316
    37  C    9.402075   9.974562   6.121585   4.903401   4.951576
    38  H   10.367418  10.975670   7.178542   5.936525   5.898897
    39  C    8.480359   8.911109   5.696317   4.572613   4.788831
    40  Cl   9.044343   9.402638   7.130186   6.082979   6.314287
    41  C    7.333442   7.692871   4.444798   3.441520   3.864147
    42  C    6.368882   6.559254   4.667651   3.998211   4.612889
    43  O    6.962168   6.919316   5.511433   4.842327   5.325624
    44  H    6.945343   6.818802   1.000058   2.105531   2.519550
                   31         32         33         34         35
    31  N    0.000000
    32  C    1.354240   0.000000
    33  C    2.381079   1.397354   0.000000
    34  H    2.605486   2.144289   1.086479   0.000000
    35  C    3.612433   2.379527   1.355817   2.133552   0.000000
    36  H    4.517742   3.382056   2.146523   2.507440   1.087246
    37  C    4.105201   2.751202   2.399809   3.397915   1.417303
    38  H    5.187568   3.833448   3.342904   4.246272   2.120407
    39  C    3.594533   2.369547   2.785674   3.870335   2.445502
    40  Cl   5.058778   3.977681   4.496948   5.581827   3.994914
    41  C    2.340524   1.372196   2.419215   3.384807   2.789188
    42  C    2.845713   2.545734   3.828658   4.675236   4.304760
    43  O    3.857083   3.539009   4.769383   5.671888   5.091536
    44  H    3.124151   4.346187   4.857864   4.426307   6.194824
                   36         37         38         39         40
    36  H    0.000000
    37  C    2.143973   0.000000
    38  H    2.383603   1.087383   0.000000
    39  C    3.410966   1.416858   2.229115   0.000000
    40  Cl   4.813155   2.670832   2.894084   1.713702   0.000000
    41  C    3.866449   2.408999   3.425801   1.373568   2.721257
    42  C    5.372742   3.784487   4.699769   2.484883   3.029624
    43  O    6.159178   4.346958   5.115531   2.940232   2.881167
    44  H    6.859298   6.993318   8.029523   6.617210   8.054452
                   41         42         43         44
    41  C    0.000000
    42  C    1.526077   0.000000
    43  O    2.393114   1.215729   0.000000
    44  H    5.392563   5.604010   6.377589   0.000000
 Stoichiometry    C17H17ClN5O4(1+)
 Framework group  C1[X(C17H17ClN5O4)]
 Deg. of freedom   126
 Full point group                 C1      NOp   1
 Largest Abelian subgroup         C1      NOp   1
 Largest concise Abelian subgroup C1      NOp   1
                         Standard orientation:                         
 ---------------------------------------------------------------------
 Center     Atomic      Atomic             Coordinates (Angstroms)
 Number     Number       Type             X           Y           Z
 ---------------------------------------------------------------------
      1          6           0       -0.067689    2.432971   -0.577216
      2          1           0       -0.495353    3.059994   -1.363932
      3          1           0        0.730885    1.906797   -1.106694
      4          1           0        0.319979    2.983446    0.283767
      5          7           0       -1.074125    1.394016   -0.128635
      6          6           0       -0.458407    0.437295    0.840550
      7          1           0       -1.042207    0.466113    1.764623
      8          1           0        0.551185    0.767198    1.099693
      9          6           0       -0.478127   -0.928919    0.291329
     10          6           0        0.432729   -1.756353   -0.308668
     11          6           0        1.862944   -1.420272   -0.254927
     12          7           0        2.709650   -2.220496   -0.836339
     13          8           0        3.975557   -1.669303   -0.690521
     14          6           0        3.744947   -0.510090    0.007437
     15          7           0        2.493467   -0.339500    0.371561
     16          6           0        4.960551    0.357254    0.343432
     17          6           0        5.586975    0.013705    1.694050
     18          1           0        4.886561    0.190107    2.512680
     19          1           0        6.383164    0.749686    1.824131
     20          1           0        5.785539   -1.058715    1.754187
     21          8           0        6.117280    0.166750   -0.531040
     22          1           0        6.760848    0.852199   -0.278896
     23          6           0        4.512479    1.788037    0.118141
     24          8           0        5.553619    2.714161    0.380833
     25          1           0        5.307265    3.603980    0.069629
     26          1           0        3.774430    1.908555    0.915642
     27          1           0        4.159636    1.952644   -0.903419
     28          7           0       -0.189935   -2.842862   -0.954191
     29          6           0       -1.516113   -2.623733   -0.862645
     30          1           0       -2.234819   -3.286111   -1.318985
     31          7           0       -1.646653   -1.438526   -0.226399
     32          6           0       -2.884854   -1.063288    0.173626
     33          6           0       -3.674819   -1.948247    0.912137
     34          1           0       -3.258066   -2.910386    1.196814
     35          6           0       -4.897896   -1.553418    1.343918
     36          1           0       -5.491800   -2.142603    2.038356
     37          6           0       -5.374115   -0.257404    1.024060
     38          1           0       -6.397051   -0.053916    1.331624
     39          6           0       -4.575218    0.596497    0.223996
     40         17           0       -5.207720    2.152789   -0.114636
     41          6           0       -3.291300    0.220988   -0.087830
     42          6           0       -2.360934    1.279609   -0.673194
     43          8           0       -2.726964    2.010639   -1.572980
     44          1           0        0.261366   -3.620590   -1.391895
 ---------------------------------------------------------------------
 Rotational constants (GHZ):           0.3830648           0.0889911           0.0771550
 Leave Link  202 at Sun Jul 18 16:28:40 2021, MaxMem=   104857600 cpu:               0.0 elap:               0.0
 (Enter /dades/curu/g16A03_MST/g16/l301.exe)
 Standard basis: 6-31G(d) (6D, 7F)
 Ernie: Thresh=  0.10000D-02 Tol=  0.10000D-05 Strict=F.
 There are   443 symmetry adapted cartesian basis functions of A   symmetry.
 There are   443 symmetry adapted basis functions of A   symmetry.
   443 basis functions,   848 primitive gaussians,   443 cartesian basis functions
   101 alpha electrons      101 beta electrons
       nuclear repulsion energy      2647.3040463389 Hartrees.
 IExCor=  402 DFT=T Ex+Corr=B3LYP ExCW=0 ScaHFX=  0.200000
 ScaDFX=  0.800000  0.720000  1.000000  0.810000 ScalE2=  1.000000  1.000000
 IRadAn=      5 IRanWt=     -1 IRanGd=            0 ICorTp=0 IEmpDi=  4
 NAtoms=   44 NActive=   44 NUniq=   44 SFac= 1.00D+00 NAtFMM=   60 NAOKFM=F Big=F
 Integral buffers will be    131072 words long.
 Raffenetti 2 integral format.
 Two-electron integral symmetry is turned on.
 Using the following non-standard input for PCM:
 MSTModel=DFT cav MSTCharged
 --- end of non-standard input.
 MST model for solvation energy: B3LYP parametrization.
 MST cavity parameters:
 ISph   IAn     Re0     Alpha   Atom Type   QCorr
 ------------------------------------------------
   1      6     1.50     1.50      CH3        F
   2      1     1.20     1.50      CH3        F
   3      1     1.20     1.50      CH3        F
   4      1     1.20     1.50      CH3        F
   5      7     1.50     1.50      N          F
   6      6     1.50     1.50      CH2        F
   7      1     1.20     1.50      CH2        F
   8      1     1.20     1.50      CH2        F
   9      6     1.50     1.50      C          F
  10      6     1.50     1.50      C          F
  11      6     1.50     1.50      C          F
  12      7     1.50     1.50      Nc         F
  13      8     1.40     1.50      O          F
  14      6     1.50     1.50      C          F
  15      7     1.50     1.50      Nc         F
  16      6     1.50     1.50      C          F
  17      6     1.50     1.50      CH3        F
  18      1     1.20     1.50      CH3        F
  19      1     1.20     1.50      CH3        F
  20      1     1.20     1.50      CH3        F
  21      8     1.40     1.50      OH         F
  22      1     0.90     1.50      OH         F
  23      6     1.50     1.50      CH2        F
  24      8     1.40     1.50      OH         F
  25      1     0.90     1.50      OH         F
  26      1     1.20     1.50      CH2        F
  27      1     1.20     1.50      CH2        F
  28      7     1.50     1.15      NHc        T
  29      6     1.50     1.50      CH         F
  30      1     1.20     1.50      CH         F
  31      7     1.50     1.50      Nc         F
  32      6     1.50     1.50      C          F
  33      6     1.50     1.50      CH         F
  34      1     1.20     1.50      CH         F
  35      6     1.50     1.50      CH         F
  36      1     1.20     1.50      CH         F
  37      6     1.50     1.50      CH         F
  38      1     1.20     1.50      CH         F
  39      6     1.50     1.50      C          F
  40     17     1.80     1.50      Cl         F
  41      6     1.50     1.50      C          F
  42      6     1.50     1.50      C          F
  43      8     1.40     1.50      O          F
  44      1     0.90     1.15      NHc        T
 ------------------------------------------------------------------------------
 Polarizable Continuum Model (PCM)
 =================================
 Model                : PCM.
 Atomic radii         : MST.
 Polarization charges : Total charges.
 Charge compensation  : None.
 Solution method      : On-the-fly selection.
 Cavity type          : Scaled VdW (van der Waals Surface) (Alpha=1.500).
 Cavity algorithm     : GePol (No added spheres)
                        Default sphere list used, NSphG=   44.
                        Lebedev-Laikov grids with approx.  5.0 points / Ang**2.
                        Smoothing algorithm: York/Karplus (Gamma=1.0000).
                        Polarization charges: spherical gaussians, with
                                              point-specific exponents (IZeta= 3).
                        Self-potential: point-specific (ISelfS= 7).
                        Self-field    : sphere-specific E.n sum rule (ISelfD= 2).
 1st derivatives      : Analytical E(r).r(x)/FMM algorithm (CHGder, D1EAlg=3).
                        Cavity 1st derivative terms included.
 Solvent              : n-Octanol, Eps=   9.862900 Eps(inf)=   2.043470
 ------------------------------------------------------------------------------
 GePol: Number of generator spheres                  =      44
 GePol: Total number of spheres                      =      44
 GePol: Number of exposed spheres                    =      44 (100.00%)
 GePol: Number of points                             =    4038
 GePol: Average weight of points                     =       0.11
 GePol: Minimum weight of points                     =   0.79D-09
 GePol: Maximum weight of points                     =    0.20676
 GePol: Number of points with low weight             =     256
 GePol: Fraction of low-weight points (<1% of avg)   =       6.34%
 GePol: Cavity surface area                          =    456.985 Ang**2
 GePol: Cavity volume                                =    562.729 Ang**3
 Surface areas from nonelectrostatic (unscaled) cavity and vdw tensions:
 Sphere =    1 Type =  CH3 Surf =        5.016 Tension =       -0.183
 Sphere =    2 Type =  CH3 Surf =        9.668 Tension =       -0.183
 Sphere =    3 Type =  CH3 Surf =       10.016 Tension =       -0.183
 Sphere =    4 Type =  CH3 Surf =       10.106 Tension =       -0.183
 Sphere =    5 Type =  N   Surf =        6.023 Tension =       -0.115
 Sphere =    6 Type =  CH2 Surf =        3.735 Tension =       -0.194
 Sphere =    7 Type =  CH2 Surf =        9.980 Tension =       -0.194
 Sphere =    8 Type =  CH2 Surf =        8.114 Tension =       -0.194
 Sphere =    9 Type =  C   Surf =        6.197 Tension =       -0.205
 Sphere =   10 Type =  C   Surf =        6.262 Tension =       -0.205
 Sphere =   11 Type =  C   Surf =        6.114 Tension =       -0.205
 Sphere =   12 Type =  Nc  Surf =       13.768 Tension =       -0.161
 Sphere =   13 Type =  O   Surf =       11.224 Tension =       -0.185
 Sphere =   14 Type =  C   Surf =        6.124 Tension =       -0.205
 Sphere =   15 Type =  Nc  Surf =       11.971 Tension =       -0.161
 Sphere =   16 Type =  C   Surf =        2.111 Tension =       -0.205
 Sphere =   17 Type =  CH3 Surf =        4.971 Tension =       -0.183
 Sphere =   18 Type =  CH3 Surf =       10.062 Tension =       -0.183
 Sphere =   19 Type =  CH3 Surf =        9.721 Tension =       -0.183
 Sphere =   20 Type =  CH3 Surf =       10.115 Tension =       -0.183
 Sphere =   21 Type =  OH  Surf =       13.923 Tension =       -0.238
 Sphere =   22 Type =  OH  Surf =        4.394 Tension =       -0.238
 Sphere =   23 Type =  CH2 Surf =        3.991 Tension =       -0.194
 Sphere =   24 Type =  OH  Surf =       14.102 Tension =       -0.238
 Sphere =   25 Type =  OH  Surf =        4.486 Tension =       -0.238
 Sphere =   26 Type =  CH2 Surf =        9.608 Tension =       -0.194
 Sphere =   27 Type =  CH2 Surf =       10.121 Tension =       -0.194
 Sphere =   28 Type =  NHc Surf =       10.906 Tension =       -0.295
 Sphere =   29 Type =  CH  Surf =        7.642 Tension =       -0.195
 Sphere =   30 Type =  CH  Surf =       10.233 Tension =       -0.195
 Sphere =   31 Type =  Nc  Surf =        4.925 Tension =       -0.161
 Sphere =   32 Type =  C   Surf =        5.376 Tension =       -0.205
 Sphere =   33 Type =  CH  Surf =        7.490 Tension =       -0.195
 Sphere =   34 Type =  CH  Surf =       10.131 Tension =       -0.195
 Sphere =   35 Type =  CH  Surf =        7.721 Tension =       -0.195
 Sphere =   36 Type =  CH  Surf =       10.224 Tension =       -0.195
 Sphere =   37 Type =  CH  Surf =        7.601 Tension =       -0.195
 Sphere =   38 Type =  CH  Surf =       10.143 Tension =       -0.195
 Sphere =   39 Type =  C   Surf =        5.191 Tension =       -0.205
 Sphere =   40 Type =  Cl  Surf =       30.700 Tension =       -0.163
 Sphere =   41 Type =  C   Surf =        5.894 Tension =       -0.205
 Sphere =   42 Type =  C   Surf =        6.053 Tension =       -0.205
 Sphere =   43 Type =  O   Surf =       14.644 Tension =       -0.185
 Sphere =   44 Type =  NHc Surf =        3.865 Tension =       -0.295
 PCM non-electrostatic energy =        -0.0208697279 Hartrees.
 Nuclear repulsion after PCM non-electrostatic terms =     2647.2831766110 Hartrees.
 Leave Link  301 at Sun Jul 18 16:28:40 2021, MaxMem=   104857600 cpu:               0.2 elap:               0.2
 (Enter /dades/curu/g16A03_MST/g16/l302.exe)
 NPDir=0 NMtPBC=     1 NCelOv=     1 NCel=       1 NClECP=     1 NCelD=      1
         NCelK=      1 NCelE2=     1 NClLst=     1 CellRange=     0.0.
 One-electron integrals computed using PRISM.
 One-electron integral symmetry used in STVInt
 NBasis=   443 RedAO= T EigKep=  3.98D-04  NBF=   443
 NBsUse=   443 1.00D-06 EigRej= -1.00D+00 NBFU=   443
 Precomputing XC quadrature grid using
 IXCGrd= 4 IRadAn=           5 IRanWt=          -1 IRanGd=           0 AccXCQ= 0.00D+00.
 Generated NRdTot=       0 NPtTot=           0 NUsed=           0 NTot=          32
 NSgBfM=   437   437   437   437   437 MxSgAt=    44 MxSgA2=    44.
 Leave Link  302 at Sun Jul 18 16:28:43 2021, MaxMem=   104857600 cpu:               8.7 elap:               2.4
 (Enter /dades/curu/g16A03_MST/g16/l303.exe)
 DipDrv:  MaxL=1.
 Leave Link  303 at Sun Jul 18 16:28:43 2021, MaxMem=   104857600 cpu:               0.1 elap:               0.1
 (Enter /dades/curu/g16A03_MST/g16/l401.exe)
 ExpMin= 1.43D-01 ExpMax= 2.52D+04 ExpMxC= 3.78D+03 IAcc=3 IRadAn=         5 AccDes= 0.00D+00
 Harris functional with IExCor=  402 and IRadAn=       5 diagonalized for initial guess.
 HarFok:  IExCor=  402 AccDes= 0.00D+00 IRadAn=         5 IDoV= 1 UseB2=F ITyADJ=14
 ICtDFT=  3500011 ScaDFX=  1.000000  1.000000  1.000000  1.000000
 FoFCou: FMM=F IPFlag=           0 FMFlag=      100000 FMFlg1=           0
         NFxFlg=           0 DoJE=T BraDBF=F KetDBF=T FulRan=T
         wScrn=  0.000000 ICntrl=       500 IOpCl=  0 I1Cent=   200000004 NGrid=           0
         NMat0=    1 NMatS0=      1 NMatT0=    0 NMatD0=    1 NMtDS0=    0 NMtDT0=    0
 Petite list used in FoFCou.
 Harris En= -1692.43782094650    
 JPrj=0 DoOrth=F DoCkMO=F.
 Leave Link  401 at Sun Jul 18 16:28:56 2021, MaxMem=   104857600 cpu:              52.8 elap:              13.4
 (Enter /dades/curu/g16A03_MST/g16/l502.exe)
 Integral symmetry usage will be decided dynamically.
 Closed shell SCF:
 Using DIIS extrapolation, IDIIS=  1040.
 NGot=   104857600 LenX=   104457664 LenY=   104260972
 Requested convergence on RMS density matrix=1.00D-08 within 128 cycles.
 Requested convergence on MAX density matrix=1.00D-06.
 Requested convergence on             energy=1.00D-06.
 No special actions if energy rises.
 Fock matrices will be formed incrementally for  20 cycles.

 Cycle   1  Pass 1  IDiag  1:
 FoFJK:  IHMeth= 1 ICntrl=       0 DoSepK=F KAlg= 0 I1Cent=           0 FoldK=F
 IRaf= 700000000 NMat=       1 IRICut=       1 DoRegI=T DoRafI=F ISym2E= 0 IDoP0=0 IntGTp=1.
 FoFCou: FMM=F IPFlag=           0 FMFlag=      100000 FMFlg1=           0
         NFxFlg=           0 DoJE=F BraDBF=F KetDBF=F FulRan=T
         wScrn=  0.000000 ICntrl=         0 IOpCl=  0 I1Cent=           0 NGrid=           0
         NMat0=    1 NMatS0=      1 NMatT0=    0 NMatD0=    1 NMtDS0=    0 NMtDT0=    0
 Symmetry not used in FoFCou.
 Inv3:  Mode=1 IEnd=    48916332.
 Iteration    1 A*A^-1 deviation from unit magnitude is 4.44D-15 for   4023.
 Iteration    1 A*A^-1 deviation from orthogonality  is 1.62D-15 for   2433    706.
 Iteration    1 A^-1*A deviation from unit magnitude is 4.22D-15 for   4023.
 Iteration    1 A^-1*A deviation from orthogonality  is 1.95D-15 for   3605    883.
 E= -1692.13509460474    
 DIIS: error= 2.73D-02 at cycle   1 NSaved=   1.
 NSaved= 1 IEnMin= 1 EnMin= -1692.13509460474     IErMin= 1 ErrMin= 2.73D-02
 ErrMax= 2.73D-02  0.00D+00 EMaxC= 1.00D-01 BMatC= 5.76D-01 BMatP= 5.76D-01
 IDIUse=3 WtCom= 7.27D-01 WtEn= 2.73D-01
 Coeff-Com:  0.100D+01
 Coeff-En:   0.100D+01
 Coeff:      0.100D+01
 Gap=     0.303 Goal=   None    Shift=    0.000
 GapD=    0.303 DampG=1.000 DampE=0.500 DampFc=0.5000 IDamp=-1.
 Damping current iteration by 5.00D-01
 RMSDP=4.21D-03 MaxDP=2.04D-01              OVMax= 3.26D-01

 Cycle   2  Pass 1  IDiag  1:
 RMSU=  2.09D-03    CP:  9.85D-01
 E= -1692.28810778985     Delta-E=       -0.153013185111 Rises=F Damp=T
 DIIS: error= 8.63D-03 at cycle   2 NSaved=   2.
 NSaved= 2 IEnMin= 2 EnMin= -1692.28810778985     IErMin= 2 ErrMin= 8.63D-03
 ErrMax= 8.63D-03  0.00D+00 EMaxC= 1.00D-01 BMatC= 8.78D-02 BMatP= 5.76D-01
 IDIUse=3 WtCom= 9.14D-01 WtEn= 8.63D-02
 Coeff-Com:  0.194D+00 0.806D+00
 Coeff-En:   0.314D+00 0.686D+00
 Coeff:      0.204D+00 0.796D+00
 Gap=     0.212 Goal=   None    Shift=    0.000
 RMSDP=1.34D-03 MaxDP=9.83D-02 DE=-1.53D-01 OVMax= 2.10D-01

 Cycle   3  Pass 1  IDiag  1:
 RMSU=  1.25D-03    CP:  9.75D-01  7.81D-01
 E= -1692.57194976251     Delta-E=       -0.283841972661 Rises=F Damp=F
 DIIS: error= 9.02D-03 at cycle   3 NSaved=   3.
 NSaved= 3 IEnMin= 3 EnMin= -1692.57194976251     IErMin= 2 ErrMin= 8.63D-03
 ErrMax= 9.02D-03  0.00D+00 EMaxC= 1.00D-01 BMatC= 7.90D-02 BMatP= 8.78D-02
 IDIUse=3 WtCom= 9.10D-01 WtEn= 9.02D-02
 Coeff-Com:  0.407D-01 0.480D+00 0.479D+00
 Coeff-En:   0.000D+00 0.000D+00 0.100D+01
 Coeff:      0.371D-01 0.437D+00 0.526D+00
 Gap=     0.194 Goal=   None    Shift=    0.000
 RMSDP=9.19D-04 MaxDP=5.85D-02 DE=-2.84D-01 OVMax= 1.28D-01

 Cycle   4  Pass 1  IDiag  1:
 RMSU=  6.73D-04    CP:  9.78D-01  8.82D-01  5.31D-01
 E= -1692.62160896675     Delta-E=       -0.049659204241 Rises=F Damp=F
 DIIS: error= 4.37D-03 at cycle   4 NSaved=   4.
 NSaved= 4 IEnMin= 4 EnMin= -1692.62160896675     IErMin= 4 ErrMin= 4.37D-03
 ErrMax= 4.37D-03  0.00D+00 EMaxC= 1.00D-01 BMatC= 2.18D-02 BMatP= 7.90D-02
 IDIUse=3 WtCom= 9.56D-01 WtEn= 4.37D-02
 Coeff-Com: -0.399D-02 0.119D+00 0.354D+00 0.531D+00
 Coeff-En:   0.000D+00 0.000D+00 0.258D+00 0.742D+00
 Coeff:     -0.382D-02 0.114D+00 0.350D+00 0.540D+00
 Gap=     0.185 Goal=   None    Shift=    0.000
 RMSDP=3.85D-04 MaxDP=2.88D-02 DE=-4.97D-02 OVMax= 5.19D-02

 Cycle   5  Pass 1  IDiag  1:
 RMSU=  1.65D-04    CP:  9.78D-01  8.55D-01  6.81D-01  5.75D-01
 E= -1692.63909442230     Delta-E=       -0.017485455548 Rises=F Damp=F
 DIIS: error= 7.55D-04 at cycle   5 NSaved=   5.
 NSaved= 5 IEnMin= 5 EnMin= -1692.63909442230     IErMin= 5 ErrMin= 7.55D-04
 ErrMax= 7.55D-04  0.00D+00 EMaxC= 1.00D-01 BMatC= 1.37D-03 BMatP= 2.18D-02
 IDIUse=3 WtCom= 9.92D-01 WtEn= 7.55D-03
 Coeff-Com: -0.459D-02 0.272D-01 0.157D+00 0.312D+00 0.508D+00
 Coeff-En:   0.000D+00 0.000D+00 0.000D+00 0.000D+00 0.100D+01
 Coeff:     -0.455D-02 0.270D-01 0.155D+00 0.310D+00 0.512D+00
 Gap=     0.175 Goal=   None    Shift=    0.000
 RMSDP=1.00D-04 MaxDP=5.15D-03 DE=-1.75D-02 OVMax= 1.06D-02

 Cycle   6  Pass 1  IDiag  1:
 RMSU=  6.13D-05    CP:  9.77D-01  8.60D-01  6.79D-01  6.11D-01  5.46D-01
 E= -1692.64017776617     Delta-E=       -0.001083343871 Rises=F Damp=F
 DIIS: error= 3.34D-04 at cycle   6 NSaved=   6.
 NSaved= 6 IEnMin= 6 EnMin= -1692.64017776617     IErMin= 6 ErrMin= 3.34D-04
 ErrMax= 3.34D-04  0.00D+00 EMaxC= 1.00D-01 BMatC= 1.60D-04 BMatP= 1.37D-03
 IDIUse=3 WtCom= 9.97D-01 WtEn= 3.34D-03
 Coeff-Com: -0.213D-02 0.240D-02 0.503D-01 0.120D+00 0.309D+00 0.521D+00
 Coeff-En:   0.000D+00 0.000D+00 0.000D+00 0.000D+00 0.820D-01 0.918D+00
 Coeff:     -0.212D-02 0.239D-02 0.501D-01 0.119D+00 0.308D+00 0.522D+00
 Gap=     0.175 Goal=   None    Shift=    0.000
 RMSDP=3.61D-05 MaxDP=1.92D-03 DE=-1.08D-03 OVMax= 3.18D-03

 Cycle   7  Pass 1  IDiag  1:
 RMSU=  1.99D-05    CP:  9.77D-01  8.58D-01  6.80D-01  6.19D-01  6.20D-01
                    CP:  5.64D-01
 E= -1692.64031389822     Delta-E=       -0.000136132045 Rises=F Damp=F
 DIIS: error= 1.32D-04 at cycle   7 NSaved=   7.
 NSaved= 7 IEnMin= 7 EnMin= -1692.64031389822     IErMin= 7 ErrMin= 1.32D-04
 ErrMax= 1.32D-04  0.00D+00 EMaxC= 1.00D-01 BMatC= 1.64D-05 BMatP= 1.60D-04
 IDIUse=3 WtCom= 9.99D-01 WtEn= 1.32D-03
 Coeff-Com: -0.854D-03-0.641D-03 0.177D-01 0.459D-01 0.145D+00 0.318D+00
 Coeff-Com:  0.475D+00
 Coeff-En:   0.000D+00 0.000D+00 0.000D+00 0.000D+00 0.000D+00 0.231D-01
 Coeff-En:   0.977D+00
 Coeff:     -0.853D-03-0.640D-03 0.177D-01 0.459D-01 0.145D+00 0.317D+00
 Coeff:      0.475D+00
 Gap=     0.175 Goal=   None    Shift=    0.000
 RMSDP=1.03D-05 MaxDP=6.85D-04 DE=-1.36D-04 OVMax= 8.89D-04

 Cycle   8  Pass 1  IDiag  1:
 RMSU=  6.23D-06    CP:  9.77D-01  8.58D-01  6.80D-01  6.21D-01  6.20D-01
                    CP:  6.08D-01  6.19D-01
 E= -1692.64032716463     Delta-E=       -0.000013266414 Rises=F Damp=F
 DIIS: error= 4.70D-05 at cycle   8 NSaved=   8.
 NSaved= 8 IEnMin= 8 EnMin= -1692.64032716463     IErMin= 8 ErrMin= 4.70D-05
 ErrMax= 4.70D-05  0.00D+00 EMaxC= 1.00D-01 BMatC= 1.93D-06 BMatP= 1.64D-05
 IDIUse=1 WtCom= 1.00D+00 WtEn= 0.00D+00
 Coeff-Com: -0.172D-03-0.775D-03 0.380D-02 0.107D-01 0.468D-01 0.121D+00
 Coeff-Com:  0.286D+00 0.533D+00
 Coeff:     -0.172D-03-0.775D-03 0.380D-02 0.107D-01 0.468D-01 0.121D+00
 Coeff:      0.286D+00 0.533D+00
 Gap=     0.175 Goal=   None    Shift=    0.000
 RMSDP=3.39D-06 MaxDP=2.95D-04 DE=-1.33D-05 OVMax= 3.45D-04

 Cycle   9  Pass 1  IDiag  1:
 RMSU=  2.14D-06    CP:  9.77D-01  8.58D-01  6.81D-01  6.21D-01  6.22D-01
                    CP:  6.18D-01  6.45D-01  6.16D-01
 E= -1692.64032863254     Delta-E=       -0.000001467908 Rises=F Damp=F
 DIIS: error= 1.54D-05 at cycle   9 NSaved=   9.
 NSaved= 9 IEnMin= 9 EnMin= -1692.64032863254     IErMin= 9 ErrMin= 1.54D-05
 ErrMax= 1.54D-05  0.00D+00 EMaxC= 1.00D-01 BMatC= 1.95D-07 BMatP= 1.93D-06
 IDIUse=1 WtCom= 1.00D+00 WtEn= 0.00D+00
 Coeff-Com:  0.341D-04-0.349D-03-0.614D-04-0.127D-03 0.761D-02 0.248D-01
 Coeff-Com:  0.962D-01 0.294D+00 0.578D+00
 Coeff:      0.341D-04-0.349D-03-0.614D-04-0.127D-03 0.761D-02 0.248D-01
 Coeff:      0.962D-01 0.294D+00 0.578D+00
 Gap=     0.175 Goal=   None    Shift=    0.000
 RMSDP=1.16D-06 MaxDP=6.70D-05 DE=-1.47D-06 OVMax= 1.03D-04

 Cycle  10  Pass 1  IDiag  1:
 RMSU=  8.13D-07    CP:  9.77D-01  8.58D-01  6.81D-01  6.21D-01  6.24D-01
                    CP:  6.17D-01  6.51D-01  6.83D-01  7.18D-01
 E= -1692.64032878541     Delta-E=       -0.000000152870 Rises=F Damp=F
 DIIS: error= 3.71D-06 at cycle  10 NSaved=  10.
 NSaved=10 IEnMin=10 EnMin= -1692.64032878541     IErMin=10 ErrMin= 3.71D-06
 ErrMax= 3.71D-06  0.00D+00 EMaxC= 1.00D-01 BMatC= 2.27D-08 BMatP= 1.95D-07
 IDIUse=1 WtCom= 1.00D+00 WtEn= 0.00D+00
 Coeff-Com:  0.401D-04-0.129D-03-0.341D-03-0.107D-02 0.162D-04 0.204D-02
 Coeff-Com:  0.262D-01 0.111D+00 0.329D+00 0.534D+00
 Coeff:      0.401D-04-0.129D-03-0.341D-03-0.107D-02 0.162D-04 0.204D-02
 Coeff:      0.262D-01 0.111D+00 0.329D+00 0.534D+00
 Gap=     0.175 Goal=   None    Shift=    0.000
 RMSDP=4.17D-07 MaxDP=1.97D-05 DE=-1.53D-07 OVMax= 3.89D-05

 Cycle  11  Pass 1  IDiag  1:
 RMSU=  2.62D-07    CP:  9.77D-01  8.58D-01  6.81D-01  6.21D-01  6.24D-01
                    CP:  6.17D-01  6.56D-01  6.91D-01  7.63D-01  6.75D-01
 E= -1692.64032880576     Delta-E=       -0.000000020351 Rises=F Damp=F
 DIIS: error= 1.09D-06 at cycle  11 NSaved=  11.
 NSaved=11 IEnMin=11 EnMin= -1692.64032880576     IErMin=11 ErrMin= 1.09D-06
 ErrMax= 1.09D-06  0.00D+00 EMaxC= 1.00D-01 BMatC= 1.74D-09 BMatP= 2.27D-08
 IDIUse=1 WtCom= 1.00D+00 WtEn= 0.00D+00
 Coeff-Com:  0.193D-04-0.385D-04-0.170D-03-0.558D-03-0.721D-03-0.149D-02
 Coeff-Com:  0.427D-02 0.286D-01 0.115D+00 0.276D+00 0.579D+00
 Coeff:      0.193D-04-0.385D-04-0.170D-03-0.558D-03-0.721D-03-0.149D-02
 Coeff:      0.427D-02 0.286D-01 0.115D+00 0.276D+00 0.579D+00
 Gap=     0.175 Goal=   None    Shift=    0.000
 RMSDP=1.36D-07 MaxDP=6.76D-06 DE=-2.04D-08 OVMax= 1.31D-05

 Cycle  12  Pass 1  IDiag  1:
 RMSU=  8.52D-08    CP:  9.77D-01  8.58D-01  6.81D-01  6.21D-01  6.24D-01
                    CP:  6.17D-01  6.57D-01  6.94D-01  7.74D-01  7.28D-01
                    CP:  6.66D-01
 E= -1692.64032880711     Delta-E=       -0.000000001352 Rises=F Damp=F
 DIIS: error= 3.85D-07 at cycle  12 NSaved=  12.
 NSaved=12 IEnMin=12 EnMin= -1692.64032880711     IErMin=12 ErrMin= 3.85D-07
 ErrMax= 3.85D-07  0.00D+00 EMaxC= 1.00D-01 BMatC= 2.85D-10 BMatP= 1.74D-09
 IDIUse=1 WtCom= 1.00D+00 WtEn= 0.00D+00
 Coeff-Com:  0.581D-05-0.432D-05-0.522D-04-0.181D-03-0.446D-03-0.125D-02
 Coeff-Com: -0.145D-02 0.184D-03 0.176D-01 0.806D-01 0.332D+00 0.573D+00
 Coeff:      0.581D-05-0.432D-05-0.522D-04-0.181D-03-0.446D-03-0.125D-02
 Coeff:     -0.145D-02 0.184D-03 0.176D-01 0.806D-01 0.332D+00 0.573D+00
 Gap=     0.175 Goal=   None    Shift=    0.000
 RMSDP=4.66D-08 MaxDP=2.32D-06 DE=-1.35D-09 OVMax= 4.10D-06

 Cycle  13  Pass 1  IDiag  1:
 RMSU=  3.00D-08    CP:  9.77D-01  8.58D-01  6.81D-01  6.21D-01  6.24D-01
                    CP:  6.17D-01  6.57D-01  6.94D-01  7.80D-01  7.31D-01
                    CP:  7.51D-01  7.24D-01
 E= -1692.64032880738     Delta-E=       -0.000000000266 Rises=F Damp=F
 DIIS: error= 1.23D-07 at cycle  13 NSaved=  13.
 NSaved=13 IEnMin=13 EnMin= -1692.64032880738     IErMin=13 ErrMin= 1.23D-07
 ErrMax= 1.23D-07  0.00D+00 EMaxC= 1.00D-01 BMatC= 2.71D-11 BMatP= 2.85D-10
 IDIUse=1 WtCom= 1.00D+00 WtEn= 0.00D+00
 Coeff-Com:  0.994D-06 0.116D-05-0.679D-05-0.304D-04-0.135D-03-0.451D-03
 Coeff-Com: -0.115D-02-0.281D-02-0.334D-02 0.130D-01 0.112D+00 0.301D+00
 Coeff-Com:  0.582D+00
 Coeff:      0.994D-06 0.116D-05-0.679D-05-0.304D-04-0.135D-03-0.451D-03
 Coeff:     -0.115D-02-0.281D-02-0.334D-02 0.130D-01 0.112D+00 0.301D+00
 Coeff:      0.582D+00
 Gap=     0.175 Goal=   None    Shift=    0.000
 RMSDP=1.58D-08 MaxDP=5.28D-07 DE=-2.66D-10 OVMax= 1.29D-06

 Cycle  14  Pass 1  IDiag  1:
 RMSU=  1.04D-08    CP:  9.77D-01  8.58D-01  6.81D-01  6.21D-01  6.24D-01
                    CP:  6.17D-01  6.57D-01  6.94D-01  7.80D-01  7.36D-01
                    CP:  7.59D-01  7.63D-01  6.68D-01
 E= -1692.64032880745     Delta-E=       -0.000000000067 Rises=F Damp=F
 DIIS: error= 4.16D-08 at cycle  14 NSaved=  14.
 NSaved=14 IEnMin=14 EnMin= -1692.64032880745     IErMin=14 ErrMin= 4.16D-08
 ErrMax= 4.16D-08  0.00D+00 EMaxC= 1.00D-01 BMatC= 3.13D-12 BMatP= 2.71D-11
 IDIUse=1 WtCom= 1.00D+00 WtEn= 0.00D+00
 Coeff-Com: -0.417D-07 0.101D-05 0.198D-05 0.285D-05-0.235D-04-0.997D-04
 Coeff-Com: -0.436D-03-0.146D-02-0.379D-02-0.193D-02 0.217D-01 0.921D-01
 Coeff-Com:  0.308D+00 0.586D+00
 Coeff:     -0.417D-07 0.101D-05 0.198D-05 0.285D-05-0.235D-04-0.997D-04
 Coeff:     -0.436D-03-0.146D-02-0.379D-02-0.193D-02 0.217D-01 0.921D-01
 Coeff:      0.308D+00 0.586D+00
 Gap=     0.175 Goal=   None    Shift=    0.000
 RMSDP=5.50D-09 MaxDP=2.21D-07 DE=-6.68D-11 OVMax= 6.22D-07

 Error on total polarization charges =  0.00652
 SCF Done:  E(RB3LYP) =  -1692.64032881     A.U. after   14 cycles
            NFock= 14  Conv=0.55D-08     -V/T= 2.0075
 KE= 1.680108817531D+03 PE=-9.232594903155D+03 EE= 3.212562580205D+03
 Leave Link  502 at Sun Jul 18 16:37:23 2021, MaxMem=   104857600 cpu:            1972.9 elap:             506.4
 (Enter /dades/curu/g16A03_MST/g16/l601.exe)
 Copying SCF densities to generalized density rwf, IOpCl= 0 IROHF=0.

 **********************************************************************

            Population analysis using the SCF density.

 **********************************************************************

 Orbital symmetries:
       Occupied  (A) (A) (A) (A) (A) (A) (A) (A) (A) (A) (A) (A)
                 (A) (A) (A) (A) (A) (A) (A) (A) (A) (A) (A) (A)
                 (A) (A) (A) (A) (A) (A) (A) (A) (A) (A) (A) (A)
                 (A) (A) (A) (A) (A) (A) (A) (A) (A) (A) (A) (A)
                 (A) (A) (A) (A) (A) (A) (A) (A) (A) (A) (A) (A)
                 (A) (A) (A) (A) (A) (A) (A) (A) (A) (A) (A) (A)
                 (A) (A) (A) (A) (A) (A) (A) (A) (A) (A) (A) (A)
                 (A) (A) (A) (A) (A) (A) (A) (A) (A) (A) (A) (A)
                 (A) (A) (A) (A) (A)
       Virtual   (A) (A) (A) (A) (A) (A) (A) (A) (A) (A) (A) (A)
                 (A) (A) (A) (A) (A) (A) (A) (A) (A) (A) (A) (A)
                 (A) (A) (A) (A) (A) (A) (A) (A) (A) (A) (A) (A)
                 (A) (A) (A) (A) (A) (A) (A) (A) (A) (A) (A) (A)
                 (A) (A) (A) (A) (A) (A) (A) (A) (A) (A) (A) (A)
                 (A) (A) (A) (A) (A) (A) (A) (A) (A) (A) (A) (A)
                 (A) (A) (A) (A) (A) (A) (A) (A) (A) (A) (A) (A)
                 (A) (A) (A) (A) (A) (A) (A) (A) (A) (A) (A) (A)
                 (A) (A) (A) (A) (A) (A) (A) (A) (A) (A) (A) (A)
                 (A) (A) (A) (A) (A) (A) (A) (A) (A) (A) (A) (A)
                 (A) (A) (A) (A) (A) (A) (A) (A) (A) (A) (A) (A)
                 (A) (A) (A) (A) (A) (A) (A) (A) (A) (A) (A) (A)
                 (A) (A) (A) (A) (A) (A) (A) (A) (A) (A) (A) (A)
[...]
    20  H   -0.267978   1.140617   0.026934  -0.010273   0.047987   0.000282
    21  O    0.001799   0.026934   8.964430   0.346440  -0.009943   0.017657
    22  H    0.013976  -0.010273   0.346440   0.531210   0.004537   0.010817
    23  C   -0.067362   0.047987  -0.009943   0.004537   4.808065  -0.128339
    24  O   -0.016621   0.000282   0.017657   0.010817  -0.128339   8.573200
    25  H    0.002284   0.001852  -0.005445  -0.000856  -0.080110   0.406692
    26  H   -0.015220   0.006007  -0.000875   0.028874   0.195254  -0.093813
    27  H    0.003281  -0.004455   0.057157  -0.017955   0.211092  -0.043599
    28  N   -0.000139   0.000233  -0.001192   0.000232  -0.003382  -0.000122
    29  C   -0.000324  -0.000811   0.000194   0.000142  -0.004934  -0.000019
    30  H   -0.000006  -0.000041   0.000028   0.000005  -0.000061   0.000000
    31  N   -0.000284  -0.000507  -0.000014  -0.000013   0.002753  -0.000011
    32  C   -0.000133  -0.001531   0.000159  -0.000006   0.001387   0.000038
    33  C    0.000073   0.000294  -0.000012   0.000005  -0.000134  -0.000001
    34  H   -0.000005  -0.000020   0.000000   0.000001  -0.000112   0.000001
    35  C    0.000009   0.000051  -0.000001   0.000001   0.000089  -0.000000
    36  H    0.000000  -0.000000  -0.000000  -0.000000   0.000004  -0.000000
    37  C   -0.000008  -0.000035   0.000000  -0.000000  -0.000086   0.000000
    38  H   -0.000000  -0.000001   0.000000   0.000000  -0.000003   0.000000
    39  C   -0.000058  -0.000140   0.000007  -0.000003  -0.000290   0.000004
    40  Cl   0.000001  -0.000000  -0.000000   0.000000  -0.000008   0.000000
    41  C    0.000140   0.000422  -0.000031  -0.000012   0.002079  -0.000054
    42  C   -0.000694  -0.001183   0.000104   0.000053  -0.014695   0.000217
    43  O    0.000018   0.000017  -0.000001  -0.000000   0.000254  -0.000001
    44  H   -0.000022  -0.000029  -0.000016   0.000024  -0.000090   0.000000
              25         26         27         28         29         30
     1  C   -0.000246   0.010473   0.001389   0.001765   0.028244   0.004196
     2  H   -0.000076  -0.000467   0.000309  -0.000500   0.002634   0.000102
     3  H    0.000104  -0.003271  -0.002847  -0.000298  -0.008868   0.000282
     4  H    0.000177   0.002125   0.000280   0.000458   0.004570   0.000333
     5  N   -0.000006  -0.007642   0.000440  -0.000451   0.018057   0.001005
     6  C    0.000248   0.006725  -0.002188  -0.059922  -0.093204   0.013139
     7  H    0.000007   0.000678   0.000496   0.000074  -0.038188  -0.000434
     8  H    0.000110   0.006239  -0.005793  -0.014330  -0.050167  -0.004531
     9  C   -0.000296  -0.002931  -0.010860  -0.199128   0.096373  -0.056205
    10  C   -0.000434  -0.011999  -0.015469  -0.533133  -1.107288  -0.024506
    11  C   -0.003136   0.049860   0.008578  -0.270674  -0.755840  -0.141624
    12  N   -0.000175   0.006630  -0.008581   0.097912   0.047213  -0.003699
    13  O   -0.000415   0.006928   0.024393  -0.061072  -0.039596  -0.001006
    14  C    0.018473   0.037195  -0.089539   0.194230  -0.137043  -0.013026
    15  N   -0.002306  -0.020172   0.028982   0.157601   0.045977   0.002429
    16  C    0.029189  -0.078438  -0.022918   0.046771  -0.012663  -0.000647
    17  C   -0.011475  -0.126154   0.029536  -0.003332  -0.005762  -0.000087
    18  H   -0.005784  -0.026312   0.011590  -0.000337   0.001409   0.000072
    19  H    0.002284  -0.015220   0.003281  -0.000139  -0.000324  -0.000006
    20  H    0.001852   0.006007  -0.004455   0.000233  -0.000811  -0.000041
    21  O   -0.005445  -0.000875   0.057157  -0.001192   0.000194   0.000028
    22  H   -0.000856   0.028874  -0.017955   0.000232   0.000142   0.000005
    23  C   -0.080110   0.195254   0.211092  -0.003382  -0.004934  -0.000061
    24  O    0.406692  -0.093813  -0.043599  -0.000122  -0.000019   0.000000
    25  H    0.527438  -0.000249  -0.059383  -0.000058  -0.000038  -0.000001
    26  H   -0.000249   1.349053  -0.160633   0.000209  -0.000950  -0.000029
    27  H   -0.059383  -0.160633   1.223606   0.000506  -0.000173  -0.000021
    28  N   -0.000058   0.000209   0.000506   7.988144   0.227536  -0.400570
    29  C   -0.000038  -0.000950  -0.000173   0.227536   6.638425   0.500525
    30  H   -0.000001  -0.000029  -0.000021  -0.400570   0.500525   1.291931
    31  N    0.000019   0.000041   0.000326   0.167198   0.415911  -0.297874
    32  C    0.000020   0.001258  -0.000243  -0.404525  -0.575119   0.517872
    33  C   -0.000004  -0.000338   0.000111   0.096329   0.271837  -0.184839
    34  H   -0.000000  -0.000029  -0.000015  -0.007952   0.012864  -0.002876
    35  C   -0.000000   0.000057   0.000023   0.122025  -0.477473  -0.018358
    36  H    0.000000   0.000001   0.000001  -0.000619   0.009780   0.004945
    37  C    0.000000  -0.000086  -0.000017  -0.030396   0.201428  -0.003648
    38  H   -0.000000  -0.000002  -0.000000  -0.000381   0.001129  -0.000569
    39  C    0.000002   0.000329  -0.000139   0.019754  -0.155730  -0.002969
    40  Cl  -0.000000  -0.000001   0.000002  -0.000769   0.004021   0.000120
    41  C    0.000012  -0.000866   0.000384  -0.111698   0.459518   0.070300
    42  C   -0.000071  -0.005737  -0.001239   0.008794   0.006040   0.071017
    43  O    0.000001   0.000282   0.000065   0.002404  -0.011720  -0.000999
    44  H    0.000001   0.000105  -0.000155   0.516877  -0.192495   0.005174
              31         32         33         34         35         36
     1  C    0.008353   0.179120  -0.143567  -0.001104   0.031999   0.000742
     2  H    0.021775  -0.045789  -0.003762   0.000250   0.001909   0.000066
     3  H   -0.004408   0.013876  -0.014355  -0.000172   0.001508   0.000039
     4  H    0.000233   0.023887  -0.008089  -0.000141   0.001092   0.000037
     5  N   -0.237387   0.515880  -0.113604   0.002948   0.076979  -0.000250
     6  C   -0.128975  -0.237685  -0.085079  -0.004720  -0.212117   0.000913
     7  H   -0.066159   0.380139  -0.053743  -0.001754   0.039941  -0.000685
     8  H    0.031684  -0.154436   0.044468  -0.000541  -0.019777  -0.000181
     9  C   -1.978820  -5.207981   1.598771   0.084803   0.047159   0.009187
    10  C   -0.067769  -0.029330   0.047642  -0.070992   0.104217  -0.009485
    11  C    0.688045   1.129589  -0.071692  -0.029951   0.130656   0.001698
    12  N   -0.049244  -0.056892   0.006981   0.000230  -0.000054  -0.000022
    13  O    0.001754   0.009486  -0.000710   0.000015  -0.000021   0.000003
    14  C   -0.015044  -0.158927   0.051027  -0.005755   0.012993   0.000169
    15  N   -0.054437  -0.098887  -0.002277  -0.000425  -0.001328  -0.000023
    16  C   -0.011976  -0.023857   0.005222  -0.000298   0.000622   0.000007
    17  C   -0.004814  -0.003404   0.001124  -0.000109   0.000149   0.000003
    18  H    0.001745   0.003923  -0.000088  -0.000009   0.000181   0.000005
    19  H   -0.000284  -0.000133   0.000073  -0.000005   0.000009   0.000000
    20  H   -0.000507  -0.001531   0.000294  -0.000020   0.000051  -0.000000
    21  O   -0.000014   0.000159  -0.000012   0.000000  -0.000001  -0.000000
    22  H   -0.000013  -0.000006   0.000005   0.000001   0.000001  -0.000000
    23  C    0.002753   0.001387  -0.000134  -0.000112   0.000089   0.000004
    24  O   -0.000011   0.000038  -0.000001   0.000001  -0.000000  -0.000000
    25  H    0.000019   0.000020  -0.000004  -0.000000  -0.000000   0.000000
    26  H    0.000041   0.001258  -0.000338  -0.000029   0.000057   0.000001
    27  H    0.000326  -0.000243   0.000111  -0.000015   0.000023   0.000001
    28  N    0.167198  -0.404525   0.096329  -0.007952   0.122025  -0.000619
    29  C    0.415911  -0.575119   0.271837   0.012864  -0.477473   0.009780
    30  H   -0.297874   0.517872  -0.184839  -0.002876  -0.018358   0.004945
    31  N   10.951751  -4.544484   2.164118  -0.539483  -0.691527  -0.008769
    32  C   -4.544484  47.819347 -19.124115   2.481291   5.545778   0.084853
    33  C    2.164118 -19.124115  25.237800  -2.597918  -7.479594   0.824738
    34  H   -0.539483   2.481291  -2.597918   2.428006   0.824026  -0.072038
    35  C   -0.691527   5.545778  -7.479594   0.824026  15.116025  -1.160671
    36  H   -0.008769   0.084853   0.824738  -0.072038  -1.160671   1.701385
    37  C    0.732421  -9.682765   6.627262  -0.355294  -5.541855   0.584864
    38  H   -0.000499   0.176095  -0.508486  -0.023174   0.418728  -0.090010
    39  C   -0.646935   6.276538  -8.687743   0.322697   3.660686  -0.440037
    40  Cl   0.003867  -0.340374   0.379886   0.001962  -0.280044   0.003493
    41  C    1.470485 -16.918498   7.877428  -0.765413  -5.611838   0.006528
    42  C    0.600660  -1.406311  -1.150441   0.024566   0.908591  -0.002561
    43  O   -0.061396   0.102102   0.001820   0.000359  -0.022970  -0.000373
    44  H    0.038911   0.007980   0.001552   0.001629  -0.001809  -0.000118
              37         38         39         40         41         42
     1  C   -0.030883  -0.001147   0.259251  -0.024601  -0.812690   0.292352
     2  H    0.000598  -0.000063   0.034196  -0.003304  -0.227964   0.459100
     3  H    0.000063  -0.000008   0.017877  -0.000182   0.036929  -0.090372
     4  H   -0.000554  -0.000092   0.011489  -0.002788   0.021969  -0.149294
     5  N   -0.075719   0.000004  -0.031468   0.035554   0.039767  -0.620828
     6  C    0.231545   0.004061   0.228306   0.045288   0.615752  -0.687378
     7  H   -0.039298  -0.001208   0.028922   0.004988  -0.189353  -0.310464
     8  H    0.015083   0.000573   0.003153   0.004075   0.033488   0.087883
     9  C    0.153459  -0.006174  -0.972551   0.001009   1.059150  -1.502320
    10  C   -0.101958   0.003259   0.176304   0.001204  -0.144359  -0.097494
    11  C   -0.070910  -0.000885   0.017222   0.000314  -0.560619  -0.609984
    12  N    0.000269   0.000009  -0.000617   0.000001   0.010696   0.006386
    13  O   -0.000002   0.000000   0.000216  -0.000001  -0.002199   0.003561
    14  C   -0.005740  -0.000107  -0.016626   0.000058  -0.016895  -0.194717
    15  N   -0.000069  -0.000012  -0.003679   0.000107   0.026479  -0.003049
    16  C   -0.000221  -0.000004  -0.002387   0.000018   0.003044  -0.017023
    17  C   -0.000109  -0.000002  -0.000577  -0.000000   0.002277  -0.009999
    18  H   -0.000099  -0.000001   0.000064  -0.000013  -0.001481   0.004219
    19  H   -0.000008  -0.000000  -0.000058   0.000001   0.000140  -0.000694
    20  H   -0.000035  -0.000001  -0.000140  -0.000000   0.000422  -0.001183
    21  O    0.000000   0.000000   0.000007  -0.000000  -0.000031   0.000104
    22  H   -0.000000   0.000000  -0.000003   0.000000  -0.000012   0.000053
    23  C   -0.000086  -0.000003  -0.000290  -0.000008   0.002079  -0.014695
    24  O    0.000000   0.000000   0.000004   0.000000  -0.000054   0.000217
    25  H    0.000000  -0.000000   0.000002  -0.000000   0.000012  -0.000071
    26  H   -0.000086  -0.000002   0.000329  -0.000001  -0.000866  -0.005737
    27  H   -0.000017  -0.000000  -0.000139   0.000002   0.000384  -0.001239
    28  N   -0.030396  -0.000381   0.019754  -0.000769  -0.111698   0.008794
    29  C    0.201428   0.001129  -0.155730   0.004021   0.459518   0.006040
    30  H   -0.003648  -0.000569  -0.002969   0.000120   0.070300   0.071017
    31  N    0.732421  -0.000499  -0.646935   0.003867   1.470485   0.600660
    32  C   -9.682765   0.176095   6.276538  -0.340374 -16.918498  -1.406311
    33  C    6.627262  -0.508486  -8.687743   0.379886   7.877428  -1.150441
    34  H   -0.355294  -0.023174   0.322697   0.001962  -0.765413   0.024566
    35  C   -5.541855   0.418728   3.660686  -0.280044  -5.611838   0.908591
    36  H    0.584864  -0.090010  -0.440037   0.003493   0.006528  -0.002561
    37  C   17.802086  -1.487086  -6.885042   0.392834   3.524358  -0.687650
    38  H   -1.487086   1.790704   1.220381  -0.109009   0.001006   0.045845
    39  C   -6.885042   1.220381  22.430511  -0.440214 -10.753731   1.286405
    40  Cl   0.392834  -0.109009  -0.440214  17.525994   0.459391  -0.343217
    41  C    3.524358   0.001006 -10.753731   0.459391  28.702030  -4.463234
    42  C   -0.687650   0.045845   1.286405  -0.343217  -4.463234  14.188473
    43  O   -0.028558   0.000620  -0.183726  -0.009873   0.516921  -0.394396
    44  H    0.000868   0.000029  -0.000848   0.000023   0.002871  -0.001534
              43         44
     1  C    0.012257  -0.000365
     2  H   -0.057142   0.000079
     3  H    0.017965  -0.000160
     4  H    0.011346  -0.000092
     5  N   -0.075608  -0.002239
     6  C    0.056996   0.019318
     7  H    0.013173  -0.000265
     8  H    0.001324   0.002588
     9  C    0.106049  -0.017666
    10  C   -0.010364  -0.107067
    11  C    0.026016   0.002347
    12  N   -0.000119  -0.008477
    13  O   -0.000019   0.002143
    14  C    0.004696  -0.026045
    15  N    0.001064  -0.006262
    16  C    0.000313  -0.002055
    17  C    0.000121  -0.000471
    18  H   -0.000223  -0.000143
    19  H    0.000018  -0.000022
    20  H    0.000017  -0.000029
    21  O   -0.000001  -0.000016
    22  H   -0.000000   0.000024
    23  C    0.000254  -0.000090
    24  O   -0.000001   0.000000
    25  H    0.000001   0.000001
    26  H    0.000282   0.000105
    27  H    0.000065  -0.000155
    28  N    0.002404   0.516877
    29  C   -0.011720  -0.192495
    30  H   -0.000999   0.005174
    31  N   -0.061396   0.038911
    32  C    0.102102   0.007980
    33  C    0.001820   0.001552
    34  H    0.000359   0.001629
    35  C   -0.022970  -0.001809
    36  H   -0.000373  -0.000118
    37  C   -0.028558   0.000868
    38  H    0.000620   0.000029
    39  C   -0.183726  -0.000848
    40  Cl  -0.009873   0.000023
    41  C    0.516921   0.002871
    42  C   -0.394396  -0.001534
    43  O    8.824791  -0.000041
    44  H   -0.000041   0.799749
 Mulliken charges:
               1
     1  C    0.800573
     2  H   -0.223571
     3  H   -0.042153
     4  H   -0.108330
     5  N   -0.574041
     6  C    1.027030
     7  H   -0.010668
     8  H   -0.241882
     9  C   -0.042543
    10  C    0.696781
    11  C    0.422164
    12  N   -0.320931
    13  O   -0.915322
    14  C    0.789715
    15  N   -0.493954
    16  C   -0.446732
    17  C    0.903333
    18  H    0.035959
    19  H    0.019290
    20  H    0.018702
    21  O   -0.923170
    22  H    0.200678
    23  C    1.598440
    24  O   -0.797757
    25  H    0.183938
    26  H   -0.152109
    27  H   -0.156324
    28  N   -0.544074
    29  C    0.674575
    30  H   -0.324851
    31  N   -0.891216
    32  C   -0.255325
    33  C    0.992107
    34  H   -0.705350
    35  C    0.473944
    36  H   -0.447616
    37  C    0.760950
    38  H   -0.433520
    39  C   -0.768806
    40  Cl  -0.309816
    41  C    1.637514
    42  C    0.771617
    43  O   -0.843442
    44  H   -0.033807
 Sum of Mulliken charges =   1.00000
 Mulliken charges with hydrogens summed into heavy atoms:
               1
     1  C    0.426519
     5  N   -0.574041
     6  C    0.774479
     9  C   -0.042543
    10  C    0.696781
    11  C    0.422164
    12  N   -0.320931
    13  O   -0.915322
    14  C    0.789715
    15  N   -0.493954
    16  C   -0.446732
    17  C    0.977284
    21  O   -0.722492
    23  C    1.290007
    24  O   -0.613819
    28  N   -0.577881
    29  C    0.349724
    31  N   -0.891216
    32  C   -0.255325
    33  C    0.286757
    35  C    0.026328
    37  C    0.327430
    39  C   -0.768806
    40  Cl  -0.309816
    41  C    1.637514
    42  C    0.771617
    43  O   -0.843442
 Electronic spatial extent (au):  <R**2>=          13340.7299
 Charge=              1.0000 electrons
 Dipole moment (field-independent basis, Debye):
    X=             -2.0062    Y=             -6.4717    Z=              0.1189  Tot=              6.7766
 Quadrupole moment (field-independent basis, Debye-Ang):
   XX=           -105.9090   YY=           -126.8543   ZZ=           -158.5375
   XY=             44.7440   XZ=            -21.2973   YZ=              5.5078
 Traceless Quadrupole moment (field-independent basis, Debye-Ang):
   XX=             24.5246   YY=              3.5793   ZZ=            -28.1039
   XY=             44.7440   XZ=            -21.2973   YZ=              5.5078
 Octapole moment (field-independent basis, Debye-Ang**2):
  XXX=             23.9607  YYY=            -74.9799  ZZZ=             -2.3320  XYY=            -16.3419
  XXY=             50.5938  XXZ=             16.5593  XZZ=             50.0816  YZZ=             -5.6172
  YYZ=            -35.5448  XYZ=            -34.3052
 Hexadecapole moment (field-independent basis, Debye-Ang**3):
 XXXX=         -11222.5541 YYYY=          -2306.9226 ZZZZ=           -804.6915 XXXY=           1078.1744
 XXXZ=           -804.4304 YYYX=            214.3592 YYYZ=             72.4553 ZZZX=            -12.9870
 ZZZY=             22.5370 XXYY=          -2537.8694 XXZZ=          -2315.6506 YYZZ=           -546.0390
 XXYZ=           -195.0508 YYXZ=            -92.1681 ZZXY=             99.8094
 N-N= 2.636251990278D+03 E-N=-9.209527103021D+03  KE= 1.683126620379D+03
 Leave Link  601 at Mon Jul 19 03:22:08 2021, MaxMem=   262144000 cpu:               1.0 elap:               0.9
 (Enter /dades/curu/g16A03_MST/g16/l9999.exe)
 1\1\GINC-PIRINEUS38\SP\RMP2-FC\Aug-CC-pVDZ\C17H17Cl1N5O4(1+)\UBATOR02\
 19-Jul-2021\0\\#p mp2/aug-cc-pVDZ scf=tight maxdisk=180GB geom=allchec
 k\\SET_328_BBB324_conf1.geo_180_315_180 geometry\\1,1\C,0,0.2624824248
 ,2.0402929967,1.553685224\H,0,0.806113028,2.8662047321,2.0055888633\H,
 0,0.5611266281,1.1037796639,2.0363287793\H,0,-0.8119524642,2.183944744
 2,1.6844436506\N,0,0.5837667932,2.0231273047,0.1292812308\C,0,-0.05474
 4613,1.0072811222,-0.7061727796\H,0,-0.4013289567,1.448820901,-1.64383
 3387\H,0,-0.9139276124,0.5986821561,-0.1769272821\C,0,0.9217042743,-0.
 0903969398,-0.9824746712\C,0,1.0402416729,-1.3918594829,-0.5649261694\
 C,0,0.144316629,-2.1797515046,0.259519795\N,0,0.4110462071,-3.41161636
 42,0.6223993193\O,0,-0.7060522767,-3.76083411,1.3827461552\C,0,-1.5247
 735564,-2.6963359807,1.3915046083\N,0,-1.0533872791,-1.6861465551,0.71
 50324867\C,0,-2.8033333403,-2.7596189436,2.1767037036\C,0,-3.932593693
 7,-2.0542471617,1.4183087568\H,0,-3.6488203918,-1.0359187913,1.1448256
 77\H,0,-4.8112371811,-2.0197287789,2.0652742334\H,0,-4.176727773,-2.61
 22584623,0.5125927124\O,0,-3.0998955721,-4.1254471163,2.3906584584\H,0
 ,-3.6601764972,-4.1235987902,3.1907757856\C,0,-2.5683182847,-2.0948395
 279,3.5524266861\O,0,-3.730569779,-2.4016222199,4.3076628899\H,0,-3.50
 37819075,-2.3861252264,5.2500741227\H,0,-2.42930617,-1.013686977,3.437
 1765988\H,0,-1.6711540085,-2.5232510403,4.0117407508\N,0,2.2328404122,
 -1.8689586952,-1.0826502829\C,0,2.8321096923,-0.9096599023,-1.77858103
 74\H,0,3.7832331542,-0.9927617118,-2.2760322971\N,0,2.057711174,0.1862
 395431,-1.7379992868\C,0,2.2910036822,1.4208337441,-2.4320757337\C,0,2
 .7782724622,1.3502737343,-3.7357470321\H,0,2.9615707431,0.3879942076,-
 4.1974095574\C,0,2.987874079,2.5276226865,-4.4451497153\H,0,3.36547818
 69,2.4880088459,-5.4600113095\C,0,2.6786394318,3.7543918179,-3.8647188
 298\H,0,2.8059145571,4.6764951285,-4.4179057529\C,0,2.1906093061,3.804
 5518728,-2.5609033469\Cl,0,1.7830697945,5.3769534011,-1.9186354947\C,0
 ,1.9954732955,2.6410309071,-1.7959674048\C,0,1.6473339062,2.7528276629
 ,-0.3218070182\O,0,2.3133358672,3.485731704,0.3985003719\H,0,2.6138139
 554,-2.8074245943,-0.953322471\\Version=ES64L-G16RevA.03\State=1-A\HF=
 -1684.7615611\MP2=-1688.8772977\RMSD=2.315e-09\PG=C01 [X(C17H17Cl1N5O4
 )]\\@


 THERE IS SOMETHING FASCINATING ABOUT SCIENCE.
 ONE GETS SUCH WHOLESALE CONJECTURE OUT OF SUCH TRIFLING INVESTMENTS.

                                                       -- MARK TWAIN
 Job cpu time:       0 days 13 hours 26 minutes 13.8 seconds.
 Elapsed time:       0 days  3 hours 59 minutes 43.9 seconds.
 File lengths (MBytes):  RWF= 157780 Int=      0 D2E=      0 Chk=     49 Scr=      1
 Normal termination of Gaussian 16 at Mon Jul 19 03:22:11 2021.
