 Entering Gaussian System, Link 0=g16
 Input=SET_328_BBB292_conf1.geo_270_300_120_OCTANOL.dat
 Output=SET_328_BBB292_conf1.geo_270_300_120_OCTANOL.log
 Initial command:
 /dades/curu/g16A03_MST/g16/l1.exe "/tmp/ubator02/1839590/Gau-185301.inp" -scrdir="/tmp/ubator02/1839590/"
 Entering Link 1 = /dades/curu/g16A03_MST/g16/l1.exe PID=    185310.
  
 Copyright (c) 1988,1990,1992,1993,1995,1998,2003,2009,2016,
            Gaussian, Inc.  All Rights Reserved.
  
 This is part of the Gaussian(R) 16 program.  It is based on
 the Gaussian(R) 09 system (copyright 2009, Gaussian, Inc.),
 the Gaussian(R) 03 system (copyright 2003, Gaussian, Inc.),
 the Gaussian(R) 98 system (copyright 1998, Gaussian, Inc.),
 the Gaussian(R) 94 system (copyright 1995, Gaussian, Inc.),
 the Gaussian 92(TM) system (copyright 1992, Gaussian, Inc.),
 the Gaussian 90(TM) system (copyright 1990, Gaussian, Inc.),
 the Gaussian 88(TM) system (copyright 1988, Gaussian, Inc.),
 the Gaussian 86(TM) system (copyright 1986, Carnegie Mellon
 University), and the Gaussian 82(TM) system (copyright 1983,
 Carnegie Mellon University). Gaussian is a federally registered
 trademark of Gaussian, Inc.
  
 This software contains proprietary and confidential information,
 including trade secrets, belonging to Gaussian, Inc.
  
 This software is provided under written license and may be
 used, copied, transmitted, or stored only in accord with that
 written license.
  
 The following legend is applicable only to US Government
 contracts under FAR:
  
                    RESTRICTED RIGHTS LEGEND
  
 Use, reproduction and disclosure by the US Government is
 subject to restrictions as set forth in subparagraphs (a)
 and (c) of the Commercial Computer Software - Restricted
 Rights clause in FAR 52.227-19.
  
 Gaussian, Inc.
 340 Quinnipiac St., Bldg. 40, Wallingford CT 06492
  
  
 ---------------------------------------------------------------
 Warning -- This program may not be used in any manner that
 competes with the business of Gaussian, Inc. or will provide
 assistance to any competitor of Gaussian, Inc.  The licensee
 of this program is prohibited from giving any competitor of
 Gaussian, Inc. access to this program.  By using this program,
 the user acknowledges that Gaussian, Inc. is engaged in the
 business of creating and licensing software in the field of
 computational chemistry and represents and warrants to the
 licensee that it is not a competitor of Gaussian, Inc. and that
 it will not use this program in any manner prohibited above.
 ---------------------------------------------------------------
  

 Cite this work as:
 Gaussian 16, Revision A.03,
 M. J. Frisch, G. W. Trucks, H. B. Schlegel, G. E. Scuseria, 
 M. A. Robb, J. R. Cheeseman, G. Scalmani, V. Barone, 
 G. A. Petersson, H. Nakatsuji, X. Li, M. Caricato, A. V. Marenich, 
 J. Bloino, B. G. Janesko, R. Gomperts, B. Mennucci, H. P. Hratchian, 
 J. V. Ortiz, A. F. Izmaylov, J. L. Sonnenberg, D. Williams-Young, 
 F. Ding, F. Lipparini, F. Egidi, J. Goings, B. Peng, A. Petrone, 
 T. Henderson, D. Ranasinghe, V. G. Zakrzewski, J. Gao, N. Rega, 
 G. Zheng, W. Liang, M. Hada, M. Ehara, K. Toyota, R. Fukuda, 
 J. Hasegawa, M. Ishida, T. Nakajima, Y. Honda, O. Kitao, H. Nakai, 
 T. Vreven, K. Throssell, J. A. Montgomery, Jr., J. E. Peralta, 
 F. Ogliaro, M. J. Bearpark, J. J. Heyd, E. N. Brothers, K. N. Kudin, 
 V. N. Staroverov, T. A. Keith, R. Kobayashi, J. Normand, 
 K. Raghavachari, A. P. Rendell, J. C. Burant, S. S. Iyengar, 
 J. Tomasi, M. Cossi, J. M. Millam, M. Klene, C. Adamo, R. Cammi, 
 J. W. Ochterski, R. L. Martin, K. Morokuma, O. Farkas, 
 J. B. Foresman, and D. J. Fox, Gaussian, Inc., Wallingford CT, 2016.
 
 ******************************************
 Gaussian 16:  ES64L-G16RevA.03 25-Dec-2016
                18-Jul-2021 
 ******************************************
 %mem=800MB
 %nproc=4
 Will use up to    4 processors via shared memory.
 %chk=SET_328_BBB292_conf1.geo_270_300_120.chk
 ---------------------------------------------------------------
 #p b3lyp/6-31G(d) opt freq scrf=(iefpcm,read,solvent=n-octanol)
 ---------------------------------------------------------------
 1/18=20,19=15,26=3,38=1,40=2/1,3;
 2/9=110,12=2,17=6,18=5,40=1/2;
 3/5=1,6=6,7=1,11=2,25=1,30=1,70=2203,71=1,72=25,74=-5/1,2,3;
 4//1;
 5/5=2,38=5,53=25/2;
 6/7=2,8=2,9=2,10=2,28=1/1;
 7//1,2,3,16;
 1/18=20,19=15,26=3/3(2);
 2/9=110/2;
 99//99;
 2/9=110/2;
 3/5=1,6=6,7=1,11=2,25=1,30=1,70=2205,71=1,72=25,74=-5/1,2,3;
 4/5=5,16=3,69=1/1;
 5/5=2,38=5,53=25/2;
 7//1,2,3,16;
 1/18=20,19=15,26=3/3(-5);
 2/9=110/2;
 6/7=2,8=2,9=2,10=2,19=2,28=1/1;
 99/9=1/99;
 Leave Link    1 at Sun Jul 18 13:47:46 2021, MaxMem=   104857600 cpu:               0.1 elap:               0.1
 (Enter /dades/curu/g16A03_MST/g16/l101.exe)
 ---------------------------------------------
 SET_328_BBB292_conf1.geo_270_300_120 geometry
 ---------------------------------------------
 Symbolic Z-matrix:
 Charge =  1 Multiplicity = 1
 N                    -1.553    -1.687    -1.173 
 H                    -2.057    -1.496    -2.015 
 H                    -1.662    -0.922    -0.539 
 C                    -0.093    -1.87     -1.492 
 C                     0.648    -2.685    -0.436 
 O                    -0.129    -3.011     0.491 
 H                    -0.912    -2.591     0.094 
 O                     1.878    -2.795    -0.355 
 H                    -0.115    -2.548    -2.35 
 C                     0.49     -0.505    -1.718 
 H                     0.099     0.021    -2.592 
 H                     1.541    -0.555    -2.014 
 C                     0.459     0.291    -0.472 
 C                    -0.684     1.065    -0.266 
 H                    -1.481     0.994    -1.002 
 C                    -0.721     1.966     0.812 
 O                    -1.88      2.77      1.01 
 H                    -1.653     3.431     1.688 
 C                     0.339     2.012     1.767 
 O                     0.276     2.744     2.881 
 H                    -0.63      2.598     3.208 
 C                     1.5       1.244     1.569 
 H                     2.353     1.358     2.233 
 C                     1.502     0.323     0.462 
 H                     2.426    -0.206     0.245 
 H                    -1.91     -2.521    -0.753 
 
 ITRead=  0  0  0  0  0  0  0  0  0  0  0  0  0  0  0  0  0  0  0  0
 ITRead=  0  0  0  0  0  0
 MicOpt= -1 -1 -1 -1 -1 -1 -1 -1 -1 -1 -1 -1 -1 -1 -1 -1 -1 -1 -1 -1
 MicOpt= -1 -1 -1 -1 -1 -1
 NAtoms=     26 NQM=       26 NQMF=       0 NMMI=      0 NMMIF=      0
                NMic=       0 NMicF=      0.
                    Isotopes and Nuclear Properties:
 (Nuclear quadrupole moments (NQMom) in fm**2, nuclear magnetic moments (NMagM)
  in nuclear magnetons)

  Atom         1           2           3           4           5           6           7           8           9          10
 IAtWgt=          14           1           1          12          12          16           1          16           1          12
 AtmWgt=  14.0030740   1.0078250   1.0078250  12.0000000  12.0000000  15.9949146   1.0078250  15.9949146   1.0078250  12.0000000
 NucSpn=           2           1           1           0           0           0           1           0           1           0
 AtZEff=  -0.0000000  -0.0000000  -0.0000000  -0.0000000  -0.0000000  -0.0000000  -0.0000000  -0.0000000  -0.0000000  -0.0000000
 NQMom=    2.0440000   0.0000000   0.0000000   0.0000000   0.0000000   0.0000000   0.0000000   0.0000000   0.0000000   0.0000000
 NMagM=    0.4037610   2.7928460   2.7928460   0.0000000   0.0000000   0.0000000   2.7928460   0.0000000   2.7928460   0.0000000
 AtZNuc=   7.0000000   1.0000000   1.0000000   6.0000000   6.0000000   8.0000000   1.0000000   8.0000000   1.0000000   6.0000000

  Atom        11          12          13          14          15          16          17          18          19          20
 IAtWgt=           1           1          12          12           1          12          16           1          12          16
 AtmWgt=   1.0078250   1.0078250  12.0000000  12.0000000   1.0078250  12.0000000  15.9949146   1.0078250  12.0000000  15.9949146
 NucSpn=           1           1           0           0           1           0           0           1           0           0
 AtZEff=  -0.0000000  -0.0000000  -0.0000000  -0.0000000  -0.0000000  -0.0000000  -0.0000000  -0.0000000  -0.0000000  -0.0000000
 NQMom=    0.0000000   0.0000000   0.0000000   0.0000000   0.0000000   0.0000000   0.0000000   0.0000000   0.0000000   0.0000000
 NMagM=    2.7928460   2.7928460   0.0000000   0.0000000   2.7928460   0.0000000   0.0000000   2.7928460   0.0000000   0.0000000
 AtZNuc=   1.0000000   1.0000000   6.0000000   6.0000000   1.0000000   6.0000000   8.0000000   1.0000000   6.0000000   8.0000000

  Atom        21          22          23          24          25          26
 IAtWgt=           1          12           1          12           1           1
 AtmWgt=   1.0078250  12.0000000   1.0078250  12.0000000   1.0078250   1.0078250
 NucSpn=           1           0           1           0           1           1
 AtZEff=  -0.0000000  -0.0000000  -0.0000000  -0.0000000  -0.0000000  -0.0000000
 NQMom=    0.0000000   0.0000000   0.0000000   0.0000000   0.0000000   0.0000000
 NMagM=    2.7928460   0.0000000   2.7928460   0.0000000   2.7928460   2.7928460
 AtZNuc=   1.0000000   6.0000000   1.0000000   6.0000000   1.0000000   1.0000000
 Leave Link  101 at Sun Jul 18 13:47:46 2021, MaxMem=   104857600 cpu:               0.1 elap:               0.2
 (Enter /dades/curu/g16A03_MST/g16/l103.exe)

 GradGradGradGradGradGradGradGradGradGradGradGradGradGradGradGradGradGrad
 Berny optimization.
 Initialization pass.
                           ----------------------------
                           !    Initial Parameters    !
                           ! (Angstroms and Degrees)  !
 --------------------------                            --------------------------
 ! Name  Definition              Value          Derivative Info.                !
 --------------------------------------------------------------------------------
 ! R1    R(1,2)                  0.9997         estimate D2E/DX2                !
 ! R2    R(1,3)                  0.9995         estimate D2E/DX2                !
 ! R3    R(1,4)                  1.5056         estimate D2E/DX2                !
 ! R4    R(1,26)                 0.9997         estimate D2E/DX2                !
 ! R5    R(4,5)                  1.5259         estimate D2E/DX2                !
 ! R6    R(4,9)                  1.0938         estimate D2E/DX2                !
 ! R7    R(4,10)                 1.5014         estimate D2E/DX2                !
 ! R8    R(5,6)                  1.2527         estimate D2E/DX2                !
 ! R9    R(5,8)                  1.2376         estimate D2E/DX2                !
 ! R10   R(6,7)                  0.9732         estimate D2E/DX2                !
 ! R11   R(10,11)                1.0924         estimate D2E/DX2                !
 ! R12   R(10,12)                1.093          estimate D2E/DX2                !
 ! R13   R(10,13)                1.4789         estimate D2E/DX2                !
 ! R14   R(13,14)                1.3957         estimate D2E/DX2                !
 ! R15   R(13,24)                1.4004         estimate D2E/DX2                !
 ! R16   R(14,15)                1.0872         estimate D2E/DX2                !
 ! R17   R(14,16)                1.4054         estimate D2E/DX2                !
 ! R18   R(16,17)                1.4244         estimate D2E/DX2                !
 ! R19   R(16,19)                1.4275         estimate D2E/DX2                !
 ! R20   R(17,18)                0.9737         estimate D2E/DX2                !
 ! R21   R(19,20)                1.3345         estimate D2E/DX2                !
 ! R22   R(19,22)                1.406          estimate D2E/DX2                !
 ! R23   R(20,21)                0.9742         estimate D2E/DX2                !
 ! R24   R(22,23)                1.087          estimate D2E/DX2                !
 ! R25   R(22,24)                1.44           estimate D2E/DX2                !
 ! R26   R(24,25)                1.0866         estimate D2E/DX2                !
 ! A1    A(2,1,3)              109.4524         estimate D2E/DX2                !
 ! A2    A(2,1,4)              109.4899         estimate D2E/DX2                !
 ! A3    A(2,1,26)             109.4628         estimate D2E/DX2                !
 ! A4    A(3,1,4)              109.461          estimate D2E/DX2                !
 ! A5    A(3,1,26)             109.4554         estimate D2E/DX2                !
 ! A6    A(4,1,26)             109.5059         estimate D2E/DX2                !
 ! A7    A(1,4,5)              112.9041         estimate D2E/DX2                !
 ! A8    A(1,4,9)              102.829          estimate D2E/DX2                !
 ! A9    A(1,4,10)             107.3334         estimate D2E/DX2                !
 ! A10   A(5,4,9)              102.8005         estimate D2E/DX2                !
 ! A11   A(5,4,10)             113.6525         estimate D2E/DX2                !
 ! A12   A(9,4,10)             116.9551         estimate D2E/DX2                !
 ! A13   A(4,5,6)              110.4808         estimate D2E/DX2                !
 ! A14   A(4,5,8)              125.1282         estimate D2E/DX2                !
 ! A15   A(6,5,8)              123.0173         estimate D2E/DX2                !
 ! A16   A(5,6,7)               94.8678         estimate D2E/DX2                !
 ! A17   A(4,10,11)            114.7838         estimate D2E/DX2                !
 ! A18   A(4,10,12)            111.8729         estimate D2E/DX2                !
 ! A19   A(4,10,13)            110.7557         estimate D2E/DX2                !
 ! A20   A(11,10,12)            98.5991         estimate D2E/DX2                !
 ! A21   A(11,10,13)           114.0414         estimate D2E/DX2                !
 ! A22   A(12,10,13)           105.8393         estimate D2E/DX2                !
 ! A23   A(10,13,14)           116.1046         estimate D2E/DX2                !
 ! A24   A(10,13,24)           123.9589         estimate D2E/DX2                !
 ! A25   A(14,13,24)           119.9217         estimate D2E/DX2                !
 ! A26   A(13,14,15)           117.6602         estimate D2E/DX2                !
 ! A27   A(13,14,16)           119.3596         estimate D2E/DX2                !
 ! A28   A(15,14,16)           122.8082         estimate D2E/DX2                !
 ! A29   A(14,16,17)           119.3341         estimate D2E/DX2                !
 ! A30   A(14,16,19)           120.9473         estimate D2E/DX2                !
 ! A31   A(17,16,19)           119.5393         estimate D2E/DX2                !
 ! A32   A(16,17,18)           106.8742         estimate D2E/DX2                !
 ! A33   A(16,19,20)           122.7586         estimate D2E/DX2                !
 ! A34   A(16,19,22)           120.0885         estimate D2E/DX2                !
 ! A35   A(20,19,22)           117.1394         estimate D2E/DX2                !
 ! A36   A(19,20,21)           103.9989         estimate D2E/DX2                !
 ! A37   A(19,22,23)           120.3099         estimate D2E/DX2                !
 ! A38   A(19,22,24)           117.306          estimate D2E/DX2                !
 ! A39   A(23,22,24)           122.3836         estimate D2E/DX2                !
 ! A40   A(13,24,22)           121.754          estimate D2E/DX2                !
 ! A41   A(13,24,25)           119.2751         estimate D2E/DX2                !
 ! A42   A(22,24,25)           117.7793         estimate D2E/DX2                !
 ! D1    D(2,1,4,5)           -157.0871         estimate D2E/DX2                !
 ! D2    D(2,1,4,9)            -47.0339         estimate D2E/DX2                !
 ! D3    D(2,1,4,10)            76.8899         estimate D2E/DX2                !
 ! D4    D(3,1,4,5)             82.9308         estimate D2E/DX2                !
 ! D5    D(3,1,4,9)           -167.0159         estimate D2E/DX2                !
 ! D6    D(3,1,4,10)           -43.0922         estimate D2E/DX2                !
 ! D7    D(26,1,4,5)           -37.0647         estimate D2E/DX2                !
 ! D8    D(26,1,4,9)            72.9885         estimate D2E/DX2                !
 ! D9    D(26,1,4,10)         -163.0878         estimate D2E/DX2                !
 ! D10   D(1,4,5,6)             -1.0497         estimate D2E/DX2                !
 ! D11   D(1,4,5,8)           -167.9474         estimate D2E/DX2                !
 ! D12   D(9,4,5,6)           -111.1207         estimate D2E/DX2                !
 ! D13   D(9,4,5,8)             81.9817         estimate D2E/DX2                !
 ! D14   D(10,4,5,6)           121.5075         estimate D2E/DX2                !
 ! D15   D(10,4,5,8)           -45.3902         estimate D2E/DX2                !
 ! D16   D(1,4,10,11)          -65.3853         estimate D2E/DX2                !
 ! D17   D(1,4,10,12)         -176.6588         estimate D2E/DX2                !
 ! D18   D(1,4,10,13)           65.5232         estimate D2E/DX2                !
 ! D19   D(5,4,10,11)          169.038          estimate D2E/DX2                !
 ! D20   D(5,4,10,12)           57.7646         estimate D2E/DX2                !
 ! D21   D(5,4,10,13)          -60.0535         estimate D2E/DX2                !
 ! D22   D(9,4,10,11)           49.4286         estimate D2E/DX2                !
 ! D23   D(9,4,10,12)          -61.8449         estimate D2E/DX2                !
 ! D24   D(9,4,10,13)         -179.6629         estimate D2E/DX2                !
 ! D25   D(4,5,6,7)              1.1944         estimate D2E/DX2                !
 ! D26   D(8,5,6,7)            168.4201         estimate D2E/DX2                !
 ! D27   D(4,10,13,14)         -90.548          estimate D2E/DX2                !
 ! D28   D(4,10,13,24)          90.8585         estimate D2E/DX2                !
 ! D29   D(11,10,13,14)         40.7468         estimate D2E/DX2                !
 ! D30   D(11,10,13,24)       -137.8467         estimate D2E/DX2                !
 ! D31   D(12,10,13,14)        148.009          estimate D2E/DX2                !
 ! D32   D(12,10,13,24)        -30.5845         estimate D2E/DX2                !
 ! D33   D(10,13,14,15)          2.7821         estimate D2E/DX2                !
 ! D34   D(10,13,14,16)       -172.5881         estimate D2E/DX2                !
 ! D35   D(24,13,14,15)       -178.5639         estimate D2E/DX2                !
 ! D36   D(24,13,14,16)          6.0659         estimate D2E/DX2                !
 ! D37   D(10,13,24,22)        171.7451         estimate D2E/DX2                !
 ! D38   D(10,13,24,25)          4.4983         estimate D2E/DX2                !
 ! D39   D(14,13,24,22)         -6.7977         estimate D2E/DX2                !
 ! D40   D(14,13,24,25)       -174.0444         estimate D2E/DX2                !
 ! D41   D(13,14,16,17)        179.0725         estimate D2E/DX2                !
 ! D42   D(13,14,16,19)         -5.8169         estimate D2E/DX2                !
 ! D43   D(15,14,16,17)          3.952          estimate D2E/DX2                !
 ! D44   D(15,14,16,19)        179.0626         estimate D2E/DX2                !
 ! D45   D(14,16,17,18)       -169.7481         estimate D2E/DX2                !
 ! D46   D(19,16,17,18)         15.0715         estimate D2E/DX2                !
 ! D47   D(14,16,19,20)       -172.4231         estimate D2E/DX2                !
 ! D48   D(14,16,19,22)          6.2018         estimate D2E/DX2                !
 ! D49   D(17,16,19,20)          2.6776         estimate D2E/DX2                !
 ! D50   D(17,16,19,22)       -178.6975         estimate D2E/DX2                !
 ! D51   D(16,19,20,21)         42.4863         estimate D2E/DX2                !
 ! D52   D(22,19,20,21)       -136.1767         estimate D2E/DX2                !
 ! D53   D(16,19,22,23)        173.228          estimate D2E/DX2                !
 ! D54   D(16,19,22,24)         -6.5298         estimate D2E/DX2                !
 ! D55   D(20,19,22,23)         -8.0716         estimate D2E/DX2                !
 ! D56   D(20,19,22,24)        172.1707         estimate D2E/DX2                !
 ! D57   D(19,22,24,13)          6.9604         estimate D2E/DX2                !
 ! D58   D(19,22,24,25)        174.3898         estimate D2E/DX2                !
 ! D59   D(23,22,24,13)       -172.792          estimate D2E/DX2                !
 ! D60   D(23,22,24,25)         -5.3626         estimate D2E/DX2                !
 --------------------------------------------------------------------------------
 Trust Radius=3.00D-01 FncErr=1.00D-07 GrdErr=1.00D-06 EigMax=2.50D+02 EigMin=1.00D-04
 Number of steps in this run=    138 maximum allowed number of steps=    156.
 GradGradGradGradGradGradGradGradGradGradGradGradGradGradGradGradGradGrad

 Leave Link  103 at Sun Jul 18 13:47:47 2021, MaxMem=   104857600 cpu:               0.0 elap:               0.5
 (Enter /dades/curu/g16A03_MST/g16/l202.exe)
                          Input orientation:                          
 ---------------------------------------------------------------------
 Center     Atomic      Atomic             Coordinates (Angstroms)
 Number     Number       Type             X           Y           Z
 ---------------------------------------------------------------------
      1          7           0       -1.553000   -1.687000   -1.173000
      2          1           0       -2.057000   -1.496000   -2.015000
      3          1           0       -1.662000   -0.922000   -0.539000
      4          6           0       -0.093000   -1.870000   -1.492000
      5          6           0        0.648000   -2.685000   -0.436000
      6          8           0       -0.129000   -3.011000    0.491000
      7          1           0       -0.912000   -2.591000    0.094000
      8          8           0        1.878000   -2.795000   -0.355000
      9          1           0       -0.115000   -2.548000   -2.350000
     10          6           0        0.490000   -0.505000   -1.718000
     11          1           0        0.099000    0.021000   -2.592000
     12          1           0        1.541000   -0.555000   -2.014000
     13          6           0        0.459000    0.291000   -0.472000
     14          6           0       -0.684000    1.065000   -0.266000
     15          1           0       -1.481000    0.994000   -1.002000
     16          6           0       -0.721000    1.966000    0.812000
     17          8           0       -1.880000    2.770000    1.010000
     18          1           0       -1.653000    3.431000    1.688000
     19          6           0        0.339000    2.012000    1.767000
     20          8           0        0.276000    2.744000    2.881000
     21          1           0       -0.630000    2.598000    3.208000
     22          6           0        1.500000    1.244000    1.569000
     23          1           0        2.353000    1.358000    2.233000
     24          6           0        1.502000    0.323000    0.462000
     25          1           0        2.426000   -0.206000    0.245000
     26          1           0       -1.910000   -2.521000   -0.753000
 ---------------------------------------------------------------------
                    Distance matrix (angstroms):
                    1          2          3          4          5
     1  N    0.000000
     2  H    0.999730   0.000000
     3  H    0.999531   1.632200   0.000000
     4  C    1.505606   2.066567   2.066077   0.000000
     5  C    2.526574   3.350222   2.907727   1.525923   0.000000
     6  O    2.559228   3.506058   2.788353   2.288114   1.252731
     7  H    1.683266   2.637789   1.936169   1.925097   1.650253
     8  O    3.697100   4.463992   4.009188   2.456264   1.237563
     9  H    2.048046   2.233896   2.883887   1.093770   2.065026
    10  C    2.422395   2.749091   2.488983   1.501396   2.533947
    11  H    2.767658   2.698621   2.864468   2.196075   3.503166
    12  H    3.400227   3.719017   3.545352   2.161403   2.797219
    13  C    2.907237   3.450286   2.444279   2.452555   2.982213
    14  C    3.025114   3.391585   2.231408   3.235210   3.983168
    15  H    2.687413   2.749190   1.979441   3.220115   4.288128
    16  C    4.239912   4.665005   3.324338   4.518594   5.006343
    17  O    4.973657   5.232658   4.009712   5.566235   6.183747
    18  H    5.864234   6.176630   4.889603   6.375469   6.871058
    19  C    5.089780   5.687742   4.234382   5.087006   5.197163
    20  O    6.278050   6.884134   5.375109   6.367754   6.372983
    21  H    6.197283   6.787996   5.243609   6.507026   6.543860
    22  C    5.042830   5.744990   4.374182   4.648050   4.492546
    23  H    6.010798   6.755658   5.385407   5.502593   5.135799
    24  C    4.005790   4.702209   3.544421   3.342363   3.253273
    25  H    4.476218   5.183531   4.223631   3.483020   3.125778
    26  H    0.999702   1.632445   1.632207   2.066739   2.582779
                    6          7          8          9         10
     6  O    0.000000
     7  H    0.973190   0.000000
     8  O    2.188703   2.833252   0.000000
     9  H    2.878515   2.571030   2.830739   0.000000
    10  C    3.397481   3.098442   3.004732   2.222453   0.000000
    11  H    4.330115   3.880626   4.012339   2.589232   1.092444
    12  H    3.885339   3.821802   2.807748   2.612907   1.093031
    13  C    3.489458   3.241284   3.398624   3.451997   1.478882
    14  C    4.182685   3.680750   4.633720   4.209583   2.439566
    15  H    4.482965   3.791728   5.104705   4.028501   2.577692
    16  C    5.022353   4.617169   5.548316   5.544518   3.738083
    17  O    6.062617   5.524165   6.852373   6.533448   4.876936
    18  H    6.727165   6.273309   7.443446   7.376946   5.628977
    19  C    5.203627   5.054853   5.475277   6.160309   4.301548
    20  O    6.244690   6.135221   6.612006   7.451275   5.634944
    21  H    6.252517   6.058237   6.933216   7.591963   5.928616
    22  C    4.681960   4.764514   4.489786   5.687359   3.857910
    23  H    5.318181   5.552490   4.916379   6.507822   4.748888
    24  C    3.711679   3.801870   3.245118   4.331821   2.542072
    25  H    3.802179   4.105273   2.713526   4.321536   2.773241
    26  H    2.227015   1.310844   3.818694   2.402741   3.279555
                   11         12         13         14         15
    11  H    0.000000
    12  H    1.656872   0.000000
    13  C    2.167233   2.064995   0.000000
    14  C    2.667077   3.260449   1.395694   0.000000
    15  H    2.443610   3.543449   2.130425   1.087173   0.000000
    16  C    4.005327   4.411163   2.417991   1.405437   2.193850
    17  O    4.944476   5.648313   3.716542   2.442461   2.713212
    18  H    5.745955   6.308299   4.357263   3.217924   3.633821
    19  C    4.798183   4.725490   2.826546   2.465041   3.466423
    20  O    6.115537   6.036941   4.158522   3.693812   4.607303
    21  H    6.388456   6.474869   4.477786   3.797589   4.584879
    22  C    4.557680   4.009485   2.481445   2.858168   3.944477
    23  H    5.490784   4.728205   3.470267   3.943884   5.029640
    24  C    3.374393   2.627352   1.400439   2.420567   3.389960
    25  H    3.676279   2.451144   2.151787   3.398332   4.273132
    26  H    3.725556   4.167095   3.687610   3.820948   3.549826
                   16         17         18         19         20
    16  C    0.000000
    17  O    1.424395   0.000000
    18  H    1.944794   0.973722   0.000000
    19  C    1.427495   2.464056   2.447012   0.000000
    20  O    2.424882   2.854760   2.369865   1.334462   0.000000
    21  H    2.479621   2.534421   2.012664   1.832713   0.974208
    22  C    2.455030   3.750408   3.839080   1.406040   2.338700
    23  H    3.440695   4.626852   4.543390   2.168195   2.579696
    24  C    2.786338   4.210230   4.595298   2.430703   3.635365
    25  H    3.865577   5.289937   5.652279   3.404641   4.502610
    26  H    4.898583   5.577074   6.438232   5.653007   6.760531
                   21         22         23         24         25
    21  H    0.000000
    22  C    3.009408   0.000000
    23  H    3.374391   1.086969   0.000000
    24  C    4.154704   1.440033   2.220781   0.000000
    25  H    5.097148   2.170933   2.530527   1.086603   0.000000
    26  H    6.597885   5.585249   6.491225   4.605030   5.015588
                   26
    26  H    0.000000
 Stoichiometry    C9H12NO4(1+)
 Framework group  C1[X(C9H12NO4)]
 Deg. of freedom    72
 Full point group                 C1      NOp   1
 Largest Abelian subgroup         C1      NOp   1
 Largest concise Abelian subgroup C1      NOp   1
                         Standard orientation:                         
 ---------------------------------------------------------------------
 Center     Atomic      Atomic             Coordinates (Angstroms)
 Number     Number       Type             X           Y           Z
 ---------------------------------------------------------------------
      1          7           0       -1.916661    1.810700    0.489530
      2          1           0       -2.090443    2.673936    0.016154
      3          1           0       -0.937832    1.722003    0.671433
      4          6           0       -2.372457    0.664071   -0.373223
      5          6           0       -2.671357   -0.599739    0.427954
      6          8           0       -2.448301   -0.409610    1.645916
      7          1           0       -2.185502    0.521124    1.537435
      8          8           0       -2.853598   -1.723734   -0.056798
      9          1           0       -3.366010    0.985179   -0.698912
     10          6           0       -1.336058    0.468789   -1.441835
     11          1           0       -1.241541    1.299204   -2.145334
     12          1           0       -1.623221   -0.313101   -2.149580
     13          6           0       -0.052714    0.028849   -0.853130
     14          6           0        0.838279    1.041915   -0.495652
     15          1           0        0.512888    2.070597   -0.629366
     16          6           0        2.136284    0.702058   -0.077398
     17          8           0        3.051530    1.737308    0.268264
     18          1           0        3.925747    1.320157    0.367573
     19          6           0        2.515352   -0.662119    0.104451
     20          8           0        3.684148   -1.021722    0.638672
     21          1           0        3.798898   -0.409945    1.388100
     22          6           0        1.631556   -1.693697   -0.258456
     23          1           0        1.955602   -2.730708   -0.225230
     24          6           0        0.305967   -1.312767   -0.672461
     25          1           0       -0.352802   -2.093435   -1.042984
     26          1           0       -2.418490    1.797996    1.354060
 ---------------------------------------------------------------------
 Rotational constants (GHZ):           1.2444766           0.4297267           0.3761645
 Leave Link  202 at Sun Jul 18 13:47:47 2021, MaxMem=   104857600 cpu:               0.1 elap:               0.1
 (Enter /dades/curu/g16A03_MST/g16/l301.exe)
 Standard basis: 6-31G(d) (6D, 7F)
 Ernie: Thresh=  0.10000D-02 Tol=  0.10000D-05 Strict=F.
 There are   234 symmetry adapted cartesian basis functions of A   symmetry.
 There are   234 symmetry adapted basis functions of A   symmetry.
   234 basis functions,   440 primitive gaussians,   234 cartesian basis functions
    52 alpha electrons       52 beta electrons
       nuclear repulsion energy       930.7781525201 Hartrees.
 IExCor=  402 DFT=T Ex+Corr=B3LYP ExCW=0 ScaHFX=  0.200000
 ScaDFX=  0.800000  0.720000  1.000000  0.810000 ScalE2=  1.000000  1.000000
 IRadAn=      5 IRanWt=     -1 IRanGd=            0 ICorTp=0 IEmpDi=  4
 NAtoms=   26 NActive=   26 NUniq=   26 SFac= 1.00D+00 NAtFMM=   60 NAOKFM=F Big=F
 Integral buffers will be    131072 words long.
 Raffenetti 2 integral format.
 Two-electron integral symmetry is turned on.
 Using the following non-standard input for PCM:
 MSTModel=DFT cav MSTCharged
 --- end of non-standard input.
 MST model for solvation energy: B3LYP parametrization.
 MST cavity parameters:
 ISph   IAn     Re0     Alpha   Atom Type   QCorr
 ------------------------------------------------
   1      7     1.50     1.15      NH+        T
   2      1     0.90     1.15      NH+        T
   3      1     0.90     1.15      NH+        T
   4      6     1.50     1.50      CN+        F
   5      6     1.50     1.50      C          F
   6      8     1.40     1.50      OH         F
   7      1     0.90     1.50      OH         F
   8      8     1.40     1.50      O          F
   9      1     1.20     1.50      CN+        F
  10      6     1.50     1.50      CH2        F
  11      1     1.20     1.50      CH2        F
  12      1     1.20     1.50      CH2        F
  13      6     1.50     1.50      C          F
  14      6     1.50     1.50      CH         F
  15      1     1.20     1.50      CH         F
  16      6     1.50     1.50      C          F
  17      8     1.40     1.50      OH         F
  18      1     0.90     1.50      OH         F
  19      6     1.50     1.50      C          F
  20      8     1.40     1.50      OH         F
  21      1     0.90     1.50      OH         F
  22      6     1.50     1.50      CH         F
  23      1     1.20     1.50      CH         F
  24      6     1.50     1.50      CH         F
  25      1     1.20     1.50      CH         F
  26      1     0.90     1.15      NH+        T
 ------------------------------------------------------------------------------
 Polarizable Continuum Model (PCM)
 =================================
 Model                : PCM.
 Atomic radii         : MST.
 Polarization charges : Total charges.
 Charge compensation  : None.
 Solution method      : On-the-fly selection.
 Cavity type          : Scaled VdW (van der Waals Surface) (Alpha=1.500).
 Cavity algorithm     : GePol (No added spheres)
                        Default sphere list used, NSphG=   26.
                        Lebedev-Laikov grids with approx.  5.0 points / Ang**2.
                        Smoothing algorithm: York/Karplus (Gamma=1.0000).
                        Polarization charges: spherical gaussians, with
                                              point-specific exponents (IZeta= 3).
                        Self-potential: point-specific (ISelfS= 7).
                        Self-field    : sphere-specific E.n sum rule (ISelfD= 2).
 1st derivatives      : Analytical E(r).r(x)/FMM algorithm (CHGder, D1EAlg=3).
                        Cavity 1st derivative terms included.
 Solvent              : n-Octanol, Eps=   9.862900 Eps(inf)=   2.043470
 ------------------------------------------------------------------------------
 GePol: Number of generator spheres                  =      26
 GePol: Total number of spheres                      =      26
 GePol: Number of exposed spheres                    =      26 (100.00%)
 GePol: Number of points                             =    2169
 GePol: Average weight of points                     =       0.12
 GePol: Minimum weight of points                     =   0.95D-11
 GePol: Maximum weight of points                     =    0.21373
 GePol: Number of points with low weight             =     135
 GePol: Fraction of low-weight points (<1% of avg)   =       6.22%
 GePol: Cavity surface area                          =    258.430 Ang**2
 GePol: Cavity volume                                =    287.319 Ang**3
 Surface areas from nonelectrostatic (unscaled) cavity and vdw tensions:
 Sphere =    1 Type =  NH+ Surf =       10.966 Tension =       -0.274
 Sphere =    2 Type =  NH+ Surf =        3.856 Tension =       -0.274
 Sphere =    3 Type =  NH+ Surf =        3.075 Tension =       -0.274
 Sphere =    4 Type =  CN+ Surf =        2.813 Tension =       -0.227
 Sphere =    5 Type =  C   Surf =        6.970 Tension =       -0.205
 Sphere =    6 Type =  OH  Surf =       14.119 Tension =       -0.238
 Sphere =    7 Type =  OH  Surf =        1.726 Tension =       -0.238
 Sphere =    8 Type =  O   Surf =       16.584 Tension =       -0.185
 Sphere =    9 Type =  CN+ Surf =        9.771 Tension =       -0.227
 Sphere =   10 Type =  CH2 Surf =        3.378 Tension =       -0.194
 Sphere =   11 Type =  CH2 Surf =        9.975 Tension =       -0.194
 Sphere =   12 Type =  CH2 Surf =        9.762 Tension =       -0.194
 Sphere =   13 Type =  C   Surf =        5.669 Tension =       -0.205
 Sphere =   14 Type =  CH  Surf =        7.173 Tension =       -0.195
 Sphere =   15 Type =  CH  Surf =        9.721 Tension =       -0.195
 Sphere =   16 Type =  C   Surf =        7.030 Tension =       -0.205
 Sphere =   17 Type =  OH  Surf =       14.748 Tension =       -0.238
 Sphere =   18 Type =  OH  Surf =        4.437 Tension =       -0.238
 Sphere =   19 Type =  C   Surf =        6.688 Tension =       -0.205
 Sphere =   20 Type =  OH  Surf =       14.258 Tension =       -0.238
 Sphere =   21 Type =  OH  Surf =        4.393 Tension =       -0.238
 Sphere =   22 Type =  CH  Surf =        7.993 Tension =       -0.195
 Sphere =   23 Type =  CH  Surf =       10.257 Tension =       -0.195
 Sphere =   24 Type =  CH  Surf =        7.881 Tension =       -0.195
 Sphere =   25 Type =  CH  Surf =       10.203 Tension =       -0.195
 Sphere =   26 Type =  NH+ Surf =        3.391 Tension =       -0.274
 PCM non-electrostatic energy =        -0.0168460868 Hartrees.
 Nuclear repulsion after PCM non-electrostatic terms =      930.7613064333 Hartrees.
 Leave Link  301 at Sun Jul 18 13:47:47 2021, MaxMem=   104857600 cpu:               0.1 elap:               0.2
 (Enter /dades/curu/g16A03_MST/g16/l302.exe)
 NPDir=0 NMtPBC=     1 NCelOv=     1 NCel=       1 NClECP=     1 NCelD=      1
         NCelK=      1 NCelE2=     1 NClLst=     1 CellRange=     0.0.
 One-electron integrals computed using PRISM.
 One-electron integral symmetry used in STVInt
 NBasis=   234 RedAO= T EigKep=  5.23D-04  NBF=   234
 NBsUse=   234 1.00D-06 EigRej= -1.00D+00 NBFU=   234
 Precomputing XC quadrature grid using
 IXCGrd= 4 IRadAn=           5 IRanWt=          -1 IRanGd=           0 AccXCQ= 0.00D+00.
 Generated NRdTot=       0 NPtTot=           0 NUsed=           0 NTot=          32
 NSgBfM=   233   233   233   233   233 MxSgAt=    26 MxSgA2=    26.
 Leave Link  302 at Sun Jul 18 13:47:48 2021, MaxMem=   104857600 cpu:               2.5 elap:               0.9
 (Enter /dades/curu/g16A03_MST/g16/l303.exe)
 DipDrv:  MaxL=1.
 Leave Link  303 at Sun Jul 18 13:47:48 2021, MaxMem=   104857600 cpu:               0.1 elap:               0.1
 (Enter /dades/curu/g16A03_MST/g16/l401.exe)
 ExpMin= 1.61D-01 ExpMax= 5.48D+03 ExpMxC= 8.25D+02 IAcc=3 IRadAn=         5 AccDes= 0.00D+00
 Harris functional with IExCor=  402 and IRadAn=       5 diagonalized for initial guess.
 HarFok:  IExCor=  402 AccDes= 0.00D+00 IRadAn=         5 IDoV= 1 UseB2=F ITyADJ=14
 ICtDFT=  3500011 ScaDFX=  1.000000  1.000000  1.000000  1.000000
 FoFCou: FMM=F IPFlag=           0 FMFlag=      100000 FMFlg1=           0
         NFxFlg=           0 DoJE=T BraDBF=F KetDBF=T FulRan=T
         wScrn=  0.000000 ICntrl=       500 IOpCl=  0 I1Cent=   200000004 NGrid=           0
         NMat0=    1 NMatS0=      1 NMatT0=    0 NMatD0=    1 NMtDS0=    0 NMtDT0=    0
 Petite list used in FoFCou.
 Harris En= -705.568610081782    
 JPrj=0 DoOrth=F DoCkMO=F.
 Leave Link  401 at Sun Jul 18 13:47:54 2021, MaxMem=   104857600 cpu:              19.0 elap:               5.5
 (Enter /dades/curu/g16A03_MST/g16/l502.exe)
 Integral symmetry usage will be decided dynamically.
 Closed shell SCF:
 Using DIIS extrapolation, IDIIS=  1040.
 NGot=   104857600 LenX=   104743988 LenY=   104688791
 Requested convergence on RMS density matrix=1.00D-08 within 128 cycles.
 Requested convergence on MAX density matrix=1.00D-06.
 Requested convergence on             energy=1.00D-06.
 No special actions if energy rises.
 Fock matrices will be formed incrementally for  20 cycles.

 Cycle   1  Pass 1  IDiag  1:
 FoFJK:  IHMeth= 1 ICntrl=       0 DoSepK=F KAlg= 0 I1Cent=           0 FoldK=F
 IRaf= 890000000 NMat=       1 IRICut=       1 DoRegI=T DoRafI=F ISym2E= 0 IDoP0=0 IntGTp=1.
 FoFCou: FMM=F IPFlag=           0 FMFlag=      100000 FMFlg1=           0
         NFxFlg=           0 DoJE=F BraDBF=F KetDBF=F FulRan=T
         wScrn=  0.000000 ICntrl=         0 IOpCl=  0 I1Cent=           0 NGrid=           0
         NMat0=    1 NMatS0=      1 NMatT0=    0 NMatD0=    1 NMtDS0=    0 NMtDT0=    0
 Symmetry not used in FoFCou.
 Inv3:  Mode=1 IEnd=    14113683.
 Iteration    1 A*A^-1 deviation from unit magnitude is 6.00D-15 for   1060.
 Iteration    1 A*A^-1 deviation from orthogonality  is 2.18D-15 for   2056   1624.
 Iteration    1 A^-1*A deviation from unit magnitude is 6.77D-15 for    532.
 Iteration    1 A^-1*A deviation from orthogonality  is 5.56D-15 for   1858    526.
 E= -705.290506379063    
 DIIS: error= 2.62D-02 at cycle   1 NSaved=   1.
 NSaved= 1 IEnMin= 1 EnMin= -705.290506379063     IErMin= 1 ErrMin= 2.62D-02
 ErrMax= 2.62D-02  0.00D+00 EMaxC= 1.00D-01 BMatC= 3.70D-01 BMatP= 3.70D-01
 IDIUse=3 WtCom= 7.38D-01 WtEn= 2.62D-01
 Coeff-Com:  0.100D+01
 Coeff-En:   0.100D+01
 Coeff:      0.100D+01
 Gap=     0.212 Goal=   None    Shift=    0.000
 GapD=    0.212 DampG=1.000 DampE=0.500 DampFc=0.5000 IDamp=-1.
 Damping current iteration by 5.00D-01
 RMSDP=6.17D-03 MaxDP=2.52D-01              OVMax= 3.08D-01

 Cycle   2  Pass 1  IDiag  1:
 RMSU=  3.07D-03    CP:  9.88D-01
 E= -705.385214495626     Delta-E=       -0.094708116563 Rises=F Damp=T
 DIIS: error= 1.12D-02 at cycle   2 NSaved=   2.
 NSaved= 2 IEnMin= 2 EnMin= -705.385214495626     IErMin= 2 ErrMin= 1.12D-02
 ErrMax= 1.12D-02  0.00D+00 EMaxC= 1.00D-01 BMatC= 5.34D-02 BMatP= 3.70D-01
 IDIUse=3 WtCom= 8.88D-01 WtEn= 1.12D-01
 Coeff-Com:  0.195D+00 0.805D+00
 Coeff-En:   0.315D+00 0.685D+00
 Coeff:      0.209D+00 0.791D+00
 Gap=     0.261 Goal=   None    Shift=    0.000
 RMSDP=1.92D-03 MaxDP=7.52D-02 DE=-9.47D-02 OVMax= 2.03D-01

 Cycle   3  Pass 1  IDiag  1:
 RMSU=  1.70D-03    CP:  9.80D-01  7.14D-01
 E= -705.564007648429     Delta-E=       -0.178793152803 Rises=F Damp=F
 DIIS: error= 1.70D-02 at cycle   3 NSaved=   3.
 NSaved= 3 IEnMin= 3 EnMin= -705.564007648429     IErMin= 2 ErrMin= 1.12D-02
 ErrMax= 1.70D-02  0.00D+00 EMaxC= 1.00D-01 BMatC= 5.15D-02 BMatP= 5.34D-02
 IDIUse=3 WtCom= 8.30D-01 WtEn= 1.70D-01
 Coeff-Com:  0.525D-01 0.488D+00 0.459D+00
 Coeff-En:   0.000D+00 0.000D+00 0.100D+01
 Coeff:      0.436D-01 0.406D+00 0.551D+00
 Gap=     0.201 Goal=   None    Shift=    0.000
 RMSDP=1.23D-03 MaxDP=7.11D-02 DE=-1.79D-01 OVMax= 1.17D-01

 Cycle   4  Pass 1  IDiag  1:
 RMSU=  7.59D-04    CP:  9.84D-01  8.33D-01  4.74D-01
 E= -705.595143516837     Delta-E=       -0.031135868408 Rises=F Damp=F
 DIIS: error= 1.07D-02 at cycle   4 NSaved=   4.
 NSaved= 4 IEnMin= 4 EnMin= -705.595143516837     IErMin= 4 ErrMin= 1.07D-02
 ErrMax= 1.07D-02  0.00D+00 EMaxC= 1.00D-01 BMatC= 1.44D-02 BMatP= 5.15D-02
 IDIUse=3 WtCom= 8.93D-01 WtEn= 1.07D-01
 Coeff-Com:  0.983D-02 0.108D+00 0.351D+00 0.532D+00
 Coeff-En:   0.000D+00 0.000D+00 0.244D+00 0.756D+00
 Coeff:      0.878D-02 0.960D-01 0.339D+00 0.556D+00
 Gap=     0.201 Goal=   None    Shift=    0.000
 RMSDP=5.08D-04 MaxDP=2.83D-02 DE=-3.11D-02 OVMax= 4.81D-02

 Cycle   5  Pass 1  IDiag  1:
 RMSU=  2.24D-04    CP:  9.83D-01  7.71D-01  6.29D-01  5.79D-01
 E= -705.605203979742     Delta-E=       -0.010060462905 Rises=F Damp=F
 DIIS: error= 2.48D-03 at cycle   5 NSaved=   5.
 NSaved= 5 IEnMin= 5 EnMin= -705.605203979742     IErMin= 5 ErrMin= 2.48D-03
 ErrMax= 2.48D-03  0.00D+00 EMaxC= 1.00D-01 BMatC= 9.80D-04 BMatP= 1.44D-02
 IDIUse=3 WtCom= 9.75D-01 WtEn= 2.48D-02
 Coeff-Com:  0.122D-02 0.869D-02 0.146D+00 0.336D+00 0.508D+00
 Coeff-En:   0.000D+00 0.000D+00 0.000D+00 0.172D-01 0.983D+00
 Coeff:      0.119D-02 0.848D-02 0.143D+00 0.328D+00 0.520D+00
 Gap=     0.200 Goal=   None    Shift=    0.000
 RMSDP=1.42D-04 MaxDP=4.99D-03 DE=-1.01D-02 OVMax= 8.82D-03

 Cycle   6  Pass 1  IDiag  1:
 RMSU=  6.54D-05    CP:  9.83D-01  7.82D-01  6.30D-01  6.40D-01  4.99D-01
 E= -705.606003840861     Delta-E=       -0.000799861119 Rises=F Damp=F
 DIIS: error= 2.93D-04 at cycle   6 NSaved=   6.
 NSaved= 6 IEnMin= 6 EnMin= -705.606003840861     IErMin= 6 ErrMin= 2.93D-04
 ErrMax= 2.93D-04  0.00D+00 EMaxC= 1.00D-01 BMatC= 3.44D-05 BMatP= 9.80D-04
 IDIUse=3 WtCom= 9.97D-01 WtEn= 2.93D-03
 Coeff-Com: -0.833D-04-0.234D-02 0.416D-01 0.109D+00 0.248D+00 0.604D+00
 Coeff-En:   0.000D+00 0.000D+00 0.000D+00 0.000D+00 0.000D+00 0.100D+01
 Coeff:     -0.831D-04-0.233D-02 0.415D-01 0.109D+00 0.247D+00 0.605D+00
 Gap=     0.200 Goal=   None    Shift=    0.000
 RMSDP=3.26D-05 MaxDP=1.06D-03 DE=-8.00D-04 OVMax= 2.92D-03

 Cycle   7  Pass 1  IDiag  1:
 RMSU=  1.99D-05    CP:  9.83D-01  7.83D-01  6.29D-01  6.38D-01  5.67D-01
                    CP:  6.84D-01
 E= -705.606032541189     Delta-E=       -0.000028700328 Rises=F Damp=F
 DIIS: error= 1.14D-04 at cycle   7 NSaved=   7.
 NSaved= 7 IEnMin= 7 EnMin= -705.606032541189     IErMin= 7 ErrMin= 1.14D-04
 ErrMax= 1.14D-04  0.00D+00 EMaxC= 1.00D-01 BMatC= 5.76D-06 BMatP= 3.44D-05
 IDIUse=3 WtCom= 9.99D-01 WtEn= 1.14D-03
 Coeff-Com: -0.117D-03-0.194D-02 0.136D-01 0.379D-01 0.111D+00 0.375D+00
 Coeff-Com:  0.465D+00
 Coeff-En:   0.000D+00 0.000D+00 0.000D+00 0.000D+00 0.000D+00 0.941D-01
 Coeff-En:   0.906D+00
 Coeff:     -0.117D-03-0.194D-02 0.136D-01 0.378D-01 0.111D+00 0.374D+00
 Coeff:      0.465D+00
 Gap=     0.200 Goal=   None    Shift=    0.000
 RMSDP=1.17D-05 MaxDP=3.56D-04 DE=-2.87D-05 OVMax= 8.57D-04

 Cycle   8  Pass 1  IDiag  1:
 RMSU=  5.53D-06    CP:  9.83D-01  7.82D-01  6.30D-01  6.42D-01  5.61D-01
                    CP:  7.12D-01  5.32D-01
 E= -705.606038012309     Delta-E=       -0.000005471120 Rises=F Damp=F
 DIIS: error= 1.55D-05 at cycle   8 NSaved=   8.
 NSaved= 8 IEnMin= 8 EnMin= -705.606038012309     IErMin= 8 ErrMin= 1.55D-05
 ErrMax= 1.55D-05  0.00D+00 EMaxC= 1.00D-01 BMatC= 1.76D-07 BMatP= 5.76D-06
 IDIUse=1 WtCom= 1.00D+00 WtEn= 0.00D+00
 Coeff-Com: -0.189D-05-0.578D-03 0.172D-02 0.465D-02 0.232D-01 0.963D-01
 Coeff-Com:  0.185D+00 0.690D+00
 Coeff:     -0.189D-05-0.578D-03 0.172D-02 0.465D-02 0.232D-01 0.963D-01
 Coeff:      0.185D+00 0.690D+00
 Gap=     0.200 Goal=   None    Shift=    0.000
 RMSDP=2.71D-06 MaxDP=7.96D-05 DE=-5.47D-06 OVMax= 1.68D-04

 Cycle   9  Pass 1  IDiag  1:
 RMSU=  1.52D-06    CP:  9.83D-01  7.82D-01  6.31D-01  6.40D-01  5.65D-01
                    CP:  7.18D-01  5.69D-01  7.17D-01
 E= -705.606038161914     Delta-E=       -0.000000149606 Rises=F Damp=F
 DIIS: error= 4.67D-06 at cycle   9 NSaved=   9.
 NSaved= 9 IEnMin= 9 EnMin= -705.606038161914     IErMin= 9 ErrMin= 4.67D-06
 ErrMax= 4.67D-06  0.00D+00 EMaxC= 1.00D-01 BMatC= 2.11D-08 BMatP= 1.76D-07
 IDIUse=1 WtCom= 1.00D+00 WtEn= 0.00D+00
 Coeff-Com:  0.119D-04-0.142D-03-0.437D-04-0.372D-03 0.370D-02 0.202D-01
 Coeff-Com:  0.544D-01 0.334D+00 0.588D+00
 Coeff:      0.119D-04-0.142D-03-0.437D-04-0.372D-03 0.370D-02 0.202D-01
 Coeff:      0.544D-01 0.334D+00 0.588D+00
 Gap=     0.200 Goal=   None    Shift=    0.000
 RMSDP=7.85D-07 MaxDP=2.00D-05 DE=-1.50D-07 OVMax= 4.92D-05

 Cycle  10  Pass 1  IDiag  1:
 RMSU=  5.19D-07    CP:  9.83D-01  7.82D-01  6.31D-01  6.40D-01  5.65D-01
                    CP:  7.20D-01  5.65D-01  7.80D-01  7.04D-01
 E= -705.606038179362     Delta-E=       -0.000000017448 Rises=F Damp=F
 DIIS: error= 1.69D-06 at cycle  10 NSaved=  10.
 NSaved=10 IEnMin=10 EnMin= -705.606038179362     IErMin=10 ErrMin= 1.69D-06
 ErrMax= 1.69D-06  0.00D+00 EMaxC= 1.00D-01 BMatC= 2.60D-09 BMatP= 2.11D-08
 IDIUse=1 WtCom= 1.00D+00 WtEn= 0.00D+00
 Coeff-Com:  0.689D-05-0.278D-04-0.189D-03-0.641D-03-0.213D-03 0.141D-02
 Coeff-Com:  0.107D-01 0.111D+00 0.318D+00 0.560D+00
 Coeff:      0.689D-05-0.278D-04-0.189D-03-0.641D-03-0.213D-03 0.141D-02
 Coeff:      0.107D-01 0.111D+00 0.318D+00 0.560D+00
 Gap=     0.200 Goal=   None    Shift=    0.000
 RMSDP=2.61D-07 MaxDP=9.56D-06 DE=-1.74D-08 OVMax= 2.36D-05

 Cycle  11  Pass 1  IDiag  1:
 RMSU=  1.49D-07    CP:  9.83D-01  7.82D-01  6.31D-01  6.40D-01  5.65D-01
                    CP:  7.20D-01  5.68D-01  7.86D-01  7.68D-01  6.68D-01
 E= -705.606038181718     Delta-E=       -0.000000002356 Rises=F Damp=F
 DIIS: error= 4.48D-07 at cycle  11 NSaved=  11.
 NSaved=11 IEnMin=11 EnMin= -705.606038181718     IErMin=11 ErrMin= 4.48D-07
 ErrMax= 4.48D-07  0.00D+00 EMaxC= 1.00D-01 BMatC= 1.92D-10 BMatP= 2.60D-09
 IDIUse=1 WtCom= 1.00D+00 WtEn= 0.00D+00
 Coeff-Com:  0.221D-05-0.977D-06-0.928D-04-0.292D-03-0.428D-03-0.935D-03
 Coeff-Com:  0.731D-03 0.284D-01 0.110D+00 0.282D+00 0.580D+00
 Coeff:      0.221D-05-0.977D-06-0.928D-04-0.292D-03-0.428D-03-0.935D-03
 Coeff:      0.731D-03 0.284D-01 0.110D+00 0.282D+00 0.580D+00
 Gap=     0.200 Goal=   None    Shift=    0.000
 RMSDP=8.24D-08 MaxDP=2.20D-06 DE=-2.36D-09 OVMax= 6.06D-06

 Cycle  12  Pass 1  IDiag  1:
 RMSU=  5.54D-08    CP:  9.83D-01  7.82D-01  6.31D-01  6.40D-01  5.65D-01
                    CP:  7.20D-01  5.68D-01  7.88D-01  7.74D-01  7.28D-01
                    CP:  7.04D-01
 E= -705.606038181921     Delta-E=       -0.000000000203 Rises=F Damp=F
 DIIS: error= 1.37D-07 at cycle  12 NSaved=  12.
 NSaved=12 IEnMin=12 EnMin= -705.606038181921     IErMin=12 ErrMin= 1.37D-07
 ErrMax= 1.37D-07  0.00D+00 EMaxC= 1.00D-01 BMatC= 1.96D-11 BMatP= 1.92D-10
 IDIUse=1 WtCom= 1.00D+00 WtEn= 0.00D+00
 Coeff-Com: -0.905D-07 0.297D-05-0.179D-04-0.450D-04-0.184D-03-0.658D-03
 Coeff-Com: -0.138D-02-0.266D-02 0.566D-02 0.551D-01 0.275D+00 0.670D+00
 Coeff:     -0.905D-07 0.297D-05-0.179D-04-0.450D-04-0.184D-03-0.658D-03
 Coeff:     -0.138D-02-0.266D-02 0.566D-02 0.551D-01 0.275D+00 0.670D+00
 Gap=     0.200 Goal=   None    Shift=    0.000
 RMSDP=2.70D-08 MaxDP=1.02D-06 DE=-2.03D-10 OVMax= 2.84D-06

 Cycle  13  Pass 1  IDiag  1:
 RMSU=  1.74D-08    CP:  9.83D-01  7.82D-01  6.31D-01  6.40D-01  5.65D-01
                    CP:  7.20D-01  5.69D-01  7.88D-01  7.78D-01  7.34D-01
                    CP:  7.94D-01  8.10D-01
 E= -705.606038181921     Delta-E=       -0.000000000000 Rises=F Damp=F
 DIIS: error= 5.32D-08 at cycle  13 NSaved=  13.
 NSaved=13 IEnMin=13 EnMin= -705.606038181921     IErMin=13 ErrMin= 5.32D-08
 ErrMax= 5.32D-08  0.00D+00 EMaxC= 1.00D-01 BMatC= 2.68D-12 BMatP= 1.96D-11
 IDIUse=1 WtCom= 1.00D+00 WtEn= 0.00D+00
 Coeff-Com: -0.226D-06 0.134D-05 0.207D-06 0.632D-05-0.484D-04-0.219D-03
 Coeff-Com: -0.772D-03-0.376D-02-0.739D-02 0.299D-02 0.890D-01 0.351D+00
 Coeff-Com:  0.569D+00
 Coeff:     -0.226D-06 0.134D-05 0.207D-06 0.632D-05-0.484D-04-0.219D-03
 Coeff:     -0.772D-03-0.376D-02-0.739D-02 0.299D-02 0.890D-01 0.351D+00
 Coeff:      0.569D+00
 Gap=     0.200 Goal=   None    Shift=    0.000
 RMSDP=9.12D-09 MaxDP=4.44D-07 DE=-4.55D-13 OVMax= 8.29D-07

 Error on total polarization charges =  0.00666
 SCF Done:  E(RB3LYP) =  -705.606038182     A.U. after   13 cycles
            NFock= 13  Conv=0.91D-08     -V/T= 2.0085
 KE= 6.996559259008D+02 PE=-3.491719155213D+03 EE= 1.155695884697D+03
 Leave Link  502 at Sun Jul 18 13:49:58 2021, MaxMem=   104857600 cpu:             480.4 elap:             124.1
 (Enter /dades/curu/g16A03_MST/g16/l601.exe)
 Copying SCF densities to generalized density rwf, IOpCl= 0 IROHF=0.

 **********************************************************************

            Population analysis using the SCF density.

 **********************************************************************

 Orbital symmetries:
       Occupied  (A) (A) (A) (A) (A) (A) (A) (A) (A) (A) (A) (A)
                 (A) (A) (A) (A) (A) (A) (A) (A) (A) (A) (A) (A)
                 (A) (A) (A) (A) (A) (A) (A) (A) (A) (A) (A) (A)
                 (A) (A) (A) (A) (A) (A) (A) (A) (A) (A) (A) (A)
                 (A) (A) (A) (A)
       Virtual   (A) (A) (A) (A) (A) (A) (A) (A) (A) (A) (A) (A)
                 (A) (A) (A) (A) (A) (A) (A) (A) (A) (A) (A) (A)
                 (A) (A) (A) (A) (A) (A) (A) (A) (A) (A) (A) (A)
                 (A) (A) (A) (A) (A) (A) (A) (A) (A) (A) (A) (A)
                 (A) (A) (A) (A) (A) (A) (A) (A) (A) (A) (A) (A)
                 (A) (A) (A) (A) (A) (A) (A) (A) (A) (A) (A) (A)
                 (A) (A) (A) (A) (A) (A) (A) (A) (A) (A) (A) (A)
                 (A) (A) (A) (A) (A) (A) (A) (A) (A) (A) (A) (A)
                 (A) (A) (A) (A) (A) (A) (A) (A) (A) (A) (A) (A)
                 (A) (A) (A) (A) (A) (A) (A) (A) (A) (A) (A) (A)
                 (A) (A) (A) (A) (A) (A) (A) (A) (A) (A) (A) (A)
                 (A) (A) (A) (A) (A) (A) (A) (A) (A) (A) (A) (A)
                 (A) (A) (A) (A) (A) (A) (A) (A) (A) (A) (A) (A)
                 (A) (A) (A) (A) (A) (A) (A) (A) (A) (A) (A) (A)
                 (A) (A) (A) (A) (A) (A) (A) (A) (A) (A) (A) (A)
                 (A) (A)
 The electronic state is 1-A.
 Alpha  occ. eigenvalues --  -19.25708 -19.20325 -19.19998 -19.16774 -14.49890
 Alpha  occ. eigenvalues --  -10.36642 -10.30923 -10.28047 -10.27447 -10.23627
 Alpha  occ. eigenvalues --  -10.22544 -10.22154 -10.21809 -10.21496  -1.20932
 Alpha  occ. eigenvalues --   -1.10204  -1.07241  -1.05725  -1.04839  -0.88724
 Alpha  occ. eigenvalues --   -0.84092  -0.78084  -0.76157  -0.71405  -0.69301
 Alpha  occ. eigenvalues --   -0.65759  -0.64444  -0.63660  -0.61923  -0.58765
 Alpha  occ. eigenvalues --   -0.58371  -0.54523  -0.52898  -0.52245  -0.51355
 Alpha  occ. eigenvalues --   -0.48067  -0.47574  -0.47224  -0.46573  -0.45361
 Alpha  occ. eigenvalues --   -0.42786  -0.42367  -0.40541  -0.40305  -0.38707
 Alpha  occ. eigenvalues --   -0.38431  -0.35421  -0.34868  -0.34131  -0.31018
 Alpha  occ. eigenvalues --   -0.26607  -0.23943
 Alpha virt. eigenvalues --   -0.03914  -0.03306  -0.02462   0.01367   0.03455
 Alpha virt. eigenvalues --    0.06326   0.07109   0.08663   0.08949   0.11239
 Alpha virt. eigenvalues --    0.11775   0.12128   0.13538   0.13873   0.14932
 Alpha virt. eigenvalues --    0.16117   0.17380   0.17471   0.19650   0.20949
 Alpha virt. eigenvalues --    0.22923   0.24961   0.29385   0.29929   0.31700
 Alpha virt. eigenvalues --    0.32574   0.34864   0.37463   0.45280   0.45678
 Alpha virt. eigenvalues --    0.46992   0.49258   0.50840   0.51272   0.52903
 Alpha virt. eigenvalues --    0.54301   0.55106   0.55279   0.56009   0.57766
 Alpha virt. eigenvalues --    0.58831   0.59216   0.59957   0.60858   0.62586
 Alpha virt. eigenvalues --    0.63231   0.64664   0.65042   0.66651   0.68691
 Alpha virt. eigenvalues --    0.71185   0.72401   0.75592   0.75939   0.76750
 Alpha virt. eigenvalues --    0.77917   0.79028   0.80109   0.81019   0.81475
 Alpha virt. eigenvalues --    0.82816   0.84540   0.85579   0.86368   0.87503
 Alpha virt. eigenvalues --    0.88339   0.90591   0.91332   0.92302   0.93183
 Alpha virt. eigenvalues --    0.93685   0.96544   0.97350   0.98598   1.00068
 Alpha virt. eigenvalues --    1.00732   1.02478   1.04208   1.04957   1.05925
 Alpha virt. eigenvalues --    1.07875   1.10029   1.14594   1.14906   1.16702
 Alpha virt. eigenvalues --    1.20512   1.21463   1.22847   1.27266   1.30488
 Alpha virt. eigenvalues --    1.32020   1.32988   1.34741   1.36168   1.39271
 Alpha virt. eigenvalues --    1.41556   1.42395   1.44428   1.45831   1.48781
 Alpha virt. eigenvalues --    1.51181   1.58412   1.61174   1.64401   1.65032
 Alpha virt. eigenvalues --    1.67771   1.70343   1.72108   1.73588   1.75006
 Alpha virt. eigenvalues --    1.77041   1.77593   1.79265   1.80862   1.81076
 Alpha virt. eigenvalues --    1.83193   1.84240   1.86806   1.88493   1.89155
 Alpha virt. eigenvalues --    1.89484   1.91276   1.92375   1.93401   1.96218
 Alpha virt. eigenvalues --    1.97954   2.00776   2.03008   2.05289   2.08195
 Alpha virt. eigenvalues --    2.09359   2.11598   2.16263   2.18738   2.20990
 Alpha virt. eigenvalues --    2.23169   2.27079   2.28645   2.30206   2.30662
 Alpha virt. eigenvalues --    2.33016   2.35561   2.36559   2.41185   2.42588
 Alpha virt. eigenvalues --    2.45665   2.47026   2.48199   2.52193   2.53163
 Alpha virt. eigenvalues --    2.56556   2.58671   2.59910   2.62719   2.64049
 Alpha virt. eigenvalues --    2.69359   2.71138   2.76466   2.76935   2.80560
 Alpha virt. eigenvalues --    2.85846   2.88145   2.89407   2.94596   2.99518
 Alpha virt. eigenvalues --    3.06582   3.15518   3.34457   3.76889   3.79786
 Alpha virt. eigenvalues --    3.95703   4.02174   4.08160   4.12216   4.15272
 Alpha virt. eigenvalues --    4.19361   4.27160   4.36008   4.37909   4.52443
 Alpha virt. eigenvalues --    4.60403   4.81493
          Condensed to atoms (all electrons):
               1          2          3          4          5          6
     1  N    6.962556   0.287565   0.247290   0.158698  -0.019987  -0.026374
     2  H    0.287565   0.227358  -0.005972  -0.008023   0.001116   0.000455
     3  H    0.247290  -0.005972   0.291817  -0.022102  -0.001868   0.002508
     4  C    0.158698  -0.008023  -0.022102   5.467457   0.282539  -0.108712
     5  C   -0.019987   0.001116  -0.001868   0.282539   4.353936   0.309583
     6  O   -0.026374   0.000455   0.002508  -0.108712   0.309583   8.125030
     7  H    0.020894   0.000951  -0.000622  -0.013007  -0.044943   0.230651
     8  O    0.001880  -0.000022  -0.000021  -0.084748   0.565551  -0.077203
     9  H   -0.041690  -0.003699   0.004713   0.351796  -0.027291   0.001230
    10  C   -0.064297  -0.000099  -0.009767   0.296602  -0.029776  -0.002597
    11  H   -0.002275   0.001095  -0.000055  -0.036233   0.003945  -0.000109
    12  H    0.004006  -0.000075   0.000345  -0.024593  -0.003863   0.000253
    13  C   -0.014593   0.000072   0.019446  -0.037201  -0.007651   0.001991
    14  C   -0.012251   0.000167   0.033827  -0.004402  -0.000767  -0.000114
    15  H   -0.001955   0.000355   0.001518  -0.000265   0.000152  -0.000007
    16  C   -0.000321   0.000002   0.000738  -0.000150   0.000021   0.000001
    17  O    0.000004  -0.000000  -0.000068   0.000000  -0.000000  -0.000000
    18  H    0.000000  -0.000000  -0.000001   0.000000  -0.000000   0.000000
    19  C   -0.000011   0.000000  -0.000043   0.000050  -0.000038   0.000007
    20  O   -0.000000   0.000000   0.000000   0.000000   0.000000  -0.000000
    21  H   -0.000000   0.000000   0.000001  -0.000000   0.000000  -0.000000
    22  C    0.000048  -0.000001  -0.000204  -0.000281   0.000102  -0.000050
    23  H    0.000000   0.000000  -0.000001  -0.000001   0.000006  -0.000001
    24  C    0.000558  -0.000010   0.000089  -0.008236   0.009329  -0.000969
    25  H    0.000026  -0.000000  -0.000004   0.000362  -0.000317  -0.000000
    26  H    0.275677  -0.004526  -0.012450  -0.025634   0.000407   0.005465
               7          8          9         10         11         12
     1  N    0.020894   0.001880  -0.041690  -0.064297  -0.002275   0.004006
     2  H    0.000951  -0.000022  -0.003699  -0.000099   0.001095  -0.000075
     3  H   -0.000622  -0.000021   0.004713  -0.009767  -0.000055   0.000345
     4  C   -0.013007  -0.084748   0.351796   0.296602  -0.036233  -0.024593
     5  C   -0.044943   0.565551  -0.027291  -0.029776   0.003945  -0.003863
     6  O    0.230651  -0.077203   0.001230  -0.002597  -0.000109   0.000253
     7  H    0.356309   0.004601   0.001561  -0.000504  -0.000045  -0.000070
     8  O    0.004601   8.066229   0.000183   0.007645   0.000163   0.004340
     9  H    0.001561   0.000183   0.473451  -0.016506  -0.002794  -0.001276
    10  C   -0.000504   0.007645  -0.016506   5.231807   0.377836   0.362993
    11  H   -0.000045   0.000163  -0.002794   0.377836   0.512279  -0.031812
    12  H   -0.000070   0.004340  -0.001276   0.362993  -0.031812   0.495419
    13  C    0.001202  -0.007094   0.004833   0.326181  -0.034367  -0.029796
    14  C    0.000063  -0.000054  -0.000173  -0.062279  -0.005202   0.004342
    15  H   -0.000016  -0.000001  -0.000159  -0.005521   0.003483  -0.000042
    16  C   -0.000021   0.000003   0.000004   0.006740   0.000271  -0.000172
    17  O    0.000000  -0.000000  -0.000000  -0.000066  -0.000004   0.000000
    18  H   -0.000000   0.000000  -0.000000   0.000005  -0.000000  -0.000000
    19  C    0.000001  -0.000003  -0.000000   0.000281   0.000007   0.000011
    20  O    0.000000  -0.000000   0.000000  -0.000000  -0.000000  -0.000000
    21  H    0.000000  -0.000000   0.000000  -0.000001   0.000000   0.000000
    22  C   -0.000009   0.000208   0.000003   0.005951  -0.000101   0.000118
    23  H    0.000000   0.000000  -0.000000  -0.000110   0.000002  -0.000008
    24  C    0.000027   0.001234   0.000013  -0.048441   0.002516  -0.004186
    25  H   -0.000050   0.004589  -0.000043  -0.007913  -0.000042   0.004659
    26  H    0.014552   0.000098  -0.001393   0.005934   0.000041  -0.000109
              13         14         15         16         17         18
     1  N   -0.014593  -0.012251  -0.001955  -0.000321   0.000004   0.000000
     2  H    0.000072   0.000167   0.000355   0.000002  -0.000000  -0.000000
     3  H    0.019446   0.033827   0.001518   0.000738  -0.000068  -0.000001
     4  C   -0.037201  -0.004402  -0.000265  -0.000150   0.000000   0.000000
     5  C   -0.007651  -0.000767   0.000152   0.000021  -0.000000  -0.000000
     6  O    0.001991  -0.000114  -0.000007   0.000001  -0.000000   0.000000
     7  H    0.001202   0.000063  -0.000016  -0.000021   0.000000  -0.000000
     8  O   -0.007094  -0.000054  -0.000001   0.000003  -0.000000   0.000000
     9  H    0.004833  -0.000173  -0.000159   0.000004  -0.000000  -0.000000
    10  C    0.326181  -0.062279  -0.005521   0.006740  -0.000066   0.000005
    11  H   -0.034367  -0.005202   0.003483   0.000271  -0.000004  -0.000000
    12  H   -0.029796   0.004342  -0.000042  -0.000172   0.000000  -0.000000
    13  C    4.799098   0.482070  -0.059061  -0.014307   0.002301  -0.000218
    14  C    0.482070   5.165647   0.342860   0.477088  -0.045311   0.006789
    15  H   -0.059061   0.342860   0.562909  -0.019762  -0.000601  -0.000146
    16  C   -0.014307   0.477088  -0.019762   4.737587   0.265959  -0.025047
    17  O    0.002301  -0.045311  -0.000601   0.265959   8.262440   0.230338
    18  H   -0.000218   0.006789  -0.000146  -0.025047   0.230338   0.350137
    19  C   -0.029541  -0.047336   0.004315   0.409702  -0.052714  -0.010637
    20  O    0.000199   0.004572  -0.000036  -0.054581  -0.010610   0.017571
    21  H    0.000077  -0.000051  -0.000018  -0.009786   0.009950   0.001474
    22  C   -0.025794  -0.036599   0.000082  -0.039241   0.003913   0.000585
    23  H    0.003076   0.000290   0.000013   0.004632  -0.000033  -0.000012
    24  C    0.553637  -0.042500   0.005051  -0.037197   0.000216  -0.000018
    25  H   -0.042339   0.005872  -0.000173   0.000173   0.000002   0.000000
    26  H   -0.000283   0.000254   0.000194   0.000007  -0.000000   0.000000
              19         20         21         22         23         24
     1  N   -0.000011  -0.000000  -0.000000   0.000048   0.000000   0.000558
     2  H    0.000000   0.000000   0.000000  -0.000001   0.000000  -0.000010
     3  H   -0.000043   0.000000   0.000001  -0.000204  -0.000001   0.000089
     4  C    0.000050   0.000000  -0.000000  -0.000281  -0.000001  -0.008236
     5  C   -0.000038   0.000000   0.000000   0.000102   0.000006   0.009329
     6  O    0.000007  -0.000000  -0.000000  -0.000050  -0.000001  -0.000969
     7  H    0.000001   0.000000   0.000000  -0.000009   0.000000   0.000027
     8  O   -0.000003  -0.000000  -0.000000   0.000208   0.000000   0.001234
     9  H   -0.000000   0.000000   0.000000   0.000003  -0.000000   0.000013
    10  C    0.000281  -0.000000  -0.000001   0.005951  -0.000110  -0.048441
    11  H    0.000007  -0.000000   0.000000  -0.000101   0.000002   0.002516
    12  H    0.000011  -0.000000   0.000000   0.000118  -0.000008  -0.004186
    13  C   -0.029541   0.000199   0.000077  -0.025794   0.003076   0.553637
    14  C   -0.047336   0.004572  -0.000051  -0.036599   0.000290  -0.042500
    15  H    0.004315  -0.000036  -0.000018   0.000082   0.000013   0.005051
    16  C    0.409702  -0.054581  -0.009786  -0.039241   0.004632  -0.037197
    17  O   -0.052714  -0.010610   0.009950   0.003913  -0.000033   0.000216
    18  H   -0.010637   0.017571   0.001474   0.000585  -0.000012  -0.000018
    19  C    4.753801   0.271751  -0.037338   0.503587  -0.032585  -0.021497
    20  O    0.271751   8.225338   0.242570  -0.063436  -0.000325   0.003259
    21  H   -0.037338   0.242570   0.350870   0.005889  -0.000288  -0.000328
    22  C    0.503587  -0.063436   0.005889   5.022314   0.351972   0.479890
    23  H   -0.032585  -0.000325  -0.000288   0.351972   0.536960  -0.031089
    24  C   -0.021497   0.003259  -0.000328   0.479890  -0.031089   4.974222
    25  H    0.003962  -0.000071   0.000003  -0.036922  -0.004038   0.357394
    26  H    0.000000  -0.000000  -0.000000  -0.000000   0.000000  -0.000016
              25         26
     1  N    0.000026   0.275677
     2  H   -0.000000  -0.004526
     3  H   -0.000004  -0.012450
     4  C    0.000362  -0.025634
     5  C   -0.000317   0.000407
     6  O   -0.000000   0.005465
     7  H   -0.000050   0.014552
     8  O    0.004589   0.000098
     9  H   -0.000043  -0.001393
    10  C   -0.007913   0.005934
    11  H   -0.000042   0.000041
    12  H    0.004659  -0.000109
    13  C   -0.042339  -0.000283
    14  C    0.005872   0.000254
    15  H   -0.000173   0.000194
    16  C    0.000173   0.000007
    17  O    0.000002  -0.000000
    18  H    0.000000   0.000000
    19  C    0.003962   0.000000
    20  O   -0.000071  -0.000000
    21  H    0.000003  -0.000000
    22  C   -0.036922  -0.000000
    23  H   -0.004038   0.000000
    24  C    0.357394  -0.000016
    25  H    0.553246   0.000001
    26  H    0.000001   0.262775
 Mulliken charges:
               1
     1  N   -0.775447
     2  H    0.503293
     3  H    0.450888
     4  C   -0.183917
     5  C    0.609816
     6  O   -0.461037
     7  H    0.428475
     8  O   -0.487577
     9  H    0.257240
    10  C   -0.374097
    11  H    0.211402
    12  H    0.219514
    13  C    0.108059
    14  C   -0.266800
    15  H    0.166832
    16  C    0.297656
    17  O   -0.665716
    18  H    0.429180
    19  C    0.284267
    20  O   -0.636201
    21  H    0.436976
    22  C   -0.172023
    23  H    0.171536
    24  C   -0.192950
    25  H    0.161621
    26  H    0.479008
 Sum of Mulliken charges =   1.00000
 Mulliken charges with hydrogens summed into heavy atoms:
               1
     1  N    0.657743
     4  C    0.073322
     5  C    0.609816
     6  O   -0.032562
     8  O   -0.487577
    10  C    0.056819
    13  C    0.108059
    14  C   -0.099968
    16  C    0.297656
    17  O   -0.236536
    19  C    0.284267
    20  O   -0.199226
    22  C   -0.000487
    24  C   -0.031328
 Electronic spatial extent (au):  <R**2>=           2961.1849
 Charge=              1.0000 electrons
 Dipole moment (field-independent basis, Debye):
    X=             -6.0276    Y=             11.7739    Z=              2.7337  Tot=             13.5067
 Quadrupole moment (field-independent basis, Debye-Ang):
   XX=            -50.2493   YY=            -65.4574   ZZ=            -72.0505
   XY=            -26.8420   XZ=              2.9818   YZ=              5.9900
 Traceless Quadrupole moment (field-independent basis, Debye-Ang):
   XX=             12.3364   YY=             -2.8717   ZZ=             -9.4648
   XY=            -26.8420   XZ=              2.9818   YZ=              5.9900
 Octapole moment (field-independent basis, Debye-Ang**2):
  XXX=              7.7455  YYY=             48.0841  ZZZ=             17.8432  XYY=            -36.5644
  XXY=             86.5248  XXZ=             39.4615  XZZ=             -4.1838  YZZ=             14.1705
  YYZ=              6.3970  XYZ=             -8.9944
 Hexadecapole moment (field-independent basis, Debye-Ang**3):
 XXXX=          -2078.8659 YYYY=           -642.2226 ZZZZ=           -341.3023 XXXY=            -68.8053
 XXXZ=             79.3372 YYYX=           -150.7804 YYYZ=             17.5704 ZZZX=             24.7570
 ZZZY=             13.2028 XXYY=           -528.9529 XXZZ=           -412.1537 YYZZ=           -174.5609
 XXYZ=             35.3987 YYXZ=            -23.9131 ZZXY=            -23.8922
 N-N= 9.307613064333D+02 E-N=-3.491719155124D+03  KE= 6.996559259008D+02
 No NMR shielding tensors so no spin-rotation constants.
 Leave Link  601 at Sun Jul 18 13:49:58 2021, MaxMem=   104857600 cpu:               0.4 elap:               0.1
 (Enter /dades/curu/g16A03_MST/g16/l701.exe)
 ... and contract with generalized density number  0.
 Compute integral first derivatives.
 D1PCM: PCM CHGder 1st derivatives, ID1Alg=3 FixD1E=F DoIter=F DoCFld=F I1PDM=0.
 GePol: Maximum number of non-zero 1st derivatives   =     236
 Leave Link  701 at Sun Jul 18 13:50:01 2021, MaxMem=   104857600 cpu:              10.0 elap:               2.6
 (Enter /dades/curu/g16A03_MST/g16/l702.exe)
 L702 exits ... SP integral derivatives will be done elsewhere.
 Leave Link  702 at Sun Jul 18 13:50:01 2021, MaxMem=   104857600 cpu:               0.1 elap:               0.0
 (Enter /dades/curu/g16A03_MST/g16/l703.exe)
 Integral derivatives from FoFJK, PRISM(SPDF).
 Compute integral first derivatives, UseDBF=F ICtDFT=           0.
 Calling FoFJK, ICntrl=      2127 FMM=F ISym2X=0 I1Cent= 0 IOpClX= 0 NMat=1 NMatS=1 NMatT=0.
 FoFJK:  IHMeth= 1 ICntrl=    2127 DoSepK=F KAlg= 0 I1Cent=           0 FoldK=F
 IRaf=         0 NMat=       1 IRICut=       1 DoRegI=T DoRafI=F ISym2E= 0 IDoP0=0 IntGTp=1.
 FoFCou: FMM=F IPFlag=           0 FMFlag=      100000 FMFlg1=         800
         NFxFlg=           0 DoJE=F BraDBF=F KetDBF=F FulRan=T
         wScrn=  0.000000 ICntrl=      2127 IOpCl=  0 I1Cent=           0 NGrid=           0
         NMat0=    1 NMatS0=      1 NMatT0=    0 NMatD0=    1 NMtDS0=    0 NMtDT0=    0
 Symmetry not used in FoFCou.
 Leave Link  703 at Sun Jul 18 13:50:20 2021, MaxMem=   104857600 cpu:              74.1 elap:              18.6
 (Enter /dades/curu/g16A03_MST/g16/l716.exe)
 Dipole        =-2.37145396D+00 4.63220243D+00 1.07552769D+00
 ***** Axes restored to original set *****
 -------------------------------------------------------------------
 Center     Atomic                   Forces (Hartrees/Bohr)
 Number     Number              X              Y              Z
 -------------------------------------------------------------------
      1        7           0.030688635   -0.005790788   -0.008587506
      2        1          -0.019703685    0.002824142   -0.021454302
      3        1          -0.010247241    0.021986023    0.019218509
      4        6           0.011917490   -0.015983004   -0.042484298
      5        6           0.114228828    0.041677193   -0.024625752
      6        8          -0.057867183   -0.025691121    0.051946276
      7        1          -0.006718946   -0.026938441    0.059432541
      8        8          -0.040474084   -0.003586852   -0.021248048
      9        1           0.004273528    0.009449058   -0.008405291
     10        6           0.038482860    0.001902447   -0.017102869
     11        1          -0.014440753   -0.001710631    0.004239622
     12        1           0.001637321   -0.014900574    0.001568989
     13        6          -0.006087161    0.015858807    0.017175440
     14        6           0.001493944    0.017742518    0.014204763
     15        1          -0.001366724    0.011814144    0.003936280
     16        6          -0.025437860    0.010776816    0.011473126
     17        8           0.030659282   -0.021233886   -0.002538380
     18        1          -0.001376933    0.001322763   -0.004425464
     19        6           0.016062046   -0.029865935   -0.032570769
     20        8          -0.019211960    0.018746419    0.018284396
     21        1           0.002395449    0.007569367    0.011247101
     22        6          -0.021717462   -0.020691334   -0.036313967
     23        1          -0.003729793   -0.003400882    0.000403226
     24        6           0.018075747    0.029419579    0.011798074
     25        1          -0.002797823   -0.003535379    0.001626876
     26        1          -0.038737521   -0.017760448   -0.006798573
 -------------------------------------------------------------------
 Cartesian Forces:  Max     0.114228828 RMS     0.024928743
 Leave Link  716 at Sun Jul 18 13:50:20 2021, MaxMem=   104857600 cpu:               0.1 elap:               0.0
 (Enter /dades/curu/g16A03_MST/g16/l103.exe)

 GradGradGradGradGradGradGradGradGradGradGradGradGradGradGradGradGradGrad
 Berny optimization.
 FormGI is forming the generalized inverse of G from B-inverse, IUseBI=4.
 Internal  Forces:  Max     0.136256384 RMS     0.025297956
 Search for a local minimum.
 Step number   1 out of a maximum of  138
 All quantities printed in internal units (Hartrees-Bohrs-Radians)
 RMS Force = .25298D-01 SwitMx=.10000D-02 MixMth= 1
 Mixed Optimization -- RFO/linear search
 Second derivative matrix not updated -- first step.
 ITU=  0
     Eigenvalues ---    0.00295   0.00423   0.00747   0.01045   0.01369
     Eigenvalues ---    0.01373   0.01652   0.01742   0.01800   0.01837
     Eigenvalues ---    0.01883   0.01947   0.02012   0.02084   0.02108
     Eigenvalues ---    0.02559   0.03640   0.03855   0.04025   0.04733
     Eigenvalues ---    0.05506   0.05752   0.05757   0.05892   0.09700
     Eigenvalues ---    0.13048   0.15652   0.15945   0.16000   0.16000
     Eigenvalues ---    0.16000   0.16000   0.16000   0.16000   0.16000
     Eigenvalues ---    0.16410   0.18537   0.21599   0.22265   0.23428
     Eigenvalues ---    0.24455   0.24612   0.24913   0.24993   0.24994
     Eigenvalues ---    0.25000   0.29803   0.31796   0.32231   0.34381
     Eigenvalues ---    0.34465   0.34532   0.34698   0.35141   0.35165
     Eigenvalues ---    0.35208   0.37929   0.39890   0.41805   0.42587
     Eigenvalues ---    0.43812   0.45052   0.45887   0.47736   0.47741
     Eigenvalues ---    0.47771   0.52526   0.52624   0.52731   0.58464
     Eigenvalues ---    0.82236   0.88007
 RFO step:  Lambda=-1.75540346D-01 EMin= 2.94812952D-03
 Linear search not attempted -- first point.
 Maximum step size (   0.300) exceeded in Quadratic search.
    -- Step size scaled by   0.493
 Iteration  1 RMS(Cart)=  0.09865092 RMS(Int)=  0.00879476
 Iteration  2 RMS(Cart)=  0.01725653 RMS(Int)=  0.00030100
 Iteration  3 RMS(Cart)=  0.00036841 RMS(Int)=  0.00021633
 Iteration  4 RMS(Cart)=  0.00000036 RMS(Int)=  0.00021633
 ITry= 1 IFail=0 DXMaxC= 6.51D-01 DCOld= 1.00D+10 DXMaxT= 3.00D-01 DXLimC= 3.00D+00 Rises=F
 Variable       Old X    -DE/DX   Delta X   Delta X   Delta X     New X
                                 (Linear)    (Quad)   (Total)
    R1        1.88922   0.02858   0.00000   0.02158   0.02158   1.91080
    R2        1.88884   0.03016   0.00000   0.02276   0.02276   1.91160
    R3        2.84518   0.03340   0.00000   0.03337   0.03337   2.87855
    R4        1.88916   0.02577   0.00000   0.01946   0.01946   1.90862
    R5        2.88358   0.05745   0.00000   0.05981   0.05981   2.94339
    R6        2.06693   0.00065   0.00000   0.00062   0.00062   2.06754
    R7        2.83723   0.02253   0.00000   0.02231   0.02231   2.85954
    R8        2.36732   0.13626   0.00000   0.06732   0.06732   2.43464
    R9        2.33865  -0.04136   0.00000  -0.01932  -0.01932   2.31934
   R10        1.83906  -0.03040   0.00000  -0.02132  -0.02132   1.81774
   R11        2.06442   0.00094   0.00000   0.00089   0.00089   2.06531
   R12        2.06553   0.00183   0.00000   0.00174   0.00174   2.06727
   R13        2.79468   0.03087   0.00000   0.02913   0.02913   2.82381
   R14        2.63748   0.01645   0.00000   0.01330   0.01327   2.65075
   R15        2.64645  -0.00617   0.00000  -0.00452  -0.00453   2.64192
   R16        2.05446  -0.00246   0.00000  -0.00230  -0.00230   2.05216
   R17        2.65589  -0.01623   0.00000  -0.01253  -0.01255   2.64334
   R18        2.69172  -0.03611   0.00000  -0.02999  -0.02999   2.66173
   R19        2.69757  -0.01889   0.00000  -0.01613  -0.01612   2.68145
   R20        1.84007  -0.00247   0.00000  -0.00173  -0.00173   1.83833
   R21        2.52177   0.03988   0.00000   0.02586   0.02586   2.54763
   R22        2.65703  -0.00725   0.00000  -0.00636  -0.00634   2.65069
   R23        1.84099   0.00037   0.00000   0.00026   0.00026   1.84125
   R24        2.05407  -0.00302   0.00000  -0.00282  -0.00282   2.05125
   R25        2.72127  -0.03355   0.00000  -0.02928  -0.02926   2.69200
   R26        2.05338  -0.00096   0.00000  -0.00090  -0.00090   2.05249
    A1        1.91030  -0.00496   0.00000  -0.00912  -0.00908   1.90122
    A2        1.91096  -0.00261   0.00000  -0.00624  -0.00616   1.90480
    A3        1.91049  -0.02183   0.00000  -0.03507  -0.03496   1.87553
    A4        1.91046   0.00547   0.00000   0.00954   0.00914   1.91960
    A5        1.91036  -0.01074   0.00000  -0.01096  -0.01170   1.89866
    A6        1.91124   0.03465   0.00000   0.05183   0.05149   1.96273
    A7        1.97055   0.04523   0.00000   0.07076   0.07101   2.04156
    A8        1.79470  -0.01175   0.00000  -0.01683  -0.01723   1.77747
    A9        1.87332  -0.00196   0.00000   0.00036   0.00087   1.87419
   A10        1.79421   0.00432   0.00000   0.00676   0.00618   1.80039
   A11        1.98361  -0.03109   0.00000  -0.04293  -0.04350   1.94011
   A12        2.04125   0.00057   0.00000  -0.01057  -0.01093   2.03032
   A13        1.92825   0.12493   0.00000   0.14643   0.14609   2.07434
   A14        2.18390  -0.07223   0.00000  -0.08236  -0.08276   2.10114
   A15        2.14706  -0.04833   0.00000  -0.05395  -0.05424   2.09282
   A16        1.65575   0.10662   0.00000   0.15667   0.15667   1.81242
   A17        2.00336  -0.01040   0.00000  -0.01474  -0.01478   1.98857
   A18        1.95255  -0.01957   0.00000  -0.03012  -0.03029   1.92226
   A19        1.93305   0.02714   0.00000   0.03360   0.03376   1.96681
   A20        1.72088   0.01188   0.00000   0.01801   0.01782   1.73869
   A21        1.99040  -0.01279   0.00000  -0.01622  -0.01610   1.97429
   A22        1.84724   0.00082   0.00000   0.00645   0.00676   1.85400
   A23        2.02641   0.02177   0.00000   0.02462   0.02464   2.05105
   A24        2.16349  -0.01374   0.00000  -0.01653  -0.01651   2.14698
   A25        2.09303  -0.00805   0.00000  -0.00815  -0.00818   2.08485
   A26        2.05356   0.00907   0.00000   0.01304   0.01306   2.06662
   A27        2.08322   0.00364   0.00000   0.00591   0.00587   2.08909
   A28        2.14341  -0.01282   0.00000  -0.01918  -0.01916   2.12425
   A29        2.08277  -0.00257   0.00000  -0.00286  -0.00286   2.07991
   A30        2.11093  -0.00223   0.00000  -0.00267  -0.00269   2.10824
   A31        2.08635   0.00497   0.00000   0.00594   0.00595   2.09231
   A32        1.86531   0.00370   0.00000   0.00544   0.00544   1.87074
   A33        2.14254  -0.00878   0.00000  -0.00935  -0.00937   2.13317
   A34        2.09594  -0.00383   0.00000  -0.00602  -0.00600   2.08994
   A35        2.04447   0.01266   0.00000   0.01551   0.01549   2.05996
   A36        1.81512   0.02531   0.00000   0.03719   0.03719   1.85232
   A37        2.09980  -0.00727   0.00000  -0.00815  -0.00817   2.09163
   A38        2.04738   0.01523   0.00000   0.01731   0.01736   2.06473
   A39        2.13600  -0.00795   0.00000  -0.00916  -0.00918   2.12682
   A40        2.12501  -0.00429   0.00000  -0.00519  -0.00521   2.11979
   A41        2.08174   0.00135   0.00000   0.00213   0.00209   2.08383
   A42        2.05564   0.00407   0.00000   0.00600   0.00596   2.06159
    D1       -2.74169  -0.01175   0.00000  -0.01932  -0.01895  -2.76064
[...]
    26  H    5.457203   6.229093   6.978584   6.038612   7.194124
                   21         22         23         24         25
    21  H    0.000000
    22  C    2.529329   0.000000
    23  H    2.395431   1.086470   0.000000
    24  C    3.911596   1.398082   2.159636   0.000000
    25  H    4.633692   2.147432   2.474028   1.085092   0.000000
    26  H    7.714600   5.754750   6.528834   4.799245   4.986964
                   26
    26  H    0.000000
 Stoichiometry    C9H12NO4(1+)
 Framework group  C1[X(C9H12NO4)]
 Deg. of freedom    72
 Full point group                 C1      NOp   1
 RotChk:  IX=0 Diff= 8.92D-16
 Largest Abelian subgroup         C1      NOp   1
 Largest concise Abelian subgroup C1      NOp   1
                         Standard orientation:                         
 ---------------------------------------------------------------------
 Center     Atomic      Atomic             Coordinates (Angstroms)
 Number     Number       Type             X           Y           Z
 ---------------------------------------------------------------------
      1          7           0       -1.959677    1.713873    0.961902
      2          1           0       -1.739361    2.663616    0.628438
      3          1           0       -1.115013    1.380791    1.451531
      4          6           0       -2.368774    0.838183   -0.194049
      5          6           0       -2.817088   -0.582763    0.182222
      6          8           0       -2.748037   -1.034457    1.442572
      7          1           0       -2.364490   -0.408330    2.077774
      8          8           0       -3.242430   -1.292755   -0.696149
      9          1           0       -3.252286    1.314453   -0.619828
     10          6           0       -1.262617    0.793874   -1.270638
     11          1           0       -1.142689    1.804662   -1.671272
     12          1           0       -1.673499    0.177078   -2.072345
     13          6           0        0.068798    0.252668   -0.795612
     14          6           0        1.117616    1.134771   -0.490715
     15          1           0        1.000755    2.205518   -0.620828
     16          6           0        2.343303    0.654691   -0.040978
     17          8           0        3.353837    1.518773    0.249513
     18          1           0        4.125779    0.985985    0.511022
     19          6           0        2.536119   -0.730462    0.109836
     20          8           0        3.777517   -1.083843    0.561192
     21          1           0        3.872834   -2.048594    0.584122
     22          6           0        1.507759   -1.613589   -0.199906
     23          1           0        1.665714   -2.683551   -0.096716
     24          6           0        0.278949   -1.124170   -0.652816
     25          1           0       -0.507406   -1.825935   -0.910880
     26          1           0       -2.704084    1.836224    1.664582
 ---------------------------------------------------------------------
 Rotational constants (GHZ):           1.3018905           0.3877640           0.3460359
 Leave Link  202 at Sun Jul 18 15:23:26 2021, MaxMem=   262144000 cpu:               0.1 elap:               0.0
 (Enter /dades/curu/g16A03_MST/g16/l301.exe)
 Standard basis: Aug-CC-pVDZ (5D, 7F)
 Ernie: Thresh=  0.10000D-02 Tol=  0.10000D-05 Strict=F.
 Ernie:  28 primitive shells out of 434 were deleted.
 There are   458 symmetry adapted cartesian basis functions of A   symmetry.
 There are   430 symmetry adapted basis functions of A   symmetry.
   430 basis functions,   734 primitive gaussians,   458 cartesian basis functions
    52 alpha electrons       52 beta electrons
       nuclear repulsion energy       912.5558887564 Hartrees.
 IExCor=    0 DFT=F Ex=HF Corr=None ExCW=0 ScaHFX=  1.000000
 ScaDFX=  1.000000  1.000000  1.000000  1.000000 ScalE2=  1.000000  1.000000
 IRadAn=      5 IRanWt=     -1 IRanGd=            0 ICorTp=0 IEmpDi=  4
 NAtoms=   26 NActive=   26 NUniq=   26 SFac= 1.00D+00 NAtFMM=   60 NAOKFM=F Big=F
 Integral buffers will be    131072 words long.
 Raffenetti 1 integral format.
 Two-electron integral symmetry is turned on.
 Leave Link  301 at Sun Jul 18 15:23:26 2021, MaxMem=   262144000 cpu:               0.1 elap:               0.1
 (Enter /dades/curu/g16A03_MST/g16/l302.exe)
 NPDir=0 NMtPBC=     1 NCelOv=     1 NCel=       1 NClECP=     1 NCelD=      1
         NCelK=      1 NCelE2=     1 NClLst=     1 CellRange=     0.0.
 One-electron integrals computed using PRISM.
 One-electron integral symmetry used in STVInt
 NBasis=   430 RedAO= T EigKep=  1.49D-06  NBF=   430
 NBsUse=   430 1.00D-06 EigRej= -1.00D+00 NBFU=   430
 Leave Link  302 at Sun Jul 18 15:23:27 2021, MaxMem=   262144000 cpu:               1.4 elap:               0.7
 (Enter /dades/curu/g16A03_MST/g16/l303.exe)
 DipDrv:  MaxL=1.
 Leave Link  303 at Sun Jul 18 15:23:27 2021, MaxMem=   262144000 cpu:               0.1 elap:               0.1
 (Enter /dades/curu/g16A03_MST/g16/l401.exe)
 ExpMin= 2.97D-02 ExpMax= 1.17D+04 ExpMxC= 4.01D+02 IAcc=3 IRadAn=         5 AccDes= 0.00D+00
 Harris functional with IExCor=  205 and IRadAn=       5 diagonalized for initial guess.
 HarFok:  IExCor=  205 AccDes= 0.00D+00 IRadAn=         5 IDoV= 1 UseB2=F ITyADJ=14
 ICtDFT=  3500011 ScaDFX=  1.000000  1.000000  1.000000  1.000000
 FoFCou: FMM=F IPFlag=           0 FMFlag=      100000 FMFlg1=           0
         NFxFlg=           0 DoJE=T BraDBF=F KetDBF=T FulRan=T
         wScrn=  0.000000 ICntrl=       500 IOpCl=  0 I1Cent=   200000004 NGrid=           0
         NMat0=    1 NMatS0=      1 NMatT0=    0 NMatD0=    1 NMtDS0=    0 NMtDT0=    0
 Petite list used in FoFCou.
 Harris En= -702.292335102785    
 JPrj=0 DoOrth=F DoCkMO=F.
 Leave Link  401 at Sun Jul 18 15:23:35 2021, MaxMem=   262144000 cpu:              29.9 elap:               7.7
 (Enter /dades/curu/g16A03_MST/g16/l502.exe)
 Integral symmetry usage will be decided dynamically.
 Closed shell SCF:
 Using DIIS extrapolation, IDIIS=  1040.
 NGot=   262144000 LenX=   261717382 LenY=   261507160
 Requested convergence on RMS density matrix=1.00D-08 within 128 cycles.
 Requested convergence on MAX density matrix=1.00D-06.
 Requested convergence on             energy=1.00D-06.
 No special actions if energy rises.
 Fock matrices will be formed incrementally for  20 cycles.

 Cycle   1  Pass 0  IDiag  1:
 FoFJK:  IHMeth= 1 ICntrl=       0 DoSepK=F KAlg= 0 I1Cent=           0 FoldK=F
 IRaf= 960000000 NMat=       1 IRICut=       1 DoRegI=T DoRafI=F ISym2E= 0 IDoP0=0 IntGTp=1.
 FoFCou: FMM=F IPFlag=           0 FMFlag=      100000 FMFlg1=           0
         NFxFlg=           0 DoJE=F BraDBF=F KetDBF=F FulRan=T
         wScrn=  0.000000 ICntrl=         0 IOpCl=  0 I1Cent=           0 NGrid=           0
         NMat0=    1 NMatS0=      1 NMatT0=    0 NMatD0=    1 NMtDS0=    0 NMtDT0=    0
 Symmetry not used in FoFCou.
 E= -701.097528887027    
 DIIS: error= 1.21D-02 at cycle   1 NSaved=   1.
 NSaved= 1 IEnMin= 1 EnMin= -701.097528887027     IErMin= 1 ErrMin= 1.21D-02
 ErrMax= 1.21D-02  0.00D+00 EMaxC= 1.00D-01 BMatC= 6.72D-01 BMatP= 6.72D-01
 IDIUse=3 WtCom= 8.79D-01 WtEn= 1.21D-01
 Coeff-Com:  0.100D+01
 Coeff-En:   0.100D+01
 Coeff:      0.100D+01
 Gap=     0.449 Goal=   None    Shift=    0.000
 GapD=    0.449 DampG=2.000 DampE=0.500 DampFc=1.0000 IDamp=-1.
 RMSDP=4.74D-02 MaxDP=3.17D+00              OVMax= 1.50D-01

 Cycle   2  Pass 0  IDiag  1:
 RMSU=  1.88D-02    CP:  5.39D-01
 E= -701.478911120542     Delta-E=       -0.381382233515 Rises=F Damp=F
 DIIS: error= 6.28D-03 at cycle   2 NSaved=   2.
 NSaved= 2 IEnMin= 2 EnMin= -701.478911120542     IErMin= 2 ErrMin= 6.28D-03
 ErrMax= 6.28D-03  0.00D+00 EMaxC= 1.00D-01 BMatC= 1.04D-01 BMatP= 6.72D-01
 IDIUse=3 WtCom= 9.37D-01 WtEn= 6.28D-02
 Coeff-Com:  0.225D+00 0.775D+00
 Coeff-En:   0.000D+00 0.100D+01
 Coeff:      0.211D+00 0.789D+00
 Gap=     0.322 Goal=   None    Shift=    0.000
 RMSDP=4.59D-03 MaxDP=4.37D-01 DE=-3.81D-01 OVMax= 5.60D-02

 Cycle   3  Pass 0  IDiag  1:
 RMSU=  3.49D-03    CP:  5.23D-01  8.63D-01
 E= -701.557787257561     Delta-E=       -0.078876137020 Rises=F Damp=F
 DIIS: error= 2.94D-03 at cycle   3 NSaved=   3.
 NSaved= 3 IEnMin= 3 EnMin= -701.557787257561     IErMin= 3 ErrMin= 2.94D-03
 ErrMax= 2.94D-03  0.00D+00 EMaxC= 1.00D-01 BMatC= 1.24D-02 BMatP= 1.04D-01
 IDIUse=3 WtCom= 9.71D-01 WtEn= 2.94D-02
 Coeff-Com: -0.144D-01 0.221D+00 0.794D+00
 Coeff-En:   0.000D+00 0.000D+00 0.100D+01
 Coeff:     -0.140D-01 0.214D+00 0.800D+00
 Gap=     0.314 Goal=   None    Shift=    0.000
 RMSDP=1.15D-03 MaxDP=6.15D-02 DE=-7.89D-02 OVMax= 3.13D-02

 Cycle   4  Pass 0  IDiag  1:
 RMSU=  7.72D-04    CP:  5.15D-01  8.81D-01  9.11D-01
 E= -701.567294557080     Delta-E=       -0.009507299519 Rises=F Damp=F
 DIIS: error= 6.07D-04 at cycle   4 NSaved=   4.
 NSaved= 4 IEnMin= 4 EnMin= -701.567294557080     IErMin= 4 ErrMin= 6.07D-04
 ErrMax= 6.07D-04  0.00D+00 EMaxC= 1.00D-01 BMatC= 8.17D-04 BMatP= 1.24D-02
 IDIUse=3 WtCom= 9.94D-01 WtEn= 6.07D-03
 Coeff-Com: -0.155D-01 0.240D-01 0.238D+00 0.753D+00
 Coeff-En:   0.000D+00 0.000D+00 0.000D+00 0.100D+01
 Coeff:     -0.154D-01 0.239D-01 0.237D+00 0.755D+00
 Gap=     0.308 Goal=   None    Shift=    0.000
 RMSDP=3.59D-04 MaxDP=2.55D-02 DE=-9.51D-03 OVMax= 6.49D-03

 Cycle   5  Pass 0  IDiag  1:
 RMSU=  2.70D-04    CP:  5.13D-01  8.84D-01  9.14D-01  1.01D+00
 E= -701.568096084494     Delta-E=       -0.000801527414 Rises=F Damp=F
 DIIS: error= 1.83D-04 at cycle   5 NSaved=   5.
 NSaved= 5 IEnMin= 5 EnMin= -701.568096084494     IErMin= 5 ErrMin= 1.83D-04
 ErrMax= 1.83D-04  0.00D+00 EMaxC= 1.00D-01 BMatC= 4.53D-05 BMatP= 8.17D-04
 IDIUse=3 WtCom= 9.98D-01 WtEn= 1.83D-03
 Coeff-Com:  0.160D-02-0.180D-01-0.757D-01-0.216D-01 0.111D+01
 Coeff-En:   0.000D+00 0.000D+00 0.000D+00 0.000D+00 0.100D+01
 Coeff:      0.160D-02-0.180D-01-0.756D-01-0.215D-01 0.111D+01
 Gap=     0.309 Goal=   None    Shift=    0.000
 RMSDP=1.29D-04 MaxDP=1.11D-02 DE=-8.02D-04 OVMax= 3.54D-03

 Cycle   6  Pass 0  IDiag  1:
 RMSU=  7.43D-05    CP:  5.12D-01  8.83D-01  9.27D-01  1.07D+00  1.14D+00
 E= -701.568197387997     Delta-E=       -0.000101303502 Rises=F Damp=F
 DIIS: error= 7.61D-05 at cycle   6 NSaved=   6.
 NSaved= 6 IEnMin= 6 EnMin= -701.568197387997     IErMin= 6 ErrMin= 7.61D-05
 ErrMax= 7.61D-05  0.00D+00 EMaxC= 1.00D-01 BMatC= 8.84D-06 BMatP= 4.53D-05
 IDIUse=1 WtCom= 1.00D+00 WtEn= 0.00D+00
 Coeff-Com:  0.185D-02-0.744D-02-0.412D-01-0.877D-01 0.277D+00 0.857D+00
 Coeff:      0.185D-02-0.744D-02-0.412D-01-0.877D-01 0.277D+00 0.857D+00
 Gap=     0.309 Goal=   None    Shift=    0.000
 RMSDP=3.75D-05 MaxDP=2.42D-03 DE=-1.01D-04 OVMax= 1.08D-03

 Cycle   7  Pass 0  IDiag  1:
 RMSU=  2.27D-05    CP:  5.12D-01  8.82D-01  9.30D-01  1.10D+00  1.18D+00
                    CP:  1.11D+00
 E= -701.568212082530     Delta-E=       -0.000014694533 Rises=F Damp=F
 DIIS: error= 2.73D-05 at cycle   7 NSaved=   7.
 NSaved= 7 IEnMin= 7 EnMin= -701.568212082530     IErMin= 7 ErrMin= 2.73D-05
 ErrMax= 2.73D-05  0.00D+00 EMaxC= 1.00D-01 BMatC= 1.08D-06 BMatP= 8.84D-06
 IDIUse=1 WtCom= 1.00D+00 WtEn= 0.00D+00
 Coeff-Com: -0.534D-04 0.169D-02 0.947D-02-0.822D-02-0.129D+00 0.309D-01
 Coeff-Com:  0.109D+01
 Coeff:     -0.534D-04 0.169D-02 0.947D-02-0.822D-02-0.129D+00 0.309D-01
 Coeff:      0.109D+01
 Gap=     0.309 Goal=   None    Shift=    0.000
 RMSDP=1.83D-05 MaxDP=1.18D-03 DE=-1.47D-05 OVMax= 7.18D-04

 Cycle   8  Pass 0  IDiag  1:
 RMSU=  1.16D-05    CP:  5.12D-01  8.82D-01  9.31D-01  1.10D+00  1.22D+00
                    CP:  1.18D+00  1.19D+00
 E= -701.568215103534     Delta-E=       -0.000003021005 Rises=F Damp=F
 DIIS: error= 1.23D-05 at cycle   8 NSaved=   8.
 NSaved= 8 IEnMin= 8 EnMin= -701.568215103534     IErMin= 8 ErrMin= 1.23D-05
 ErrMax= 1.23D-05  0.00D+00 EMaxC= 1.00D-01 BMatC= 1.87D-07 BMatP= 1.08D-06
 IDIUse=1 WtCom= 1.00D+00 WtEn= 0.00D+00
 Coeff-Com: -0.265D-03 0.107D-02 0.701D-02 0.100D-01-0.374D-01-0.138D+00
 Coeff-Com:  0.506D-01 0.111D+01
 Coeff:     -0.265D-03 0.107D-02 0.701D-02 0.100D-01-0.374D-01-0.138D+00
 Coeff:      0.506D-01 0.111D+01
 Gap=     0.310 Goal=   None    Shift=    0.000
 RMSDP=7.35D-06 MaxDP=3.69D-04 DE=-3.02D-06 OVMax= 3.03D-04

 Initial convergence to 1.0D-05 achieved.  Increase integral accuracy.
 Cycle   9  Pass 1  IDiag  1:
 E= -701.568215626875     Delta-E=       -0.000000523340 Rises=F Damp=F
 DIIS: error= 3.69D-06 at cycle   1 NSaved=   1.
 NSaved= 1 IEnMin= 1 EnMin= -701.568215626875     IErMin= 1 ErrMin= 3.69D-06
 ErrMax= 3.69D-06  0.00D+00 EMaxC= 1.00D-01 BMatC= 2.90D-08 BMatP= 2.90D-08
 IDIUse=1 WtCom= 1.00D+00 WtEn= 0.00D+00
 Coeff-Com:  0.100D+01
 Coeff:      0.100D+01
 Gap=     0.309 Goal=   None    Shift=    0.000
 RMSDP=7.35D-06 MaxDP=3.69D-04 DE=-5.23D-07 OVMax= 1.02D-04

 Cycle  10  Pass 1  IDiag  1:
 RMSU=  2.93D-06    CP:  1.00D+00
 E= -701.568215687760     Delta-E=       -0.000000060885 Rises=F Damp=F
 DIIS: error= 2.57D-06 at cycle   2 NSaved=   2.
 NSaved= 2 IEnMin= 2 EnMin= -701.568215687760     IErMin= 2 ErrMin= 2.57D-06
 ErrMax= 2.57D-06  0.00D+00 EMaxC= 1.00D-01 BMatC= 1.19D-08 BMatP= 2.90D-08
 IDIUse=1 WtCom= 1.00D+00 WtEn= 0.00D+00
 Coeff-Com:  0.282D+00 0.718D+00
 Coeff:      0.282D+00 0.718D+00
 Gap=     0.309 Goal=   None    Shift=    0.000
 RMSDP=1.29D-06 MaxDP=7.23D-05 DE=-6.09D-08 OVMax= 6.14D-05

 Cycle  11  Pass 1  IDiag  1:
 RMSU=  1.26D-06    CP:  1.00D+00  9.02D-01
 E= -701.568215709621     Delta-E=       -0.000000021861 Rises=F Damp=F
 DIIS: error= 1.41D-06 at cycle   3 NSaved=   3.
 NSaved= 3 IEnMin= 3 EnMin= -701.568215709621     IErMin= 3 ErrMin= 1.41D-06
 ErrMax= 1.41D-06  0.00D+00 EMaxC= 1.00D-01 BMatC= 3.53D-09 BMatP= 1.19D-08
 IDIUse=1 WtCom= 1.00D+00 WtEn= 0.00D+00
 Coeff-Com: -0.546D+00-0.228D+00 0.177D+01
 Coeff:     -0.546D+00-0.228D+00 0.177D+01
 Gap=     0.309 Goal=   None    Shift=    0.000
 RMSDP=1.97D-06 MaxDP=1.21D-04 DE=-2.19D-08 OVMax= 7.78D-05

 Cycle  12  Pass 1  IDiag  1:
 RMSU=  6.59D-07    CP:  1.00D+00  1.43D+00  1.81D+00
 E= -701.568215727269     Delta-E=       -0.000000017648 Rises=F Damp=F
 DIIS: error= 4.29D-07 at cycle   4 NSaved=   4.
 NSaved= 4 IEnMin= 4 EnMin= -701.568215727269     IErMin= 4 ErrMin= 4.29D-07
 ErrMax= 4.29D-07  0.00D+00 EMaxC= 1.00D-01 BMatC= 2.04D-10 BMatP= 3.53D-09
 IDIUse=1 WtCom= 1.00D+00 WtEn= 0.00D+00
 Coeff-Com: -0.165D+00-0.107D+00 0.459D+00 0.813D+00
 Coeff:     -0.165D+00-0.107D+00 0.459D+00 0.813D+00
 Gap=     0.309 Goal=   None    Shift=    0.000
 RMSDP=3.07D-07 MaxDP=1.07D-05 DE=-1.76D-08 OVMax= 1.47D-05

 Cycle  13  Pass 1  IDiag  1:
 RMSU=  1.82D-07    CP:  1.00D+00  1.49D+00  1.94D+00  1.03D+00
 E= -701.568215727863     Delta-E=       -0.000000000594 Rises=F Damp=F
 DIIS: error= 1.92D-07 at cycle   5 NSaved=   5.
 NSaved= 5 IEnMin= 5 EnMin= -701.568215727863     IErMin= 5 ErrMin= 1.92D-07
 ErrMax= 1.92D-07  0.00D+00 EMaxC= 1.00D-01 BMatC= 3.16D-11 BMatP= 2.04D-10
 IDIUse=1 WtCom= 1.00D+00 WtEn= 0.00D+00
 Coeff-Com:  0.127D+00 0.652D-01-0.388D+00-0.233D+00 0.143D+01
 Coeff:      0.127D+00 0.652D-01-0.388D+00-0.233D+00 0.143D+01
 Gap=     0.309 Goal=   None    Shift=    0.000
 RMSDP=2.27D-07 MaxDP=1.39D-05 DE=-5.94D-10 OVMax= 8.99D-06

 Cycle  14  Pass 1  IDiag  1:
 RMSU=  7.12D-08    CP:  1.00D+00  1.53D+00  1.98D+00  1.24D+00  1.45D+00
 E= -701.568215728005     Delta-E=       -0.000000000143 Rises=F Damp=F
 DIIS: error= 6.82D-08 at cycle   6 NSaved=   6.
 NSaved= 6 IEnMin= 6 EnMin= -701.568215728005     IErMin= 6 ErrMin= 6.82D-08
 ErrMax= 6.82D-08  0.00D+00 EMaxC= 1.00D-01 BMatC= 6.02D-12 BMatP= 3.16D-11
 IDIUse=1 WtCom= 1.00D+00 WtEn= 0.00D+00
 Coeff-Com:  0.444D-01 0.246D-01-0.134D+00-0.160D+00 0.308D+00 0.917D+00
 Coeff:      0.444D-01 0.246D-01-0.134D+00-0.160D+00 0.308D+00 0.917D+00
 Gap=     0.309 Goal=   None    Shift=    0.000
 RMSDP=7.36D-08 MaxDP=5.18D-06 DE=-1.43D-10 OVMax= 3.34D-06

 Cycle  15  Pass 1  IDiag  1:
 RMSU=  1.87D-08    CP:  1.00D+00  1.55D+00  2.01D+00  1.29D+00  1.56D+00
                    CP:  1.32D+00
 E= -701.568215728067     Delta-E=       -0.000000000062 Rises=F Damp=F
 DIIS: error= 2.94D-08 at cycle   7 NSaved=   7.
 NSaved= 7 IEnMin= 7 EnMin= -701.568215728067     IErMin= 7 ErrMin= 2.94D-08
 ErrMax= 2.94D-08  0.00D+00 EMaxC= 1.00D-01 BMatC= 1.70D-12 BMatP= 6.02D-12
 IDIUse=1 WtCom= 1.00D+00 WtEn= 0.00D+00
 Coeff-Com: -0.394D-01-0.195D-01 0.124D+00 0.671D-01-0.431D+00 0.277D-01
 Coeff-Com:  0.127D+01
 Coeff:     -0.394D-01-0.195D-01 0.124D+00 0.671D-01-0.431D+00 0.277D-01
 Coeff:      0.127D+01
 Gap=     0.309 Goal=   None    Shift=    0.000
 RMSDP=4.29D-08 MaxDP=2.89D-06 DE=-6.18D-11 OVMax= 1.86D-06

 Cycle  16  Pass 1  IDiag  1:
 RMSU=  1.23D-08    CP:  1.00D+00  1.55D+00  2.02D+00  1.31D+00  1.60D+00
                    CP:  1.63D+00  1.57D+00
 E= -701.568215728011     Delta-E=        0.000000000056 Rises=F Damp=F
 DIIS: error= 9.81D-09 at cycle   8 NSaved=   8.
 NSaved= 8 IEnMin= 7 EnMin= -701.568215728067     IErMin= 8 ErrMin= 9.81D-09
 ErrMax= 9.81D-09  0.00D+00 EMaxC= 1.00D-01 BMatC= 1.99D-13 BMatP= 1.70D-12
 IDIUse=1 WtCom= 1.00D+00 WtEn= 0.00D+00
 Coeff-Com: -0.164D-01-0.883D-02 0.496D-01 0.406D-01-0.150D+00-0.125D+00
 Coeff-Com:  0.228D+00 0.982D+00
 Coeff:     -0.164D-01-0.883D-02 0.496D-01 0.406D-01-0.150D+00-0.125D+00
 Coeff:      0.228D+00 0.982D+00
 Gap=     0.309 Goal=   None    Shift=    0.000
 RMSDP=1.75D-08 MaxDP=9.93D-07 DE= 5.62D-11 OVMax= 7.00D-07

 Cycle  17  Pass 1  IDiag  1:
 RMSU=  4.88D-09    CP:  1.00D+00  1.56D+00  2.02D+00  1.32D+00  1.61D+00
                    CP:  1.73D+00  1.66D+00  1.34D+00
 E= -701.568215728070     Delta-E=       -0.000000000059 Rises=F Damp=F
 DIIS: error= 3.47D-09 at cycle   9 NSaved=   9.
 NSaved= 9 IEnMin= 9 EnMin= -701.568215728070     IErMin= 9 ErrMin= 3.47D-09
 ErrMax= 3.47D-09  0.00D+00 EMaxC= 1.00D-01 BMatC= 2.51D-14 BMatP= 1.99D-13
 IDIUse=1 WtCom= 1.00D+00 WtEn= 0.00D+00
 Coeff-Com:  0.371D-02 0.182D-02-0.115D-01-0.500D-02 0.441D-01-0.997D-02
 Coeff-Com: -0.181D+00 0.101D+00 0.106D+01
 Coeff:      0.371D-02 0.182D-02-0.115D-01-0.500D-02 0.441D-01-0.997D-02
 Coeff:     -0.181D+00 0.101D+00 0.106D+01
 Gap=     0.309 Goal=   None    Shift=    0.000
 RMSDP=4.69D-09 MaxDP=2.58D-07 DE=-5.91D-11 OVMax= 1.51D-07

 SCF Done:  E(RHF) =  -701.568215728     A.U. after   17 cycles
            NFock= 17  Conv=0.47D-08     -V/T= 2.0014
 KE= 7.005581273885D+02 PE=-3.455494731144D+03 EE= 1.140812499271D+03
 Leave Link  502 at Sun Jul 18 15:34:13 2021, MaxMem=   262144000 cpu:            2529.5 elap:             638.0
 (Enter /dades/curu/g16A03_MST/g16/l801.exe)
 ExpMin= 2.97D-02 ExpMax= 1.17D+04 ExpMxC= 4.01D+02 IAcc=3 IRadAn=         5 AccDes= 0.00D+00
 HarFok:  IExCor=  205 AccDes= 0.00D+00 IRadAn=         5 IDoV=-2 UseB2=F ITyADJ=14
 ICtDFT= 12500011 ScaDFX=  1.000000  1.000000  1.000000  1.000000
 Largest valence mixing into a core orbital is  1.12D-04
 Largest core mixing into a valence orbital is  3.77D-05
 Range of M.O.s used for correlation:    15   430
 NBasis=   430 NAE=    52 NBE=    52 NFC=    14 NFV=     0
 NROrb=    416 NOA=    38 NOB=    38 NVA=   378 NVB=   378

 **** Warning!!: The largest alpha MO coefficient is  0.12566273D+03

 Leave Link  801 at Sun Jul 18 15:34:14 2021, MaxMem=   262144000 cpu:               1.3 elap:               0.5
 (Enter /dades/curu/g16A03_MST/g16/l906.exe)
 FulOut=F Deriv=F AODrv=F NAtomX=    26
   MMem=           9  MDisk=          38 MDiskD=          38
  W3Min=     6578712 MinDsk=     7262815 NBas6D=         458
 NBas2D=      105729    NTT=      105111    LW2=     2000000
    MDV=   260787540 MDiskM=        7847 NBas2p=       99728
 Disk-based method using OVN memory for 38 occupieds at a time.
 Estimated scratch disk usage=  3776652224 words.
 IMap=   1   2   3   4   5   6   7   8   9  10  11  12  13  14  15  16  17  18  19  20
 IMap=  21  22  23  24  25  26  27  28  29  30  31  32  33  34  35  36  37  38
 Actual    scratch disk usage=  3589664704 words.
 JobTyp=1 Pass  1:  I=   1 to  38 NPSUse=  4 ParTrn=T ParDer=T DoDerP=F.
