 Entering Gaussian System, Link 0=g16
 Input=SET_328_BBB301_conf1.geo_165_120_315_OCTANOL.dat
 Output=SET_328_BBB301_conf1.geo_165_120_315_OCTANOL.log
 Initial command:
 /dades/curu/g16A03_MST/g16/l1.exe "/tmp/ubator02/1839652/Gau-67266.inp" -scrdir="/tmp/ubator02/1839652/"
 Entering Link 1 = /dades/curu/g16A03_MST/g16/l1.exe PID=     67267.
  
 Copyright (c) 1988,1990,1992,1993,1995,1998,2003,2009,2016,
            Gaussian, Inc.  All Rights Reserved.
  
 This is part of the Gaussian(R) 16 program.  It is based on
 the Gaussian(R) 09 system (copyright 2009, Gaussian, Inc.),
 the Gaussian(R) 03 system (copyright 2003, Gaussian, Inc.),
 the Gaussian(R) 98 system (copyright 1998, Gaussian, Inc.),
 the Gaussian(R) 94 system (copyright 1995, Gaussian, Inc.),
 the Gaussian 92(TM) system (copyright 1992, Gaussian, Inc.),
 the Gaussian 90(TM) system (copyright 1990, Gaussian, Inc.),
 the Gaussian 88(TM) system (copyright 1988, Gaussian, Inc.),
 the Gaussian 86(TM) system (copyright 1986, Carnegie Mellon
 University), and the Gaussian 82(TM) system (copyright 1983,
 Carnegie Mellon University). Gaussian is a federally registered
 trademark of Gaussian, Inc.
  
 This software contains proprietary and confidential information,
 including trade secrets, belonging to Gaussian, Inc.
  
 This software is provided under written license and may be
 used, copied, transmitted, or stored only in accord with that
 written license.
  
 The following legend is applicable only to US Government
 contracts under FAR:
  
                    RESTRICTED RIGHTS LEGEND
  
 Use, reproduction and disclosure by the US Government is
 subject to restrictions as set forth in subparagraphs (a)
 and (c) of the Commercial Computer Software - Restricted
 Rights clause in FAR 52.227-19.
  
 Gaussian, Inc.
 340 Quinnipiac St., Bldg. 40, Wallingford CT 06492
  
  
 ---------------------------------------------------------------
 Warning -- This program may not be used in any manner that
 competes with the business of Gaussian, Inc. or will provide
 assistance to any competitor of Gaussian, Inc.  The licensee
 of this program is prohibited from giving any competitor of
 Gaussian, Inc. access to this program.  By using this program,
 the user acknowledges that Gaussian, Inc. is engaged in the
 business of creating and licensing software in the field of
 computational chemistry and represents and warrants to the
 licensee that it is not a competitor of Gaussian, Inc. and that
 it will not use this program in any manner prohibited above.
 ---------------------------------------------------------------
  

 Cite this work as:
 Gaussian 16, Revision A.03,
 M. J. Frisch, G. W. Trucks, H. B. Schlegel, G. E. Scuseria, 
 M. A. Robb, J. R. Cheeseman, G. Scalmani, V. Barone, 
 G. A. Petersson, H. Nakatsuji, X. Li, M. Caricato, A. V. Marenich, 
 J. Bloino, B. G. Janesko, R. Gomperts, B. Mennucci, H. P. Hratchian, 
 J. V. Ortiz, A. F. Izmaylov, J. L. Sonnenberg, D. Williams-Young, 
 F. Ding, F. Lipparini, F. Egidi, J. Goings, B. Peng, A. Petrone, 
 T. Henderson, D. Ranasinghe, V. G. Zakrzewski, J. Gao, N. Rega, 
 G. Zheng, W. Liang, M. Hada, M. Ehara, K. Toyota, R. Fukuda, 
 J. Hasegawa, M. Ishida, T. Nakajima, Y. Honda, O. Kitao, H. Nakai, 
 T. Vreven, K. Throssell, J. A. Montgomery, Jr., J. E. Peralta, 
 F. Ogliaro, M. J. Bearpark, J. J. Heyd, E. N. Brothers, K. N. Kudin, 
 V. N. Staroverov, T. A. Keith, R. Kobayashi, J. Normand, 
 K. Raghavachari, A. P. Rendell, J. C. Burant, S. S. Iyengar, 
 J. Tomasi, M. Cossi, J. M. Millam, M. Klene, C. Adamo, R. Cammi, 
 J. W. Ochterski, R. L. Martin, K. Morokuma, O. Farkas, 
 J. B. Foresman, and D. J. Fox, Gaussian, Inc., Wallingford CT, 2016.
 
 ******************************************
 Gaussian 16:  ES64L-G16RevA.03 25-Dec-2016
                18-Jul-2021 
 ******************************************
 %mem=800MB
 %nproc=4
 Will use up to    4 processors via shared memory.
 %chk=SET_328_BBB301_conf1.geo_165_120_315.chk
 ---------------------------------------------------------------
 #p b3lyp/6-31G(d) opt freq scrf=(iefpcm,read,solvent=n-octanol)
 ---------------------------------------------------------------
 1/18=20,19=15,26=3,38=1,40=2/1,3;
 2/9=110,12=2,17=6,18=5,40=1/2;
 3/5=1,6=6,7=1,11=2,25=1,30=1,70=2203,71=1,72=25,74=-5/1,2,3;
 4//1;
 5/5=2,38=5,53=25/2;
 6/7=2,8=2,9=2,10=2,28=1/1;
 7//1,2,3,16;
 1/18=20,19=15,26=3/3(2);
 2/9=110/2;
 99//99;
 2/9=110/2;
 3/5=1,6=6,7=1,11=2,25=1,30=1,70=2205,71=1,72=25,74=-5/1,2,3;
 4/5=5,16=3,69=1/1;
 5/5=2,38=5,53=25/2;
 7//1,2,3,16;
 1/18=20,19=15,26=3/3(-5);
 2/9=110/2;
 6/7=2,8=2,9=2,10=2,19=2,28=1/1;
 99/9=1/99;
 Leave Link    1 at Sun Jul 18 14:54:15 2021, MaxMem=   104857600 cpu:               0.0 elap:               0.0
 (Enter /dades/curu/g16A03_MST/g16/l101.exe)
 ---------------------------------------------
 SET_328_BBB301_conf1.geo_165_120_315 geometry
 ---------------------------------------------
 Symbolic Z-matrix:
 Charge =  1 Multiplicity = 1
 C                    -1.295     4.206    -2.136 
 H                    -1.711     5.167    -1.826 
 H                    -1.569     3.916    -3.153 
 H                    -0.264     4.566    -2.115 
 C                    -1.457     3.115    -1.064 
 C                    -0.995     3.623     0.25 
 H                    -1.601     4.408     0.706 
 H                     0.069     3.864     0.226 
 H                    -1.012     2.768     0.93 
 C                    -2.86      2.71     -0.88 
 H                    -3.479     3.583    -0.662 
 H                    -2.987     1.993    -0.066 
 H                    -3.302     2.266    -1.774 
 N                    -0.8       1.899    -1.546 
 H                    -1.437     1.438    -2.163 
 C                    -0.312     0.845    -0.504 
 H                    -1.063     0.735     0.283 
 H                     0.517     1.335     0.012 
 C                     0.162    -0.575    -1.058 
 O                     1.       -0.271    -2.203 
 H                     0.606     0.582    -2.459 
 H                    -0.77     -1.092    -1.302 
 C                     0.936    -1.325    -0.043 
 C                     0.434    -2.576     0.416 
 H                    -0.522    -2.882    -0.003 
 C                     1.203    -3.37      1.3 
 C                     0.502    -4.634     1.819 
 O                     1.52     -5.744     1.993 
 H                     1.017    -6.536     1.73 
 H                    -0.279    -5.059     1.183 
 H                     0.049    -4.494     2.804 
 C                     2.4      -2.879     1.826 
 O                     3.065    -3.514     2.846 
 H                     2.934    -4.476     2.767 
 C                     2.852    -1.61      1.443 
 H                     3.805    -1.191     1.758 
 C                     2.126    -0.856     0.479 
 H                     2.557     0.088     0.157 
 H                    -0.005     2.18     -2.083 
 
 ITRead=  0  0  0  0  0  0  0  0  0  0  0  0  0  0  0  0  0  0  0  0
 ITRead=  0  0  0  0  0  0  0  0  0  0  0  0  0  0  0  0  0  0  0
 MicOpt= -1 -1 -1 -1 -1 -1 -1 -1 -1 -1 -1 -1 -1 -1 -1 -1 -1 -1 -1 -1
 MicOpt= -1 -1 -1 -1 -1 -1 -1 -1 -1 -1 -1 -1 -1 -1 -1 -1 -1 -1 -1
 NAtoms=     39 NQM=       39 NQMF=       0 NMMI=      0 NMMIF=      0
                NMic=       0 NMicF=      0.
                    Isotopes and Nuclear Properties:
 (Nuclear quadrupole moments (NQMom) in fm**2, nuclear magnetic moments (NMagM)
  in nuclear magnetons)

  Atom         1           2           3           4           5           6           7           8           9          10
 IAtWgt=          12           1           1           1          12          12           1           1           1          12
 AtmWgt=  12.0000000   1.0078250   1.0078250   1.0078250  12.0000000  12.0000000   1.0078250   1.0078250   1.0078250  12.0000000
 NucSpn=           0           1           1           1           0           0           1           1           1           0
 AtZEff=  -0.0000000  -0.0000000  -0.0000000  -0.0000000  -0.0000000  -0.0000000  -0.0000000  -0.0000000  -0.0000000  -0.0000000
 NQMom=    0.0000000   0.0000000   0.0000000   0.0000000   0.0000000   0.0000000   0.0000000   0.0000000   0.0000000   0.0000000
 NMagM=    0.0000000   2.7928460   2.7928460   2.7928460   0.0000000   0.0000000   2.7928460   2.7928460   2.7928460   0.0000000
 AtZNuc=   6.0000000   1.0000000   1.0000000   1.0000000   6.0000000   6.0000000   1.0000000   1.0000000   1.0000000   6.0000000

  Atom        11          12          13          14          15          16          17          18          19          20
 IAtWgt=           1           1           1          14           1          12           1           1          12          16
 AtmWgt=   1.0078250   1.0078250   1.0078250  14.0030740   1.0078250  12.0000000   1.0078250   1.0078250  12.0000000  15.9949146
 NucSpn=           1           1           1           2           1           0           1           1           0           0
 AtZEff=  -0.0000000  -0.0000000  -0.0000000  -0.0000000  -0.0000000  -0.0000000  -0.0000000  -0.0000000  -0.0000000  -0.0000000
 NQMom=    0.0000000   0.0000000   0.0000000   2.0440000   0.0000000   0.0000000   0.0000000   0.0000000   0.0000000   0.0000000
 NMagM=    2.7928460   2.7928460   2.7928460   0.4037610   2.7928460   0.0000000   2.7928460   2.7928460   0.0000000   0.0000000
 AtZNuc=   1.0000000   1.0000000   1.0000000   7.0000000   1.0000000   6.0000000   1.0000000   1.0000000   6.0000000   8.0000000

  Atom        21          22          23          24          25          26          27          28          29          30
 IAtWgt=           1           1          12          12           1          12          12          16           1           1
 AtmWgt=   1.0078250   1.0078250  12.0000000  12.0000000   1.0078250  12.0000000  12.0000000  15.9949146   1.0078250   1.0078250
 NucSpn=           1           1           0           0           1           0           0           0           1           1
 AtZEff=  -0.0000000  -0.0000000  -0.0000000  -0.0000000  -0.0000000  -0.0000000  -0.0000000  -0.0000000  -0.0000000  -0.0000000
 NQMom=    0.0000000   0.0000000   0.0000000   0.0000000   0.0000000   0.0000000   0.0000000   0.0000000   0.0000000   0.0000000
 NMagM=    2.7928460   2.7928460   0.0000000   0.0000000   2.7928460   0.0000000   0.0000000   0.0000000   2.7928460   2.7928460
 AtZNuc=   1.0000000   1.0000000   6.0000000   6.0000000   1.0000000   6.0000000   6.0000000   8.0000000   1.0000000   1.0000000

  Atom        31          32          33          34          35          36          37          38          39
 IAtWgt=           1          12          16           1          12           1          12           1           1
 AtmWgt=   1.0078250  12.0000000  15.9949146   1.0078250  12.0000000   1.0078250  12.0000000   1.0078250   1.0078250
 NucSpn=           1           0           0           1           0           1           0           1           1
 AtZEff=  -0.0000000  -0.0000000  -0.0000000  -0.0000000  -0.0000000  -0.0000000  -0.0000000  -0.0000000  -0.0000000
 NQMom=    0.0000000   0.0000000   0.0000000   0.0000000   0.0000000   0.0000000   0.0000000   0.0000000   0.0000000
 NMagM=    2.7928460   0.0000000   0.0000000   2.7928460   0.0000000   2.7928460   0.0000000   2.7928460   2.7928460
 AtZNuc=   1.0000000   6.0000000   8.0000000   1.0000000   6.0000000   1.0000000   6.0000000   1.0000000   1.0000000
 Leave Link  101 at Sun Jul 18 14:54:15 2021, MaxMem=   104857600 cpu:               0.1 elap:               0.1
 (Enter /dades/curu/g16A03_MST/g16/l103.exe)

 GradGradGradGradGradGradGradGradGradGradGradGradGradGradGradGradGradGrad
 Berny optimization.
 Initialization pass.
                           ----------------------------
                           !    Initial Parameters    !
                           ! (Angstroms and Degrees)  !
 --------------------------                            --------------------------
 ! Name  Definition              Value          Derivative Info.                !
 --------------------------------------------------------------------------------
 ! R1    R(1,2)                  1.0921         estimate D2E/DX2                !
 ! R2    R(1,3)                  1.0925         estimate D2E/DX2                !
 ! R3    R(1,4)                  1.0922         estimate D2E/DX2                !
 ! R4    R(1,5)                  1.5381         estimate D2E/DX2                !
 ! R5    R(5,6)                  1.4826         estimate D2E/DX2                !
 ! R6    R(5,10)                 1.4718         estimate D2E/DX2                !
 ! R7    R(5,14)                 1.4638         estimate D2E/DX2                !
 ! R8    R(6,7)                  1.0915         estimate D2E/DX2                !
 ! R9    R(6,8)                  1.0912         estimate D2E/DX2                !
 ! R10   R(6,9)                  1.0926         estimate D2E/DX2                !
 ! R11   R(10,11)                1.0922         estimate D2E/DX2                !
 ! R12   R(10,12)                1.0922         estimate D2E/DX2                !
 ! R13   R(10,13)                1.0917         estimate D2E/DX2                !
 ! R14   R(14,15)                0.9995         estimate D2E/DX2                !
 ! R15   R(14,16)                1.5604         estimate D2E/DX2                !
 ! R16   R(14,39)                0.9997         estimate D2E/DX2                !
 ! R17   R(16,17)                1.0934         estimate D2E/DX2                !
 ! R18   R(16,18)                1.0925         estimate D2E/DX2                !
 ! R19   R(16,19)                1.5962         estimate D2E/DX2                !
 ! R20   R(19,20)                1.4511         estimate D2E/DX2                !
 ! R21   R(19,22)                1.0934         estimate D2E/DX2                !
 ! R22   R(19,23)                1.4805         estimate D2E/DX2                !
 ! R23   R(20,21)                0.9738         estimate D2E/DX2                !
 ! R24   R(23,24)                1.424          estimate D2E/DX2                !
 ! R25   R(23,37)                1.3815         estimate D2E/DX2                !
 ! R26   R(24,25)                1.0877         estimate D2E/DX2                !
 ! R27   R(24,26)                1.4154         estimate D2E/DX2                !
 ! R28   R(26,27)                1.5357         estimate D2E/DX2                !
 ! R29   R(26,32)                1.3966         estimate D2E/DX2                !
 ! R30   R(27,28)                1.5161         estimate D2E/DX2                !
 ! R31   R(27,30)                1.0932         estimate D2E/DX2                !
 ! R32   R(27,31)                1.0932         estimate D2E/DX2                !
 ! R33   R(28,29)                0.9744         estimate D2E/DX2                !
 ! R34   R(32,33)                1.3733         estimate D2E/DX2                !
 ! R35   R(32,35)                1.4005         estimate D2E/DX2                !
 ! R36   R(33,34)                0.9741         estimate D2E/DX2                !
 ! R37   R(35,36)                1.0877         estimate D2E/DX2                !
 ! R38   R(35,37)                1.423          estimate D2E/DX2                !
 ! R39   R(37,38)                1.0865         estimate D2E/DX2                !
 ! A1    A(2,1,3)              113.7222         estimate D2E/DX2                !
 ! A2    A(2,1,4)               93.6735         estimate D2E/DX2                !
 ! A3    A(2,1,5)              112.7191         estimate D2E/DX2                !
 ! A4    A(3,1,4)              110.0072         estimate D2E/DX2                !
 ! A5    A(3,1,5)              115.7292         estimate D2E/DX2                !
 ! A6    A(4,1,5)              108.6514         estimate D2E/DX2                !
 ! A7    A(1,5,6)              109.9894         estimate D2E/DX2                !
 ! A8    A(1,5,10)             112.5019         estimate D2E/DX2                !
 ! A9    A(1,5,14)             108.2087         estimate D2E/DX2                !
 ! A10   A(6,5,10)             106.2917         estimate D2E/DX2                !
 ! A11   A(6,5,14)             115.8882         estimate D2E/DX2                !
 ! A12   A(10,5,14)            103.9116         estimate D2E/DX2                !
 ! A13   A(5,6,7)              116.3387         estimate D2E/DX2                !
 ! A14   A(5,6,8)              111.1017         estimate D2E/DX2                !
 ! A15   A(5,6,9)              106.178          estimate D2E/DX2                !
 ! A16   A(7,6,8)              113.0603         estimate D2E/DX2                !
 ! A17   A(7,6,9)              107.1067         estimate D2E/DX2                !
 ! A18   A(8,6,9)              101.6359         estimate D2E/DX2                !
 ! A19   A(5,10,11)            110.1979         estimate D2E/DX2                !
 ! A20   A(5,10,12)            112.623          estimate D2E/DX2                !
 ! A21   A(5,10,13)            113.2964         estimate D2E/DX2                !
 ! A22   A(11,10,12)           108.0645         estimate D2E/DX2                !
 ! A23   A(11,10,13)           105.016          estimate D2E/DX2                !
 ! A24   A(12,10,13)           107.2336         estimate D2E/DX2                !
 ! A25   A(5,14,15)            107.4803         estimate D2E/DX2                !
 ! A26   A(5,14,16)            118.7909         estimate D2E/DX2                !
 ! A27   A(5,14,39)            107.4766         estimate D2E/DX2                !
 ! A28   A(15,14,16)           107.4575         estimate D2E/DX2                !
 ! A29   A(15,14,39)           107.751          estimate D2E/DX2                !
 ! A30   A(16,14,39)           107.45           estimate D2E/DX2                !
 ! A31   A(14,16,17)           109.5            estimate D2E/DX2                !
 ! A32   A(14,16,18)           104.4627         estimate D2E/DX2                !
 ! A33   A(14,16,19)           117.516          estimate D2E/DX2                !
 ! A34   A(17,16,18)           103.0825         estimate D2E/DX2                !
 ! A35   A(17,16,19)           111.3632         estimate D2E/DX2                !
 ! A36   A(18,16,19)           109.7296         estimate D2E/DX2                !
 ! A37   A(16,19,20)           105.0092         estimate D2E/DX2                !
 ! A38   A(16,19,22)           104.1803         estimate D2E/DX2                !
 ! A39   A(16,19,23)           111.59           estimate D2E/DX2                !
 ! A40   A(20,19,22)           114.5341         estimate D2E/DX2                !
 ! A41   A(20,19,23)           110.193          estimate D2E/DX2                !
 ! A42   A(22,19,23)           111.0451         estimate D2E/DX2                !
 ! A43   A(19,20,21)            99.049          estimate D2E/DX2                !
 ! A44   A(19,23,24)           118.7994         estimate D2E/DX2                !
 ! A45   A(19,23,37)           122.5071         estimate D2E/DX2                !
 ! A46   A(24,23,37)           118.6933         estimate D2E/DX2                !
 ! A47   A(23,24,25)           115.6471         estimate D2E/DX2                !
 ! A48   A(23,24,26)           120.174          estimate D2E/DX2                !
 ! A49   A(25,24,26)           124.0767         estimate D2E/DX2                !
 ! A50   A(24,26,27)           115.1378         estimate D2E/DX2                !
 ! A51   A(24,26,32)           120.2432         estimate D2E/DX2                !
 ! A52   A(27,26,32)           123.5933         estimate D2E/DX2                !
 ! A53   A(26,27,28)           109.5652         estimate D2E/DX2                !
 ! A54   A(26,27,30)           116.7098         estimate D2E/DX2                !
 ! A55   A(26,27,31)           112.8459         estimate D2E/DX2                !
 ! A56   A(28,27,30)           105.1788         estimate D2E/DX2                !
 ! A57   A(28,27,31)           105.5803         estimate D2E/DX2                !
 ! A58   A(30,27,31)           106.1379         estimate D2E/DX2                !
 ! A59   A(27,28,29)           102.5617         estimate D2E/DX2                !
 ! A60   A(26,32,33)           122.1547         estimate D2E/DX2                !
 ! A61   A(26,32,35)           119.4834         estimate D2E/DX2                !
 ! A62   A(33,32,35)           117.7638         estimate D2E/DX2                !
 ! A63   A(32,33,34)           109.3478         estimate D2E/DX2                !
 ! A64   A(32,35,36)           123.5491         estimate D2E/DX2                !
 ! A65   A(32,35,37)           120.0482         estimate D2E/DX2                !
 ! A66   A(36,35,37)           116.0468         estimate D2E/DX2                !
 ! A67   A(23,37,35)           121.0351         estimate D2E/DX2                !
 ! A68   A(23,37,38)           121.6451         estimate D2E/DX2                !
 ! A69   A(35,37,38)           117.3059         estimate D2E/DX2                !
 ! D1    D(2,1,5,6)            -49.1998         estimate D2E/DX2                !
 ! D2    D(2,1,5,10)            69.0814         estimate D2E/DX2                !
 ! D3    D(2,1,5,14)          -176.6996         estimate D2E/DX2                !
 ! D4    D(3,1,5,6)            177.4927         estimate D2E/DX2                !
 ! D5    D(3,1,5,10)           -64.2261         estimate D2E/DX2                !
 ! D6    D(3,1,5,14)            49.9929         estimate D2E/DX2                !
 ! D7    D(4,1,5,6)             53.1945         estimate D2E/DX2                !
 ! D8    D(4,1,5,10)           171.4757         estimate D2E/DX2                !
 ! D9    D(4,1,5,14)           -74.3053         estimate D2E/DX2                !
 ! D10   D(1,5,6,7)             68.2446         estimate D2E/DX2                !
 ! D11   D(1,5,6,8)            -63.02           estimate D2E/DX2                !
 ! D12   D(1,5,6,9)           -172.7177         estimate D2E/DX2                !
 ! D13   D(10,5,6,7)           -53.8013         estimate D2E/DX2                !
 ! D14   D(10,5,6,8)           174.9341         estimate D2E/DX2                !
 ! D15   D(10,5,6,9)            65.2364         estimate D2E/DX2                !
 ! D16   D(14,5,6,7)          -168.6527         estimate D2E/DX2                !
 ! D17   D(14,5,6,8)            60.0827         estimate D2E/DX2                !
 ! D18   D(14,5,6,9)           -49.6149         estimate D2E/DX2                !
 ! D19   D(1,5,10,11)          -54.7586         estimate D2E/DX2                !
 ! D20   D(1,5,10,12)         -175.5062         estimate D2E/DX2                !
 ! D21   D(1,5,10,13)           62.5627         estimate D2E/DX2                !
 ! D22   D(6,5,10,11)           65.6768         estimate D2E/DX2                !
 ! D23   D(6,5,10,12)          -55.0708         estimate D2E/DX2                !
 ! D24   D(6,5,10,13)         -177.0018         estimate D2E/DX2                !
 ! D25   D(14,5,10,11)        -171.5702         estimate D2E/DX2                !
 ! D26   D(14,5,10,12)          67.6823         estimate D2E/DX2                !
 ! D27   D(14,5,10,13)         -54.2488         estimate D2E/DX2                !
 ! D28   D(1,5,14,15)          -81.7623         estimate D2E/DX2                !
 ! D29   D(1,5,14,16)          156.1003         estimate D2E/DX2                !
 ! D30   D(1,5,14,39)           33.9762         estimate D2E/DX2                !
 ! D31   D(6,5,14,15)          154.2057         estimate D2E/DX2                !
 ! D32   D(6,5,14,16)           32.0683         estimate D2E/DX2                !
 ! D33   D(6,5,14,39)          -90.0558         estimate D2E/DX2                !
 ! D34   D(10,5,14,15)          38.0092         estimate D2E/DX2                !
 ! D35   D(10,5,14,16)         -84.1283         estimate D2E/DX2                !
 ! D36   D(10,5,14,39)         153.7476         estimate D2E/DX2                !
 ! D37   D(5,14,16,17)          41.1033         estimate D2E/DX2                !
 ! D38   D(5,14,16,18)         -68.7322         estimate D2E/DX2                !
 ! D39   D(5,14,16,19)         169.4341         estimate D2E/DX2                !
 ! D40   D(15,14,16,17)        -81.0456         estimate D2E/DX2                !
 ! D41   D(15,14,16,18)        169.1189         estimate D2E/DX2                !
 ! D42   D(15,14,16,19)         47.2853         estimate D2E/DX2                !
 ! D43   D(39,14,16,17)        163.2408         estimate D2E/DX2                !
 ! D44   D(39,14,16,18)         53.4052         estimate D2E/DX2                !
 ! D45   D(39,14,16,19)        -68.4284         estimate D2E/DX2                !
 ! D46   D(14,16,19,20)         44.8352         estimate D2E/DX2                !
 ! D47   D(14,16,19,22)        -75.9058         estimate D2E/DX2                !
 ! D48   D(14,16,19,23)        164.205          estimate D2E/DX2                !
 ! D49   D(17,16,19,20)        172.274          estimate D2E/DX2                !
 ! D50   D(17,16,19,22)         51.5329         estimate D2E/DX2                !
 ! D51   D(17,16,19,23)        -68.3563         estimate D2E/DX2                !
 ! D52   D(18,16,19,20)        -74.242          estimate D2E/DX2                !
 ! D53   D(18,16,19,22)        165.0169         estimate D2E/DX2                !
 ! D54   D(18,16,19,23)         45.1277         estimate D2E/DX2                !
 ! D55   D(16,19,20,21)        -27.1407         estimate D2E/DX2                !
 ! D56   D(22,19,20,21)         86.5113         estimate D2E/DX2                !
 ! D57   D(23,19,20,21)       -147.4402         estimate D2E/DX2                !
 ! D58   D(16,19,23,24)        118.4126         estimate D2E/DX2                !
 ! D59   D(16,19,23,37)        -61.4224         estimate D2E/DX2                !
 ! D60   D(20,19,23,24)       -125.3368         estimate D2E/DX2                !
 ! D61   D(20,19,23,37)         54.8282         estimate D2E/DX2                !
 ! D62   D(22,19,23,24)          2.656          estimate D2E/DX2                !
 ! D63   D(22,19,23,37)       -177.179          estimate D2E/DX2                !
 ! D64   D(19,23,24,25)         -1.7938         estimate D2E/DX2                !
 ! D65   D(19,23,24,26)        174.6799         estimate D2E/DX2                !
 ! D66   D(37,23,24,25)        178.0475         estimate D2E/DX2                !
 ! D67   D(37,23,24,26)         -5.4787         estimate D2E/DX2                !
 ! D68   D(19,23,37,35)       -179.3024         estimate D2E/DX2                !
 ! D69   D(19,23,37,38)         -0.6957         estimate D2E/DX2                !
 ! D70   D(24,23,37,35)          0.8624         estimate D2E/DX2                !
 ! D71   D(24,23,37,38)        179.4691         estimate D2E/DX2                !
 ! D72   D(23,24,26,27)        174.8171         estimate D2E/DX2                !
 ! D73   D(23,24,26,32)          5.99           estimate D2E/DX2                !
 ! D74   D(25,24,26,27)         -9.0213         estimate D2E/DX2                !
 ! D75   D(25,24,26,32)       -177.8483         estimate D2E/DX2                !
 ! D76   D(24,26,27,28)        145.7315         estimate D2E/DX2                !
 ! D77   D(24,26,27,30)         26.3981         estimate D2E/DX2                !
 ! D78   D(24,26,27,31)        -96.9431         estimate D2E/DX2                !
 ! D79   D(32,26,27,28)        -45.8617         estimate D2E/DX2                !
 ! D80   D(32,26,27,30)       -165.1951         estimate D2E/DX2                !
 ! D81   D(32,26,27,31)         71.4637         estimate D2E/DX2                !
 ! D82   D(24,26,32,33)        169.1681         estimate D2E/DX2                !
 ! D83   D(24,26,32,35)         -1.7644         estimate D2E/DX2                !
 ! D84   D(27,26,32,33)          1.325          estimate D2E/DX2                !
 ! D85   D(27,26,32,35)       -169.6074         estimate D2E/DX2                !
 ! D86   D(26,27,28,29)       -143.6331         estimate D2E/DX2                !
 ! D87   D(30,27,28,29)        -17.4282         estimate D2E/DX2                !
 ! D88   D(31,27,28,29)         94.5733         estimate D2E/DX2                !
 ! D89   D(26,32,33,34)         33.0794         estimate D2E/DX2                !
 ! D90   D(35,32,33,34)       -155.8396         estimate D2E/DX2                !
 ! D91   D(26,32,35,36)       -175.7249         estimate D2E/DX2                !
 ! D92   D(26,32,35,37)         -2.8507         estimate D2E/DX2                !
 ! D93   D(33,32,35,36)         12.9475         estimate D2E/DX2                !
 ! D94   D(33,32,35,37)       -174.1783         estimate D2E/DX2                !
 ! D95   D(32,35,37,23)          3.3272         estimate D2E/DX2                !
 ! D96   D(32,35,37,38)       -175.3379         estimate D2E/DX2                !
 ! D97   D(36,35,37,23)        176.7195         estimate D2E/DX2                !
 ! D98   D(36,35,37,38)         -1.9456         estimate D2E/DX2                !
 --------------------------------------------------------------------------------
 Trust Radius=3.00D-01 FncErr=1.00D-07 GrdErr=1.00D-06 EigMax=2.50D+02 EigMin=1.00D-04
 Number of steps in this run=    216 maximum allowed number of steps=    234.
 GradGradGradGradGradGradGradGradGradGradGradGradGradGradGradGradGradGrad

 Leave Link  103 at Sun Jul 18 14:54:15 2021, MaxMem=   104857600 cpu:               0.0 elap:               0.0
 (Enter /dades/curu/g16A03_MST/g16/l202.exe)
                          Input orientation:                          
 ---------------------------------------------------------------------
 Center     Atomic      Atomic             Coordinates (Angstroms)
 Number     Number       Type             X           Y           Z
 ---------------------------------------------------------------------
      1          6           0       -1.295000    4.206000   -2.136000
      2          1           0       -1.711000    5.167000   -1.826000
      3          1           0       -1.569000    3.916000   -3.153000
      4          1           0       -0.264000    4.566000   -2.115000
      5          6           0       -1.457000    3.115000   -1.064000
      6          6           0       -0.995000    3.623000    0.250000
      7          1           0       -1.601000    4.408000    0.706000
      8          1           0        0.069000    3.864000    0.226000
      9          1           0       -1.012000    2.768000    0.930000
     10          6           0       -2.860000    2.710000   -0.880000
     11          1           0       -3.479000    3.583000   -0.662000
     12          1           0       -2.987000    1.993000   -0.066000
     13          1           0       -3.302000    2.266000   -1.774000
     14          7           0       -0.800000    1.899000   -1.546000
     15          1           0       -1.437000    1.438000   -2.163000
     16          6           0       -0.312000    0.845000   -0.504000
     17          1           0       -1.063000    0.735000    0.283000
     18          1           0        0.517000    1.335000    0.012000
     19          6           0        0.162000   -0.575000   -1.058000
     20          8           0        1.000000   -0.271000   -2.203000
     21          1           0        0.606000    0.582000   -2.459000
     22          1           0       -0.770000   -1.092000   -1.302000
     23          6           0        0.936000   -1.325000   -0.043000
     24          6           0        0.434000   -2.576000    0.416000
     25          1           0       -0.522000   -2.882000   -0.003000
     26          6           0        1.203000   -3.370000    1.300000
     27          6           0        0.502000   -4.634000    1.819000
     28          8           0        1.520000   -5.744000    1.993000
     29          1           0        1.017000   -6.536000    1.730000
     30          1           0       -0.279000   -5.059000    1.183000
     31          1           0        0.049000   -4.494000    2.804000
     32          6           0        2.400000   -2.879000    1.826000
     33          8           0        3.065000   -3.514000    2.846000
     34          1           0        2.934000   -4.476000    2.767000
     35          6           0        2.852000   -1.610000    1.443000
     36          1           0        3.805000   -1.191000    1.758000
     37          6           0        2.126000   -0.856000    0.479000
     38          1           0        2.557000    0.088000    0.157000
     39          1           0       -0.005000    2.180000   -2.083000
 ---------------------------------------------------------------------
                    Distance matrix (angstroms):
                    1          2          3          4          5
     1  C    0.000000
     2  H    1.092098   0.000000
     3  H    1.092458   1.829233   0.000000
     4  H    1.092246   1.593277   1.789684   0.000000
     5  C    1.538086   2.203603   2.240104   2.152499   0.000000
     6  C    2.474446   2.684468   3.463486   2.648931   1.482600
     7  H    2.865555   2.645601   3.890369   3.125792   2.196699
     8  H    2.748910   3.012792   3.755448   2.466571   2.133958
     9  H    3.398277   3.720126   4.277738   3.614462   2.072310
    10  C    2.502954   2.872624   2.878827   3.421867   1.471832
    11  H    2.707519   2.643818   3.156592   3.662475   2.114027
    12  H    3.470610   3.847084   3.903617   4.270065   2.143779
    13  H    2.814728   3.309046   2.761780   3.825667   2.151494
    14  N    2.432154   3.404136   2.691115   2.779199   1.463772
    15  H    2.771771   3.754209   2.671705   3.341050   2.005126
    16  C    3.863423   4.731233   4.245974   4.055054   2.603368
    17  H    4.237125   4.950799   4.709660   4.589702   2.762978
    18  H    4.017448   4.798589   4.585868   3.946321   2.867552
    19  C    5.113012   6.088392   5.249235   5.265796   4.029553
    20  O    5.031406   6.087979   5.003322   5.000201   4.335801
    21  H    4.105059   5.176041   4.040769   4.092370   3.552194
    22  H    5.388876   6.350995   5.398580   5.738464   4.269363
    23  C    6.320599   7.234070   6.589022   6.359014   5.146114
    24  C    7.449676   8.341561   7.674362   7.609292   6.176873
    25  H    7.442242   8.338072   7.565151   7.745955   6.161490
    26  C    8.685728   9.546918   8.977694   8.763242   7.397251
    27  C    9.849712  10.688451  10.105064  10.035094   8.496845
    28  O   11.134423  12.003085  11.372723  11.240748   9.833090
    29  H   11.648256  12.531853  11.822664  11.818604  10.347411
    30  H    9.893849  10.755268  10.050653  10.174363   8.558678
    31  H   10.094550  10.856768  10.432252  10.313977   8.667545
    32  C    8.918951   9.745540   9.312112   8.834953   7.691332
    33  O   10.169972  10.954338  10.614465  10.048889   8.926378
    34  H   10.830557  11.647280  11.213789  10.761919   9.569782
    35  C    7.989537   8.799719   8.438313   7.778933   6.868636
    36  H    8.384560   9.148523   8.892651   8.043627   7.361655
    37  C    6.645699   7.504140   7.043893   6.468309   5.566649
    38  H    6.087173   6.924186   6.529438   5.759558   5.173564
    39  H    2.402412   3.449443   2.569960   2.400229   2.005216
                    6          7          8          9         10
     6  C    0.000000
     7  H    1.091511   0.000000
     8  H    1.091216   1.820779   0.000000
     9  H    1.092572   1.756900   1.692747   0.000000
    10  C    2.364042   2.642666   3.336764   2.587386   0.000000
    11  H    2.646432   2.465549   3.668216   3.047093   1.092160
    12  H    2.593226   2.889499   3.595141   2.343772   1.092160
    13  H    3.355633   3.692149   4.232877   3.578788   1.091667
    14  N    2.497162   3.465283   2.785026   2.632619   2.311899
    15  H    3.285142   4.132669   3.723014   3.393549   2.299783
    16  C    2.958427   3.977511   3.129285   2.498857   3.179922
    17  H    2.888989   3.736215   3.327959   2.134080   2.912457
    18  H    2.752768   3.796168   2.577274   2.287805   3.753721
    19  C    4.546726   5.572267   4.621907   4.062766   4.467146
    20  O    5.016021   6.092661   4.885184   4.806179   5.053344
    21  H    4.376021   5.433815   4.274239   4.345324   4.362887
    22  H    4.968959   5.913766   5.253631   4.465421   4.359058
    23  C    5.319522   6.313847   5.267805   4.636171   5.602804
    24  C    6.363741   7.280218   6.453133   5.559986   6.361749
    25  H    6.527079   7.403447   6.775709   5.747442   6.124201
    26  C    7.405117   8.289303   7.400688   6.535914   7.630647
    27  C    8.537026   9.349820   8.656855   7.607373   8.515984
    28  O    9.854134  10.698603   9.876303   8.944000   9.945283
    29  H   10.461540  11.299276  10.550863   9.556216  10.360104
    30  H    8.761294   9.570752   8.980918   7.865318   8.442446
    31  H    8.573129   9.293530   8.746579   7.574579   8.598358
    32  C    7.502387   8.388252   7.311745   6.658316   8.137995
    33  O    8.611596   9.439769   8.383036   7.730233   9.366263
    34  H    9.346985  10.185254   9.177173   8.451096   9.925202
    35  C    6.603556   7.522546   6.260260   5.861787   7.528989
    36  H    6.963380   7.853683   6.469756   6.289893   8.160825
    37  C    5.463929   6.453817   5.154964   4.814958   6.278808
    38  H    5.012143   6.021027   4.522508   4.529646   6.106893
    39  H    2.916374   3.910207   2.858813   3.230783   3.143109
                   11         12         13         14         15
    11  H    0.000000
    12  H    1.767874   0.000000
    13  H    1.732733   1.758129   0.000000
    14  N    3.285476   2.642386   2.539031   0.000000
    15  H    3.320209   2.666071   2.077289   0.999489   0.000000
    16  C    4.189451   2.943701   3.545736   1.560392   2.090348
    17  H    3.852426   2.325111   3.404164   2.183874   2.572353
    18  H    4.634199   3.566099   4.317559   2.116589   2.925637
    19  C    5.540998   4.182689   4.536875   2.698938   2.798213
    20  O    6.106508   5.058521   5.012745   2.894918   2.976785
    21  H    5.377958   4.541698   4.310168   2.131876   2.234771
    22  H    5.440947   3.994998   4.232017   3.001086   2.754471
    23  C    6.630524   5.138052   5.818272   3.958141   4.214226
    24  C    7.376106   5.728117   6.496057   5.039625   5.124849
    25  H    7.139633   5.463133   6.112834   5.031510   4.915814
    26  C    8.608994   6.941457   7.842767   6.314593   6.486820
    27  C    9.461649   7.722919   8.659680   7.463144   7.515666
    28  O   10.910177   9.187693  10.079785   8.736268   8.808933
    29  H   11.328276   9.591740  10.411867   9.229458   9.206641
    30  H    9.398308   7.656629   8.458014   7.492172   7.399168
    31  H    9.470896   7.715916   8.825241   7.779058   7.878319
    32  C    9.083514   7.505719   8.481971   6.666308   7.019343
    33  O   10.271193   8.685246   9.761736   7.970474   8.359449
    34  H   10.855049   9.215861  10.245142   8.554844   8.853583
    35  C    8.454575   7.025141   7.952621   5.880842   6.378798
    36  H    9.039034   7.719851   8.656519   6.455272   7.054392
    37  C    7.240347   5.878486   6.654779   4.500236   4.993753
    38  H    7.022755   5.866403   6.542196   4.177245   4.812165
    39  H    4.007035   3.604939   3.312565   0.999677   1.614803
                   16         17         18         19         20
    16  C    0.000000
    17  H    1.093376   0.000000
    18  H    1.092519   1.711678   0.000000
    19  C    1.596243   2.239421   2.217888   0.000000
    20  O    2.419380   3.383519   2.778264   1.451098   0.000000
    21  H    2.175757   3.213648   2.584719   1.870451   0.973849
    22  H    2.144420   2.436391   3.045208   1.093366   2.149126
    23  C    2.545373   2.888923   2.693360   1.480473   2.404290
    24  C    3.620243   3.636127   3.932687   2.500132   3.534479
    25  H    3.766382   3.668401   4.343137   2.627381   3.738155
    26  C    4.828651   4.797924   4.926111   3.802088   4.681455
    27  C    6.006527   5.799542   6.236540   4.986804   5.954852
    28  O    7.280533   7.181464   7.419071   6.153968   6.915963
    29  H    7.825354   7.699847   8.071813   6.636075   7.397229
    30  H    6.140381   5.915665   6.548900   5.032178   6.002148
    31  H    6.291113   5.910535   6.480087   5.503306   6.618775
    32  C    5.162559   5.237768   4.959242   4.316771   4.999450
    33  O    6.451938   6.454716   6.167387   5.683867   6.346154
    34  H    7.039105   7.021452   6.870199   6.126370   6.791412
    35  C    4.452946   4.708699   4.021568   3.816062   4.303039
    36  H    5.119729   5.438982   4.498904   4.645510   4.940035
    37  C    3.131060   3.569232   2.758161   2.509706   2.967023
    38  H    3.039923   3.679522   2.395336   2.766192   2.850040
    39  H    2.090386   2.967380   2.318520   2.944238   2.651759
                   21         22         23         24         25
    21  H    0.000000
    22  H    2.456481   0.000000
    23  C    3.095578   2.133027   0.000000
    24  C    4.274128   2.569707   1.423968   0.000000
    25  H    4.393588   2.225535   2.133451   1.087719   0.000000
    26  C    5.486784   3.981509   2.461090   1.415363   2.216208
    27  C    6.746759   4.889211   3.821633   2.491666   2.727226
    28  O    7.789350   6.143470   4.900399   3.701695   4.042873
    29  H    8.269375   6.482556   5.504962   4.212848   4.327069
    30  H    6.772612   4.706739   4.113643   2.694800   2.490979
    31  H    7.333157   5.394775   4.351407   3.086988   3.286919
    32  C    5.792942   4.798609   2.837494   2.438250   3.447221
    33  O    7.139112   6.146480   4.203651   3.702284   4.624153
    34  H    7.636362   6.459708   4.670857   3.922652   4.707194
    35  C    5.007493   4.574083   2.441409   2.799037   3.884942
    36  H    5.582134   5.504909   3.390091   3.883662   4.968252
    37  C    3.606950   3.408001   1.381501   2.413552   3.368813
    38  H    3.300590   3.819687   2.159678   3.416300   4.280974
    39  H    1.751657   3.449807   4.163185   5.390478   5.497048
                   26         27         28         29         30
    26  C    0.000000
    27  C    1.535727   0.000000
    28  O    2.493314   1.516146   0.000000
    29  H    3.200477   1.972498   0.974393   0.000000
    30  H    2.250052   1.093198   2.088475   2.039695   0.000000
    31  H    2.203885   1.093176   2.093815   2.502052   1.747698
    32  C    1.396627   2.585049   3.001752   3.910953   3.513245
    33  O    2.424437   2.979614   2.843859   3.817361   4.041649
    34  H    2.524220   2.615013   2.050926   2.998976   3.629368
    35  C    2.416040   3.848175   4.377977   5.264510   4.665443
    36  H    3.424647   4.771559   5.099633   6.028495   5.654300
    37  C    2.801101   4.325073   5.152861   5.920919   4.893348
    38  H    3.885554   5.411336   6.201491   6.980208   5.965499
    39  H    6.611086   7.868497   9.040419   9.568287   7.946380
                   31         32         33         34         35
    31  H    0.000000
    32  C    3.015279   0.000000
    33  O    3.171501   1.373263   0.000000
    34  H    2.885293   1.929001   0.974087   0.000000
    35  C    4.245773   1.400483   2.374657   3.158110   0.000000
    36  H    5.109937   2.197269   2.669770   3.545130   1.087656
    37  C    4.791096   2.445816   3.680947   4.358005   1.422986
    38  H    5.855886   3.407829   4.523626   5.271084   2.150355
    39  H    8.272119   6.830651   8.132747   8.744287   5.912633
                   36         37         38         39
    36  H    0.000000
    37  C    2.137079   0.000000
    38  H    2.399280   1.086545   0.000000
    39  H    6.374404   4.508026   3.994735   0.000000
 Stoichiometry    C13H22NO3(1+)
 Framework group  C1[X(C13H22NO3)]
 Deg. of freedom   111
 Full point group                 C1      NOp   1
 Largest Abelian subgroup         C1      NOp   1
 Largest concise Abelian subgroup C1      NOp   1
                         Standard orientation:                         
 ---------------------------------------------------------------------
 Center     Atomic      Atomic             Coordinates (Angstroms)
 Number     Number       Type             X           Y           Z
 ---------------------------------------------------------------------
      1          6           0        5.497657    0.330707    0.333935
      2          1           0        6.355370    0.515138   -0.316443
      3          1           0        5.733718   -0.276079    1.211176
      4          1           0        5.400301    1.380145    0.620647
      5          6           0        4.239002   -0.084846   -0.446328
      6          6           0        4.005548    0.854712   -1.569197
      7          1           0        4.732862    0.827477   -2.382627
      8          1           0        3.811511    1.864146   -1.202938
      9          1           0        3.036418    0.584864   -1.995441
     10          6           0        4.364597   -1.422752   -1.046764
     11          1           0        5.259538   -1.473550   -1.670714
     12          1           0        3.504709   -1.687858   -1.665736
     13          1           0        4.488988   -2.217323   -0.308577
     14          7           0        3.136988   -0.228670    0.506304
     15          1           0        3.218953   -1.132039    0.926048
     16          6           0        1.672174   -0.084332   -0.011682
     17          1           0        1.574740   -0.589596   -0.976403
     18          1           0        1.578741    0.971824   -0.275123
     19          6           0        0.494141   -0.497878    0.982909
     20          8           0        0.855136    0.091694    2.258751
     21          1           0        1.822690    0.111578    2.150003
     22          1           0        0.503350   -1.591118    0.969126
     23          6           0       -0.812726    0.028549    0.528184
     24          6           0       -1.849699   -0.893269    0.207836
     25          1           0       -1.587880   -1.945391    0.295142
     26          6           0       -3.143370   -0.422626   -0.121048
     27          6           0       -4.137467   -1.504906   -0.567030
     28          8           0       -5.530833   -1.140853   -0.093008
     29          1           0       -5.911434   -2.008959    0.132771
     30          1           0       -3.962918   -2.516906   -0.192236
     31          1           0       -4.210603   -1.591954   -1.654278
     32          6           0       -3.380402    0.947127   -0.255798
     33          8           0       -4.550091    1.438183   -0.781671
     34          1           0       -5.285024    0.844747   -0.543860
     35          6           0       -2.337224    1.852996   -0.026593
     36          1           0       -2.463719    2.933081   -0.046822
     37          6           0       -1.064221    1.380842    0.399345
     38          1           0       -0.310710    2.126160    0.638725
     39          1           0        3.269728    0.454177    1.224256
 ---------------------------------------------------------------------
 Rotational constants (GHZ):           1.1134160           0.1613412           0.1581136
 Leave Link  202 at Sun Jul 18 14:54:15 2021, MaxMem=   104857600 cpu:               0.0 elap:               0.0
 (Enter /dades/curu/g16A03_MST/g16/l301.exe)
 Standard basis: 6-31G(d) (6D, 7F)
 Ernie: Thresh=  0.10000D-02 Tol=  0.10000D-05 Strict=F.
 There are   299 symmetry adapted cartesian basis functions of A   symmetry.
 There are   299 symmetry adapted basis functions of A   symmetry.
   299 basis functions,   564 primitive gaussians,   299 cartesian basis functions
    65 alpha electrons       65 beta electrons
       nuclear repulsion energy      1233.1879378683 Hartrees.
 IExCor=  402 DFT=T Ex+Corr=B3LYP ExCW=0 ScaHFX=  0.200000
 ScaDFX=  0.800000  0.720000  1.000000  0.810000 ScalE2=  1.000000  1.000000
 IRadAn=      5 IRanWt=     -1 IRanGd=            0 ICorTp=0 IEmpDi=  4
 NAtoms=   39 NActive=   39 NUniq=   39 SFac= 1.00D+00 NAtFMM=   60 NAOKFM=F Big=F
 Integral buffers will be    131072 words long.
 Raffenetti 2 integral format.
 Two-electron integral symmetry is turned on.
 Using the following non-standard input for PCM:
 MSTModel=DFT cav MSTCharged
 --- end of non-standard input.
 MST model for solvation energy: B3LYP parametrization.
 MST cavity parameters:
 ISph   IAn     Re0     Alpha   Atom Type   QCorr
 ------------------------------------------------
   1      6     1.50     1.50      CH3        F
   2      1     1.20     1.50      CH3        F
   3      1     1.20     1.50      CH3        F
   4      1     1.20     1.50      CH3        F
   5      6     1.50     1.50      CN+        F
   6      6     1.50     1.50      CH3        F
   7      1     1.20     1.50      CH3        F
   8      1     1.20     1.50      CH3        F
   9      1     1.20     1.50      CH3        F
  10      6     1.50     1.50      CH3        F
  11      1     1.20     1.50      CH3        F
  12      1     1.20     1.50      CH3        F
  13      1     1.20     1.50      CH3        F
  14      7     1.50     1.15      NH+        T
  15      1     0.90     1.15      NH+        T
  16      6     1.50     1.50      CN+        F
  17      1     1.20     1.50      CN+        F
  18      1     1.20     1.50      CN+        F
  19      6     1.50     1.50      CH         F
  20      8     1.40     1.50      OH         F
  21      1     0.90     1.50      OH         F
  22      1     1.20     1.50      CH         F
  23      6     1.50     1.50      C          F
  24      6     1.50     1.50      CH         F
  25      1     1.20     1.50      CH         F
  26      6     1.50     1.50      C          F
  27      6     1.50     1.50      CH2        F
  28      8     1.40     1.50      OH         F
  29      1     0.90     1.50      OH         F
  30      1     1.20     1.50      CH2        F
  31      1     1.20     1.50      CH2        F
  32      6     1.50     1.50      C          F
  33      8     1.40     1.50      OH         F
  34      1     0.90     1.50      OH         F
  35      6     1.50     1.50      CH         F
  36      1     1.20     1.50      CH         F
  37      6     1.50     1.50      CH         F
  38      1     1.20     1.50      CH         F
  39      1     0.90     1.15      NH+        T
 ------------------------------------------------------------------------------
 Polarizable Continuum Model (PCM)
 =================================
 Model                : PCM.
 Atomic radii         : MST.
 Polarization charges : Total charges.
 Charge compensation  : None.
 Solution method      : On-the-fly selection.
 Cavity type          : Scaled VdW (van der Waals Surface) (Alpha=1.500).
 Cavity algorithm     : GePol (No added spheres)
                        Default sphere list used, NSphG=   39.
                        Lebedev-Laikov grids with approx.  5.0 points / Ang**2.
                        Smoothing algorithm: York/Karplus (Gamma=1.0000).
                        Polarization charges: spherical gaussians, with
                                              point-specific exponents (IZeta= 3).
                        Self-potential: point-specific (ISelfS= 7).
                        Self-field    : sphere-specific E.n sum rule (ISelfD= 2).
 1st derivatives      : Analytical E(r).r(x)/FMM algorithm (CHGder, D1EAlg=3).
                        Cavity 1st derivative terms included.
 Solvent              : n-Octanol, Eps=   9.862900 Eps(inf)=   2.043470
 ------------------------------------------------------------------------------
 GePol: Number of generator spheres                  =      39
 GePol: Total number of spheres                      =      39
 GePol: Number of exposed spheres                    =      39 (100.00%)
 GePol: Number of points                             =    3314
 GePol: Average weight of points                     =       0.11
 GePol: Minimum weight of points                     =   0.11D-09
 GePol: Maximum weight of points                     =    0.20606
 GePol: Number of points with low weight             =     220
 GePol: Fraction of low-weight points (<1% of avg)   =       6.64%
 GePol: Cavity surface area                          =    365.971 Ang**2
 GePol: Cavity volume                                =    416.896 Ang**3
 Surface areas from nonelectrostatic (unscaled) cavity and vdw tensions:
 Sphere =    1 Type =  CH3 Surf =        4.890 Tension =       -0.183
 Sphere =    2 Type =  CH3 Surf =        9.957 Tension =       -0.183
 Sphere =    3 Type =  CH3 Surf =       10.229 Tension =       -0.183
 Sphere =    4 Type =  CH3 Surf =        9.824 Tension =       -0.183
 Sphere =    5 Type =  CN+ Surf =        1.488 Tension =       -0.227
 Sphere =    6 Type =  CH3 Surf =        4.383 Tension =       -0.183
 Sphere =    7 Type =  CH3 Surf =       10.149 Tension =       -0.183
 Sphere =    8 Type =  CH3 Surf =       10.054 Tension =       -0.183
 Sphere =    9 Type =  CH3 Surf =        8.085 Tension =       -0.183
 Sphere =   10 Type =  CH3 Surf =        4.095 Tension =       -0.183
 Sphere =   11 Type =  CH3 Surf =       10.006 Tension =       -0.183
 Sphere =   12 Type =  CH3 Surf =        9.597 Tension =       -0.183
 Sphere =   13 Type =  CH3 Surf =        9.922 Tension =       -0.183
 Sphere =   14 Type =  NH+ Surf =        6.843 Tension =       -0.274
 Sphere =   15 Type =  NH+ Surf =        3.743 Tension =       -0.274
 Sphere =   16 Type =  CN+ Surf =        3.530 Tension =       -0.227
 Sphere =   17 Type =  CN+ Surf =        8.957 Tension =       -0.227
 Sphere =   18 Type =  CN+ Surf =        9.361 Tension =       -0.227
 Sphere =   19 Type =  CH  Surf =        3.474 Tension =       -0.195
 Sphere =   20 Type =  OH  Surf =       14.628 Tension =       -0.238
 Sphere =   21 Type =  OH  Surf =        3.338 Tension =       -0.238
 Sphere =   22 Type =  CH  Surf =        9.443 Tension =       -0.195
 Sphere =   23 Type =  C   Surf =        5.966 Tension =       -0.205
 Sphere =   24 Type =  CH  Surf =        7.661 Tension =       -0.195
 Sphere =   25 Type =  CH  Surf =        9.708 Tension =       -0.195
 Sphere =   26 Type =  C   Surf =        6.439 Tension =       -0.205
 Sphere =   27 Type =  CH2 Surf =        4.839 Tension =       -0.194
 Sphere =   28 Type =  OH  Surf =       14.143 Tension =       -0.238
 Sphere =   29 Type =  OH  Surf =        4.424 Tension =       -0.238
 Sphere =   30 Type =  CH2 Surf =       10.056 Tension =       -0.194
 Sphere =   31 Type =  CH2 Surf =       10.099 Tension =       -0.194
 Sphere =   32 Type =  C   Surf =        6.795 Tension =       -0.205
 Sphere =   33 Type =  OH  Surf =       14.406 Tension =       -0.238
 Sphere =   34 Type =  OH  Surf =        3.668 Tension =       -0.238
 Sphere =   35 Type =  CH  Surf =        7.849 Tension =       -0.195
 Sphere =   36 Type =  CH  Surf =       10.223 Tension =       -0.195
 Sphere =   37 Type =  CH  Surf =        7.725 Tension =       -0.195
 Sphere =   38 Type =  CH  Surf =       10.124 Tension =       -0.195
 Sphere =   39 Type =  NH+ Surf =        3.754 Tension =       -0.274
 PCM non-electrostatic energy =        -0.0181314628 Hartrees.
 Nuclear repulsion after PCM non-electrostatic terms =     1233.1698064055 Hartrees.
 Leave Link  301 at Sun Jul 18 14:54:15 2021, MaxMem=   104857600 cpu:               0.1 elap:               0.1
 (Enter /dades/curu/g16A03_MST/g16/l302.exe)
 NPDir=0 NMtPBC=     1 NCelOv=     1 NCel=       1 NClECP=     1 NCelD=      1
         NCelK=      1 NCelE2=     1 NClLst=     1 CellRange=     0.0.
 One-electron integrals computed using PRISM.
 One-electron integral symmetry used in STVInt
 NBasis=   299 RedAO= T EigKep=  4.51D-04  NBF=   299
 NBsUse=   299 1.00D-06 EigRej= -1.00D+00 NBFU=   299
 Precomputing XC quadrature grid using
 IXCGrd= 4 IRadAn=           5 IRanWt=          -1 IRanGd=           0 AccXCQ= 0.00D+00.
 Generated NRdTot=       0 NPtTot=           0 NUsed=           0 NTot=          32
 NSgBfM=   296   296   296   296   296 MxSgAt=    39 MxSgA2=    39.
 Leave Link  302 at Sun Jul 18 14:54:17 2021, MaxMem=   104857600 cpu:               5.2 elap:               1.4
 (Enter /dades/curu/g16A03_MST/g16/l303.exe)
 DipDrv:  MaxL=1.
 Leave Link  303 at Sun Jul 18 14:54:17 2021, MaxMem=   104857600 cpu:               0.1 elap:               0.1
 (Enter /dades/curu/g16A03_MST/g16/l401.exe)
 ExpMin= 1.61D-01 ExpMax= 5.48D+03 ExpMxC= 8.25D+02 IAcc=3 IRadAn=         5 AccDes= 0.00D+00
 Harris functional with IExCor=  402 and IRadAn=       5 diagonalized for initial guess.
 HarFok:  IExCor=  402 AccDes= 0.00D+00 IRadAn=         5 IDoV= 1 UseB2=F ITyADJ=14
 ICtDFT=  3500011 ScaDFX=  1.000000  1.000000  1.000000  1.000000
 FoFCou: FMM=F IPFlag=           0 FMFlag=      100000 FMFlg1=           0
         NFxFlg=           0 DoJE=T BraDBF=F KetDBF=T FulRan=T
         wScrn=  0.000000 ICntrl=       500 IOpCl=  0 I1Cent=   200000004 NGrid=           0
         NMat0=    1 NMatS0=      1 NMatT0=    0 NMatD0=    1 NMtDS0=    0 NMtDT0=    0
 Petite list used in FoFCou.
 Harris En= -788.833452135029    
 JPrj=0 DoOrth=F DoCkMO=F.
 Leave Link  401 at Sun Jul 18 14:54:25 2021, MaxMem=   104857600 cpu:              31.3 elap:               7.9
 (Enter /dades/curu/g16A03_MST/g16/l502.exe)
 Integral symmetry usage will be decided dynamically.
 Closed shell SCF:
 Using DIIS extrapolation, IDIIS=  1040.
 NGot=   104857600 LenX=   104673418 LenY=   104583576
 Requested convergence on RMS density matrix=1.00D-08 within 128 cycles.
 Requested convergence on MAX density matrix=1.00D-06.
 Requested convergence on             energy=1.00D-06.
 No special actions if energy rises.
 Fock matrices will be formed incrementally for  20 cycles.

 Cycle   1  Pass 1  IDiag  1:
 FoFJK:  IHMeth= 1 ICntrl=       0 DoSepK=F KAlg= 0 I1Cent=           0 FoldK=F
 IRaf= 770000000 NMat=       1 IRICut=       1 DoRegI=T DoRafI=F ISym2E= 0 IDoP0=0 IntGTp=1.
 FoFCou: FMM=F IPFlag=           0 FMFlag=      100000 FMFlg1=           0
         NFxFlg=           0 DoJE=F BraDBF=F KetDBF=F FulRan=T
         wScrn=  0.000000 ICntrl=         0 IOpCl=  0 I1Cent=           0 NGrid=           0
         NMat0=    1 NMatS0=      1 NMatT0=    0 NMatD0=    1 NMtDS0=    0 NMtDT0=    0
 Symmetry not used in FoFCou.
 Inv3:  Mode=1 IEnd=    32947788.
 Iteration    1 A*A^-1 deviation from unit magnitude is 7.99D-15 for    828.
 Iteration    1 A*A^-1 deviation from orthogonality  is 2.86D-15 for   3157   2412.
 Iteration    1 A^-1*A deviation from unit magnitude is 8.22D-15 for    828.
 Iteration    1 A^-1*A deviation from orthogonality  is 2.62D-15 for   3250   1653.
 E= -788.425379791689    
 DIIS: error= 3.72D-02 at cycle   1 NSaved=   1.
 NSaved= 1 IEnMin= 1 EnMin= -788.425379791689     IErMin= 1 ErrMin= 3.72D-02
 ErrMax= 3.72D-02  0.00D+00 EMaxC= 1.00D-01 BMatC= 4.49D-01 BMatP= 4.49D-01
 IDIUse=3 WtCom= 6.28D-01 WtEn= 3.72D-01
 Coeff-Com:  0.100D+01
 Coeff-En:   0.100D+01
 Coeff:      0.100D+01
 Gap=     0.221 Goal=   None    Shift=    0.000
 GapD=    0.221 DampG=1.000 DampE=0.500 DampFc=0.5000 IDamp=-1.
 Damping current iteration by 5.00D-01
 RMSDP=4.59D-03 MaxDP=1.32D-01              OVMax= 1.64D-01

 Cycle   2  Pass 1  IDiag  1:
 RMSU=  2.27D-03    CP:  9.83D-01
 E= -788.613780265041     Delta-E=       -0.188400473352 Rises=F Damp=T
 DIIS: error= 6.45D-03 at cycle   2 NSaved=   2.
 NSaved= 2 IEnMin= 2 EnMin= -788.613780265041     IErMin= 2 ErrMin= 6.45D-03
 ErrMax= 6.45D-03  0.00D+00 EMaxC= 1.00D-01 BMatC= 2.65D-02 BMatP= 4.49D-01
 IDIUse=3 WtCom= 9.36D-01 WtEn= 6.45D-02
 Coeff-Com:  0.711D-01 0.929D+00
 Coeff-En:   0.106D+00 0.894D+00
 Coeff:      0.734D-01 0.927D+00
 Gap=     0.233 Goal=   None    Shift=    0.000
 RMSDP=1.06D-03 MaxDP=2.49D-02 DE=-1.88D-01 OVMax= 9.83D-02

 Cycle   3  Pass 1  IDiag  1:
 RMSU=  1.03D-03    CP:  9.76D-01  9.11D-01
 E= -788.835790010282     Delta-E=       -0.222009745241 Rises=F Damp=F
 DIIS: error= 4.55D-03 at cycle   3 NSaved=   3.
 NSaved= 3 IEnMin= 3 EnMin= -788.835790010282     IErMin= 3 ErrMin= 4.55D-03
 ErrMax= 4.55D-03  0.00D+00 EMaxC= 1.00D-01 BMatC= 1.39D-02 BMatP= 2.65D-02
 IDIUse=3 WtCom= 9.55D-01 WtEn= 4.55D-02
 Coeff-Com: -0.114D-01 0.402D+00 0.609D+00
 Coeff-En:   0.000D+00 0.000D+00 0.100D+01
 Coeff:     -0.109D-01 0.384D+00 0.627D+00
 Gap=     0.215 Goal=   None    Shift=    0.000
 RMSDP=5.28D-04 MaxDP=2.02D-02 DE=-2.22D-01 OVMax= 3.58D-02

 Cycle   4  Pass 1  IDiag  1:
 RMSU=  4.26D-04    CP:  9.78D-01  9.40D-01  7.05D-01
 E= -788.844411762563     Delta-E=       -0.008621752281 Rises=F Damp=F
 DIIS: error= 2.02D-03 at cycle   4 NSaved=   4.
 NSaved= 4 IEnMin= 4 EnMin= -788.844411762563     IErMin= 4 ErrMin= 2.02D-03
 ErrMax= 2.02D-03  0.00D+00 EMaxC= 1.00D-01 BMatC= 3.65D-03 BMatP= 1.39D-02
 IDIUse=3 WtCom= 9.80D-01 WtEn= 2.02D-02
 Coeff-Com: -0.115D-01 0.789D-01 0.358D+00 0.574D+00
 Coeff-En:   0.000D+00 0.000D+00 0.233D+00 0.767D+00
 Coeff:     -0.112D-01 0.773D-01 0.356D+00 0.578D+00
 Gap=     0.213 Goal=   None    Shift=    0.000
 RMSDP=2.27D-04 MaxDP=9.52D-03 DE=-8.62D-03 OVMax= 1.97D-02

 Cycle   5  Pass 1  IDiag  1:
 RMSU=  1.04D-04    CP:  9.77D-01  9.39D-01  7.82D-01  5.67D-01
 E= -788.847602606725     Delta-E=       -0.003190844162 Rises=F Damp=F
 DIIS: error= 5.42D-04 at cycle   5 NSaved=   5.
 NSaved= 5 IEnMin= 5 EnMin= -788.847602606725     IErMin= 5 ErrMin= 5.42D-04
 ErrMax= 5.42D-04  0.00D+00 EMaxC= 1.00D-01 BMatC= 1.77D-04 BMatP= 3.65D-03
 IDIUse=3 WtCom= 9.95D-01 WtEn= 5.42D-03
 Coeff-Com: -0.488D-02 0.196D-01 0.153D+00 0.298D+00 0.535D+00
 Coeff-En:   0.000D+00 0.000D+00 0.000D+00 0.000D+00 0.100D+01
 Coeff:     -0.485D-02 0.194D-01 0.152D+00 0.296D+00 0.537D+00
 Gap=     0.213 Goal=   None    Shift=    0.000
 RMSDP=6.29D-05 MaxDP=2.74D-03 DE=-3.19D-03 OVMax= 6.54D-03

 Cycle   6  Pass 1  IDiag  1:
 RMSU=  3.73D-05    CP:  9.77D-01  9.41D-01  7.79D-01  6.07D-01  5.42D-01
 E= -788.847765747263     Delta-E=       -0.000163140538 Rises=F Damp=F
 DIIS: error= 2.04D-04 at cycle   6 NSaved=   6.
 NSaved= 6 IEnMin= 6 EnMin= -788.847765747263     IErMin= 6 ErrMin= 2.04D-04
 ErrMax= 2.04D-04  0.00D+00 EMaxC= 1.00D-01 BMatC= 2.41D-05 BMatP= 1.77D-04
 IDIUse=3 WtCom= 9.98D-01 WtEn= 2.04D-03
 Coeff-Com: -0.145D-02 0.250D-02 0.482D-01 0.107D+00 0.314D+00 0.530D+00
 Coeff-En:   0.000D+00 0.000D+00 0.000D+00 0.000D+00 0.950D-01 0.905D+00
 Coeff:     -0.145D-02 0.249D-02 0.481D-01 0.106D+00 0.313D+00 0.531D+00
 Gap=     0.212 Goal=   None    Shift=    0.000
 RMSDP=1.93D-05 MaxDP=8.03D-04 DE=-1.63D-04 OVMax= 1.95D-03

 Cycle   7  Pass 1  IDiag  1:
 RMSU=  7.49D-06    CP:  9.77D-01  9.40D-01  7.83D-01  6.04D-01  6.26D-01
                    CP:  6.07D-01
 E= -788.847789470404     Delta-E=       -0.000023723141 Rises=F Damp=F
 DIIS: error= 3.80D-05 at cycle   7 NSaved=   7.
 NSaved= 7 IEnMin= 7 EnMin= -788.847789470404     IErMin= 7 ErrMin= 3.80D-05
 ErrMax= 3.80D-05  0.00D+00 EMaxC= 1.00D-01 BMatC= 1.23D-06 BMatP= 2.41D-05
 IDIUse=1 WtCom= 1.00D+00 WtEn= 0.00D+00
 Coeff-Com: -0.520D-03 0.276D-03 0.181D-01 0.426D-01 0.144D+00 0.286D+00
 Coeff-Com:  0.510D+00
 Coeff:     -0.520D-03 0.276D-03 0.181D-01 0.426D-01 0.144D+00 0.286D+00
 Coeff:      0.510D+00
 Gap=     0.212 Goal=   None    Shift=    0.000
 RMSDP=4.15D-06 MaxDP=1.79D-04 DE=-2.37D-05 OVMax= 3.86D-04

 Cycle   8  Pass 1  IDiag  1:
 RMSU=  2.36D-06    CP:  9.77D-01  9.40D-01  7.83D-01  6.05D-01  6.22D-01
                    CP:  6.31D-01  5.76D-01
 E= -788.847790571847     Delta-E=       -0.000001101443 Rises=F Damp=F
 DIIS: error= 7.87D-06 at cycle   8 NSaved=   8.
 NSaved= 8 IEnMin= 8 EnMin= -788.847790571847     IErMin= 8 ErrMin= 7.87D-06
 ErrMax= 7.87D-06  0.00D+00 EMaxC= 1.00D-01 BMatC= 4.89D-08 BMatP= 1.23D-06
 IDIUse=1 WtCom= 1.00D+00 WtEn= 0.00D+00
 Coeff-Com: -0.826D-04-0.109D-03 0.307D-02 0.780D-02 0.301D-01 0.664D-01
 Coeff-Com:  0.211D+00 0.682D+00
 Coeff:     -0.826D-04-0.109D-03 0.307D-02 0.780D-02 0.301D-01 0.664D-01
 Coeff:      0.211D+00 0.682D+00
 Gap=     0.212 Goal=   None    Shift=    0.000
 RMSDP=1.07D-06 MaxDP=4.32D-05 DE=-1.10D-06 OVMax= 1.10D-04

 Cycle   9  Pass 1  IDiag  1:
 RMSU=  6.98D-07    CP:  9.77D-01  9.40D-01  7.83D-01  6.06D-01  6.25D-01
                    CP:  6.29D-01  6.14D-01  7.15D-01
 E= -788.847790609482     Delta-E=       -0.000000037634 Rises=F Damp=F
 DIIS: error= 4.68D-06 at cycle   9 NSaved=   9.
 NSaved= 9 IEnMin= 9 EnMin= -788.847790609482     IErMin= 9 ErrMin= 4.68D-06
 ErrMax= 4.68D-06  0.00D+00 EMaxC= 1.00D-01 BMatC= 8.87D-09 BMatP= 4.89D-08
 IDIUse=1 WtCom= 1.00D+00 WtEn= 0.00D+00
 Coeff-Com: -0.231D-05-0.869D-04 0.228D-03 0.861D-03 0.496D-02 0.131D-01
 Coeff-Com:  0.731D-01 0.371D+00 0.537D+00
 Coeff:     -0.231D-05-0.869D-04 0.228D-03 0.861D-03 0.496D-02 0.131D-01
 Coeff:      0.731D-01 0.371D+00 0.537D+00
 Gap=     0.212 Goal=   None    Shift=    0.000
 RMSDP=4.27D-07 MaxDP=2.05D-05 DE=-3.76D-08 OVMax= 4.63D-05

 Cycle  10  Pass 1  IDiag  1:
 RMSU=  2.36D-07    CP:  9.77D-01  9.40D-01  7.83D-01  6.06D-01  6.25D-01
                    CP:  6.31D-01  6.20D-01  7.80D-01  5.66D-01
 E= -788.847790618221     Delta-E=       -0.000000008740 Rises=F Damp=F
 DIIS: error= 1.37D-06 at cycle  10 NSaved=  10.
 NSaved=10 IEnMin=10 EnMin= -788.847790618221     IErMin=10 ErrMin= 1.37D-06
 ErrMax= 1.37D-06  0.00D+00 EMaxC= 1.00D-01 BMatC= 8.32D-10 BMatP= 8.87D-09
 IDIUse=1 WtCom= 1.00D+00 WtEn= 0.00D+00
 Coeff-Com:  0.756D-05-0.310D-04-0.240D-03-0.464D-03-0.923D-03-0.867D-03
 Coeff-Com:  0.140D-01 0.115D+00 0.282D+00 0.591D+00
 Coeff:      0.756D-05-0.310D-04-0.240D-03-0.464D-03-0.923D-03-0.867D-03
 Coeff:      0.140D-01 0.115D+00 0.282D+00 0.591D+00
 Gap=     0.212 Goal=   None    Shift=    0.000
 RMSDP=1.26D-07 MaxDP=6.41D-06 DE=-8.74D-09 OVMax= 1.44D-05

 Cycle  11  Pass 1  IDiag  1:
 RMSU=  6.29D-08    CP:  9.77D-01  9.40D-01  7.83D-01  6.06D-01  6.25D-01
                    CP:  6.31D-01  6.21D-01  7.80D-01  6.71D-01  6.65D-01
 E= -788.847790619061     Delta-E=       -0.000000000840 Rises=F Damp=F
 DIIS: error= 3.55D-07 at cycle  11 NSaved=  11.
 NSaved=11 IEnMin=11 EnMin= -788.847790619061     IErMin=11 ErrMin= 3.55D-07
 ErrMax= 3.55D-07  0.00D+00 EMaxC= 1.00D-01 BMatC= 7.92D-11 BMatP= 8.32D-10
 IDIUse=1 WtCom= 1.00D+00 WtEn= 0.00D+00
 Coeff-Com:  0.376D-05-0.882D-05-0.148D-03-0.322D-03-0.911D-03-0.156D-02
 Coeff-Com:  0.135D-02 0.309D-01 0.106D+00 0.317D+00 0.547D+00
 Coeff:      0.376D-05-0.882D-05-0.148D-03-0.322D-03-0.911D-03-0.156D-02
 Coeff:      0.135D-02 0.309D-01 0.106D+00 0.317D+00 0.547D+00
 Gap=     0.212 Goal=   None    Shift=    0.000
 RMSDP=3.13D-08 MaxDP=1.76D-06 DE=-8.40D-10 OVMax= 3.88D-06

 Cycle  12  Pass 1  IDiag  1:
 RMSU=  1.64D-08    CP:  9.77D-01  9.40D-01  7.83D-01  6.06D-01  6.25D-01
                    CP:  6.31D-01  6.21D-01  7.84D-01  6.64D-01  7.16D-01
                    CP:  6.67D-01
 E= -788.847790619142     Delta-E=       -0.000000000080 Rises=F Damp=F
 DIIS: error= 3.27D-08 at cycle  12 NSaved=  12.
 NSaved=12 IEnMin=12 EnMin= -788.847790619142     IErMin=12 ErrMin= 3.27D-08
 ErrMax= 3.27D-08  0.00D+00 EMaxC= 1.00D-01 BMatC= 1.50D-12 BMatP= 7.92D-11
 IDIUse=1 WtCom= 1.00D+00 WtEn= 0.00D+00
 Coeff-Com:  0.453D-06-0.854D-07-0.275D-04-0.639D-04-0.197D-03-0.390D-03
 Coeff-Com: -0.569D-03 0.108D-02 0.113D-01 0.512D-01 0.158D+00 0.780D+00
 Coeff:      0.453D-06-0.854D-07-0.275D-04-0.639D-04-0.197D-03-0.390D-03
 Coeff:     -0.569D-03 0.108D-02 0.113D-01 0.512D-01 0.158D+00 0.780D+00
 Gap=     0.212 Goal=   None    Shift=    0.000
 RMSDP=6.30D-09 MaxDP=2.66D-07 DE=-8.05D-11 OVMax= 7.08D-07

 Error on total polarization charges =  0.00798
 SCF Done:  E(RB3LYP) =  -788.847790619     A.U. after   12 cycles
            NFock= 12  Conv=0.63D-08     -V/T= 2.0093
 KE= 7.815419690876D+02 PE=-4.283621420716D+03 EE= 1.480061854603D+03
 Leave Link  502 at Sun Jul 18 14:57:47 2021, MaxMem=   104857600 cpu:             778.6 elap:             202.1
 (Enter /dades/curu/g16A03_MST/g16/l601.exe)
 Copying SCF densities to generalized density rwf, IOpCl= 0 IROHF=0.

 **********************************************************************

            Population analysis using the SCF density.

 **********************************************************************

 Orbital symmetries:
       Occupied  (A) (A) (A) (A) (A) (A) (A) (A) (A) (A) (A) (A)
                 (A) (A) (A) (A) (A) (A) (A) (A) (A) (A) (A) (A)
                 (A) (A) (A) (A) (A) (A) (A) (A) (A) (A) (A) (A)
                 (A) (A) (A) (A) (A) (A) (A) (A) (A) (A) (A) (A)
                 (A) (A) (A) (A) (A) (A) (A) (A) (A) (A) (A) (A)
                 (A) (A) (A) (A) (A)
       Virtual   (A) (A) (A) (A) (A) (A) (A) (A) (A) (A) (A) (A)
                 (A) (A) (A) (A) (A) (A) (A) (A) (A) (A) (A) (A)
                 (A) (A) (A) (A) (A) (A) (A) (A) (A) (A) (A) (A)
                 (A) (A) (A) (A) (A) (A) (A) (A) (A) (A) (A) (A)
                 (A) (A) (A) (A) (A) (A) (A) (A) (A) (A) (A) (A)
                 (A) (A) (A) (A) (A) (A) (A) (A) (A) (A) (A) (A)
                 (A) (A) (A) (A) (A) (A) (A) (A) (A) (A) (A) (A)
                 (A) (A) (A) (A) (A) (A) (A) (A) (A) (A) (A) (A)
                 (A) (A) (A) (A) (A) (A) (A) (A) (A) (A) (A) (A)
                 (A) (A) (A) (A) (A) (A) (A) (A) (A) (A) (A) (A)
                 (A) (A) (A) (A) (A) (A) (A) (A) (A) (A) (A) (A)
                 (A) (A) (A) (A) (A) (A) (A) (A) (A) (A) (A) (A)
                 (A) (A) (A) (A) (A) (A) (A) (A) (A) (A) (A) (A)
                 (A) (A) (A) (A) (A) (A) (A) (A) (A) (A) (A) (A)
                 (A) (A) (A) (A) (A) (A) (A) (A) (A) (A) (A) (A)
                 (A) (A) (A) (A) (A) (A) (A) (A) (A) (A) (A) (A)
                 (A) (A) (A) (A) (A) (A) (A) (A) (A) (A) (A) (A)
                 (A) (A) (A) (A) (A) (A) (A) (A) (A) (A) (A) (A)
                 (A) (A) (A) (A) (A) (A) (A) (A) (A) (A) (A) (A)
                 (A) (A) (A) (A) (A) (A)
 The electronic state is 1-A.
 Alpha  occ. eigenvalues --  -19.18341 -19.18078 -19.16077 -14.48708 -10.28785
 Alpha  occ. eigenvalues --  -10.28571 -10.28536 -10.26978 -10.25808 -10.21956
 Alpha  occ. eigenvalues --  -10.21780 -10.21482 -10.21317 -10.21269 -10.21253
 Alpha  occ. eigenvalues --  -10.20870 -10.20666  -1.06820  -1.06113  -1.04529
 Alpha  occ. eigenvalues --   -1.00963  -0.87411  -0.86162  -0.80815  -0.77808
 Alpha  occ. eigenvalues --   -0.76170  -0.74517  -0.72992  -0.69200  -0.67662
 Alpha  occ. eigenvalues --   -0.64477  -0.63062  -0.62510  -0.59680  -0.55506
 Alpha  occ. eigenvalues --   -0.55137  -0.54088  -0.52844  -0.51895  -0.49055
 Alpha  occ. eigenvalues --   -0.48779  -0.48007  -0.47989  -0.46650  -0.46011
 Alpha  occ. eigenvalues --   -0.44898  -0.44006  -0.43364  -0.43013  -0.42063
 Alpha  occ. eigenvalues --   -0.41554  -0.41355  -0.39544  -0.39229  -0.38664
 Alpha  occ. eigenvalues --   -0.37711  -0.37447  -0.37243  -0.36817  -0.35318
 Alpha  occ. eigenvalues --   -0.33743  -0.30844  -0.28655  -0.26401  -0.24208
 Alpha virt. eigenvalues --   -0.02966  -0.02926   0.01597   0.04669   0.05347
 Alpha virt. eigenvalues --    0.05961   0.06793   0.07551   0.08883   0.09060
 Alpha virt. eigenvalues --    0.09628   0.11118   0.11513   0.12066   0.12365
 Alpha virt. eigenvalues --    0.13078   0.13138   0.13890   0.14164   0.15853
 Alpha virt. eigenvalues --    0.16175   0.16484   0.17042   0.17181   0.18047
 Alpha virt. eigenvalues --    0.18815   0.19469   0.19695   0.20310   0.21267
 Alpha virt. eigenvalues --    0.21767   0.23425   0.23700   0.24786   0.25938
 Alpha virt. eigenvalues --    0.26506   0.31645   0.32498   0.34349   0.36210
 Alpha virt. eigenvalues --    0.44375   0.45724   0.46876   0.47511   0.48187
 Alpha virt. eigenvalues --    0.48708   0.49441   0.51591   0.51876   0.52353
 Alpha virt. eigenvalues --    0.53285   0.54210   0.55547   0.56795   0.56829
 Alpha virt. eigenvalues --    0.57922   0.58910   0.59370   0.60145   0.60442
 Alpha virt. eigenvalues --    0.61259   0.63273   0.63725   0.65334   0.66063
 Alpha virt. eigenvalues --    0.68415   0.69417   0.70209   0.70852   0.71469
 Alpha virt. eigenvalues --    0.73581   0.73966   0.75505   0.77043   0.77862
 Alpha virt. eigenvalues --    0.78557   0.79806   0.80067   0.81125   0.81859
 Alpha virt. eigenvalues --    0.82868   0.83564   0.84180   0.84500   0.85656
 Alpha virt. eigenvalues --    0.85935   0.86880   0.87342   0.88273   0.88786
 Alpha virt. eigenvalues --    0.89244   0.89733   0.90387   0.91186   0.92507
 Alpha virt. eigenvalues --    0.93139   0.93965   0.94719   0.95718   0.96509
 Alpha virt. eigenvalues --    0.97094   0.97475   0.98624   0.99753   1.00962
 Alpha virt. eigenvalues --    1.02521   1.04136   1.04443   1.05289   1.08202
 Alpha virt. eigenvalues --    1.09849   1.12382   1.14126   1.15682   1.17059
 Alpha virt. eigenvalues --    1.18336   1.20402   1.21730   1.22754   1.24765
 Alpha virt. eigenvalues --    1.25831   1.28802   1.32362   1.32934   1.38168
 Alpha virt. eigenvalues --    1.40255   1.41872   1.42515   1.44419   1.44992
 Alpha virt. eigenvalues --    1.46656   1.48080   1.49101   1.53486   1.54276
 Alpha virt. eigenvalues --    1.59500   1.60247   1.62938   1.63739   1.66096
 Alpha virt. eigenvalues --    1.68176   1.69303   1.70348   1.71502   1.71870
 Alpha virt. eigenvalues --    1.74498   1.77133   1.77790   1.78658   1.81143
 Alpha virt. eigenvalues --    1.82540   1.84653   1.84822   1.85641   1.86541
 Alpha virt. eigenvalues --    1.87577   1.88696   1.89807   1.93196   1.93407
 Alpha virt. eigenvalues --    1.93686   1.96153   1.97520   1.98198   1.99670
 Alpha virt. eigenvalues --    2.01908   2.02602   2.03681   2.06273   2.07326
 Alpha virt. eigenvalues --    2.07490   2.10497   2.11847   2.13166   2.16948
 Alpha virt. eigenvalues --    2.18425   2.20447   2.20869   2.22003   2.22536
 Alpha virt. eigenvalues --    2.23728   2.24148   2.24417   2.24945   2.25675
 Alpha virt. eigenvalues --    2.28883   2.30224   2.32221   2.33754   2.35848
 Alpha virt. eigenvalues --    2.39918   2.41064   2.43284   2.45293   2.46133
 Alpha virt. eigenvalues --    2.51301   2.53905   2.56532   2.57667   2.58798
 Alpha virt. eigenvalues --    2.61373   2.62665   2.64948   2.65908   2.70480
 Alpha virt. eigenvalues --    2.71229   2.72676   2.75516   2.76769   2.78711
 Alpha virt. eigenvalues --    2.85382   2.87057   2.90756   2.92825   2.98150
 Alpha virt. eigenvalues --    3.15133   3.37044   3.72311   3.76053   3.93794
 Alpha virt. eigenvalues --    3.96384   4.08584   4.09401   4.18329   4.19272
 Alpha virt. eigenvalues --    4.22790   4.27626   4.29144   4.29733   4.39591
 Alpha virt. eigenvalues --    4.42706   4.51419   4.62880   4.74617
          Condensed to atoms (all electrons):
               1          2          3          4          5          6
     1  C    5.191594   0.374422   0.370318   0.359423   0.402073  -0.071417
     2  H    0.374422   0.506789  -0.015850  -0.042965  -0.022100  -0.001412
     3  H    0.370318  -0.015850   0.511707  -0.025296  -0.026783   0.004937
     4  H    0.359423  -0.042965  -0.025296   0.552290  -0.026601  -0.006165
     5  C    0.402073  -0.022100  -0.026783  -0.026601   4.741143   0.404031
     6  C   -0.071417  -0.001412   0.004937  -0.006165   0.404031   5.171891
     7  H   -0.003575   0.001606   0.000024  -0.000102  -0.021795   0.381118
     8  H   -0.007009  -0.000171  -0.000001   0.004842  -0.032739   0.367816
     9  H    0.006959   0.000007  -0.000216  -0.000102  -0.028835   0.360243
    10  C   -0.067132  -0.004682  -0.003716   0.006115   0.399956  -0.087967
    11  H   -0.004740   0.002112  -0.000024   0.000046  -0.027979  -0.004760
    12  H    0.005901   0.000054  -0.000084  -0.000211  -0.029021  -0.009270
    13  H   -0.004894  -0.000030   0.002467  -0.000086  -0.029322   0.007391
    14  N   -0.062328   0.004198  -0.002030  -0.005461   0.190266  -0.051531
    15  H   -0.001536  -0.000093   0.001934  -0.000229  -0.019855   0.005048
    16  C    0.003432  -0.000077  -0.000023  -0.000096  -0.018538  -0.004600
    17  H    0.000093   0.000002  -0.000002  -0.000000   0.002505  -0.005881
    18  H   -0.000168  -0.000001   0.000002   0.000003  -0.006371   0.004103
    19  C   -0.000058   0.000001  -0.000001  -0.000002   0.002270   0.000461
    20  O   -0.000008  -0.000000   0.000001  -0.000001   0.000327  -0.000018
    21  H   -0.000115   0.000001   0.000010  -0.000024   0.000740  -0.000011
    22  H   -0.000002  -0.000000   0.000000   0.000000  -0.000297   0.000008
    23  C    0.000001  -0.000000  -0.000000  -0.000000   0.000011  -0.000005
    24  C   -0.000000  -0.000000   0.000000   0.000000  -0.000000  -0.000000
    25  H   -0.000000   0.000000  -0.000000   0.000000   0.000000   0.000000
    26  C    0.000000  -0.000000   0.000000  -0.000000  -0.000000   0.000000
    27  C   -0.000000   0.000000  -0.000000  -0.000000   0.000000   0.000000
    28  O    0.000000   0.000000   0.000000   0.000000  -0.000000   0.000000
    29  H   -0.000000   0.000000  -0.000000   0.000000   0.000000  -0.000000
    30  H   -0.000000   0.000000   0.000000  -0.000000   0.000000   0.000000
    31  H    0.000000  -0.000000  -0.000000   0.000000   0.000000  -0.000000
    32  C   -0.000000   0.000000  -0.000000  -0.000000   0.000000  -0.000000
    33  O    0.000000  -0.000000  -0.000000   0.000000  -0.000000   0.000000
    34  H   -0.000000   0.000000  -0.000000  -0.000000   0.000000  -0.000000
    35  C   -0.000000  -0.000000   0.000000  -0.000000  -0.000000  -0.000000
    36  H   -0.000000   0.000000  -0.000000  -0.000000  -0.000000   0.000000
    37  C    0.000000  -0.000000   0.000000  -0.000000  -0.000004  -0.000007
    38  H   -0.000000   0.000000  -0.000000   0.000000   0.000003  -0.000004
    39  H   -0.001793  -0.000225   0.000377   0.005864  -0.021416  -0.001186
               7          8          9         10         11         12
     1  C   -0.003575  -0.007009   0.006959  -0.067132  -0.004740   0.005901
     2  H    0.001606  -0.000171   0.000007  -0.004682   0.002112   0.000054
     3  H    0.000024  -0.000001  -0.000216  -0.003716  -0.000024  -0.000084
     4  H   -0.000102   0.004842  -0.000102   0.006115   0.000046  -0.000211
     5  C   -0.021795  -0.032739  -0.028835   0.399956  -0.027979  -0.029021
     6  C    0.381118   0.367816   0.360243  -0.087967  -0.004760  -0.009270
     7  H    0.479232  -0.018251  -0.023741  -0.004883   0.002532  -0.000181
     8  H   -0.018251   0.537444  -0.035869   0.007602   0.000036   0.000055
     9  H   -0.023741  -0.035869   0.560065  -0.009600  -0.000076   0.004614
    10  C   -0.004883   0.007602  -0.009600   5.213268   0.378801   0.369864
    11  H    0.002532   0.000036  -0.000076   0.378801   0.499830  -0.020868
    12  H   -0.000181   0.000055   0.004614   0.369864  -0.020868   0.533466
    13  H    0.000129  -0.000268  -0.000037   0.364636  -0.023256  -0.030860
    14  N    0.003802  -0.001370  -0.009435  -0.087199   0.005748  -0.003758
    15  H   -0.000056  -0.000228  -0.000196  -0.005971   0.000030  -0.000580
    16  C    0.000125  -0.001302   0.007035  -0.004311   0.000017   0.001374
    17  H   -0.000049   0.000275   0.001677   0.002061  -0.000090   0.003116
    18  H    0.000066   0.001455  -0.001766   0.000293  -0.000001   0.000049
    19  C   -0.000005  -0.000049   0.000303  -0.000394   0.000004  -0.000124
    20  O    0.000000   0.000001   0.000001  -0.000016   0.000000   0.000000
    21  H   -0.000000   0.000003   0.000000   0.000031  -0.000001  -0.000003
    22  H    0.000000  -0.000001  -0.000006   0.000056  -0.000000   0.000020
    23  C   -0.000000   0.000003   0.000004  -0.000006   0.000000   0.000004
    24  C    0.000000   0.000000  -0.000001   0.000000  -0.000000  -0.000000
    25  H    0.000000  -0.000000  -0.000000  -0.000000   0.000000  -0.000000
    26  C    0.000000  -0.000000  -0.000000  -0.000000   0.000000  -0.000000
[...]
    38  H    0.000938  -0.001415  -0.000573   0.000933  -0.000079  -0.001086
    39  H    0.010891   0.012127  -0.028721  -0.031093  -0.009684   0.016381
              13         14         15         16         17         18
     1  C   -0.064117   0.156119  -0.018056   0.001953  -0.001083   0.033418
     2  H   -0.000556   0.053735   0.004676   0.022341  -0.002043  -0.006387
     3  H   -0.039308  -0.132125  -0.005855   0.043692   0.005925   0.003836
     4  H    0.011174  -0.011918  -0.006059  -0.013591  -0.000895   0.007202
     5  C    0.145145  -1.673096  -0.078816  -0.262725   0.111981   0.049391
     6  C    0.019095   0.154047  -0.015747  -0.060381   0.031452  -0.067545
     7  H    0.004967   0.071763  -0.007462  -0.008277   0.009301  -0.014428
     8  H   -0.008858  -0.081904   0.001434   0.076595  -0.005544   0.013328
     9  H    0.019551  -0.057724   0.013155   0.080587  -0.026252  -0.009937
    10  C    0.097546   0.273407   0.020601  -0.155625  -0.115036   0.066676
    11  H   -0.281436  -0.010722   0.014682  -0.008210  -0.009732   0.014061
    12  H   -0.265525  -0.048701  -0.026883   0.107728   0.018075  -0.020885
    13  H    1.354374   0.000609   0.003516   0.047877  -0.003294  -0.017507
    14  N    0.000609  10.105694   0.276216  -1.172104  -0.313909  -0.088074
    15  H    0.003516   0.276216   0.695027   0.045933  -0.056621   0.034277
    16  C    0.047877  -1.172104   0.045933   7.539005  -0.048133   0.105948
    17  H   -0.003294  -0.313909  -0.056621  -0.048133   1.841139  -0.199913
    18  H   -0.017507  -0.088074   0.034277   0.105948  -0.199913   1.746571
    19  C   -0.001932  -1.113428   0.069064   0.084071   0.270780  -0.574659
    20  O    0.000442   0.039186  -0.000283  -0.094565   0.028775   0.053760
    21  H   -0.000106  -0.005380  -0.000465  -0.021318   0.002420  -0.012694
    22  H    0.002326  -0.014839  -0.019491   0.258699  -0.094018   0.098391
    23  C    0.011313   1.073075  -0.093145  -0.707449  -0.198913  -0.100109
    24  C    0.000608  -0.255362  -0.002384  -0.185326  -0.010087   0.014155
    25  H   -0.002145   0.014667   0.008019   0.131305  -0.025715   0.028008
    26  C    0.004428   0.005881  -0.013075   0.011176   0.018905  -0.054205
    27  C    0.000257   0.004239  -0.000984  -0.084549  -0.000832  -0.011926
    28  O   -0.000001  -0.000046  -0.000072  -0.001684   0.000424  -0.000571
    29  H    0.000001  -0.000010  -0.000014  -0.000252   0.000002  -0.000061
    30  H    0.000125   0.000539  -0.000282  -0.009112   0.001120  -0.000340
    31  H   -0.000008  -0.000147   0.000076  -0.005234  -0.000109   0.000157
    32  C   -0.000648   0.000091   0.002186  -0.091982  -0.008875   0.026145
    33  O    0.000003  -0.000056  -0.000049  -0.000056   0.000980  -0.000417
    34  H   -0.000003   0.000259   0.000066   0.001210  -0.000161   0.000172
    35  C    0.000120   0.062848  -0.000111   0.295078  -0.003534   0.037813
    36  H    0.000015   0.000647  -0.000212  -0.007340  -0.000835  -0.002931
    37  C   -0.004112   0.083524   0.048152  -0.810102  -0.045371   0.168642
    38  H    0.000331   0.015129  -0.002585   0.101770   0.009326  -0.021568
    39  H   -0.003811   0.295892  -0.102717   0.066430   0.081676  -0.067248
              19         20         21         22         23         24
     1  C   -0.102070   0.002528  -0.002117   0.006407   0.009237   0.007577
     2  H   -0.002521   0.000751  -0.000007   0.000200   0.001515  -0.000571
     3  H   -0.005053  -0.002217  -0.000178   0.003525  -0.007608   0.003120
     4  H    0.003770   0.000267  -0.000102   0.000962  -0.004246   0.000439
     5  C   -0.086686   0.051750  -0.003924   0.023905  -0.105997  -0.069596
     6  C   -0.031352   0.004603  -0.000319  -0.004978   0.093809   0.001051
     7  H   -0.006641   0.002665  -0.000163  -0.000079   0.010336   0.000241
     8  H   -0.023826   0.000060   0.000558  -0.003910   0.003424  -0.002971
     9  H    0.097400  -0.011543   0.000601   0.002614  -0.053277   0.007637
    10  C   -0.090235  -0.002765  -0.000487   0.003087   0.105272  -0.011128
    11  H    0.020791  -0.000787   0.000194   0.000490  -0.004252  -0.001576
    12  H   -0.043887   0.001093  -0.000350   0.000781  -0.003793   0.019039
    13  H   -0.001932   0.000442  -0.000106   0.002326   0.011313   0.000608
    14  N   -1.113428   0.039186  -0.005380  -0.014839   1.073075  -0.255362
    15  H    0.069064  -0.000283  -0.000465  -0.019491  -0.093145  -0.002384
    16  C    0.084071  -0.094565  -0.021318   0.258699  -0.707449  -0.185326
    17  H    0.270780   0.028775   0.002420  -0.094018  -0.198913  -0.010087
    18  H   -0.574659   0.053760  -0.012694   0.098391  -0.100109   0.014155
    19  C   15.799976  -0.824133   0.175519  -0.969090  -5.763287  -0.744004
    20  O   -0.824133   9.037107   0.313474  -0.000718   0.277214  -0.201403
    21  H    0.175519   0.313474   0.524181  -0.059207  -0.105176   0.000249
    22  H   -0.969090  -0.000718  -0.059207   1.689767   0.584977  -0.017221
    23  C   -5.763287   0.277214  -0.105176   0.584977  25.943997  -7.466484
    24  C   -0.744004  -0.201403   0.000249  -0.017221  -7.466484  25.987875
    25  H   -0.279799   0.015561   0.001057  -0.069814   1.035766  -1.939421
    26  C   -1.385489  -0.026122  -0.006567   0.001351   2.098303  -3.931351
    27  C   -0.248712  -0.000186  -0.003031   0.010876  -1.151736  -1.138700
    28  O   -0.005446  -0.000107  -0.000031   0.000521  -0.069668   0.065185
    29  H    0.000378   0.000005  -0.000014   0.000081   0.002157  -0.003785
    30  H    0.028713  -0.000808  -0.000034   0.003878   0.154750   0.179349
    31  H    0.004791   0.000460   0.000039  -0.000518   0.034749  -0.099627
    32  C    0.355581   0.000656  -0.002422   0.009079  -5.076655   0.386980
    33  O    0.001231  -0.000124   0.000084   0.000662   0.098118   0.004259
    34  H    0.002691  -0.000063  -0.000026   0.000096   0.062310   0.045385
    35  C    0.265521  -0.026719   0.011246  -0.020911   2.105730  -4.703969
    36  H    0.005711   0.000568   0.000114  -0.001126  -0.549025   0.179627
    37  C   -0.626618   0.299561  -0.003208  -0.146085  -7.626443  -0.518241
    38  H    0.144791  -0.041887  -0.002604   0.019976   0.775025  -0.019790
    39  H   -0.018366   0.022061  -0.003612  -0.009162  -0.048257   0.016406
              25         26         27         28         29         30
     1  C    0.001829   0.000427  -0.000005   0.000000  -0.000000  -0.000058
     2  H   -0.000041  -0.000052   0.000014  -0.000000   0.000000   0.000001
     3  H   -0.000099   0.000454  -0.000019   0.000001   0.000000  -0.000002
     4  H    0.000155  -0.000327  -0.000009  -0.000001  -0.000000  -0.000011
     5  C   -0.005850  -0.034849  -0.000117  -0.000021  -0.000010   0.000161
     6  C   -0.001670   0.014997   0.000521   0.000005   0.000006   0.000094
     7  H   -0.000040   0.001154   0.000095  -0.000000   0.000000   0.000013
     8  H    0.000440   0.000083  -0.000155   0.000001   0.000000  -0.000018
     9  H   -0.001762  -0.000078   0.000580   0.000024   0.000006   0.000059
    10  C    0.005173   0.005485  -0.000482  -0.000004  -0.000004  -0.000233
    11  H    0.001193  -0.001049  -0.000117  -0.000000  -0.000001  -0.000048
    12  H   -0.001572  -0.001809  -0.000121  -0.000023  -0.000005   0.000006
    13  H   -0.002145   0.004428   0.000257  -0.000001   0.000001   0.000125
    14  N    0.014667   0.005881   0.004239  -0.000046  -0.000010   0.000539
    15  H    0.008019  -0.013075  -0.000984  -0.000072  -0.000014  -0.000282
    16  C    0.131305   0.011176  -0.084549  -0.001684  -0.000252  -0.009112
    17  H   -0.025715   0.018905  -0.000832   0.000424   0.000002   0.001120
    18  H    0.028008  -0.054205  -0.011926  -0.000571  -0.000061  -0.000340
    19  C   -0.279799  -1.385489  -0.248712  -0.005446   0.000378   0.028713
    20  O    0.015561  -0.026122  -0.000186  -0.000107   0.000005  -0.000808
    21  H    0.001057  -0.006567  -0.003031  -0.000031  -0.000014  -0.000034
    22  H   -0.069814   0.001351   0.010876   0.000521   0.000081   0.003878
    23  C    1.035766   2.098303  -1.151736  -0.069668   0.002157   0.154750
    24  C   -1.939421  -3.931351  -1.138700   0.065185  -0.003785   0.179349
    25  H    2.407435   0.407869  -0.037914  -0.016143   0.000910  -0.050979
    26  C    0.407869  17.866283  -1.761604  -0.064114   0.070164   0.186911
    27  C   -0.037914  -1.761604   7.659777   0.248060  -0.144171  -0.144915
    28  O   -0.016143  -0.064114   0.248060   8.521789   0.399461  -0.069903
    29  H    0.000910   0.070164  -0.144171   0.399461   0.491260   0.002999
    30  H   -0.050979   0.186911  -0.144915  -0.069903   0.002999   1.228609
    31  H    0.006482   0.124842   0.218742  -0.013353  -0.033071  -0.125679
    32  C   -0.060240  -4.160257   0.570867  -0.025508  -0.002145  -0.140884
    33  O   -0.006961   0.284945   0.121879  -0.073249  -0.008912   0.006882
    34  H   -0.001916   0.336219  -0.125494  -0.037280   0.007027   0.011189
    35  C    0.069239   0.468410   0.293003  -0.040883   0.007149  -0.065915
    36  H    0.008511  -0.136984   0.014371   0.002269  -0.000448  -0.000041
    37  C    0.130068  -4.128202   0.532640  -0.015994  -0.001306   0.010942
    38  H   -0.027197  -0.024033  -0.008785  -0.000411   0.000092  -0.001011
    39  H   -0.003403   0.002637   0.000732   0.000028   0.000006   0.000242
              31         32         33         34         35         36
     1  C    0.000025   0.000616  -0.000002   0.000000  -0.005441  -0.000089
     2  H   -0.000000   0.000013  -0.000000   0.000000   0.000015  -0.000001
     3  H   -0.000002   0.000051   0.000000  -0.000002  -0.000626   0.000011
     4  H    0.000008   0.000191  -0.000001   0.000001  -0.000293  -0.000042
     5  C    0.000088   0.006618  -0.000003   0.000102   0.025156  -0.000659
     6  C   -0.000085  -0.008983   0.000038  -0.000034   0.004559   0.000721
     7  H    0.000001  -0.000644   0.000005  -0.000002  -0.000165   0.000039
     8  H   -0.000017  -0.000760   0.000005  -0.000005   0.003952   0.000080
     9  H    0.000038   0.000033   0.000046  -0.000017  -0.002982  -0.000085
    10  C   -0.000013   0.000818  -0.000031   0.000035  -0.004384  -0.000103
    11  H    0.000011   0.000265  -0.000004   0.000005   0.000311  -0.000013
    12  H   -0.000072   0.002661  -0.000062   0.000019  -0.007972  -0.000116
    13  H   -0.000008  -0.000648   0.000003  -0.000003   0.000120   0.000015
    14  N   -0.000147   0.000091  -0.000056   0.000259   0.062848   0.000647
    15  H    0.000076   0.002186  -0.000049   0.000066  -0.000111  -0.000212
    16  C   -0.005234  -0.091982  -0.000056   0.001210   0.295078  -0.007340
    17  H   -0.000109  -0.008875   0.000980  -0.000161  -0.003534  -0.000835
    18  H    0.000157   0.026145  -0.000417   0.000172   0.037813  -0.002931
    19  C    0.004791   0.355581   0.001231   0.002691   0.265521   0.005711
    20  O    0.000460   0.000656  -0.000124  -0.000063  -0.026719   0.000568
    21  H    0.000039  -0.002422   0.000084  -0.000026   0.011246   0.000114
    22  H   -0.000518   0.009079   0.000662   0.000096  -0.020911  -0.001126
    23  C    0.034749  -5.076655   0.098118   0.062310   2.105730  -0.549025
    24  C   -0.099627   0.386980   0.004259   0.045385  -4.703969   0.179627
    25  H    0.006482  -0.060240  -0.006961  -0.001916   0.069239   0.008511
    26  C    0.124842  -4.160257   0.284945   0.336219   0.468410  -0.136984
    27  C    0.218742   0.570867   0.121879  -0.125494   0.293003   0.014371
    28  O   -0.013353  -0.025508  -0.073249  -0.037280  -0.040883   0.002269
    29  H   -0.033071  -0.002145  -0.008912   0.007027   0.007149  -0.000448
    30  H   -0.125679  -0.140884   0.006882   0.011189  -0.065915  -0.000041
    31  H    0.921763  -0.058649   0.014422  -0.012688   0.005326   0.000845
    32  C   -0.058649  15.668274  -0.934355  -0.138260  -4.405001   1.347225
    33  O    0.014422  -0.934355   9.115007   0.303513   0.133090  -0.073192
    34  H   -0.012688  -0.138260   0.303513   0.509709  -0.196997  -0.000257
    35  C    0.005326  -4.405001   0.133090  -0.196997  18.290500  -1.739750
    36  H    0.000845   1.347225  -0.073192  -0.000257  -1.739750   1.881344
    37  C   -0.007434   2.542568  -0.016812  -0.035727  -5.982211   0.702915
    38  H   -0.000796  -0.306401  -0.002783  -0.001507   0.831813  -0.109882
    39  H   -0.000086  -0.000905   0.000050  -0.000021   0.000608   0.000276
              37         38         39
     1  C   -0.013033   0.000561  -0.003831
     2  H   -0.000058  -0.000040   0.003787
     3  H   -0.003462  -0.000109  -0.002134
     4  H    0.001055   0.000107  -0.017288
     5  C    0.109045  -0.006127  -0.059061
     6  C   -0.070898   0.005219   0.007717
     7  H   -0.003374   0.000938   0.010891
     8  H   -0.000365  -0.001415   0.012127
     9  H   -0.008294  -0.000573  -0.028721
    10  C    0.001287   0.000933  -0.031093
    11  H    0.004002  -0.000079  -0.009684
    12  H   -0.008957  -0.001086   0.016381
    13  H   -0.004112   0.000331  -0.003811
    14  N    0.083524   0.015129   0.295892
    15  H    0.048152  -0.002585  -0.102717
    16  C   -0.810102   0.101770   0.066430
    17  H   -0.045371   0.009326   0.081676
    18  H    0.168642  -0.021568  -0.067248
    19  C   -0.626618   0.144791  -0.018366
    20  O    0.299561  -0.041887   0.022061
    21  H   -0.003208  -0.002604  -0.003612
    22  H   -0.146085   0.019976  -0.009162
    23  C   -7.626443   0.775025  -0.048257
    24  C   -0.518241  -0.019790   0.016406
    25  H    0.130068  -0.027197  -0.003403
    26  C   -4.128202  -0.024033   0.002637
    27  C    0.532640  -0.008785   0.000732
    28  O   -0.015994  -0.000411   0.000028
    29  H   -0.001306   0.000092   0.000006
    30  H    0.010942  -0.001011   0.000242
    31  H   -0.007434  -0.000796  -0.000086
    32  C    2.542568  -0.306401  -0.000905
    33  O   -0.016812  -0.002783   0.000050
    34  H   -0.035727  -0.001507  -0.000021
    35  C   -5.982211   0.831813   0.000608
    36  H    0.702915  -0.109882   0.000276
    37  C   22.796234  -1.899842  -0.031182
    38  H   -1.899842   2.327657   0.003414
    39  H   -0.031182   0.003414   0.620472
 Mulliken charges:
               1
     1  C    1.340398
     2  H    0.044234
     3  H   -0.019448
     4  H   -0.005669
     5  C   -3.478792
     6  C    1.303524
     7  H   -0.010741
     8  H   -0.002574
     9  H   -0.020302
    10  C    1.339101
    11  H    0.001809
    12  H   -0.042823
    13  H   -0.030456
    14  N   -0.708024
    15  H    0.214288
    16  C    0.726617
    17  H   -0.261376
    18  H   -0.230545
    19  C    1.616456
    20  O   -0.918117
    21  H    0.203807
    22  H   -0.291484
    23  C    0.654445
    24  C    0.403814
    25  H   -0.741007
    26  C   -0.180756
    27  C    1.187913
    28  O   -0.803254
    29  H    0.212504
    30  H   -0.206309
    31  H    0.024721
    32  C    0.502653
    33  O   -0.968151
    34  H    0.270452
    35  C    0.296377
    36  H   -0.522159
    37  C    0.576694
    38  H   -0.756571
    39  H    0.278751
 Sum of Mulliken charges =   1.00000
 Mulliken charges with hydrogens summed into heavy atoms:
               1
     1  C    1.359515
     5  C   -3.478792
     6  C    1.269908
    10  C    1.267631
    14  N   -0.214985
    16  C    0.234696
    19  C    1.324972
    20  O   -0.714310
    23  C    0.654445
    24  C   -0.337193
    26  C   -0.180756
    27  C    1.006324
    28  O   -0.590750
    32  C    0.502653
    33  O   -0.697700
    35  C   -0.225782
    37  C   -0.179877
 Electronic spatial extent (au):  <R**2>=           6717.3180
 Charge=              1.0000 electrons
 Dipole moment (field-independent basis, Debye):
    X=             10.4833    Y=             -4.2389    Z=              1.7732  Tot=             11.4461
 Quadrupole moment (field-independent basis, Debye-Ang):
   XX=            -33.4405   YY=            -88.0412   ZZ=            -95.7382
   XY=             11.4682   XZ=              0.1797   YZ=              0.7496
 Traceless Quadrupole moment (field-independent basis, Debye-Ang):
   XX=             38.9661   YY=            -15.6345   ZZ=            -23.3316
   XY=             11.4682   XZ=              0.1797   YZ=              0.7496
 Octapole moment (field-independent basis, Debye-Ang**2):
  XXX=            127.3291  YYY=            -11.8749  ZZZ=             22.8611  XYY=            -27.6756
  XXY=           -116.1652  XXZ=            -17.4625  XZZ=             32.5376  YZZ=              2.0248
  YYZ=              4.2631  XYZ=             -6.2604
 Hexadecapole moment (field-independent basis, Debye-Ang**3):
 XXXX=          -5293.2228 YYYY=           -817.6113 ZZZZ=           -544.5014 XXXY=            482.3929
 XXXZ=              3.0232 YYYX=             90.5453 YYYZ=              0.6383 ZZZX=             -0.1456
 ZZZY=             34.8277 XXYY=          -1099.8574 XXZZ=          -1273.8776 YYZZ=           -215.2127
 XXYZ=             42.2030 YYXZ=              8.7743 ZZXY=              6.7946
 N-N= 1.243853512207D+03 E-N=-4.305066034536D+03  KE= 7.830366728483D+02
 Leave Link  601 at Sun Jul 18 19:15:08 2021, MaxMem=   262144000 cpu:               0.5 elap:               0.4
 (Enter /dades/curu/g16A03_MST/g16/l9999.exe)
 1\1\GINC-PIRINEUS18\SP\RMP2-FC\Aug-CC-pVDZ\C13H22N1O3(1+)\UBATOR02\18-
 Jul-2021\0\\#p mp2/aug-cc-pVDZ scf=tight maxdisk=180GB geom=allcheck\\
 SET_328_BBB301_conf1.geo_165_120_315 geometry\\1,1\C,0,-1.9043728408,3
 .8954046184,-2.186136978\H,0,-2.4320781424,4.7928739973,-1.8570289384\
 H,0,-2.5682217244,3.3512597213,-2.8633490433\H,0,-1.0208967191,4.21517
 93781,-2.7432158854\C,0,-1.5303181408,3.0590366897,-0.9589724387\C,0,-
 0.5951918355,3.8406837012,-0.031505634\H,0,-1.1131521915,4.740761354,0
 .3059739278\H,0,0.3180724823,4.1547742035,-0.5458958658\H,0,-0.3198802
 139,3.2682367078,0.8556845631\C,0,-2.7822093459,2.5765167756,-0.225187
 8563\H,0,-3.343218225,3.444291077,0.1240425054\H,0,-2.5378749881,1.968
 1102871,0.6475407973\H,0,-3.437315329,2.0003522366,-0.8846147621\N,0,-
 0.7814424572,1.8186602473,-1.4878601882\H,0,-1.3787908468,1.3507368586
 ,-2.18330365\C,0,-0.3217408599,0.8066071436,-0.4761676285\H,0,-1.19629
 29631,0.3719356918,0.0022229927\H,0,0.2727098611,1.3370635087,0.266067
 9874\C,0,0.5321323996,-0.2638616217,-1.1549596883\O,0,1.5047656296,0.4
 72045297,-1.889773696\H,0,2.0664001845,-0.1552368352,-2.3761527344\H,0
 ,-0.1015443257,-0.8498254137,-1.8351519712\C,0,1.1274670492,-1.1918961
 773,-0.1222664479\C,0,0.5123343101,-2.4089280823,0.1758646256\H,0,-0.3
 82860174,-2.7042308331,-0.3664384034\C,0,1.0100727208,-3.2615583003,1.
 1607844885\C,0,0.2646738138,-4.517474325,1.5376858763\O,0,1.2120680374
 ,-5.5805128771,1.7502260589\H,0,0.7587568126,-6.3033272191,2.214950815
 6\H,0,-0.4428455884,-4.7849689659,0.7443422059\H,0,-0.3116923153,-4.35
 11714477,2.457273168\C,0,2.1897747664,-2.8938302347,1.8413428517\O,0,2
 .7442408232,-3.6845470545,2.794541992\H,0,2.3396224268,-4.5780805831,2
 .6956230231\C,0,2.821253964,-1.6805845527,1.538913275\H,0,3.7331762392
 ,-1.4245074741,2.0687593193\C,0,2.287162852,-0.8344214449,0.5745198837
 \H,0,2.7860996932,0.0987141115,0.3330612179\H,0,0.055155161,2.10871983
 63,-2.0134397651\\Version=ES64L-G16RevA.03\State=1-A\HF=-784.0387675\M
 P2=-786.6740632\RMSD=6.842e-09\PG=C01 [X(C13H22N1O3)]\\@


      TO SUSPECT YOUR OWN MORTALITY IS TO KNOW THE BEGINNING OF TERROR.
      TO LEARN IRREFUTABLY THAT YOU ARE MORTAL IS TO KNOW THE END
      OF TERROR.

                                                  -- JESSICA
                                                     CHILDREN OF DUNE
                                                     BY FRANK HERBERT
 Job cpu time:       0 days  3 hours 20 minutes 22.5 seconds.
 Elapsed time:       0 days  1 hours 11 minutes 35.6 seconds.
 File lengths (MBytes):  RWF=  98631 Int=      0 D2E=      0 Chk=     28 Scr=      1
 Normal termination of Gaussian 16 at Sun Jul 18 19:15:11 2021.
