 Entering Gaussian System, Link 0=g16
 Input=SET_328_BBB256_conf1.geo_180_180_270_OCTANOL.dat
 Output=SET_328_BBB256_conf1.geo_180_180_270_OCTANOL.log
 Initial command:
 /dades/curu/g16A03_MST/g16/l1.exe "/tmp/ubator02/1839541/Gau-110224.inp" -scrdir="/tmp/ubator02/1839541/"
 Entering Link 1 = /dades/curu/g16A03_MST/g16/l1.exe PID=    110229.
  
 Copyright (c) 1988,1990,1992,1993,1995,1998,2003,2009,2016,
            Gaussian, Inc.  All Rights Reserved.
  
 This is part of the Gaussian(R) 16 program.  It is based on
 the Gaussian(R) 09 system (copyright 2009, Gaussian, Inc.),
 the Gaussian(R) 03 system (copyright 2003, Gaussian, Inc.),
 the Gaussian(R) 98 system (copyright 1998, Gaussian, Inc.),
 the Gaussian(R) 94 system (copyright 1995, Gaussian, Inc.),
 the Gaussian 92(TM) system (copyright 1992, Gaussian, Inc.),
 the Gaussian 90(TM) system (copyright 1990, Gaussian, Inc.),
 the Gaussian 88(TM) system (copyright 1988, Gaussian, Inc.),
 the Gaussian 86(TM) system (copyright 1986, Carnegie Mellon
 University), and the Gaussian 82(TM) system (copyright 1983,
 Carnegie Mellon University). Gaussian is a federally registered
 trademark of Gaussian, Inc.
  
 This software contains proprietary and confidential information,
 including trade secrets, belonging to Gaussian, Inc.
  
 This software is provided under written license and may be
 used, copied, transmitted, or stored only in accord with that
 written license.
  
 The following legend is applicable only to US Government
 contracts under FAR:
  
                    RESTRICTED RIGHTS LEGEND
  
 Use, reproduction and disclosure by the US Government is
 subject to restrictions as set forth in subparagraphs (a)
 and (c) of the Commercial Computer Software - Restricted
 Rights clause in FAR 52.227-19.
  
 Gaussian, Inc.
 340 Quinnipiac St., Bldg. 40, Wallingford CT 06492
  
  
 ---------------------------------------------------------------
 Warning -- This program may not be used in any manner that
 competes with the business of Gaussian, Inc. or will provide
 assistance to any competitor of Gaussian, Inc.  The licensee
 of this program is prohibited from giving any competitor of
 Gaussian, Inc. access to this program.  By using this program,
 the user acknowledges that Gaussian, Inc. is engaged in the
 business of creating and licensing software in the field of
 computational chemistry and represents and warrants to the
 licensee that it is not a competitor of Gaussian, Inc. and that
 it will not use this program in any manner prohibited above.
 ---------------------------------------------------------------
  

 Cite this work as:
 Gaussian 16, Revision A.03,
 M. J. Frisch, G. W. Trucks, H. B. Schlegel, G. E. Scuseria, 
 M. A. Robb, J. R. Cheeseman, G. Scalmani, V. Barone, 
 G. A. Petersson, H. Nakatsuji, X. Li, M. Caricato, A. V. Marenich, 
 J. Bloino, B. G. Janesko, R. Gomperts, B. Mennucci, H. P. Hratchian, 
 J. V. Ortiz, A. F. Izmaylov, J. L. Sonnenberg, D. Williams-Young, 
 F. Ding, F. Lipparini, F. Egidi, J. Goings, B. Peng, A. Petrone, 
 T. Henderson, D. Ranasinghe, V. G. Zakrzewski, J. Gao, N. Rega, 
 G. Zheng, W. Liang, M. Hada, M. Ehara, K. Toyota, R. Fukuda, 
 J. Hasegawa, M. Ishida, T. Nakajima, Y. Honda, O. Kitao, H. Nakai, 
 T. Vreven, K. Throssell, J. A. Montgomery, Jr., J. E. Peralta, 
 F. Ogliaro, M. J. Bearpark, J. J. Heyd, E. N. Brothers, K. N. Kudin, 
 V. N. Staroverov, T. A. Keith, R. Kobayashi, J. Normand, 
 K. Raghavachari, A. P. Rendell, J. C. Burant, S. S. Iyengar, 
 J. Tomasi, M. Cossi, J. M. Millam, M. Klene, C. Adamo, R. Cammi, 
 J. W. Ochterski, R. L. Martin, K. Morokuma, O. Farkas, 
 J. B. Foresman, and D. J. Fox, Gaussian, Inc., Wallingford CT, 2016.
 
 ******************************************
 Gaussian 16:  ES64L-G16RevA.03 25-Dec-2016
                18-Jul-2021 
 ******************************************
 %mem=800MB
 %nproc=4
 Will use up to    4 processors via shared memory.
 %chk=SET_328_BBB256_conf1.geo_180_180_270.chk
 ---------------------------------------------------------------
 #p b3lyp/6-31G(d) opt freq scrf=(iefpcm,read,solvent=n-octanol)
 ---------------------------------------------------------------
 1/18=20,19=15,26=3,38=1,40=2/1,3;
 2/9=110,12=2,17=6,18=5,40=1/2;
 3/5=1,6=6,7=1,11=2,25=1,30=1,70=2203,71=1,72=25,74=-5/1,2,3;
 4//1;
 5/5=2,38=5,53=25/2;
 6/7=2,8=2,9=2,10=2,28=1/1;
 7//1,2,3,16;
 1/18=20,19=15,26=3/3(2);
 2/9=110/2;
 99//99;
 2/9=110/2;
 3/5=1,6=6,7=1,11=2,25=1,30=1,70=2205,71=1,72=25,74=-5/1,2,3;
 4/5=5,16=3,69=1/1;
 5/5=2,38=5,53=25/2;
 7//1,2,3,16;
 1/18=20,19=15,26=3/3(-5);
 2/9=110/2;
 6/7=2,8=2,9=2,10=2,19=2,28=1/1;
 99/9=1/99;
 Leave Link    1 at Sun Jul 18 13:38:25 2021, MaxMem=   104857600 cpu:               0.0 elap:               0.0
 (Enter /dades/curu/g16A03_MST/g16/l101.exe)
 ---------------------------------------------
 SET_328_BBB256_conf1.geo_180_180_270 geometry
 ---------------------------------------------
 Symbolic Z-matrix:
 Charge =  1 Multiplicity = 1
 C                     1.49      3.012     1.305 
 H                     0.439     3.174     1.558 
 H                     1.697     3.425     0.314 
 H                     2.095     3.575     2.021 
 N                     1.714     1.578     1.309 
 H                     1.688     1.24      2.25 
 C                     0.676     0.914     0.527 
 H                     0.727     1.267    -0.506 
 H                    -0.32      1.019     0.964 
 C                     0.963    -0.475     0.582 
 H                     1.014    -0.794     1.625 
 H                     1.937    -0.745     0.169 
 C                    -0.075    -1.271    -0.201 
 N                    -1.167    -1.677     0.518 
 C                    -2.247    -2.167    -0.131 
 H                    -3.141    -2.516     0.381 
 C                    -2.284    -2.092    -1.485 
 H                    -3.144    -2.399    -2.075 
 C                    -1.237    -1.574    -2.213 
 H                    -1.35     -1.49     -3.291 
 C                    -0.12     -1.185    -1.568 
 H                     0.779    -0.825    -2.061 
 H                     2.609     1.38      0.909 
 
 ITRead=  0  0  0  0  0  0  0  0  0  0  0  0  0  0  0  0  0  0  0  0
 ITRead=  0  0  0
 MicOpt= -1 -1 -1 -1 -1 -1 -1 -1 -1 -1 -1 -1 -1 -1 -1 -1 -1 -1 -1 -1
 MicOpt= -1 -1 -1
 NAtoms=     23 NQM=       23 NQMF=       0 NMMI=      0 NMMIF=      0
                NMic=       0 NMicF=      0.
                    Isotopes and Nuclear Properties:
 (Nuclear quadrupole moments (NQMom) in fm**2, nuclear magnetic moments (NMagM)
  in nuclear magnetons)

  Atom         1           2           3           4           5           6           7           8           9          10
 IAtWgt=          12           1           1           1          14           1          12           1           1          12
 AtmWgt=  12.0000000   1.0078250   1.0078250   1.0078250  14.0030740   1.0078250  12.0000000   1.0078250   1.0078250  12.0000000
 NucSpn=           0           1           1           1           2           1           0           1           1           0
 AtZEff=  -0.0000000  -0.0000000  -0.0000000  -0.0000000  -0.0000000  -0.0000000  -0.0000000  -0.0000000  -0.0000000  -0.0000000
 NQMom=    0.0000000   0.0000000   0.0000000   0.0000000   2.0440000   0.0000000   0.0000000   0.0000000   0.0000000   0.0000000
 NMagM=    0.0000000   2.7928460   2.7928460   2.7928460   0.4037610   2.7928460   0.0000000   2.7928460   2.7928460   0.0000000
 AtZNuc=   6.0000000   1.0000000   1.0000000   1.0000000   7.0000000   1.0000000   6.0000000   1.0000000   1.0000000   6.0000000

  Atom        11          12          13          14          15          16          17          18          19          20
 IAtWgt=           1           1          12          14          12           1          12           1          12           1
 AtmWgt=   1.0078250   1.0078250  12.0000000  14.0030740  12.0000000   1.0078250  12.0000000   1.0078250  12.0000000   1.0078250
 NucSpn=           1           1           0           2           0           1           0           1           0           1
 AtZEff=  -0.0000000  -0.0000000  -0.0000000  -0.0000000  -0.0000000  -0.0000000  -0.0000000  -0.0000000  -0.0000000  -0.0000000
 NQMom=    0.0000000   0.0000000   0.0000000   2.0440000   0.0000000   0.0000000   0.0000000   0.0000000   0.0000000   0.0000000
 NMagM=    2.7928460   2.7928460   0.0000000   0.4037610   0.0000000   2.7928460   0.0000000   2.7928460   0.0000000   2.7928460
 AtZNuc=   1.0000000   1.0000000   6.0000000   7.0000000   6.0000000   1.0000000   6.0000000   1.0000000   6.0000000   1.0000000

  Atom        21          22          23
 IAtWgt=          12           1           1
 AtmWgt=  12.0000000   1.0078250   1.0078250
 NucSpn=           0           1           1
 AtZEff=  -0.0000000  -0.0000000  -0.0000000
 NQMom=    0.0000000   0.0000000   0.0000000
 NMagM=    0.0000000   2.7928460   2.7928460
 AtZNuc=   6.0000000   1.0000000   1.0000000
 Leave Link  101 at Sun Jul 18 13:38:25 2021, MaxMem=   104857600 cpu:               0.1 elap:               0.3
 (Enter /dades/curu/g16A03_MST/g16/l103.exe)

 GradGradGradGradGradGradGradGradGradGradGradGradGradGradGradGradGradGrad
 Berny optimization.
 Initialization pass.
                           ----------------------------
                           !    Initial Parameters    !
                           ! (Angstroms and Degrees)  !
 --------------------------                            --------------------------
 ! Name  Definition              Value          Derivative Info.                !
 --------------------------------------------------------------------------------
 ! R1    R(1,2)                  1.0931         estimate D2E/DX2                !
 ! R2    R(1,3)                  1.0934         estimate D2E/DX2                !
 ! R3    R(1,4)                  1.0935         estimate D2E/DX2                !
 ! R4    R(1,5)                  1.4514         estimate D2E/DX2                !
 ! R5    R(5,6)                  1.0002         estimate D2E/DX2                !
 ! R6    R(5,7)                  1.4594         estimate D2E/DX2                !
 ! R7    R(5,23)                 1.0001         estimate D2E/DX2                !
 ! R8    R(7,8)                  1.0928         estimate D2E/DX2                !
 ! R9    R(7,9)                  1.0927         estimate D2E/DX2                !
 ! R10   R(7,10)                 1.4194         estimate D2E/DX2                !
 ! R11   R(10,11)                1.0919         estimate D2E/DX2                !
 ! R12   R(10,12)                1.0919         estimate D2E/DX2                !
 ! R13   R(10,13)                1.5245         estimate D2E/DX2                !
 ! R14   R(13,14)                1.369          estimate D2E/DX2                !
 ! R15   R(13,21)                1.3704         estimate D2E/DX2                !
 ! R16   R(14,15)                1.3519         estimate D2E/DX2                !
 ! R17   R(15,16)                1.0877         estimate D2E/DX2                !
 ! R18   R(15,17)                1.3566         estimate D2E/DX2                !
 ! R19   R(17,18)                1.0872         estimate D2E/DX2                !
 ! R20   R(17,19)                1.3764         estimate D2E/DX2                !
 ! R21   R(19,20)                1.0872         estimate D2E/DX2                !
 ! R22   R(19,21)                1.3472         estimate D2E/DX2                !
 ! R23   R(21,22)                1.0867         estimate D2E/DX2                !
 ! A1    A(2,1,3)              109.6229         estimate D2E/DX2                !
 ! A2    A(2,1,4)              107.7053         estimate D2E/DX2                !
 ! A3    A(2,1,5)              107.1084         estimate D2E/DX2                !
 ! A4    A(3,1,4)              107.1128         estimate D2E/DX2                !
 ! A5    A(3,1,5)              110.272          estimate D2E/DX2                !
 ! A6    A(4,1,5)              114.9302         estimate D2E/DX2                !
 ! A7    A(1,5,6)              109.4183         estimate D2E/DX2                !
 ! A8    A(1,5,7)              109.7721         estimate D2E/DX2                !
 ! A9    A(1,5,23)             109.4276         estimate D2E/DX2                !
 ! A10   A(6,5,7)              109.3828         estimate D2E/DX2                !
 ! A11   A(6,5,23)             109.4292         estimate D2E/DX2                !
 ! A12   A(7,5,23)             109.3969         estimate D2E/DX2                !
 ! A13   A(5,7,8)              109.0467         estimate D2E/DX2                !
 ! A14   A(5,7,9)              112.9724         estimate D2E/DX2                !
 ! A15   A(5,7,10)             106.2995         estimate D2E/DX2                !
 ! A16   A(8,7,9)              112.9249         estimate D2E/DX2                !
 ! A17   A(8,7,10)             110.077          estimate D2E/DX2                !
 ! A18   A(9,7,10)             105.2386         estimate D2E/DX2                !
 ! A19   A(7,10,11)            109.4118         estimate D2E/DX2                !
 ! A20   A(7,10,12)            114.0607         estimate D2E/DX2                !
 ! A21   A(7,10,13)            110.6939         estimate D2E/DX2                !
 ! A22   A(11,10,12)           104.3242         estimate D2E/DX2                !
 ! A23   A(11,10,13)           111.7076         estimate D2E/DX2                !
 ! A24   A(12,10,13)           106.4984         estimate D2E/DX2                !
 ! A25   A(10,13,14)           115.3531         estimate D2E/DX2                !
 ! A26   A(10,13,21)           120.1263         estimate D2E/DX2                !
 ! A27   A(14,13,21)           121.0835         estimate D2E/DX2                !
 ! A28   A(13,14,15)           119.5098         estimate D2E/DX2                !
 ! A29   A(14,15,16)           123.1547         estimate D2E/DX2                !
 ! A30   A(14,15,17)           118.7438         estimate D2E/DX2                !
 ! A31   A(16,15,17)           117.7184         estimate D2E/DX2                !
 ! A32   A(15,17,18)           123.204          estimate D2E/DX2                !
 ! A33   A(15,17,19)           121.868          estimate D2E/DX2                !
 ! A34   A(18,17,19)           114.8952         estimate D2E/DX2                !
 ! A35   A(17,19,20)           118.3248         estimate D2E/DX2                !
 ! A36   A(17,19,21)           119.086          estimate D2E/DX2                !
 ! A37   A(20,19,21)           122.5881         estimate D2E/DX2                !
 ! A38   A(13,21,19)           119.1214         estimate D2E/DX2                !
 ! A39   A(13,21,22)           116.4979         estimate D2E/DX2                !
 ! A40   A(19,21,22)           124.3587         estimate D2E/DX2                !
 ! D1    D(2,1,5,6)            -71.2011         estimate D2E/DX2                !
 ! D2    D(2,1,5,7)             48.8426         estimate D2E/DX2                !
 ! D3    D(2,1,5,23)           168.9093         estimate D2E/DX2                !
 ! D4    D(3,1,5,6)            169.5722         estimate D2E/DX2                !
 ! D5    D(3,1,5,7)            -70.3841         estimate D2E/DX2                !
 ! D6    D(3,1,5,23)            49.6826         estimate D2E/DX2                !
 ! D7    D(4,1,5,6)             48.4008         estimate D2E/DX2                !
 ! D8    D(4,1,5,7)            168.4445         estimate D2E/DX2                !
 ! D9    D(4,1,5,23)           -71.4888         estimate D2E/DX2                !
 ! D10   D(1,5,7,8)             61.464          estimate D2E/DX2                !
 ! D11   D(1,5,7,9)            -64.9725         estimate D2E/DX2                !
 ! D12   D(1,5,7,10)          -179.8948         estimate D2E/DX2                !
 ! D13   D(6,5,7,8)           -178.4707         estimate D2E/DX2                !
 ! D14   D(6,5,7,9)             55.0929         estimate D2E/DX2                !
 ! D15   D(6,5,7,10)           -59.8294         estimate D2E/DX2                !
 ! D16   D(23,5,7,8)           -58.6214         estimate D2E/DX2                !
 ! D17   D(23,5,7,9)           174.9421         estimate D2E/DX2                !
 ! D18   D(23,5,7,10)           60.0198         estimate D2E/DX2                !
 ! D19   D(5,7,10,11)           56.0602         estimate D2E/DX2                !
 ! D20   D(5,7,10,12)          -60.3389         estimate D2E/DX2                !
 ! D21   D(5,7,10,13)          179.5866         estimate D2E/DX2                !
 ! D22   D(8,7,10,11)          174.0215         estimate D2E/DX2                !
 ! D23   D(8,7,10,12)           57.6224         estimate D2E/DX2                !
 ! D24   D(8,7,10,13)          -62.452          estimate D2E/DX2                !
 ! D25   D(9,7,10,11)          -64.0131         estimate D2E/DX2                !
 ! D26   D(9,7,10,12)          179.5878         estimate D2E/DX2                !
 ! D27   D(9,7,10,13)           59.5133         estimate D2E/DX2                !
 ! D28   D(7,10,13,14)         -89.8618         estimate D2E/DX2                !
 ! D29   D(7,10,13,21)          69.4469         estimate D2E/DX2                !
 ! D30   D(11,10,13,14)         32.3314         estimate D2E/DX2                !
 ! D31   D(11,10,13,21)       -168.3599         estimate D2E/DX2                !
 ! D32   D(12,10,13,14)        145.6373         estimate D2E/DX2                !
 ! D33   D(12,10,13,21)        -55.054          estimate D2E/DX2                !
 ! D34   D(10,13,14,15)        167.8409         estimate D2E/DX2                !
 ! D35   D(21,13,14,15)          8.7472         estimate D2E/DX2                !
 ! D36   D(10,13,21,19)       -161.5885         estimate D2E/DX2                !
 ! D37   D(10,13,21,22)         20.043          estimate D2E/DX2                !
 ! D38   D(14,13,21,19)         -3.4791         estimate D2E/DX2                !
 ! D39   D(14,13,21,22)        178.1525         estimate D2E/DX2                !
 ! D40   D(13,14,15,16)        179.3252         estimate D2E/DX2                !
 ! D41   D(13,14,15,17)         -7.9499         estimate D2E/DX2                !
 ! D42   D(14,15,17,18)       -175.5934         estimate D2E/DX2                !
 ! D43   D(14,15,17,19)          2.2175         estimate D2E/DX2                !
 ! D44   D(16,15,17,18)         -2.4717         estimate D2E/DX2                !
 ! D45   D(16,15,17,19)        175.3392         estimate D2E/DX2                !
 ! D46   D(15,17,19,20)       -176.6334         estimate D2E/DX2                !
 ! D47   D(15,17,19,21)          2.9934         estimate D2E/DX2                !
 ! D48   D(18,17,19,20)          1.3473         estimate D2E/DX2                !
 ! D49   D(18,17,19,21)       -179.0259         estimate D2E/DX2                !
 ! D50   D(17,19,21,13)         -2.3163         estimate D2E/DX2                !
 ! D51   D(17,19,21,22)        175.9148         estimate D2E/DX2                !
 ! D52   D(20,19,21,13)        177.2938         estimate D2E/DX2                !
 ! D53   D(20,19,21,22)         -4.4751         estimate D2E/DX2                !
 --------------------------------------------------------------------------------
 Trust Radius=3.00D-01 FncErr=1.00D-07 GrdErr=1.00D-06 EigMax=2.50D+02 EigMin=1.00D-04
 Number of steps in this run=    126 maximum allowed number of steps=    138.
 GradGradGradGradGradGradGradGradGradGradGradGradGradGradGradGradGradGrad

 Leave Link  103 at Sun Jul 18 13:38:26 2021, MaxMem=   104857600 cpu:               0.0 elap:               0.1
 (Enter /dades/curu/g16A03_MST/g16/l202.exe)
                          Input orientation:                          
 ---------------------------------------------------------------------
 Center     Atomic      Atomic             Coordinates (Angstroms)
 Number     Number       Type             X           Y           Z
 ---------------------------------------------------------------------
      1          6           0        1.490000    3.012000    1.305000
      2          1           0        0.439000    3.174000    1.558000
      3          1           0        1.697000    3.425000    0.314000
      4          1           0        2.095000    3.575000    2.021000
      5          7           0        1.714000    1.578000    1.309000
      6          1           0        1.688000    1.240000    2.250000
      7          6           0        0.676000    0.914000    0.527000
      8          1           0        0.727000    1.267000   -0.506000
      9          1           0       -0.320000    1.019000    0.964000
     10          6           0        0.963000   -0.475000    0.582000
     11          1           0        1.014000   -0.794000    1.625000
     12          1           0        1.937000   -0.745000    0.169000
     13          6           0       -0.075000   -1.271000   -0.201000
     14          7           0       -1.167000   -1.677000    0.518000
     15          6           0       -2.247000   -2.167000   -0.131000
     16          1           0       -3.141000   -2.516000    0.381000
     17          6           0       -2.284000   -2.092000   -1.485000
     18          1           0       -3.144000   -2.399000   -2.075000
     19          6           0       -1.237000   -1.574000   -2.213000
     20          1           0       -1.350000   -1.490000   -3.291000
     21          6           0       -0.120000   -1.185000   -1.568000
     22          1           0        0.779000   -0.825000   -2.061000
     23          1           0        2.609000    1.380000    0.909000
 ---------------------------------------------------------------------
                    Distance matrix (angstroms):
                    1          2          3          4          5
     1  C    0.000000
     2  H    1.093094   0.000000
     3  H    1.093389   1.786925   0.000000
     4  H    1.093458   1.765646   1.759191   0.000000
     5  N    1.451395   2.057873   2.098028   2.154092   0.000000
     6  H    2.017972   2.404001   2.919315   2.381242   1.000200
     7  C    2.381068   2.495342   2.718994   3.365489   1.459405
     8  H    2.628101   2.824834   2.504050   3.685650   2.089286
     9  H    2.713748   2.360708   3.206185   3.671867   2.137443
    10  C    3.599948   3.813444   3.977509   4.444620   2.303766
    11  H    3.848975   4.010005   4.470478   4.518134   2.493239
    12  H    3.950361   4.419489   4.179417   4.702900   2.597240
    13  C    4.802223   4.807942   5.045555   5.755858   3.687468
    14  N    5.446626   5.214694   5.854444   6.362638   4.418243
    15  C    6.545938   6.212375   6.857377   7.513630   5.638098
    16  H    7.270400   6.824795   7.661998   8.197901   6.418181
    17  C    6.933830   6.663733   7.037191   7.973868   6.104043
    18  H    7.885257   7.556117   7.941132   8.939408   7.132191
    19  C    6.390951   6.290701   6.323297   7.452596   5.572072
    20  H    7.032554   6.961768   6.814504   8.107996   6.321449
    21  C    5.334889   5.393073   5.300520   6.359618   4.390314
    22  H    5.153450   5.404143   4.954377   6.144476   4.243293
    23  H    2.018019   2.889383   2.316850   2.513715   1.000114
                    6          7          8          9         10
     6  H    0.000000
     7  C    2.024636   0.000000
     8  H    2.918867   1.092840   0.000000
     9  H    2.394724   1.092708   1.821706   0.000000
    10  C    2.499815   1.419407   2.067366   2.006003   0.000000
    11  H    2.232052   2.058425   2.978465   2.345942   1.091884
    12  H    2.886657   2.114371   2.442922   2.972839   1.091854
    13  C    3.926919   2.422439   2.679118   2.580959   1.524516
    14  N    4.433930   3.179624   3.647321   2.860899   2.446589
    15  C    5.723726   4.297610   4.558252   3.881102   3.698017
    16  H    6.396869   5.133781   5.482635   4.560061   4.587908
    17  C    6.389776   4.673947   4.615999   4.419640   4.174948
    18  H    7.436139   5.686719   5.557514   5.375241   5.256318
    19  C    6.032627   4.166211   3.852587   4.202126   3.722879
    20  H    6.883678   4.945808   4.435223   5.045890   4.623886
    21  C    4.870997   3.070577   2.803133   3.362832   2.509878
    22  H    4.865720   3.119691   2.607143   3.709281   2.672416
    23  H    1.632826   2.024739   2.357312   2.951675   2.501454
                   11         12         13         14         15
    11  H    0.000000
    12  H    1.724606   0.000000
    13  C    2.178928   2.112278   0.000000
    14  N    2.600365   3.259638   1.369037   0.000000
    15  C    3.950036   4.429214   2.350596   1.351925   0.000000
    16  H    4.666567   5.382144   3.359926   2.149271   1.087741
    17  C    4.715263   4.729373   2.683725   2.330649   1.356580
    18  H    5.792667   5.795499   3.768690   3.339680   2.153502
    19  C    4.517261   4.054065   2.343117   2.733838   2.388823
    20  H    5.499088   4.830217   3.349879   3.817976   3.353884
    21  C    3.410878   2.728006   1.370442   2.385303   2.748349
    22  H    3.693614   2.514014   2.094715   3.341266   3.831780
    23  H    2.789795   2.348363   3.932398   4.874044   6.102749
                   16         17         18         19         20
    16  H    0.000000
    17  C    2.096707   0.000000
    18  H    2.458787   1.087175   0.000000
    19  C    3.352822   1.376415   2.082383   0.000000
    20  H    4.212356   2.120471   2.350186   1.087156   0.000000
    21  C    3.833615   2.347857   3.297790   1.347232   2.138844
    22  H    4.918256   3.364377   4.227009   2.156006   2.547109
    23  H    6.965637   6.459680   7.502140   5.767557   6.445974
                   21         22         23
    21  C    0.000000
    22  H    1.086669   0.000000
    23  H    4.490233   4.126963   0.000000
 Stoichiometry    C8H13N2(1+)
 Framework group  C1[X(C8H13N2)]
 Deg. of freedom    63
 Full point group                 C1      NOp   1
 Largest Abelian subgroup         C1      NOp   1
 Largest concise Abelian subgroup C1      NOp   1
                         Standard orientation:                         
 ---------------------------------------------------------------------
 Center     Atomic      Atomic             Coordinates (Angstroms)
 Number     Number       Type             X           Y           Z
 ---------------------------------------------------------------------
      1          6           0       -3.829333    0.189945   -0.867555
      2          1           0       -3.448015   -0.336497   -1.746367
      3          1           0       -3.826650    1.267151   -1.054955
      4          1           0       -4.871504   -0.109547   -0.726720
      5          7           0       -2.945944   -0.130244    0.238633
      6          1           0       -3.084321   -1.083029    0.509655
      7          6           0       -1.557231    0.061063   -0.167250
      8          1           0       -1.405422    1.109392   -0.436059
      9          1           0       -1.243764   -0.629710   -0.953749
     10          6           0       -0.762923   -0.272666    0.960764
     11          1           0       -1.001267   -1.287714    1.284927
     12          1           0       -0.957226    0.344427    1.840302
     13          6           0        0.719471   -0.116288    0.641073
     14          7           0        1.331403   -1.232449    0.137105
     15          6           0        2.565789   -1.128046   -0.404276
     16          1           0        3.110434   -1.976905   -0.811683
     17          6           0        3.098097    0.107089   -0.581472
     18          1           0        4.052760    0.279132   -1.072359
     19          6           0        2.436522    1.247200   -0.185264
     20          1           0        2.890951    2.210038   -0.405143
     21          6           0        1.254000    1.131015    0.449698
     22          1           0        0.690806    1.967269    0.855091
     23          1           0       -3.151345    0.468971    1.012572
 ---------------------------------------------------------------------
 Rotational constants (GHZ):           3.5577501           0.6247172           0.5941315
 Leave Link  202 at Sun Jul 18 13:38:26 2021, MaxMem=   104857600 cpu:               0.1 elap:               0.1
 (Enter /dades/curu/g16A03_MST/g16/l301.exe)
 Standard basis: 6-31G(d) (6D, 7F)
 Ernie: Thresh=  0.10000D-02 Tol=  0.10000D-05 Strict=F.
 There are   176 symmetry adapted cartesian basis functions of A   symmetry.
 There are   176 symmetry adapted basis functions of A   symmetry.
   176 basis functions,   332 primitive gaussians,   176 cartesian basis functions
    37 alpha electrons       37 beta electrons
       nuclear repulsion energy       518.1227113329 Hartrees.
 IExCor=  402 DFT=T Ex+Corr=B3LYP ExCW=0 ScaHFX=  0.200000
 ScaDFX=  0.800000  0.720000  1.000000  0.810000 ScalE2=  1.000000  1.000000
 IRadAn=      5 IRanWt=     -1 IRanGd=            0 ICorTp=0 IEmpDi=  4
 NAtoms=   23 NActive=   23 NUniq=   23 SFac= 1.00D+00 NAtFMM=   60 NAOKFM=F Big=F
 Integral buffers will be    131072 words long.
 Raffenetti 2 integral format.
 Two-electron integral symmetry is turned on.
 Using the following non-standard input for PCM:
 MSTModel=DFT cav MSTCharged
 --- end of non-standard input.
 MST model for solvation energy: B3LYP parametrization.
 MST cavity parameters:
 ISph   IAn     Re0     Alpha   Atom Type   QCorr
 ------------------------------------------------
   1      6     1.50     1.50      CN+        F
   2      1     1.20     1.50      CN+        F
   3      1     1.20     1.50      CN+        F
   4      1     1.20     1.50      CN+        F
   5      7     1.50     1.15      NH+        T
   6      1     0.90     1.15      NH+        T
   7      6     1.50     1.50      CN+        F
   8      1     1.20     1.50      CN+        F
   9      1     1.20     1.50      CN+        F
  10      6     1.50     1.50      CH2        F
  11      1     1.20     1.50      CH2        F
  12      1     1.20     1.50      CH2        F
  13      6     1.50     1.50      C          F
  14      7     1.50     1.50      Nc         F
  15      6     1.50     1.50      CH         F
  16      1     1.20     1.50      CH         F
  17      6     1.50     1.50      CH         F
  18      1     1.20     1.50      CH         F
  19      6     1.50     1.50      CH         F
  20      1     1.20     1.50      CH         F
  21      6     1.50     1.50      CH         F
  22      1     1.20     1.50      CH         F
  23      1     0.90     1.15      NH+        T
 ------------------------------------------------------------------------------
 Polarizable Continuum Model (PCM)
 =================================
 Model                : PCM.
 Atomic radii         : MST.
 Polarization charges : Total charges.
 Charge compensation  : None.
 Solution method      : On-the-fly selection.
 Cavity type          : Scaled VdW (van der Waals Surface) (Alpha=1.500).
 Cavity algorithm     : GePol (No added spheres)
                        Default sphere list used, NSphG=   23.
                        Lebedev-Laikov grids with approx.  5.0 points / Ang**2.
                        Smoothing algorithm: York/Karplus (Gamma=1.0000).
                        Polarization charges: spherical gaussians, with
                                              point-specific exponents (IZeta= 3).
                        Self-potential: point-specific (ISelfS= 7).
                        Self-field    : sphere-specific E.n sum rule (ISelfD= 2).
 1st derivatives      : Analytical E(r).r(x)/FMM algorithm (CHGder, D1EAlg=3).
                        Cavity 1st derivative terms included.
 Solvent              : n-Octanol, Eps=   9.862900 Eps(inf)=   2.043470
 ------------------------------------------------------------------------------
 GePol: Number of generator spheres                  =      23
 GePol: Total number of spheres                      =      23
 GePol: Number of exposed spheres                    =      23 (100.00%)
 GePol: Number of points                             =    2296
 GePol: Average weight of points                     =       0.11
 GePol: Minimum weight of points                     =   0.14D-11
 GePol: Maximum weight of points                     =    0.21363
 GePol: Number of points with low weight             =     160
 GePol: Fraction of low-weight points (<1% of avg)   =       6.97%
 GePol: Cavity surface area                          =    242.014 Ang**2
 GePol: Cavity volume                                =    257.598 Ang**3
 Surface areas from nonelectrostatic (unscaled) cavity and vdw tensions:
 Sphere =    1 Type =  CN+ Surf =        5.012 Tension =       -0.227
 Sphere =    2 Type =  CN+ Surf =        9.751 Tension =       -0.227
 Sphere =    3 Type =  CN+ Surf =       10.099 Tension =       -0.227
 Sphere =    4 Type =  CN+ Surf =       10.161 Tension =       -0.227
 Sphere =    5 Type =  NH+ Surf =        7.639 Tension =       -0.274
 Sphere =    6 Type =  NH+ Surf =        3.837 Tension =       -0.274
 Sphere =    7 Type =  CN+ Surf =        3.154 Tension =       -0.227
 Sphere =    8 Type =  CN+ Surf =        9.932 Tension =       -0.227
 Sphere =    9 Type =  CN+ Surf =        9.773 Tension =       -0.227
 Sphere =   10 Type =  CH2 Surf =        3.069 Tension =       -0.194
 Sphere =   11 Type =  CH2 Surf =        9.770 Tension =       -0.194
 Sphere =   12 Type =  CH2 Surf =        9.919 Tension =       -0.194
 Sphere =   13 Type =  C   Surf =        5.788 Tension =       -0.205
 Sphere =   14 Type =  Nc  Surf =       12.610 Tension =       -0.161
 Sphere =   15 Type =  CH  Surf =        7.610 Tension =       -0.195
 Sphere =   16 Type =  CH  Surf =       10.232 Tension =       -0.195
 Sphere =   17 Type =  CH  Surf =        7.490 Tension =       -0.195
 Sphere =   18 Type =  CH  Surf =       10.182 Tension =       -0.195
 Sphere =   19 Type =  CH  Surf =        7.564 Tension =       -0.195
 Sphere =   20 Type =  CH  Surf =       10.222 Tension =       -0.195
 Sphere =   21 Type =  CH  Surf =        7.482 Tension =       -0.195
 Sphere =   22 Type =  CH  Surf =       10.190 Tension =       -0.195
 Sphere =   23 Type =  NH+ Surf =        3.843 Tension =       -0.274
 PCM non-electrostatic energy =        -0.0125828327 Hartrees.
 Nuclear repulsion after PCM non-electrostatic terms =      518.1101285002 Hartrees.
 Leave Link  301 at Sun Jul 18 13:38:26 2021, MaxMem=   104857600 cpu:               0.1 elap:               0.2
 (Enter /dades/curu/g16A03_MST/g16/l302.exe)
 NPDir=0 NMtPBC=     1 NCelOv=     1 NCel=       1 NClECP=     1 NCelD=      1
         NCelK=      1 NCelE2=     1 NClLst=     1 CellRange=     0.0.
 One-electron integrals computed using PRISM.
 One-electron integral symmetry used in STVInt
 NBasis=   176 RedAO= T EigKep=  7.30D-04  NBF=   176
 NBsUse=   176 1.00D-06 EigRej= -1.00D+00 NBFU=   176
 Precomputing XC quadrature grid using
 IXCGrd= 4 IRadAn=           5 IRanWt=          -1 IRanGd=           0 AccXCQ= 0.00D+00.
 Generated NRdTot=       0 NPtTot=           0 NUsed=           0 NTot=          32
 NSgBfM=   176   176   176   176   176 MxSgAt=    23 MxSgA2=    23.
 Leave Link  302 at Sun Jul 18 13:38:28 2021, MaxMem=   104857600 cpu:               3.2 elap:               1.2
 (Enter /dades/curu/g16A03_MST/g16/l303.exe)
 DipDrv:  MaxL=1.
 Leave Link  303 at Sun Jul 18 13:38:28 2021, MaxMem=   104857600 cpu:               0.1 elap:               0.1
 (Enter /dades/curu/g16A03_MST/g16/l401.exe)
 ExpMin= 1.61D-01 ExpMax= 4.17D+03 ExpMxC= 6.27D+02 IAcc=3 IRadAn=         5 AccDes= 0.00D+00
 Harris functional with IExCor=  402 and IRadAn=       5 diagonalized for initial guess.
 HarFok:  IExCor=  402 AccDes= 0.00D+00 IRadAn=         5 IDoV= 1 UseB2=F ITyADJ=14
 ICtDFT=  3500011 ScaDFX=  1.000000  1.000000  1.000000  1.000000
 FoFCou: FMM=F IPFlag=           0 FMFlag=      100000 FMFlg1=           0
         NFxFlg=           0 DoJE=T BraDBF=F KetDBF=T FulRan=T
         wScrn=  0.000000 ICntrl=       500 IOpCl=  0 I1Cent=   200000004 NGrid=           0
         NMat0=    1 NMatS0=      1 NMatT0=    0 NMatD0=    1 NMtDS0=    0 NMtDT0=    0
 Petite list used in FoFCou.
 Harris En= -421.965373375141    
 JPrj=0 DoOrth=F DoCkMO=F.
 Leave Link  401 at Sun Jul 18 13:38:32 2021, MaxMem=   104857600 cpu:              14.2 elap:               3.9
 (Enter /dades/curu/g16A03_MST/g16/l502.exe)
 Integral symmetry usage will be decided dynamically.
 Closed shell SCF:
 Using DIIS extrapolation, IDIIS=  1040.
 NGot=   104857600 LenX=   104792409 LenY=   104760992
 Requested convergence on RMS density matrix=1.00D-08 within 128 cycles.
 Requested convergence on MAX density matrix=1.00D-06.
 Requested convergence on             energy=1.00D-06.
 No special actions if energy rises.
 Fock matrices will be formed incrementally for  20 cycles.

 Cycle   1  Pass 1  IDiag  1:
 FoFJK:  IHMeth= 1 ICntrl=       0 DoSepK=F KAlg= 0 I1Cent=           0 FoldK=F
 IRaf= 900000000 NMat=       1 IRICut=       1 DoRegI=T DoRafI=F ISym2E= 0 IDoP0=0 IntGTp=1.
 FoFCou: FMM=F IPFlag=           0 FMFlag=      100000 FMFlg1=           0
         NFxFlg=           0 DoJE=F BraDBF=F KetDBF=F FulRan=T
         wScrn=  0.000000 ICntrl=         0 IOpCl=  0 I1Cent=           0 NGrid=           0
         NMat0=    1 NMatS0=      1 NMatT0=    0 NMatD0=    1 NMtDS0=    0 NMtDT0=    0
 Symmetry not used in FoFCou.
 Inv3:  Mode=1 IEnd=    15814848.
 Iteration    1 A*A^-1 deviation from unit magnitude is 4.44D-15 for   2269.
 Iteration    1 A*A^-1 deviation from orthogonality  is 1.98D-15 for   1524   1077.
 Iteration    1 A^-1*A deviation from unit magnitude is 4.22D-15 for   2269.
 Iteration    1 A^-1*A deviation from orthogonality  is 2.25D-15 for   2287    571.
 E= -421.803380184272    
 DIIS: error= 2.69D-02 at cycle   1 NSaved=   1.
 NSaved= 1 IEnMin= 1 EnMin= -421.803380184272     IErMin= 1 ErrMin= 2.69D-02
 ErrMax= 2.69D-02  0.00D+00 EMaxC= 1.00D-01 BMatC= 2.01D-01 BMatP= 2.01D-01
 IDIUse=3 WtCom= 7.31D-01 WtEn= 2.69D-01
 Coeff-Com:  0.100D+01
 Coeff-En:   0.100D+01
 Coeff:      0.100D+01
 Gap=     0.241 Goal=   None    Shift=    0.000
 GapD=    0.241 DampG=1.000 DampE=0.500 DampFc=0.5000 IDamp=-1.
 Damping current iteration by 5.00D-01
 RMSDP=5.40D-03 MaxDP=1.16D-01              OVMax= 1.70D-01

 Cycle   2  Pass 1  IDiag  1:
 RMSU=  2.63D-03    CP:  9.75D-01
 E= -421.905073803383     Delta-E=       -0.101693619111 Rises=F Damp=T
 DIIS: error= 5.42D-03 at cycle   2 NSaved=   2.
 NSaved= 2 IEnMin= 2 EnMin= -421.905073803383     IErMin= 2 ErrMin= 5.42D-03
 ErrMax= 5.42D-03  0.00D+00 EMaxC= 1.00D-01 BMatC= 1.17D-02 BMatP= 2.01D-01
 IDIUse=3 WtCom= 9.46D-01 WtEn= 5.42D-02
 Coeff-Com: -0.136D-01 0.101D+01
 Coeff-En:   0.000D+00 0.100D+01
 Coeff:     -0.128D-01 0.101D+01
 Gap=     0.224 Goal=   None    Shift=    0.000
 RMSDP=1.31D-03 MaxDP=2.14D-02 DE=-1.02D-01 OVMax= 1.23D-01

 Cycle   3  Pass 1  IDiag  1:
 RMSU=  1.30D-03    CP:  9.70D-01  1.01D+00
 E= -422.008390663177     Delta-E=       -0.103316859794 Rises=F Damp=F
 DIIS: error= 3.70D-03 at cycle   3 NSaved=   3.
 NSaved= 3 IEnMin= 3 EnMin= -422.008390663177     IErMin= 3 ErrMin= 3.70D-03
 ErrMax= 3.70D-03  0.00D+00 EMaxC= 1.00D-01 BMatC= 4.42D-03 BMatP= 1.17D-02
 IDIUse=3 WtCom= 9.63D-01 WtEn= 3.70D-02
 Coeff-Com: -0.483D-01 0.371D+00 0.677D+00
 Coeff-En:   0.000D+00 0.000D+00 0.100D+01
 Coeff:     -0.465D-01 0.357D+00 0.689D+00
 Gap=     0.233 Goal=   None    Shift=    0.000
 RMSDP=6.46D-04 MaxDP=1.63D-02 DE=-1.03D-01 OVMax= 4.71D-02

 Cycle   4  Pass 1  IDiag  1:
 RMSU=  5.23D-04    CP:  9.71D-01  1.02D+00  7.09D-01
 E= -422.010630423187     Delta-E=       -0.002239760010 Rises=F Damp=F
 DIIS: error= 2.47D-03 at cycle   4 NSaved=   4.
 NSaved= 4 IEnMin= 4 EnMin= -422.010630423187     IErMin= 4 ErrMin= 2.47D-03
 ErrMax= 2.47D-03  0.00D+00 EMaxC= 1.00D-01 BMatC= 2.17D-03 BMatP= 4.42D-03
 IDIUse=3 WtCom= 9.75D-01 WtEn= 2.47D-02
 Coeff-Com: -0.256D-01 0.108D+00 0.434D+00 0.483D+00
 Coeff-En:   0.000D+00 0.000D+00 0.356D+00 0.644D+00
 Coeff:     -0.250D-01 0.105D+00 0.432D+00 0.487D+00
 Gap=     0.225 Goal=   None    Shift=    0.000
 RMSDP=3.30D-04 MaxDP=8.55D-03 DE=-2.24D-03 OVMax= 2.20D-02

 Cycle   5  Pass 1  IDiag  1:
 RMSU=  1.26D-04    CP:  9.70D-01  1.03D+00  8.08D-01  4.79D-01
 E= -422.012893935481     Delta-E=       -0.002263512294 Rises=F Damp=F
 DIIS: error= 5.60D-04 at cycle   5 NSaved=   5.
 NSaved= 5 IEnMin= 5 EnMin= -422.012893935481     IErMin= 5 ErrMin= 5.60D-04
 ErrMax= 5.60D-04  0.00D+00 EMaxC= 1.00D-01 BMatC= 1.03D-04 BMatP= 2.17D-03
 IDIUse=3 WtCom= 9.94D-01 WtEn= 5.60D-03
 Coeff-Com: -0.896D-02 0.260D-01 0.174D+00 0.257D+00 0.552D+00
 Coeff-En:   0.000D+00 0.000D+00 0.000D+00 0.000D+00 0.100D+01
 Coeff:     -0.891D-02 0.258D-01 0.173D+00 0.256D+00 0.555D+00
 Gap=     0.226 Goal=   None    Shift=    0.000
 RMSDP=6.35D-05 MaxDP=2.67D-03 DE=-2.26D-03 OVMax= 5.10D-03

 Cycle   6  Pass 1  IDiag  1:
 RMSU=  3.88D-05    CP:  9.70D-01  1.03D+00  8.06D-01  5.31D-01  6.67D-01
 E= -422.012977453468     Delta-E=       -0.000083517987 Rises=F Damp=F
 DIIS: error= 2.03D-04 at cycle   6 NSaved=   6.
 NSaved= 6 IEnMin= 6 EnMin= -422.012977453468     IErMin= 6 ErrMin= 2.03D-04
 ErrMax= 2.03D-04  0.00D+00 EMaxC= 1.00D-01 BMatC= 1.38D-05 BMatP= 1.03D-04
 IDIUse=3 WtCom= 9.98D-01 WtEn= 2.03D-03
 Coeff-Com: -0.269D-02 0.458D-02 0.576D-01 0.101D+00 0.322D+00 0.518D+00
 Coeff-En:   0.000D+00 0.000D+00 0.000D+00 0.000D+00 0.608D-01 0.939D+00
 Coeff:     -0.268D-02 0.457D-02 0.575D-01 0.100D+00 0.322D+00 0.518D+00
 Gap=     0.226 Goal=   None    Shift=    0.000
 RMSDP=1.88D-05 MaxDP=8.06D-04 DE=-8.35D-05 OVMax= 1.07D-03

 Cycle   7  Pass 1  IDiag  1:
 RMSU=  7.83D-06    CP:  9.70D-01  1.03D+00  8.09D-01  5.32D-01  7.01D-01
                    CP:  5.90D-01
 E= -422.012988962702     Delta-E=       -0.000011509235 Rises=F Damp=F
 DIIS: error= 2.66D-05 at cycle   7 NSaved=   7.
 NSaved= 7 IEnMin= 7 EnMin= -422.012988962702     IErMin= 7 ErrMin= 2.66D-05
 ErrMax= 2.66D-05  0.00D+00 EMaxC= 1.00D-01 BMatC= 3.44D-07 BMatP= 1.38D-05
 IDIUse=1 WtCom= 1.00D+00 WtEn= 0.00D+00
 Coeff-Com: -0.896D-03 0.114D-02 0.207D-01 0.372D-01 0.128D+00 0.244D+00
 Coeff-Com:  0.570D+00
 Coeff:     -0.896D-03 0.114D-02 0.207D-01 0.372D-01 0.128D+00 0.244D+00
 Coeff:      0.570D+00
 Gap=     0.226 Goal=   None    Shift=    0.000
 RMSDP=4.23D-06 MaxDP=1.05D-04 DE=-1.15D-05 OVMax= 1.78D-04

 Cycle   8  Pass 1  IDiag  1:
 RMSU=  2.89D-06    CP:  9.70D-01  1.03D+00  8.09D-01  5.33D-01  7.03D-01
                    CP:  6.16D-01  6.53D-01
 E= -422.012989240567     Delta-E=       -0.000000277864 Rises=F Damp=F
 DIIS: error= 1.02D-05 at cycle   8 NSaved=   8.
 NSaved= 8 IEnMin= 8 EnMin= -422.012989240567     IErMin= 8 ErrMin= 1.02D-05
 ErrMax= 1.02D-05  0.00D+00 EMaxC= 1.00D-01 BMatC= 4.48D-08 BMatP= 3.44D-07
 IDIUse=1 WtCom= 1.00D+00 WtEn= 0.00D+00
 Coeff-Com: -0.518D-04-0.142D-03 0.237D-02 0.436D-02 0.187D-01 0.541D-01
 Coeff-Com:  0.293D+00 0.627D+00
 Coeff:     -0.518D-04-0.142D-03 0.237D-02 0.436D-02 0.187D-01 0.541D-01
 Coeff:      0.293D+00 0.627D+00
 Gap=     0.226 Goal=   None    Shift=    0.000
 RMSDP=1.41D-06 MaxDP=3.45D-05 DE=-2.78D-07 OVMax= 9.57D-05

 Cycle   9  Pass 1  IDiag  1:
 RMSU=  8.65D-07    CP:  9.70D-01  1.03D+00  8.09D-01  5.33D-01  7.04D-01
                    CP:  6.16D-01  7.18D-01  6.64D-01
 E= -422.012989279356     Delta-E=       -0.000000038789 Rises=F Damp=F
 DIIS: error= 4.12D-06 at cycle   9 NSaved=   9.
 NSaved= 9 IEnMin= 9 EnMin= -422.012989279356     IErMin= 9 ErrMin= 4.12D-06
 ErrMax= 4.12D-06  0.00D+00 EMaxC= 1.00D-01 BMatC= 4.69D-09 BMatP= 4.48D-08
 IDIUse=1 WtCom= 1.00D+00 WtEn= 0.00D+00
 Coeff-Com:  0.295D-04-0.163D-03 0.661D-04 0.888D-04 0.227D-02 0.161D-01
 Coeff-Com:  0.125D+00 0.345D+00 0.512D+00
 Coeff:      0.295D-04-0.163D-03 0.661D-04 0.888D-04 0.227D-02 0.161D-01
 Coeff:      0.125D+00 0.345D+00 0.512D+00
 Gap=     0.226 Goal=   None    Shift=    0.000
 RMSDP=4.89D-07 MaxDP=1.18D-05 DE=-3.88D-08 OVMax= 3.28D-05

 Cycle  10  Pass 1  IDiag  1:
 RMSU=  2.89D-07    CP:  9.70D-01  1.03D+00  8.09D-01  5.33D-01  7.04D-01
                    CP:  6.18D-01  7.25D-01  7.22D-01  6.16D-01
 E= -422.012989283948     Delta-E=       -0.000000004591 Rises=F Damp=F
 DIIS: error= 1.24D-06 at cycle  10 NSaved=  10.
 NSaved=10 IEnMin=10 EnMin= -422.012989283948     IErMin=10 ErrMin= 1.24D-06
 ErrMax= 1.24D-06  0.00D+00 EMaxC= 1.00D-01 BMatC= 4.24D-10 BMatP= 4.69D-09
 IDIUse=1 WtCom= 1.00D+00 WtEn= 0.00D+00
 Coeff-Com:  0.248D-04-0.562D-04-0.347D-03-0.729D-03-0.215D-02-0.133D-03
 Coeff-Com:  0.146D-01 0.721D-01 0.252D+00 0.665D+00
 Coeff:      0.248D-04-0.562D-04-0.347D-03-0.729D-03-0.215D-02-0.133D-03
 Coeff:      0.146D-01 0.721D-01 0.252D+00 0.665D+00
 Gap=     0.226 Goal=   None    Shift=    0.000
 RMSDP=1.33D-07 MaxDP=3.16D-06 DE=-4.59D-09 OVMax= 9.88D-06

 Cycle  11  Pass 1  IDiag  1:
 RMSU=  6.63D-08    CP:  9.70D-01  1.03D+00  8.09D-01  5.33D-01  7.04D-01
                    CP:  6.19D-01  7.26D-01  7.25D-01  7.02D-01  7.45D-01
 E= -422.012989284364     Delta-E=       -0.000000000417 Rises=F Damp=F
 DIIS: error= 2.63D-07 at cycle  11 NSaved=  11.
 NSaved=11 IEnMin=11 EnMin= -422.012989284364     IErMin=11 ErrMin= 2.63D-07
 ErrMax= 2.63D-07  0.00D+00 EMaxC= 1.00D-01 BMatC= 2.63D-11 BMatP= 4.24D-10
 IDIUse=1 WtCom= 1.00D+00 WtEn= 0.00D+00
 Coeff-Com:  0.101D-04-0.178D-04-0.159D-03-0.345D-03-0.115D-02-0.697D-03
 Coeff-Com: -0.170D-03 0.156D-01 0.853D-01 0.302D+00 0.599D+00
 Coeff:      0.101D-04-0.178D-04-0.159D-03-0.345D-03-0.115D-02-0.697D-03
 Coeff:     -0.170D-03 0.156D-01 0.853D-01 0.302D+00 0.599D+00
 Gap=     0.226 Goal=   None    Shift=    0.000
 RMSDP=3.17D-08 MaxDP=8.49D-07 DE=-4.17D-10 OVMax= 1.30D-06

 Cycle  12  Pass 1  IDiag  1:
 RMSU=  2.28D-08    CP:  9.70D-01  1.03D+00  8.09D-01  5.33D-01  7.04D-01
                    CP:  6.19D-01  7.26D-01  7.28D-01  7.04D-01  7.84D-01
                    CP:  7.91D-01
 E= -422.012989284385     Delta-E=       -0.000000000021 Rises=F Damp=F
 DIIS: error= 7.23D-08 at cycle  12 NSaved=  12.
 NSaved=12 IEnMin=12 EnMin= -422.012989284385     IErMin=12 ErrMin= 7.23D-08
 ErrMax= 7.23D-08  0.00D+00 EMaxC= 1.00D-01 BMatC= 2.41D-12 BMatP= 2.63D-11
 IDIUse=1 WtCom= 1.00D+00 WtEn= 0.00D+00
 Coeff-Com:  0.972D-06-0.178D-06-0.161D-04-0.416D-04-0.183D-03-0.118D-03
 Coeff-Com: -0.203D-02-0.264D-02 0.415D-03 0.349D-01 0.236D+00 0.734D+00
 Coeff:      0.972D-06-0.178D-06-0.161D-04-0.416D-04-0.183D-03-0.118D-03
 Coeff:     -0.203D-02-0.264D-02 0.415D-03 0.349D-01 0.236D+00 0.734D+00
 Gap=     0.226 Goal=   None    Shift=    0.000
 RMSDP=9.94D-09 MaxDP=2.80D-07 DE=-2.13D-11 OVMax= 5.20D-07

 Error on total polarization charges =  0.00625
 SCF Done:  E(RB3LYP) =  -422.012989284     A.U. after   12 cycles
            NFock= 12  Conv=0.99D-08     -V/T= 2.0083
 KE= 4.185321093238D+02 PE=-2.001855373884D+03 EE= 6.432001467760D+02
 Leave Link  502 at Sun Jul 18 13:40:00 2021, MaxMem=   104857600 cpu:             332.2 elap:              87.6
 (Enter /dades/curu/g16A03_MST/g16/l601.exe)
 Copying SCF densities to generalized density rwf, IOpCl= 0 IROHF=0.

 **********************************************************************

            Population analysis using the SCF density.

 **********************************************************************

 Orbital symmetries:
       Occupied  (A) (A) (A) (A) (A) (A) (A) (A) (A) (A) (A) (A)
                 (A) (A) (A) (A) (A) (A) (A) (A) (A) (A) (A) (A)
                 (A) (A) (A) (A) (A) (A) (A) (A) (A) (A) (A) (A)
                 (A)
       Virtual   (A) (A) (A) (A) (A) (A) (A) (A) (A) (A) (A) (A)
                 (A) (A) (A) (A) (A) (A) (A) (A) (A) (A) (A) (A)
                 (A) (A) (A) (A) (A) (A) (A) (A) (A) (A) (A) (A)
                 (A) (A) (A) (A) (A) (A) (A) (A) (A) (A) (A) (A)
                 (A) (A) (A) (A) (A) (A) (A) (A) (A) (A) (A) (A)
                 (A) (A) (A) (A) (A) (A) (A) (A) (A) (A) (A) (A)
                 (A) (A) (A) (A) (A) (A) (A) (A) (A) (A) (A) (A)
                 (A) (A) (A) (A) (A) (A) (A) (A) (A) (A) (A) (A)
                 (A) (A) (A) (A) (A) (A) (A) (A) (A) (A) (A) (A)
                 (A) (A) (A) (A) (A) (A) (A) (A) (A) (A) (A) (A)
                 (A) (A) (A) (A) (A) (A) (A) (A) (A) (A) (A) (A)
                 (A) (A) (A) (A) (A) (A) (A)
 The electronic state is 1-A.
 Alpha  occ. eigenvalues --  -14.48319 -14.34829 -10.27109 -10.26670 -10.24923
 Alpha  occ. eigenvalues --  -10.23685 -10.21860 -10.21525 -10.20979 -10.20414
 Alpha  occ. eigenvalues --   -1.06375  -0.95688  -0.85374  -0.82319  -0.78294
 Alpha  occ. eigenvalues --   -0.74535  -0.69268  -0.65407  -0.64389  -0.62267
 Alpha  occ. eigenvalues --   -0.56220  -0.55321  -0.52441  -0.52162  -0.48422
 Alpha  occ. eigenvalues --   -0.47479  -0.45047  -0.44513  -0.43901  -0.43078
 Alpha  occ. eigenvalues --   -0.41168  -0.40335  -0.38863  -0.37221  -0.30265
 Alpha  occ. eigenvalues --   -0.28042  -0.26828
 Alpha virt. eigenvalues --   -0.04238  -0.02533   0.02877   0.06573   0.07715
 Alpha virt. eigenvalues --    0.08475   0.09311   0.10577   0.12214   0.12649
 Alpha virt. eigenvalues --    0.13517   0.13923   0.14240   0.16116   0.16566
 Alpha virt. eigenvalues --    0.17100   0.17741   0.19135   0.21578   0.24562
 Alpha virt. eigenvalues --    0.27356   0.30816   0.31527   0.32650   0.43199
 Alpha virt. eigenvalues --    0.44888   0.46732   0.47306   0.48252   0.49783
 Alpha virt. eigenvalues --    0.50468   0.52179   0.55057   0.56995   0.57669
 Alpha virt. eigenvalues --    0.58292   0.58511   0.60025   0.61921   0.62271
 Alpha virt. eigenvalues --    0.64175   0.64910   0.67569   0.69122   0.69604
 Alpha virt. eigenvalues --    0.72341   0.74509   0.77768   0.79745   0.81353
 Alpha virt. eigenvalues --    0.82093   0.82561   0.82830   0.83478   0.85446
 Alpha virt. eigenvalues --    0.86072   0.87364   0.87907   0.88713   0.88941
 Alpha virt. eigenvalues --    0.90071   0.92917   0.94216   0.95088   0.96423
 Alpha virt. eigenvalues --    1.00023   1.05492   1.08083   1.08831   1.13866
 Alpha virt. eigenvalues --    1.16772   1.20798   1.21407   1.27811   1.30009
 Alpha virt. eigenvalues --    1.33348   1.38088   1.40070   1.42602   1.46329
 Alpha virt. eigenvalues --    1.48117   1.50009   1.51127   1.55598   1.59324
 Alpha virt. eigenvalues --    1.69355   1.72223   1.74742   1.80009   1.80425
 Alpha virt. eigenvalues --    1.84167   1.87147   1.90617   1.92014   1.92793
 Alpha virt. eigenvalues --    1.94581   1.95294   1.98016   2.00994   2.04106
 Alpha virt. eigenvalues --    2.07771   2.10457   2.13987   2.16065   2.17266
 Alpha virt. eigenvalues --    2.18274   2.22015   2.24754   2.25401   2.28495
 Alpha virt. eigenvalues --    2.34856   2.35180   2.35905   2.38673   2.45851
 Alpha virt. eigenvalues --    2.49921   2.51990   2.55236   2.56309   2.63022
 Alpha virt. eigenvalues --    2.68476   2.72400   2.73729   2.77907   2.79174
 Alpha virt. eigenvalues --    2.83544   2.87934   3.06694   3.42772   3.88532
 Alpha virt. eigenvalues --    4.02598   4.12192   4.13844   4.18231   4.21852
 Alpha virt. eigenvalues --    4.26252   4.35261   4.46949   4.61734
          Condensed to atoms (all electrons):
               1          2          3          4          5          6
     1  C    5.044760   0.386860   0.386113   0.377587   0.249056  -0.020534
     2  H    0.386860   0.479972  -0.022902  -0.024631  -0.038224  -0.002178
     3  H    0.386113  -0.022902   0.471607  -0.024250  -0.031715   0.003220
     4  H    0.377587  -0.024631  -0.024250   0.471394  -0.023464  -0.002446
     5  N    0.249056  -0.038224  -0.031715  -0.023464   6.711571   0.303485
     6  H   -0.020534  -0.002178   0.003220  -0.002446   0.303485   0.280865
     7  C   -0.050162  -0.002628  -0.002971   0.003784   0.227341  -0.022339
     8  H    0.000442  -0.000780   0.002930   0.000058  -0.036847   0.003844
     9  H   -0.003408   0.003621  -0.000163   0.000043  -0.030419  -0.002880
    10  C    0.006883   0.000342  -0.000028  -0.000287  -0.062911  -0.000404
    11  H    0.000237   0.000008  -0.000010   0.000007  -0.005679   0.006310
    12  H    0.000011  -0.000002   0.000021   0.000001  -0.004249  -0.000716
    13  C   -0.000114  -0.000005   0.000006   0.000003   0.004835  -0.000001
    14  N    0.000001  -0.000005   0.000000   0.000000   0.000033  -0.000005
    15  C    0.000000  -0.000000   0.000000   0.000000  -0.000002   0.000000
    16  H    0.000000   0.000000   0.000000  -0.000000  -0.000000   0.000000
    17  C    0.000000   0.000000  -0.000000  -0.000000  -0.000000  -0.000000
    18  H   -0.000000   0.000000   0.000000   0.000000   0.000000   0.000000
    19  C   -0.000000   0.000000  -0.000000   0.000000  -0.000001  -0.000000
    20  H    0.000000  -0.000000  -0.000000  -0.000000  -0.000000   0.000000
    21  C    0.000001   0.000002  -0.000007   0.000000   0.000150  -0.000006
    22  H    0.000001   0.000000  -0.000001  -0.000000  -0.000028  -0.000000
    23  H   -0.020858   0.003617  -0.003833  -0.000992   0.304470  -0.012358
               7          8          9         10         11         12
     1  C   -0.050162   0.000442  -0.003408   0.006883   0.000237   0.000011
     2  H   -0.002628  -0.000780   0.003621   0.000342   0.000008  -0.000002
     3  H   -0.002971   0.002930  -0.000163  -0.000028  -0.000010   0.000021
     4  H    0.003784   0.000058   0.000043  -0.000287   0.000007   0.000001
     5  N    0.227341  -0.036847  -0.030419  -0.062911  -0.005679  -0.004249
     6  H   -0.022339   0.003844  -0.002880  -0.000404   0.006310  -0.000716
     7  C    5.057711   0.385977   0.382163   0.364584  -0.043663  -0.043215
     8  H    0.385977   0.491079  -0.022025  -0.044378   0.006059  -0.005873
     9  H    0.382163  -0.022025   0.485691  -0.053218  -0.005150   0.006622
    10  C    0.364584  -0.044378  -0.053218   5.223524   0.359771   0.364403
    11  H   -0.043663   0.006059  -0.005150   0.359771   0.536986  -0.031303
    12  H   -0.043215  -0.005873   0.006622   0.364403  -0.031303   0.549646
    13  C   -0.042875  -0.001638  -0.001549   0.361556  -0.018615  -0.028666
    14  N   -0.008108  -0.000020   0.008556  -0.075696   0.006121   0.003264
    15  C    0.000084  -0.000008  -0.000085   0.005077   0.000275  -0.000181
    16  H    0.000004   0.000000  -0.000006  -0.000177  -0.000021   0.000002
    17  C   -0.000044  -0.000011  -0.000029   0.000806   0.000000   0.000011
    18  H    0.000002  -0.000000  -0.000003   0.000011  -0.000001  -0.000000
    19  C    0.000307  -0.000182   0.000041   0.004798  -0.000087   0.000122
    20  H   -0.000004   0.000014   0.000002  -0.000200   0.000003  -0.000001
    21  C   -0.008184   0.006341   0.001095  -0.074641   0.004580   0.001369
    22  H   -0.001267   0.001442  -0.000032  -0.003970  -0.000085   0.002723
    23  H   -0.022985  -0.003032   0.003314   0.000276  -0.000644   0.005182
              13         14         15         16         17         18
     1  C   -0.000114   0.000001   0.000000   0.000000   0.000000  -0.000000
     2  H   -0.000005  -0.000005  -0.000000   0.000000   0.000000   0.000000
     3  H    0.000006   0.000000   0.000000   0.000000  -0.000000   0.000000
     4  H    0.000003   0.000000   0.000000  -0.000000  -0.000000   0.000000
     5  N    0.004835   0.000033  -0.000002  -0.000000  -0.000000   0.000000
     6  H   -0.000001  -0.000005   0.000000   0.000000  -0.000000   0.000000
     7  C   -0.042875  -0.008108   0.000084   0.000004  -0.000044   0.000002
     8  H   -0.001638  -0.000020  -0.000008   0.000000  -0.000011  -0.000000
     9  H   -0.001549   0.008556  -0.000085  -0.000006  -0.000029  -0.000003
    10  C    0.361556  -0.075696   0.005077  -0.000177   0.000806   0.000011
    11  H   -0.018615   0.006121   0.000275  -0.000021   0.000000  -0.000001
    12  H   -0.028666   0.003264  -0.000181   0.000002   0.000011  -0.000000
    13  C    4.686199   0.440429  -0.060894   0.003566  -0.037397   0.000626
    14  N    0.440429   6.835126   0.434269  -0.044849  -0.025496   0.005649
    15  C   -0.060894   0.434269   4.777060   0.377070   0.523738  -0.038129
    16  H    0.003566  -0.044849   0.377070   0.557923  -0.060402  -0.002352
    17  C   -0.037397  -0.025496   0.523738  -0.060402   4.911524   0.352359
    18  H    0.000626   0.005649  -0.038129  -0.002352   0.352359   0.575413
    19  C   -0.031472  -0.058848  -0.031417   0.003751   0.549910  -0.045349
    20  H    0.004634  -0.000115   0.005872  -0.000194  -0.043477  -0.008007
    21  C    0.499299  -0.035603  -0.042107   0.000565  -0.030267   0.007082
    22  H   -0.048369   0.005811   0.000104   0.000029   0.006173  -0.000135
    23  H   -0.000054   0.000000  -0.000000   0.000000  -0.000000  -0.000000
              19         20         21         22         23
     1  C   -0.000000   0.000000   0.000001   0.000001  -0.020858
     2  H    0.000000  -0.000000   0.000002   0.000000   0.003617
     3  H   -0.000000  -0.000000  -0.000007  -0.000001  -0.003833
     4  H    0.000000  -0.000000   0.000000  -0.000000  -0.000992
     5  N   -0.000001  -0.000000   0.000150  -0.000028   0.304470
     6  H   -0.000000   0.000000  -0.000006  -0.000000  -0.012358
     7  C    0.000307  -0.000004  -0.008184  -0.001267  -0.022985
     8  H   -0.000182   0.000014   0.006341   0.001442  -0.003032
     9  H    0.000041   0.000002   0.001095  -0.000032   0.003314
    10  C    0.004798  -0.000200  -0.074641  -0.003970   0.000276
    11  H   -0.000087   0.000003   0.004580  -0.000085  -0.000644
    12  H    0.000122  -0.000001   0.001369   0.002723   0.005182
    13  C   -0.031472   0.004634   0.499299  -0.048369  -0.000054
    14  N   -0.058848  -0.000115  -0.035603   0.005811   0.000000
    15  C   -0.031417   0.005872  -0.042107   0.000104  -0.000000
    16  H    0.003751  -0.000194   0.000565   0.000029   0.000000
    17  C    0.549910  -0.043477  -0.030267   0.006173  -0.000000
    18  H   -0.045349  -0.008007   0.007082  -0.000135  -0.000000
    19  C    4.823474   0.366602   0.551851  -0.041721   0.000000
    20  H    0.366602   0.558623  -0.044235  -0.005675   0.000000
    21  C    0.551851  -0.044235   4.971361   0.352400   0.000041
    22  H   -0.041721  -0.005675   0.352400   0.578305   0.000010
    23  H    0.000000   0.000000   0.000041   0.000010   0.279698
 Mulliken charges:
               1
     1  C   -0.356877
     2  H    0.216934
     3  H    0.221981
     4  H    0.223192
     5  N   -0.567403
     6  H    0.466144
     7  C   -0.173513
     8  H    0.216609
     9  H    0.227818
    10  C   -0.376121
    11  H    0.184900
    12  H    0.180829
    13  C    0.270496
    14  N   -0.490516
    15  C    0.049275
    16  H    0.165089
    17  C   -0.147398
    18  H    0.152835
    19  C   -0.091778
    20  H    0.166157
    21  C   -0.161088
    22  H    0.154286
    23  H    0.468147
 Sum of Mulliken charges =   1.00000
 Mulliken charges with hydrogens summed into heavy atoms:
               1
     1  C    0.305231
     5  N    0.366889
     7  C    0.270914
    10  C   -0.010392
    13  C    0.270496
    14  N   -0.490516
    15  C    0.214365
    17  C    0.005437
    19  C    0.074379
    21  C   -0.006803
 Electronic spatial extent (au):  <R**2>=           1950.8110
 Charge=              1.0000 electrons
 Dipole moment (field-independent basis, Debye):
    X=            -12.0528    Y=              1.7855    Z=              0.4036  Tot=             12.1910
 Quadrupole moment (field-independent basis, Debye-Ang):
   XX=             -5.0108   YY=            -54.3057   ZZ=            -55.0218
   XY=              3.4553   XZ=             -5.8231   YZ=              1.1483
 Traceless Quadrupole moment (field-independent basis, Debye-Ang):
   XX=             33.1020   YY=            -16.1930   ZZ=            -16.9090
   XY=              3.4553   XZ=             -5.8231   YZ=              1.1483
 Octapole moment (field-independent basis, Debye-Ang**2):
  XXX=           -143.9444  YYY=              8.6019  ZZZ=              2.2361  XYY=            -10.4987
  XXY=             -2.8821  XXZ=            -10.2898  XZZ=            -19.5985  YZZ=             -0.7143
  YYZ=             -1.0948  XYZ=              2.4532
 Hexadecapole moment (field-independent basis, Debye-Ang**3):
 XXXX=          -1337.9282 YYYY=           -299.7188 ZZZZ=           -200.0472 XXXY=             11.9503
 XXXZ=            -50.1657 YYYX=             13.6263 YYYZ=              2.1543 ZZZX=             -4.4241
 ZZZY=              3.1186 XXYY=           -328.9997 XXZZ=           -333.4761 YYZZ=            -82.7715
 XXYZ=             -1.7983 YYXZ=            -13.4355 ZZXY=             -2.7907
 N-N= 5.181101285002D+02 E-N=-2.001855378252D+03  KE= 4.185321093238D+02
 No NMR shielding tensors so no spin-rotation constants.
 Leave Link  601 at Sun Jul 18 13:40:01 2021, MaxMem=   104857600 cpu:               0.4 elap:               0.2
 (Enter /dades/curu/g16A03_MST/g16/l701.exe)
 ... and contract with generalized density number  0.
 Compute integral first derivatives.
 D1PCM: PCM CHGder 1st derivatives, ID1Alg=3 FixD1E=F DoIter=F DoCFld=F I1PDM=0.
 GePol: Maximum number of non-zero 1st derivatives   =     277
 Leave Link  701 at Sun Jul 18 13:40:04 2021, MaxMem=   104857600 cpu:               9.9 elap:               2.7
 (Enter /dades/curu/g16A03_MST/g16/l702.exe)
 L702 exits ... SP integral derivatives will be done elsewhere.
 Leave Link  702 at Sun Jul 18 13:40:04 2021, MaxMem=   104857600 cpu:               0.1 elap:               0.0
 (Enter /dades/curu/g16A03_MST/g16/l703.exe)
 Integral derivatives from FoFJK, PRISM(SPDF).
 Compute integral first derivatives, UseDBF=F ICtDFT=           0.
 Calling FoFJK, ICntrl=      2127 FMM=F ISym2X=0 I1Cent= 0 IOpClX= 0 NMat=1 NMatS=1 NMatT=0.
 FoFJK:  IHMeth= 1 ICntrl=    2127 DoSepK=F KAlg= 0 I1Cent=           0 FoldK=F
 IRaf=         0 NMat=       1 IRICut=       1 DoRegI=T DoRafI=F ISym2E= 0 IDoP0=0 IntGTp=1.
 FoFCou: FMM=F IPFlag=           0 FMFlag=      100000 FMFlg1=         800
         NFxFlg=           0 DoJE=F BraDBF=F KetDBF=F FulRan=T
         wScrn=  0.000000 ICntrl=      2127 IOpCl=  0 I1Cent=           0 NGrid=           0
         NMat0=    1 NMatS0=      1 NMatT0=    0 NMatD0=    1 NMtDS0=    0 NMtDT0=    0
 Symmetry not used in FoFCou.
 Leave Link  703 at Sun Jul 18 13:40:16 2021, MaxMem=   104857600 cpu:              43.2 elap:              11.3
 (Enter /dades/curu/g16A03_MST/g16/l716.exe)
 Dipole        =-4.74194232D+00 7.02483140D-01 1.58795233D-01
 ***** Axes restored to original set *****
 -------------------------------------------------------------------
 Center     Atomic                   Forces (Hartrees/Bohr)
 Number     Number              X              Y              Z
 -------------------------------------------------------------------
      1        6          -0.009420638    0.042511159    0.000713668
      2        1           0.002460650    0.002391319   -0.001665591
      3        1          -0.002362351   -0.004148494    0.001041018
      4        1           0.002951119   -0.009428768    0.000957859
      5        7          -0.012521608    0.028816068   -0.006337801
      6        1           0.005965286   -0.010597660    0.025920779
      7        6          -0.017081489    0.022479312   -0.017847185
      8        1          -0.004755651    0.008289956    0.004899109
      9        1           0.002537618    0.017451476   -0.000073362
     10        6           0.017340257   -0.095122048   -0.006060480
     11        1          -0.006929699   -0.006852418    0.000727935
     12        1           0.005550368    0.005005087   -0.003490409
     13        6          -0.041402259    0.011601189    0.044256024
     14        7           0.008918294   -0.008567677    0.007269223
     15        6           0.018493317    0.014112625    0.013729596
     16        1           0.007810258    0.000101674    0.011316101
     17        6          -0.026030795   -0.008304959   -0.040873373
     18        1          -0.003741900   -0.002380490    0.007432378
     19        6          -0.017183849   -0.007638703   -0.030243713
     20        1           0.003873099   -0.000077454    0.001180761
     21        6           0.045923387    0.007138274   -0.003641308
     22        1          -0.003958902    0.001630404   -0.006654542
     23        1           0.023565488   -0.008409873   -0.002556685
 -------------------------------------------------------------------
 Cartesian Forces:  Max     0.095122048 RMS     0.019615395
 Leave Link  716 at Sun Jul 18 13:40:17 2021, MaxMem=   104857600 cpu:               0.1 elap:               0.1
 (Enter /dades/curu/g16A03_MST/g16/l103.exe)

 GradGradGradGradGradGradGradGradGradGradGradGradGradGradGradGradGradGrad
 Berny optimization.
 FormGI is forming the generalized inverse of G from B-inverse, IUseBI=4.
 Internal  Forces:  Max     0.088908193 RMS     0.013672166
 Search for a local minimum.
 Step number   1 out of a maximum of  126
 All quantities printed in internal units (Hartrees-Bohrs-Radians)
 RMS Force = .13672D-01 SwitMx=.10000D-02 MixMth= 1
 Mixed Optimization -- RFO/linear search
 Second derivative matrix not updated -- first step.
 ITU=  0
     Eigenvalues ---    0.00442   0.00906   0.01012   0.01815   0.01832
     Eigenvalues ---    0.02293   0.02499   0.02513   0.02577   0.02599
     Eigenvalues ---    0.02632   0.02676   0.04368   0.04791   0.05124
     Eigenvalues ---    0.05406   0.05661   0.05673   0.05975   0.06297
     Eigenvalues ---    0.07862   0.08084   0.09393   0.11529   0.11935
     Eigenvalues ---    0.12801   0.15914   0.15991   0.15993   0.16000
     Eigenvalues ---    0.16000   0.16000   0.16000   0.21777   0.21959
     Eigenvalues ---    0.21989   0.22001   0.22286   0.23792   0.23939
     Eigenvalues ---    0.29936   0.34416   0.34424   0.34458   0.34487
     Eigenvalues ---    0.34502   0.34596   0.34599   0.35075   0.35141
     Eigenvalues ---    0.35143   0.35200   0.37039   0.38063   0.42550
     Eigenvalues ---    0.45735   0.47653   0.47668   0.48018   0.50515
     Eigenvalues ---    0.52126   0.53534   0.55193
 RFO step:  Lambda=-5.77565566D-02 EMin= 4.41647995D-03
 Linear search not attempted -- first point.
 Maximum step size (   0.300) exceeded in Quadratic search.
    -- Step size scaled by   0.802
 Iteration  1 RMS(Cart)=  0.08251335 RMS(Int)=  0.00172578
 Iteration  2 RMS(Cart)=  0.00191835 RMS(Int)=  0.00089502
 Iteration  3 RMS(Cart)=  0.00001068 RMS(Int)=  0.00089501
 Iteration  4 RMS(Cart)=  0.00000006 RMS(Int)=  0.00089501
 ITry= 1 IFail=0 DXMaxC= 2.78D-01 DCOld= 1.00D+10 DXMaxT= 3.00D-01 DXLimC= 3.00D+00 Rises=F
 Variable       Old X    -DE/DX   Delta X   Delta X   Delta X     New X
                                 (Linear)    (Quad)   (Total)
    R1        2.06565  -0.00238   0.00000  -0.00475  -0.00475   2.06090
    R2        2.06621  -0.00299   0.00000  -0.00597  -0.00597   2.06024
    R3        2.06634  -0.00258   0.00000  -0.00515  -0.00515   2.06119
    R4        2.74274   0.03189   0.00000   0.05830   0.05830   2.80104
    R5        1.89010   0.02782   0.00000   0.04173   0.04173   1.93183
    R6        2.75788   0.03600   0.00000   0.06740   0.06740   2.82528
    R7        1.88994   0.02379   0.00000   0.03567   0.03567   1.92561
    R8        2.06517  -0.00218   0.00000  -0.00434  -0.00434   2.06082
    R9        2.06492  -0.00066   0.00000  -0.00132  -0.00132   2.06360
   R10        2.68229   0.08891   0.00000   0.14746   0.14746   2.82975
   R11        2.06336   0.00235   0.00000   0.00466   0.00466   2.06802
   R12        2.06330   0.00506   0.00000   0.01004   0.01004   2.07335
   R13        2.88092  -0.00092   0.00000  -0.00207  -0.00207   2.87885
   R14        2.58710  -0.02114   0.00000  -0.03325  -0.03341   2.55369
   R15        2.58976   0.03466   0.00000   0.04857   0.04850   2.63826
   R16        2.55477  -0.00859   0.00000  -0.01428  -0.01434   2.54043
   R17        2.05553  -0.00113   0.00000  -0.00223  -0.00223   2.05331
   R18        2.56357   0.03744   0.00000   0.05094   0.05101   2.61457
   R19        2.05446  -0.00040   0.00000  -0.00078  -0.00078   2.05368
   R20        2.60105   0.01755   0.00000   0.02885   0.02898   2.63003
   R21        2.05443  -0.00157   0.00000  -0.00307  -0.00307   2.05136
   R22        2.54590   0.04139   0.00000   0.05690   0.05698   2.60288
   R23        2.05351   0.00029   0.00000   0.00056   0.00056   2.05407
    A1        1.91328  -0.00137   0.00000  -0.00238  -0.00237   1.91091
    A2        1.87981   0.00341   0.00000   0.01370   0.01409   1.89390
    A3        1.86939   0.00698   0.00000   0.02768   0.02790   1.89729
    A4        1.86947   0.00751   0.00000   0.02420   0.02365   1.89312
    A5        1.92461  -0.00216   0.00000  -0.00873  -0.00902   1.91559
    A6        2.00591  -0.01409   0.00000  -0.05317  -0.05326   1.95265
    A7        1.90971  -0.00281   0.00000  -0.00563  -0.00592   1.90379
    A8        1.91588   0.01048   0.00000   0.03616   0.03595   1.95184
    A9        1.90987  -0.00186   0.00000  -0.00245  -0.00258   1.90730
   A10        1.90909  -0.00107   0.00000   0.00271   0.00256   1.91165
   A11        1.90990  -0.00209   0.00000  -0.02534  -0.02542   1.88448
   A12        1.90934  -0.00268   0.00000  -0.00563  -0.00576   1.90358
   A13        1.90322  -0.00968   0.00000  -0.03630  -0.03924   1.86399
   A14        1.97174  -0.01673   0.00000  -0.07137  -0.07535   1.89639
   A15        1.85528   0.03133   0.00000   0.10138   0.10136   1.95663
   A16        1.97091   0.00173   0.00000  -0.02296  -0.02664   1.94427
   A17        1.92121  -0.00545   0.00000   0.00384   0.00479   1.92600
   A18        1.83676   0.00135   0.00000   0.03804   0.04056   1.87732
   A19        1.90960   0.00469   0.00000   0.01896   0.01895   1.92855
   A20        1.99073  -0.00605   0.00000  -0.02230  -0.02232   1.96842
   A21        1.93197   0.00262   0.00000   0.00559   0.00558   1.93756
   A22        1.82080   0.00251   0.00000   0.01483   0.01509   1.83589
   A23        1.94966  -0.00857   0.00000  -0.03992  -0.03982   1.90985
   A24        1.85875   0.00426   0.00000   0.02110   0.02123   1.87998
   A25        2.01329  -0.00609   0.00000  -0.00667  -0.00780   2.00549
   A26        2.09660   0.00174   0.00000   0.01460   0.01351   2.11011
   A27        2.11331   0.00701   0.00000   0.01981   0.01870   2.13201
   A28        2.08584  -0.00194   0.00000  -0.02280  -0.02292   2.06292
   A29        2.14945  -0.02454   0.00000  -0.07834  -0.07875   2.07070
   A30        2.07247   0.02190   0.00000   0.05829   0.05812   2.13059
   A31        2.05457   0.00321   0.00000   0.02457   0.02432   2.07889
   A32        2.15032  -0.00081   0.00000  -0.01313  -0.01330   2.13701
   A33        2.12700  -0.01610   0.00000  -0.03882  -0.03853   2.08846
   A34        2.00530   0.01694   0.00000   0.05230   0.05215   2.05745
   A35        2.06516   0.00780   0.00000   0.01876   0.01861   2.08377
   A36        2.07844  -0.00857   0.00000  -0.01162  -0.01132   2.06713
   A37        2.13957   0.00077   0.00000  -0.00715  -0.00730   2.13227
   A38        2.07906  -0.00175   0.00000   0.00037   0.00048   2.07954
   A39        2.03327   0.00863   0.00000   0.02835   0.02829   2.06156
   A40        2.17047  -0.00689   0.00000  -0.02882  -0.02887   2.14160
    D1       -1.24269  -0.00223   0.00000  -0.01243  -0.01231  -1.25500
    D2        0.85246   0.00116   0.00000   0.00965   0.00973   0.86219
    D3        2.94802   0.00317   0.00000   0.02348   0.02359   2.97162
    D4        2.95959  -0.00352   0.00000  -0.02117  -0.02100   2.93859
    D5       -1.22843  -0.00013   0.00000   0.00092   0.00104  -1.22740
    D6        0.86713   0.00188   0.00000   0.01475   0.01490   0.88203
    D7        0.84475  -0.00168   0.00000  -0.00834  -0.00857   0.83618
    D8        2.93991   0.00171   0.00000   0.01374   0.01347   2.95338
    D9       -1.24772   0.00372   0.00000   0.02757   0.02733  -1.22038
   D10        1.07275  -0.00809   0.00000  -0.05505  -0.05348   1.01927
   D11       -1.13398   0.00961   0.00000   0.05650   0.05403  -1.07995
   D12       -3.13976  -0.00224   0.00000  -0.01339  -0.01267   3.13076
   D13       -3.11490  -0.00576   0.00000  -0.03806  -0.03637   3.13191
   D14        0.96155   0.01194   0.00000   0.07348   0.07114   1.03269
   D15       -1.04422   0.00009   0.00000   0.00359   0.00444  -1.03978
   D16       -1.02314  -0.01059   0.00000  -0.07080  -0.06918  -1.09232
   D17        3.05332   0.00711   0.00000   0.04075   0.03833   3.09164
   D18        1.04754  -0.00474   0.00000  -0.02914  -0.02836   1.01918
   D19        0.97843   0.00047   0.00000   0.00636   0.00708   0.98552
   D20       -1.05311  -0.00211   0.00000  -0.01131  -0.01059  -1.06371
   D21        3.13438  -0.00536   0.00000  -0.02729  -0.02655   3.10782
   D22        3.03725   0.00395   0.00000   0.02296   0.02358   3.06083
   D23        1.00570   0.00136   0.00000   0.00529   0.00590   1.01160
   D24       -1.08999  -0.00189   0.00000  -0.01069  -0.01006  -1.10005
   D25       -1.11724   0.00385   0.00000   0.02042   0.01907  -1.09817
   D26        3.13440   0.00126   0.00000   0.00274   0.00139   3.13579
   D27        1.03870  -0.00199   0.00000  -0.01323  -0.01457   1.02414
   D28       -1.56838  -0.00532   0.00000  -0.03438  -0.03412  -1.60251
   D29        1.21208   0.00378   0.00000   0.04975   0.04952   1.26159
   D30        0.56429  -0.00343   0.00000  -0.03394  -0.03358   0.53071
   D31       -2.93843   0.00568   0.00000   0.05019   0.05006  -2.88838
   D32        2.54185  -0.00230   0.00000  -0.02426  -0.02414   2.51771
   D33       -0.96087   0.00681   0.00000   0.05987   0.05950  -0.90137
   D34        2.92938   0.00391   0.00000   0.04191   0.04221   2.97158
   D35        0.15267  -0.00407   0.00000  -0.04184  -0.04133   0.11134
   D36       -2.82025  -0.00571   0.00000  -0.06546  -0.06584  -2.88610
   D37        0.34982  -0.00519   0.00000  -0.06130  -0.06157   0.28824
   D38       -0.06072   0.00112   0.00000   0.01797   0.01835  -0.04237
   D39        3.10935   0.00164   0.00000   0.02213   0.02262   3.13197
   D40        3.12982  -0.00280   0.00000  -0.01179  -0.01001   3.11981
   D41       -0.13875   0.00296   0.00000   0.03317   0.03298  -0.10577
   D42       -3.06468  -0.00226   0.00000  -0.01999  -0.02001  -3.08469
   D43        0.03870  -0.00117   0.00000  -0.00682  -0.00685   0.03185
   D44       -0.04314   0.00104   0.00000   0.01476   0.01567  -0.02747
   D45        3.06025   0.00213   0.00000   0.02793   0.02882   3.08907
   D46       -3.08283  -0.00109   0.00000  -0.01265  -0.01261  -3.09545
   D47        0.05224  -0.00157   0.00000  -0.01350  -0.01328   0.03896
   D48        0.02352  -0.00039   0.00000  -0.00167  -0.00129   0.02222
   D49       -3.12459  -0.00086   0.00000  -0.00252  -0.00196  -3.12655
   D50       -0.04043   0.00106   0.00000   0.00684   0.00683  -0.03359
   D51        3.07029   0.00077   0.00000   0.00337   0.00338   3.07367
   D52        3.09436   0.00059   0.00000   0.00605   0.00625   3.10061
   D53       -0.07811   0.00030   0.00000   0.00259   0.00279  -0.07531
         Item               Value     Threshold  Converged?
 Maximum Force            0.088908     0.000450     NO 
 RMS     Force            0.013672     0.000300     NO 
 Maximum Displacement     0.277629     0.001800     NO 
 RMS     Displacement     0.082465     0.001200     NO 
 Predicted change in Energy=-3.171046D-02
 Lowest energy point so far.  Saving SCF results.
 GradGradGradGradGradGradGradGradGradGradGradGradGradGradGradGradGradGrad

 Leave Link  103 at Sun Jul 18 13:40:17 2021, MaxMem=   104857600 cpu:               0.1 elap:               0.3
 (Enter /dades/curu/g16A03_MST/g16/l202.exe)
                          Input orientation:                          
 ---------------------------------------------------------------------
 Center     Atomic      Atomic             Coordinates (Angstroms)
 Number     Number       Type             X           Y           Z
 ---------------------------------------------------------------------
      1          6           0        1.503893    3.119000    1.338863
      2          1           0        0.454923    3.310004    1.568092
      3          1           0        1.737250    3.511902    0.349028
      4          1           0        2.119372    3.641805    2.072047
      5          7           0        1.737319    1.655477    1.364786
      6          1           0        1.705434    1.329113    2.333047
      7          6           0        0.721583    0.916004    0.554414
      8          1           0        0.786695    1.303972   -0.462700
      9          1           0       -0.265786    1.093108    0.985947
     10          6           0        0.960456   -0.562227    0.564224
     11          1           0        0.977065   -0.940915    1.590832
     12          1           0        1.934091   -0.838078    0.140289
     13          6           0       -0.114626   -1.294602   -0.228646
     14          7           0       -1.177451   -1.705001    0.498087
     15          6           0       -2.251231   -2.177840   -0.158166
     16          1           0       -3.101814   -2.528949    0.419631
     17          6           0       -2.344300   -2.140109   -1.538088
     18          1           0       -3.230460   -2.472924   -2.071946
     19          6           0       -1.285612   -1.633638   -2.286178
     20          1           0       -1.380262   -1.566008   -3.365459
     21          6           0       -0.149800   -1.225268   -1.622586
     22          1           0        0.740017   -0.877171   -2.140807
     23          1           0        2.666244    1.456348    0.996290
 ---------------------------------------------------------------------
                    Distance matrix (angstroms):
                    1          2          3          4          5
     1  C    0.000000
     2  H    1.090581   0.000000
     3  H    1.090230   1.780799   0.000000
     4  H    1.090733   1.770439   1.769657   0.000000
     5  N    1.482248   2.103172   2.116147   2.142821   0.000000
     6  H    2.057356   2.464317   2.949900   2.363897   1.022281
     7  C    2.465879   2.613405   2.795076   3.418628   1.495073
     8  H    2.655998   2.873735   2.537205   3.696813   2.089723
     9  H    2.713033   2.402695   3.204432   3.655742   2.114759
    10  C    3.800897   4.032057   4.153100   4.614163   2.482463
    11  H    4.101700   4.282926   4.684820   4.747394   2.714835
    12  H    4.156936   4.629594   4.359431   4.882148   2.784947
    13  C    4.955459   4.975445   5.183207   5.886599   3.830364
    14  N    5.582786   5.381434   5.977774   6.475703   4.532093
    15  C    6.663224   6.357646   6.966949   7.612114   5.737789
    16  H    7.345533   6.932728   7.740375   8.250422   6.466834
    17  C    7.123458   6.869333   7.222568   8.147881   6.284326
    18  H    8.081913   7.763644   8.146005   9.120487   7.316669
    19  C    6.596198   6.505724   6.523694   7.643189   5.769395
    20  H    7.238667   7.175188   7.021501   8.302724   6.517093
    21  C    5.511583   5.578065   5.467083   6.518271   4.558980
    22  H    5.353596   5.600861   5.143706   6.330237   4.438254
    23  H    2.057384   2.941588   2.346759   2.496506   1.018991
                    6          7          8          9         10
     6  H    0.000000
     7  C    2.074164   0.000000
     8  H    2.942942   1.090541   0.000000
     9  H    2.399184   1.092009   1.802985   0.000000
    10  C    2.694605   1.497438   2.137162   2.102772   0.000000
    11  H    2.496884   2.141864   3.048401   2.459230   1.094351
    12  H    3.091470   2.172206   2.503695   3.046978   1.097170
    13  C    4.093748   2.489821   2.760389   2.683140   1.523423
    14  N    4.569897   3.237155   3.719530   2.983045   2.425068
    15  C    5.844660   4.349397   4.630847   3.993755   3.667013
[...]
 IMap=  21  22  23  24  25  26  27
 Actual    scratch disk usage=  1358776430 words.
 JobTyp=1 Pass  1:  I=   1 to  27 NPSUse=  4 ParTrn=T ParDer=T DoDerP=F.
 Spin components of T(2) and E(2):
     alpha-alpha T2 =       0.6916058698D-01 E2=     -0.1856487318D+00
     alpha-beta  T2 =       0.3762096960D+00 E2=     -0.1085395745D+01
     beta-beta   T2 =       0.6916058698D-01 E2=     -0.1856487318D+00
 The integrals were generated   1 times.
 ANorm=    0.1230662777D+01
 E2 =    -0.1456693209D+01 EUMP2 =    -0.42071078727657D+03
 Leave Link  906 at Sun Jul 18 14:43:35 2021, MaxMem=   262144000 cpu:             531.7 elap:             141.0
 (Enter /dades/curu/g16A03_MST/g16/l601.exe)
 Copying SCF densities to generalized density rwf, IOpCl= 0 IROHF=0.

 **********************************************************************

            Population analysis using the SCF density.

 **********************************************************************

 Orbital symmetries:
       Occupied  (A) (A) (A) (A) (A) (A) (A) (A) (A) (A) (A) (A)
                 (A) (A) (A) (A) (A) (A) (A) (A) (A) (A) (A) (A)
                 (A) (A) (A) (A) (A) (A) (A) (A) (A) (A) (A) (A)
                 (A)
       Virtual   (A) (A) (A) (A) (A) (A) (A) (A) (A) (A) (A) (A)
                 (A) (A) (A) (A) (A) (A) (A) (A) (A) (A) (A) (A)
                 (A) (A) (A) (A) (A) (A) (A) (A) (A) (A) (A) (A)
                 (A) (A) (A) (A) (A) (A) (A) (A) (A) (A) (A) (A)
                 (A) (A) (A) (A) (A) (A) (A) (A) (A) (A) (A) (A)
                 (A) (A) (A) (A) (A) (A) (A) (A) (A) (A) (A) (A)
                 (A) (A) (A) (A) (A) (A) (A) (A) (A) (A) (A) (A)
                 (A) (A) (A) (A) (A) (A) (A) (A) (A) (A) (A) (A)
                 (A) (A) (A) (A) (A) (A) (A) (A) (A) (A) (A) (A)
                 (A) (A) (A) (A) (A) (A) (A) (A) (A) (A) (A) (A)
                 (A) (A) (A) (A) (A) (A) (A) (A) (A) (A) (A) (A)
                 (A) (A) (A) (A) (A) (A) (A) (A) (A) (A) (A) (A)
                 (A) (A) (A) (A) (A) (A) (A) (A) (A) (A) (A) (A)
                 (A) (A) (A) (A) (A) (A) (A) (A) (A) (A) (A) (A)
                 (A) (A) (A) (A) (A) (A) (A) (A) (A) (A) (A) (A)
                 (A) (A) (A) (A) (A) (A) (A) (A) (A) (A) (A) (A)
                 (A) (A) (A) (A) (A) (A) (A) (A) (A) (A) (A) (A)
                 (A) (A) (A) (A) (A) (A) (A) (A) (A) (A) (A) (A)
                 (A) (A) (A) (A) (A) (A) (A) (A) (A) (A) (A) (A)
                 (A) (A) (A) (A) (A) (A) (A) (A) (A) (A) (A) (A)
                 (A) (A) (A) (A) (A) (A) (A) (A) (A) (A) (A) (A)
                 (A) (A) (A) (A) (A) (A) (A) (A) (A) (A) (A) (A)
                 (A) (A) (A) (A) (A) (A) (A) (A) (A) (A) (A) (A)
                 (A) (A) (A) (A) (A) (A) (A) (A) (A) (A) (A) (A)
                 (A) (A) (A) (A) (A) (A) (A) (A) (A) (A) (A) (A)
                 (A) (A) (A) (A) (A) (A) (A) (A) (A) (A)
 The electronic state is 1-A.
 Alpha  occ. eigenvalues --  -15.87800 -15.68648 -11.46586 -11.45798 -11.40838
 Alpha  occ. eigenvalues --  -11.39800 -11.38884 -11.37010 -11.35705 -11.34982
 Alpha  occ. eigenvalues --   -1.49551  -1.37771  -1.22662  -1.19676  -1.15261
 Alpha  occ. eigenvalues --   -1.11929  -1.04712  -0.97182  -0.95759  -0.94232
 Alpha  occ. eigenvalues --   -0.85764  -0.83841  -0.80708  -0.79430  -0.76298
 Alpha  occ. eigenvalues --   -0.75586  -0.74550  -0.74006  -0.70288  -0.69481
 Alpha  occ. eigenvalues --   -0.67848  -0.67047  -0.63792  -0.62562  -0.53238
 Alpha  occ. eigenvalues --   -0.48952  -0.45144
 Alpha virt. eigenvalues --   -0.09653  -0.07094  -0.06661  -0.05612  -0.04123
 Alpha virt. eigenvalues --   -0.03415  -0.03378  -0.03150  -0.02027  -0.01809
 Alpha virt. eigenvalues --   -0.01402  -0.01175  -0.00718   0.00305   0.00708
 Alpha virt. eigenvalues --    0.00909   0.01238   0.02243   0.02721   0.03614
 Alpha virt. eigenvalues --    0.04114   0.04270   0.05036   0.05439   0.05546
 Alpha virt. eigenvalues --    0.06102   0.06679   0.06759   0.07010   0.07315
 Alpha virt. eigenvalues --    0.07573   0.08196   0.08653   0.08665   0.09050
 Alpha virt. eigenvalues --    0.09422   0.10296   0.11179   0.11553   0.11762
 Alpha virt. eigenvalues --    0.12285   0.12618   0.13337   0.14202   0.14912
 Alpha virt. eigenvalues --    0.15295   0.15963   0.16432   0.16622   0.16978
 Alpha virt. eigenvalues --    0.18248   0.19132   0.19972   0.20224   0.21569
 Alpha virt. eigenvalues --    0.22093   0.22429   0.22962   0.23302   0.24063
 Alpha virt. eigenvalues --    0.24424   0.24462   0.25487   0.26397   0.26804
 Alpha virt. eigenvalues --    0.27874   0.28314   0.29204   0.29555   0.30180
 Alpha virt. eigenvalues --    0.31141   0.31196   0.31676   0.32256   0.32418
 Alpha virt. eigenvalues --    0.32775   0.34069   0.34333   0.34735   0.35098
 Alpha virt. eigenvalues --    0.35466   0.36164   0.36544   0.36924   0.38316
 Alpha virt. eigenvalues --    0.38666   0.39205   0.39517   0.40393   0.41105
 Alpha virt. eigenvalues --    0.41620   0.42783   0.43719   0.44746   0.45054
 Alpha virt. eigenvalues --    0.45904   0.46041   0.46772   0.47282   0.47337
 Alpha virt. eigenvalues --    0.48153   0.48694   0.48956   0.49383   0.50250
 Alpha virt. eigenvalues --    0.50478   0.52778   0.53146   0.53571   0.53815
 Alpha virt. eigenvalues --    0.54943   0.56183   0.56452   0.56930   0.58029
 Alpha virt. eigenvalues --    0.58428   0.58831   0.59393   0.59664   0.59958
 Alpha virt. eigenvalues --    0.60551   0.61149   0.61633   0.62597   0.63424
 Alpha virt. eigenvalues --    0.63627   0.63895   0.64958   0.65843   0.67352
 Alpha virt. eigenvalues --    0.67814   0.68456   0.68867   0.69171   0.70038
 Alpha virt. eigenvalues --    0.71440   0.73161   0.74406   0.74822   0.75356
 Alpha virt. eigenvalues --    0.77019   0.77590   0.77985   0.78792   0.80188
 Alpha virt. eigenvalues --    0.80706   0.81426   0.81879   0.82906   0.83413
 Alpha virt. eigenvalues --    0.84315   0.85046   0.85196   0.86850   0.87641
 Alpha virt. eigenvalues --    0.87917   0.89260   0.91085   0.91732   0.92006
 Alpha virt. eigenvalues --    0.93402   0.94361   0.95432   0.95560   0.96213
 Alpha virt. eigenvalues --    0.96986   0.99275   1.01092   1.02342   1.04104
 Alpha virt. eigenvalues --    1.05163   1.06187   1.07809   1.09571   1.11461
 Alpha virt. eigenvalues --    1.12171   1.13528   1.14897   1.17005   1.18858
 Alpha virt. eigenvalues --    1.24157   1.25497   1.28261   1.30260   1.30762
 Alpha virt. eigenvalues --    1.31796   1.33422   1.35651   1.38015   1.38308
 Alpha virt. eigenvalues --    1.41200   1.43549   1.46242   1.46725   1.46889
 Alpha virt. eigenvalues --    1.49659   1.51354   1.52536   1.53314   1.54492
 Alpha virt. eigenvalues --    1.55831   1.56780   1.57817   1.60470   1.60969
 Alpha virt. eigenvalues --    1.61846   1.63105   1.64288   1.65456   1.67760
 Alpha virt. eigenvalues --    1.68133   1.69190   1.70361   1.71134   1.71921
 Alpha virt. eigenvalues --    1.73137   1.74959   1.76980   1.77396   1.79897
 Alpha virt. eigenvalues --    1.81153   1.82802   1.83562   1.84792   1.85009
 Alpha virt. eigenvalues --    1.88501   1.88674   1.90170   1.90591   1.92132
 Alpha virt. eigenvalues --    1.94350   1.95618   1.96315   1.96883   1.97440
 Alpha virt. eigenvalues --    1.99645   2.01563   2.02274   2.03994   2.05381
 Alpha virt. eigenvalues --    2.06807   2.08155   2.09681   2.10760   2.11890
 Alpha virt. eigenvalues --    2.12984   2.13735   2.14730   2.15619   2.18138
 Alpha virt. eigenvalues --    2.18349   2.20318   2.22245   2.23425   2.24173
 Alpha virt. eigenvalues --    2.25411   2.27044   2.27513   2.30011   2.31475
 Alpha virt. eigenvalues --    2.32693   2.35336   2.37416   2.39233   2.40600
 Alpha virt. eigenvalues --    2.41208   2.42736   2.44528   2.48952   2.50238
 Alpha virt. eigenvalues --    2.52818   2.55092   2.56298   2.58262   2.60135
 Alpha virt. eigenvalues --    2.62108   2.63489   2.64826   2.68049   2.69318
 Alpha virt. eigenvalues --    2.71279   2.72538   2.73386   2.74139   2.76995
 Alpha virt. eigenvalues --    2.79297   2.81231   2.82326   2.85630   2.86627
 Alpha virt. eigenvalues --    2.89180   2.91190   2.92381   2.95181   2.97371
 Alpha virt. eigenvalues --    3.02740   3.03039   3.04820   3.08921   3.10578
 Alpha virt. eigenvalues --    3.17551   3.24619   3.25503   3.32737   3.41993
 Alpha virt. eigenvalues --    3.45397   3.50813   3.60186   3.86293   4.38103
          Condensed to atoms (all electrons):
               1          2          3          4          5          6
     1  C    4.008650   0.365477   0.342527   0.456692   0.188768  -0.046770
     2  H    0.365477   1.005460  -0.091022  -0.187466  -0.006596  -0.028665
     3  H    0.342527  -0.091022   1.015289  -0.197123   0.003730   0.019340
     4  H    0.456692  -0.187466  -0.197123   1.156772  -0.139866   0.000320
     5  N    0.188768  -0.006596   0.003730  -0.139866   7.157483   0.426126
     6  H   -0.046770  -0.028665   0.019340   0.000320   0.426126   0.578079
     7  C    0.002717  -0.026704  -0.028342   0.063651  -0.020129  -0.064454
     8  H   -0.028526  -0.018336   0.002248   0.005886  -0.177252   0.031373
     9  H   -0.001137  -0.002704  -0.007198  -0.002439  -0.113776  -0.045582
    10  C   -0.035094   0.031796   0.028214  -0.033886  -0.087252  -0.000092
    11  H   -0.001644   0.000273   0.000838  -0.000999  -0.048958   0.015312
    12  H    0.004352   0.002426   0.001559  -0.001246  -0.026365  -0.018541
    13  C    0.019550  -0.009519  -0.004554   0.005976   0.084145  -0.002529
    14  N   -0.003834   0.001652   0.000878  -0.001037   0.023636   0.002639
    15  C    0.000895  -0.001540   0.000898   0.000504   0.000401  -0.000753
    16  H    0.000303   0.000132  -0.000022   0.000051  -0.000420   0.000018
    17  C   -0.000497   0.001704  -0.000492  -0.000323   0.008298   0.000933
    18  H   -0.000043   0.000018  -0.000018  -0.000008   0.000190   0.000002
    19  C    0.002065  -0.001712   0.000573   0.000575  -0.014139  -0.002190
    20  H    0.000016  -0.000038   0.000027   0.000010  -0.000332  -0.000007
    21  C   -0.006914   0.003247  -0.001963  -0.001720   0.013068   0.007516
    22  H    0.000023  -0.000279  -0.000047   0.000075  -0.003037   0.000147
    23  H   -0.028720   0.017729  -0.029694   0.002600   0.447527  -0.075159
               7          8          9         10         11         12
     1  C    0.002717  -0.028526  -0.001137  -0.035094  -0.001644   0.004352
     2  H   -0.026704  -0.018336  -0.002704   0.031796   0.000273   0.002426
     3  H   -0.028342   0.002248  -0.007198   0.028214   0.000838   0.001559
     4  H    0.063651   0.005886  -0.002439  -0.033886  -0.000999  -0.001246
     5  N   -0.020129  -0.177252  -0.113776  -0.087252  -0.048958  -0.026365
     6  H   -0.064454   0.031373  -0.045582  -0.000092   0.015312  -0.018541
     7  C    4.776187   0.062761   0.223442   0.176268  -0.151695   0.035166
     8  H    0.062761   1.477194  -0.053387  -0.023489   0.080332  -0.100804
     9  H    0.223442  -0.053387   1.289349  -0.211507  -0.014504   0.083918
    10  C    0.176268  -0.023489  -0.211507   6.568524   0.261740  -0.135931
    11  H   -0.151695   0.080332  -0.014504   0.261740   0.964469  -0.126001
    12  H    0.035166  -0.100804   0.083918  -0.135931  -0.126001   1.351155
    13  C    0.129450  -0.062094   0.128182  -0.831574  -0.123410   0.433643
    14  N   -0.067058  -0.009074  -0.074243   0.176274  -0.014317  -0.037731
    15  C    0.003420  -0.022404  -0.000372  -0.274588  -0.033850   0.016512
    16  H    0.014612   0.001235  -0.006576   0.015580   0.000251   0.000739
    17  C   -0.013974   0.001038  -0.029259   0.274394   0.018386  -0.025526
    18  H   -0.001593   0.000449   0.000224  -0.012538   0.000067  -0.000174
    19  C    0.043970   0.010915   0.029648  -0.422658  -0.006668   0.033977
    20  H   -0.005084  -0.000958   0.000959   0.056467   0.001049   0.005982
    21  C   -0.235303   0.084194  -0.036756   0.218782   0.169348  -0.273294
    22  H    0.049858   0.008970  -0.000564  -0.074740   0.010950  -0.075122
    23  H   -0.038719  -0.044948   0.015776  -0.052230  -0.010115   0.012587
              13         14         15         16         17         18
     1  C    0.019550  -0.003834   0.000895   0.000303  -0.000497  -0.000043
     2  H   -0.009519   0.001652  -0.001540   0.000132   0.001704   0.000018
     3  H   -0.004554   0.000878   0.000898  -0.000022  -0.000492  -0.000018
     4  H    0.005976  -0.001037   0.000504   0.000051  -0.000323  -0.000008
     5  N    0.084145   0.023636   0.000401  -0.000420   0.008298   0.000190
     6  H   -0.002529   0.002639  -0.000753   0.000018   0.000933   0.000002
     7  C    0.129450  -0.067058   0.003420   0.014612  -0.013974  -0.001593
     8  H   -0.062094  -0.009074  -0.022404   0.001235   0.001038   0.000449
     9  H    0.128182  -0.074243  -0.000372  -0.006576  -0.029259   0.000224
    10  C   -0.831574   0.176274  -0.274588   0.015580   0.274394  -0.012538
    11  H   -0.123410  -0.014317  -0.033850   0.000251   0.018386   0.000067
    12  H    0.433643  -0.037731   0.016512   0.000739  -0.025526  -0.000174
    13  C    8.123909  -0.135019   0.353161   0.154523  -1.063030  -0.019052
    14  N   -0.135019   7.658802   0.282682  -0.166335   0.150548  -0.021438
    15  C    0.353161   0.282682   6.288975   0.046326  -0.937677   0.102525
    16  H    0.154523  -0.166335   0.046326   1.357868   0.017246  -0.052633
    17  C   -1.063030   0.150548  -0.937677   0.017246   6.577063  -0.310224
    18  H   -0.019052  -0.021438   0.102525  -0.052633  -0.310224   1.508219
    19  C    1.329131  -0.393424   1.052158   0.045887  -1.150916   0.322310
    20  H   -0.156584   0.027965  -0.143111  -0.007089   0.268848  -0.061367
    21  C   -2.716186   0.289414  -1.215273  -0.065064   1.346517  -0.047202
    22  H    0.326525  -0.014843   0.031339  -0.000374  -0.066198  -0.008449
    23  H    0.014183   0.000329  -0.000549   0.000015   0.000955  -0.000028
              19         20         21         22         23
     1  C    0.002065   0.000016  -0.006914   0.000023  -0.028720
     2  H   -0.001712  -0.000038   0.003247  -0.000279   0.017729
     3  H    0.000573   0.000027  -0.001963  -0.000047  -0.029694
     4  H    0.000575   0.000010  -0.001720   0.000075   0.002600
     5  N   -0.014139  -0.000332   0.013068  -0.003037   0.447527
     6  H   -0.002190  -0.000007   0.007516   0.000147  -0.075159
     7  C    0.043970  -0.005084  -0.235303   0.049858  -0.038719
     8  H    0.010915  -0.000958   0.084194   0.008970  -0.044948
     9  H    0.029648   0.000959  -0.036756  -0.000564   0.015776
    10  C   -0.422658   0.056467   0.218782  -0.074740  -0.052230
    11  H   -0.006668   0.001049   0.169348   0.010950  -0.010115
    12  H    0.033977   0.005982  -0.273294  -0.075122   0.012587
    13  C    1.329131  -0.156584  -2.716186   0.326525   0.014183
    14  N   -0.393424   0.027965   0.289414  -0.014843   0.000329
    15  C    1.052158  -0.143111  -1.215273   0.031339  -0.000549
    16  H    0.045887  -0.007089  -0.065064  -0.000374   0.000015
    17  C   -1.150916   0.268848   1.346517  -0.066198   0.000955
    18  H    0.322310  -0.061367  -0.047202  -0.008449  -0.000028
    19  C    7.679120  -0.434692  -2.203196   0.315909  -0.001131
    20  H   -0.434692   1.558428   0.373192  -0.094590   0.000013
    21  C   -2.203196   0.373192   9.993067  -0.784436   0.000313
    22  H    0.315909  -0.094590  -0.784436   1.940152  -0.000826
    23  H   -0.001131   0.000013   0.000313  -0.000826   0.566367
 Mulliken charges:
               1
     1  C    0.761142
     2  H   -0.055335
     3  H   -0.055645
     4  H   -0.126999
     5  N   -0.715249
     6  H    0.202936
     7  C    1.071553
     8  H   -0.225325
     9  H   -0.171495
    10  C    0.387539
    11  H    0.009142
    12  H   -0.161280
    13  C    0.021171
    14  N   -0.676468
    15  C    0.450320
    16  H   -0.356273
    17  C    0.932188
    18  H   -0.399238
    19  C   -0.235511
    20  H   -0.389105
    21  C    1.088650
    22  H   -0.560442
    23  H    0.203722
 Sum of Mulliken charges =   1.00000
 Mulliken charges with hydrogens summed into heavy atoms:
               1
     1  C    0.523163
     5  N   -0.308590
     7  C    0.674733
    10  C    0.235401
    13  C    0.021171
    14  N   -0.676468
    15  C    0.094047
    17  C    0.532950
    19  C   -0.624616
    21  C    0.528208
 Electronic spatial extent (au):  <R**2>=           2129.7959
 Charge=              1.0000 electrons
 Dipole moment (field-independent basis, Debye):
    X=            -10.4204    Y=              1.8961    Z=             -0.2142  Tot=             10.5937
 Quadrupole moment (field-independent basis, Debye-Ang):
   XX=              3.5908   YY=            -51.3828   ZZ=            -58.7121
   XY=             -2.0738   XZ=             -2.9689   YZ=              0.3134
 Traceless Quadrupole moment (field-independent basis, Debye-Ang):
   XX=             39.0922   YY=            -15.8814   ZZ=            -23.2107
   XY=             -2.0738   XZ=             -2.9689   YZ=              0.3134
 Octapole moment (field-independent basis, Debye-Ang**2):
  XXX=           -151.6657  YYY=              2.0410  ZZZ=              2.9184  XYY=             -6.2569
  XXY=             -2.3628  XXZ=             -8.4998  XZZ=            -26.4563  YZZ=              1.2249
  YYZ=             -1.6721  XYZ=             -5.5427
 Hexadecapole moment (field-independent basis, Debye-Ang**3):
 XXXX=          -1362.4110 YYYY=           -319.6085 ZZZZ=           -119.5090 XXXY=             -4.3137
 XXXZ=            -35.9968 YYYX=            -14.6440 YYYZ=             -6.7163 ZZZX=              0.1003
 ZZZY=              4.0383 XXYY=           -362.3718 XXZZ=           -388.6754 YYZZ=            -87.9109
 XXYZ=             -0.4693 YYXZ=             -2.5685 ZZXY=              0.7642
 N-N= 5.051985226708D+02 E-N=-1.975485721982D+03  KE= 4.186468981695D+02
 Leave Link  601 at Sun Jul 18 14:43:35 2021, MaxMem=   262144000 cpu:               0.3 elap:               0.2
 (Enter /dades/curu/g16A03_MST/g16/l9999.exe)
 1\1\GINC-PIRINEUS34\SP\RMP2-FC\Aug-CC-pVDZ\C8H13N2(1+)\UBATOR02\18-Jul
 -2021\0\\#p mp2/aug-cc-pVDZ scf=tight maxdisk=180GB geom=allcheck\\SET
 _328_BBB256_conf1.geo_180_180_270 geometry\\1,1\C,0,1.4540488374,3.104
 1392151,1.8122360752\H,0,0.5775735117,3.0560958234,2.4554114185\H,0,1.
 2431094605,3.7065190867,0.9309463482\H,0,2.301557657,3.5149313381,2.35
 71413361\N,0,1.7926307491,1.712883402,1.3662836272\H,0,2.030773984,1.1
 381726872,2.187168432\C,0,0.6688317253,1.0651893762,0.5913449287\H,0,0
 .4635834739,1.7208527719,-0.25601708\H,0,-0.2060459626,1.0475694298,1.
 2419267487\C,0,1.0178707602,-0.3512338736,0.134900517\H,0,1.3351914703
 ,-0.947494519,0.9983790641\H,0,1.8487597667,-0.338600019,-0.5756284878
 \C,0,-0.1845215277,-1.0263732267,-0.4983502441\N,0,-1.3412995484,-0.93
 8926825,0.1766559906\C,0,-2.4131162694,-1.5542507176,-0.3364979152\H,0
 ,-3.3341401669,-1.4618766349,0.2333170113\C,0,-2.3897906924,-2.2821698
 617,-1.5256571141\H,0,-3.2881905639,-2.764271037,-1.8899688141\C,0,-1.
 1868401535,-2.3648855816,-2.2233460998\H,0,-1.1215977804,-2.9169359661
 ,-3.154458381\C,0,-0.0652570326,-1.7218349047,-1.7039769378\H,0,0.8890
 892412,-1.7585677008,-2.2165452979\H,0,2.6507790605,1.7350677372,0.795
 7348743\\Version=ES64L-G16RevA.03\State=1-A\HF=-419.2540941\MP2=-420.7
 107873\RMSD=4.882e-09\PG=C01 [X(C8H13N2)]\\@


 TO SEE A WORLD IN A GRAIN OF SAND
 AND A HEAVEN IN A WILD FLOWER
 HOLD INFINITY IN THE PALM OF YOUR HAND
 AND ETERNITY IN AN HOUR

                       -- WILLIAM BLAKE
 Job cpu time:       0 days  0 hours 27 minutes 27.2 seconds.
 Elapsed time:       0 days  0 hours  7 minutes  3.2 seconds.
 File lengths (MBytes):  RWF=  10437 Int=      0 D2E=      0 Chk=     13 Scr=      1
 Normal termination of Gaussian 16 at Sun Jul 18 14:43:57 2021.
