 Entering Gaussian System, Link 0=g16
 Input=SET_328_BBB256_conf1.geo_075_180_090_OCTANOL.dat
 Output=SET_328_BBB256_conf1.geo_075_180_090_OCTANOL.log
 Initial command:
 /dades/curu/g16A03_MST/g16/l1.exe "/tmp/ubator02/1839536/Gau-75358.inp" -scrdir="/tmp/ubator02/1839536/"
 Entering Link 1 = /dades/curu/g16A03_MST/g16/l1.exe PID=     75359.
  
 Copyright (c) 1988,1990,1992,1993,1995,1998,2003,2009,2016,
            Gaussian, Inc.  All Rights Reserved.
  
 This is part of the Gaussian(R) 16 program.  It is based on
 the Gaussian(R) 09 system (copyright 2009, Gaussian, Inc.),
 the Gaussian(R) 03 system (copyright 2003, Gaussian, Inc.),
 the Gaussian(R) 98 system (copyright 1998, Gaussian, Inc.),
 the Gaussian(R) 94 system (copyright 1995, Gaussian, Inc.),
 the Gaussian 92(TM) system (copyright 1992, Gaussian, Inc.),
 the Gaussian 90(TM) system (copyright 1990, Gaussian, Inc.),
 the Gaussian 88(TM) system (copyright 1988, Gaussian, Inc.),
 the Gaussian 86(TM) system (copyright 1986, Carnegie Mellon
 University), and the Gaussian 82(TM) system (copyright 1983,
 Carnegie Mellon University). Gaussian is a federally registered
 trademark of Gaussian, Inc.
  
 This software contains proprietary and confidential information,
 including trade secrets, belonging to Gaussian, Inc.
  
 This software is provided under written license and may be
 used, copied, transmitted, or stored only in accord with that
 written license.
  
 The following legend is applicable only to US Government
 contracts under FAR:
  
                    RESTRICTED RIGHTS LEGEND
  
 Use, reproduction and disclosure by the US Government is
 subject to restrictions as set forth in subparagraphs (a)
 and (c) of the Commercial Computer Software - Restricted
 Rights clause in FAR 52.227-19.
  
 Gaussian, Inc.
 340 Quinnipiac St., Bldg. 40, Wallingford CT 06492
  
  
 ---------------------------------------------------------------
 Warning -- This program may not be used in any manner that
 competes with the business of Gaussian, Inc. or will provide
 assistance to any competitor of Gaussian, Inc.  The licensee
 of this program is prohibited from giving any competitor of
 Gaussian, Inc. access to this program.  By using this program,
 the user acknowledges that Gaussian, Inc. is engaged in the
 business of creating and licensing software in the field of
 computational chemistry and represents and warrants to the
 licensee that it is not a competitor of Gaussian, Inc. and that
 it will not use this program in any manner prohibited above.
 ---------------------------------------------------------------
  

 Cite this work as:
 Gaussian 16, Revision A.03,
 M. J. Frisch, G. W. Trucks, H. B. Schlegel, G. E. Scuseria, 
 M. A. Robb, J. R. Cheeseman, G. Scalmani, V. Barone, 
 G. A. Petersson, H. Nakatsuji, X. Li, M. Caricato, A. V. Marenich, 
 J. Bloino, B. G. Janesko, R. Gomperts, B. Mennucci, H. P. Hratchian, 
 J. V. Ortiz, A. F. Izmaylov, J. L. Sonnenberg, D. Williams-Young, 
 F. Ding, F. Lipparini, F. Egidi, J. Goings, B. Peng, A. Petrone, 
 T. Henderson, D. Ranasinghe, V. G. Zakrzewski, J. Gao, N. Rega, 
 G. Zheng, W. Liang, M. Hada, M. Ehara, K. Toyota, R. Fukuda, 
 J. Hasegawa, M. Ishida, T. Nakajima, Y. Honda, O. Kitao, H. Nakai, 
 T. Vreven, K. Throssell, J. A. Montgomery, Jr., J. E. Peralta, 
 F. Ogliaro, M. J. Bearpark, J. J. Heyd, E. N. Brothers, K. N. Kudin, 
 V. N. Staroverov, T. A. Keith, R. Kobayashi, J. Normand, 
 K. Raghavachari, A. P. Rendell, J. C. Burant, S. S. Iyengar, 
 J. Tomasi, M. Cossi, J. M. Millam, M. Klene, C. Adamo, R. Cammi, 
 J. W. Ochterski, R. L. Martin, K. Morokuma, O. Farkas, 
 J. B. Foresman, and D. J. Fox, Gaussian, Inc., Wallingford CT, 2016.
 
 ******************************************
 Gaussian 16:  ES64L-G16RevA.03 25-Dec-2016
                18-Jul-2021 
 ******************************************
 %mem=800MB
 %nproc=4
 Will use up to    4 processors via shared memory.
 %chk=SET_328_BBB256_conf1.geo_075_180_090.chk
 ---------------------------------------------------------------
 #p b3lyp/6-31G(d) opt freq scrf=(iefpcm,read,solvent=n-octanol)
 ---------------------------------------------------------------
 1/18=20,19=15,26=3,38=1,40=2/1,3;
 2/9=110,12=2,17=6,18=5,40=1/2;
 3/5=1,6=6,7=1,11=2,25=1,30=1,70=2203,71=1,72=25,74=-5/1,2,3;
 4//1;
 5/5=2,38=5,53=25/2;
 6/7=2,8=2,9=2,10=2,28=1/1;
 7//1,2,3,16;
 1/18=20,19=15,26=3/3(2);
 2/9=110/2;
 99//99;
 2/9=110/2;
 3/5=1,6=6,7=1,11=2,25=1,30=1,70=2205,71=1,72=25,74=-5/1,2,3;
 4/5=5,16=3,69=1/1;
 5/5=2,38=5,53=25/2;
 7//1,2,3,16;
 1/18=20,19=15,26=3/3(-5);
 2/9=110/2;
 6/7=2,8=2,9=2,10=2,19=2,28=1/1;
 99/9=1/99;
 Leave Link    1 at Sun Jul 18 13:38:21 2021, MaxMem=   104857600 cpu:               0.0 elap:               0.0
 (Enter /dades/curu/g16A03_MST/g16/l101.exe)
 ---------------------------------------------
 SET_328_BBB256_conf1.geo_075_180_090 geometry
 ---------------------------------------------
 Symbolic Z-matrix:
 Charge =  1 Multiplicity = 1
 C                     1.892     2.578     1.282 
 H                     1.409     2.113     2.146 
 H                     2.247     3.564     1.595 
 H                     2.814     2.033     1.063 
 N                     0.935     2.645     0.145 
 H                     1.34      3.198    -0.583 
 C                     0.585     1.282    -0.416 
 H                     1.403     0.592    -0.638 
 H                     0.129     1.517    -1.381 
 C                    -0.323     0.61      0.628 
 H                    -1.198     1.223     0.854 
 H                     0.202     0.461     1.574 
 C                    -0.652    -0.773     0.079 
 N                     0.168    -1.758     0.426 
 C                    -0.099    -2.954    -0.088 
 H                     0.639    -3.699     0.206 
 C                    -1.152    -3.197    -0.932 
 H                    -1.407    -4.214    -1.221 
 C                    -2.055    -2.124    -1.228 
 H                    -2.883    -2.232    -1.923 
 C                    -1.794    -0.872    -0.645 
 H                    -2.285     0.053    -0.937 
 H                     0.095     3.089     0.458 
 
 ITRead=  0  0  0  0  0  0  0  0  0  0  0  0  0  0  0  0  0  0  0  0
 ITRead=  0  0  0
 MicOpt= -1 -1 -1 -1 -1 -1 -1 -1 -1 -1 -1 -1 -1 -1 -1 -1 -1 -1 -1 -1
 MicOpt= -1 -1 -1
 NAtoms=     23 NQM=       23 NQMF=       0 NMMI=      0 NMMIF=      0
                NMic=       0 NMicF=      0.
                    Isotopes and Nuclear Properties:
 (Nuclear quadrupole moments (NQMom) in fm**2, nuclear magnetic moments (NMagM)
  in nuclear magnetons)

  Atom         1           2           3           4           5           6           7           8           9          10
 IAtWgt=          12           1           1           1          14           1          12           1           1          12
 AtmWgt=  12.0000000   1.0078250   1.0078250   1.0078250  14.0030740   1.0078250  12.0000000   1.0078250   1.0078250  12.0000000
 NucSpn=           0           1           1           1           2           1           0           1           1           0
 AtZEff=  -0.0000000  -0.0000000  -0.0000000  -0.0000000  -0.0000000  -0.0000000  -0.0000000  -0.0000000  -0.0000000  -0.0000000
 NQMom=    0.0000000   0.0000000   0.0000000   0.0000000   2.0440000   0.0000000   0.0000000   0.0000000   0.0000000   0.0000000
 NMagM=    0.0000000   2.7928460   2.7928460   2.7928460   0.4037610   2.7928460   0.0000000   2.7928460   2.7928460   0.0000000
 AtZNuc=   6.0000000   1.0000000   1.0000000   1.0000000   7.0000000   1.0000000   6.0000000   1.0000000   1.0000000   6.0000000

  Atom        11          12          13          14          15          16          17          18          19          20
 IAtWgt=           1           1          12          14          12           1          12           1          12           1
 AtmWgt=   1.0078250   1.0078250  12.0000000  14.0030740  12.0000000   1.0078250  12.0000000   1.0078250  12.0000000   1.0078250
 NucSpn=           1           1           0           2           0           1           0           1           0           1
 AtZEff=  -0.0000000  -0.0000000  -0.0000000  -0.0000000  -0.0000000  -0.0000000  -0.0000000  -0.0000000  -0.0000000  -0.0000000
 NQMom=    0.0000000   0.0000000   0.0000000   2.0440000   0.0000000   0.0000000   0.0000000   0.0000000   0.0000000   0.0000000
 NMagM=    2.7928460   2.7928460   0.0000000   0.4037610   0.0000000   2.7928460   0.0000000   2.7928460   0.0000000   2.7928460
 AtZNuc=   1.0000000   1.0000000   6.0000000   7.0000000   6.0000000   1.0000000   6.0000000   1.0000000   6.0000000   1.0000000

  Atom        21          22          23
 IAtWgt=          12           1           1
 AtmWgt=  12.0000000   1.0078250   1.0078250
 NucSpn=           0           1           1
 AtZEff=  -0.0000000  -0.0000000  -0.0000000
 NQMom=    0.0000000   0.0000000   0.0000000
 NMagM=    0.0000000   2.7928460   2.7928460
 AtZNuc=   6.0000000   1.0000000   1.0000000
 Leave Link  101 at Sun Jul 18 13:38:21 2021, MaxMem=   104857600 cpu:               0.1 elap:               0.1
 (Enter /dades/curu/g16A03_MST/g16/l103.exe)

 GradGradGradGradGradGradGradGradGradGradGradGradGradGradGradGradGradGrad
 Berny optimization.
 Initialization pass.
                           ----------------------------
                           !    Initial Parameters    !
                           ! (Angstroms and Degrees)  !
 --------------------------                            --------------------------
 ! Name  Definition              Value          Derivative Info.                !
 --------------------------------------------------------------------------------
 ! R1    R(1,2)                  1.0936         estimate D2E/DX2                !
 ! R2    R(1,3)                  1.0937         estimate D2E/DX2                !
 ! R3    R(1,4)                  1.0932         estimate D2E/DX2                !
 ! R4    R(1,5)                  1.4877         estimate D2E/DX2                !
 ! R5    R(5,6)                  0.9999         estimate D2E/DX2                !
 ! R6    R(5,7)                  1.5149         estimate D2E/DX2                !
 ! R7    R(5,23)                 1.0004         estimate D2E/DX2                !
 ! R8    R(7,8)                  1.0929         estimate D2E/DX2                !
 ! R9    R(7,9)                  1.0929         estimate D2E/DX2                !
 ! R10   R(7,10)                 1.5382         estimate D2E/DX2                !
 ! R11   R(10,11)                1.092          estimate D2E/DX2                !
 ! R12   R(10,12)                1.0921         estimate D2E/DX2                !
 ! R13   R(10,13)                1.5239         estimate D2E/DX2                !
 ! R14   R(13,14)                1.3278         estimate D2E/DX2                !
 ! R15   R(13,21)                1.3558         estimate D2E/DX2                !
 ! R16   R(14,15)                1.3289         estimate D2E/DX2                !
 ! R17   R(15,16)                1.0891         estimate D2E/DX2                !
 ! R18   R(15,17)                1.3712         estimate D2E/DX2                !
 ! R19   R(17,18)                1.0876         estimate D2E/DX2                !
 ! R20   R(17,19)                1.4333         estimate D2E/DX2                !
 ! R21   R(19,20)                1.0864         estimate D2E/DX2                !
 ! R22   R(19,21)                1.4055         estimate D2E/DX2                !
 ! R23   R(21,22)                1.0872         estimate D2E/DX2                !
 ! A1    A(2,1,3)              107.4924         estimate D2E/DX2                !
 ! A2    A(2,1,4)              108.5893         estimate D2E/DX2                !
 ! A3    A(2,1,5)              109.8071         estimate D2E/DX2                !
 ! A4    A(3,1,4)              103.475          estimate D2E/DX2                !
 ! A5    A(3,1,5)              112.7636         estimate D2E/DX2                !
 ! A6    A(4,1,5)              114.3241         estimate D2E/DX2                !
 ! A7    A(1,5,6)              108.7116         estimate D2E/DX2                !
 ! A8    A(1,5,7)              113.025          estimate D2E/DX2                !
 ! A9    A(1,5,23)             108.7251         estimate D2E/DX2                !
 ! A10   A(6,5,7)              108.7568         estimate D2E/DX2                !
 ! A11   A(6,5,23)             108.811          estimate D2E/DX2                !
 ! A12   A(7,5,23)             108.7355         estimate D2E/DX2                !
 ! A13   A(5,7,8)              118.055          estimate D2E/DX2                !
 ! A14   A(5,7,9)              103.2923         estimate D2E/DX2                !
 ! A15   A(5,7,10)             106.1473         estimate D2E/DX2                !
 ! A16   A(8,7,9)              105.5859         estimate D2E/DX2                !
 ! A17   A(8,7,10)             107.6898         estimate D2E/DX2                !
 ! A18   A(9,7,10)             116.5478         estimate D2E/DX2                !
 ! A19   A(7,10,11)            111.6063         estimate D2E/DX2                !
 ! A20   A(7,10,12)            111.3305         estimate D2E/DX2                !
 ! A21   A(7,10,13)            106.225          estimate D2E/DX2                !
 ! A22   A(11,10,12)           106.4097         estimate D2E/DX2                !
 ! A23   A(11,10,13)           114.2685         estimate D2E/DX2                !
 ! A24   A(12,10,13)           106.9789         estimate D2E/DX2                !
 ! A25   A(10,13,14)           116.4719         estimate D2E/DX2                !
 ! A26   A(10,13,21)           116.1356         estimate D2E/DX2                !
 ! A27   A(14,13,21)           127.2702         estimate D2E/DX2                !
 ! A28   A(13,14,15)           116.263          estimate D2E/DX2                !
 ! A29   A(14,15,16)           112.0302         estimate D2E/DX2                !
 ! A30   A(14,15,17)           123.4956         estimate D2E/DX2                !
 ! A31   A(16,15,17)           124.4241         estimate D2E/DX2                !
 ! A32   A(15,17,18)           120.6193         estimate D2E/DX2                !
 ! A33   A(15,17,19)           118.5717         estimate D2E/DX2                !
 ! A34   A(18,17,19)           119.831          estimate D2E/DX2                !
 ! A35   A(17,19,20)           122.5378         estimate D2E/DX2                !
 ! A36   A(17,19,21)           117.6582         estimate D2E/DX2                !
 ! A37   A(20,19,21)           119.6981         estimate D2E/DX2                !
 ! A38   A(13,21,19)           116.293          estimate D2E/DX2                !
 ! A39   A(13,21,22)           117.4976         estimate D2E/DX2                !
 ! A40   A(19,21,22)           124.2367         estimate D2E/DX2                !
 ! D1    D(2,1,5,6)            171.1616         estimate D2E/DX2                !
 ! D2    D(2,1,5,7)            -67.9859         estimate D2E/DX2                !
 ! D3    D(2,1,5,23)            52.8491         estimate D2E/DX2                !
 ! D4    D(3,1,5,6)             51.3205         estimate D2E/DX2                !
 ! D5    D(3,1,5,7)            172.173          estimate D2E/DX2                !
 ! D6    D(3,1,5,23)           -66.9919         estimate D2E/DX2                !
 ! D7    D(4,1,5,6)            -66.5191         estimate D2E/DX2                !
 ! D8    D(4,1,5,7)             54.3334         estimate D2E/DX2                !
 ! D9    D(4,1,5,23)           175.1685         estimate D2E/DX2                !
 ! D10   D(1,5,7,8)            -48.4585         estimate D2E/DX2                !
 ! D11   D(1,5,7,9)           -164.4823         estimate D2E/DX2                !
 ! D12   D(1,5,7,10)            72.3897         estimate D2E/DX2                !
 ! D13   D(6,5,7,8)             72.3683         estimate D2E/DX2                !
 ! D14   D(6,5,7,9)            -43.6555         estimate D2E/DX2                !
 ! D15   D(6,5,7,10)          -166.7835         estimate D2E/DX2                !
 ! D16   D(23,5,7,8)          -169.2876         estimate D2E/DX2                !
 ! D17   D(23,5,7,9)            74.6885         estimate D2E/DX2                !
 ! D18   D(23,5,7,10)          -48.4394         estimate D2E/DX2                !
 ! D19   D(5,7,10,11)           56.0316         estimate D2E/DX2                !
 ! D20   D(5,7,10,12)          -62.7098         estimate D2E/DX2                !
 ! D21   D(5,7,10,13)         -178.8221         estimate D2E/DX2                !
 ! D22   D(8,7,10,11)         -176.6474         estimate D2E/DX2                !
 ! D23   D(8,7,10,12)           64.6112         estimate D2E/DX2                !
 ! D24   D(8,7,10,13)          -51.5012         estimate D2E/DX2                !
 ! D25   D(9,7,10,11)          -58.3134         estimate D2E/DX2                !
 ! D26   D(9,7,10,12)         -177.0548         estimate D2E/DX2                !
 ! D27   D(9,7,10,13)           66.8328         estimate D2E/DX2                !
 ! D28   D(7,10,13,14)          90.8242         estimate D2E/DX2                !
 ! D29   D(7,10,13,21)         -92.8996         estimate D2E/DX2                !
 ! D30   D(11,10,13,14)       -145.68           estimate D2E/DX2                !
 ! D31   D(11,10,13,21)         30.5962         estimate D2E/DX2                !
 ! D32   D(12,10,13,14)        -28.185          estimate D2E/DX2                !
 ! D33   D(12,10,13,21)        148.0912         estimate D2E/DX2                !
 ! D34   D(10,13,14,15)       -178.0066         estimate D2E/DX2                !
 ! D35   D(21,13,14,15)          6.1951         estimate D2E/DX2                !
 ! D36   D(10,13,21,19)        175.8804         estimate D2E/DX2                !
 ! D37   D(10,13,21,22)         11.1637         estimate D2E/DX2                !
 ! D38   D(14,13,21,19)         -8.3092         estimate D2E/DX2                !
 ! D39   D(14,13,21,22)       -173.0258         estimate D2E/DX2                !
 ! D40   D(13,14,15,16)        177.514          estimate D2E/DX2                !
 ! D41   D(13,14,15,17)         -0.0108         estimate D2E/DX2                !
 ! D42   D(14,15,17,18)       -171.8506         estimate D2E/DX2                !
 ! D43   D(14,15,17,19)         -3.1827         estimate D2E/DX2                !
 ! D44   D(16,15,17,18)         10.9312         estimate D2E/DX2                !
 ! D45   D(16,15,17,19)        179.5991         estimate D2E/DX2                !
 ! D46   D(15,17,19,20)        177.1097         estimate D2E/DX2                !
 ! D47   D(15,17,19,21)          0.8654         estimate D2E/DX2                !
 ! D48   D(18,17,19,20)        -14.1308         estimate D2E/DX2                !
 ! D49   D(18,17,19,21)        169.6249         estimate D2E/DX2                !
 ! D50   D(17,19,21,13)          4.2516         estimate D2E/DX2                !
 ! D51   D(17,19,21,22)        167.8228         estimate D2E/DX2                !
 ! D52   D(20,19,21,13)       -172.1036         estimate D2E/DX2                !
 ! D53   D(20,19,21,22)         -8.5323         estimate D2E/DX2                !
 --------------------------------------------------------------------------------
 Trust Radius=3.00D-01 FncErr=1.00D-07 GrdErr=1.00D-06 EigMax=2.50D+02 EigMin=1.00D-04
 Number of steps in this run=    126 maximum allowed number of steps=    138.
 GradGradGradGradGradGradGradGradGradGradGradGradGradGradGradGradGradGrad

 Leave Link  103 at Sun Jul 18 13:38:21 2021, MaxMem=   104857600 cpu:               0.0 elap:               0.0
 (Enter /dades/curu/g16A03_MST/g16/l202.exe)
                          Input orientation:                          
 ---------------------------------------------------------------------
 Center     Atomic      Atomic             Coordinates (Angstroms)
 Number     Number       Type             X           Y           Z
 ---------------------------------------------------------------------
      1          6           0        1.892000    2.578000    1.282000
      2          1           0        1.409000    2.113000    2.146000
      3          1           0        2.247000    3.564000    1.595000
      4          1           0        2.814000    2.033000    1.063000
      5          7           0        0.935000    2.645000    0.145000
      6          1           0        1.340000    3.198000   -0.583000
      7          6           0        0.585000    1.282000   -0.416000
      8          1           0        1.403000    0.592000   -0.638000
      9          1           0        0.129000    1.517000   -1.381000
     10          6           0       -0.323000    0.610000    0.628000
     11          1           0       -1.198000    1.223000    0.854000
     12          1           0        0.202000    0.461000    1.574000
     13          6           0       -0.652000   -0.773000    0.079000
     14          7           0        0.168000   -1.758000    0.426000
     15          6           0       -0.099000   -2.954000   -0.088000
     16          1           0        0.639000   -3.699000    0.206000
     17          6           0       -1.152000   -3.197000   -0.932000
     18          1           0       -1.407000   -4.214000   -1.221000
     19          6           0       -2.055000   -2.124000   -1.228000
     20          1           0       -2.883000   -2.232000   -1.923000
     21          6           0       -1.794000   -0.872000   -0.645000
     22          1           0       -2.285000    0.053000   -0.937000
     23          1           0        0.095000    3.089000    0.458000
 ---------------------------------------------------------------------
                    Distance matrix (angstroms):
                    1          2          3          4          5
     1  C    0.000000
     2  H    1.093622   0.000000
     3  H    1.093705   1.763872   0.000000
     4  H    1.093193   1.775757   1.717112   0.000000
     5  N    1.487652   2.124077   2.160649   2.178970   0.000000
     6  H    2.041404   2.937589   2.387528   2.497842   0.999909
     7  C    2.504210   2.816626   3.466106   2.778468   1.514922
     8  H    2.805302   3.172402   3.812009   2.638333   2.246536
     9  H    3.365332   3.799124   4.187208   3.667236   2.061722
    10  C    3.034298   2.750119   4.033126   3.472020   2.440713
    11  H    3.401075   3.042665   4.230530   4.098283   2.659785
    12  H    2.724528   2.124415   3.716325   3.091092   2.710938
    13  C    4.375882   4.104778   5.432497   4.566733   3.769038
    14  N    4.744029   4.413969   5.832022   4.666773   4.478131
    15  C    6.036887   5.739278   7.128852   5.889019   5.698442
    16  H    6.490648   6.175423   7.567440   6.190388   6.351195
    17  C    6.893356   6.650482   7.978098   6.860181   6.296385
    18  H    7.954852   7.700485   9.043166   7.877722   7.375419
    19  C    6.632323   6.429257   7.670064   6.799742   5.793841
    20  H    7.497249   7.338736   8.502167   7.717657   6.529845
    21  C    5.403927   5.192217   6.405106   5.708761   4.521154
    22  H    5.361615   5.233940   6.267150   5.824105   4.272890
    23  H    2.041888   2.351280   2.479818   2.978946   1.000352
                    6          7          8          9         10
     6  H    0.000000
     7  C    2.066149   0.000000
     8  H    2.607342   1.092935   0.000000
     9  H    2.220154   1.092880   1.740905   0.000000
    10  C    3.306030   1.538176   2.140597   2.250119   0.000000
    11  H    3.522363   2.189856   3.064217   2.615834   1.092003
    12  H    3.665905   2.186511   2.520418   3.138868   1.092127
    13  C    4.491676   2.449126   2.569112   2.825891   1.523920
    14  N    5.191686   3.181895   2.860039   3.740641   2.426790
    15  C    6.337417   4.303387   3.890067   4.659793   3.642105
    16  H    6.977287   5.019976   4.439450   5.475886   4.435201
    17  C    6.872255   4.831653   4.579408   4.905544   4.196914
    18  H    7.930372   5.901026   5.597645   5.935424   5.278715
    19  C    6.345529   4.385177   4.436499   4.248546   3.730860
    20  H    7.008154   5.162002   5.291124   4.839515   4.597626
    21  C    5.137188   3.217421   3.516270   3.153878   2.445546
    22  H    4.812169   3.165246   3.739153   2.857941   2.570782
    23  H    1.626526   2.066210   3.024415   2.419558   2.519735
                   11         12         13         14         15
    11  H    0.000000
    12  H    1.749012   0.000000
    13  C    2.209696   2.118277   0.000000
    14  N    3.306887   2.498604   1.327793   0.000000
    15  C    4.420689   3.809865   2.256205   1.328872   0.000000
    16  H    5.293445   4.400908   3.200670   2.009408   1.089084
    17  C    4.767422   4.636196   2.673555   2.378505   1.371202
    18  H    5.823253   5.679483   3.755064   3.350398   2.140596
    19  C    4.033805   4.430291   2.345604   2.794888   2.411314
    20  H    4.742149   5.385024   3.333774   3.879572   3.411622
    21  C    2.644096   3.268771   1.355781   2.404471   2.741897
    22  H    2.399615   3.557633   2.093137   3.339865   3.813325
    23  H    2.304478   2.857147   3.951796   4.847655   6.070717
                   16         17         18         19         20
    16  H    0.000000
    17  C    2.180534   0.000000
    18  H    2.547090   1.087582   0.000000
    19  C    3.434329   1.433302   2.188162   0.000000
    20  H    4.369121   2.215777   2.568989   1.086404   0.000000
    21  C    3.825653   2.429024   3.413284   1.405530   2.160742
    22  H    4.892211   3.441833   4.365642   2.208373   2.559497
    23  H    6.814425   6.557508   7.642569   5.885615   6.546044
                   21         22         23
    21  C    0.000000
    22  H    1.087184   0.000000
    23  H    4.524870   4.102161   0.000000
 Stoichiometry    C8H13N2(1+)
 Framework group  C1[X(C8H13N2)]
 Deg. of freedom    63
 Full point group                 C1      NOp   1
 Largest Abelian subgroup         C1      NOp   1
 Largest concise Abelian subgroup C1      NOp   1
                         Standard orientation:                         
 ---------------------------------------------------------------------
 Center     Atomic      Atomic             Coordinates (Angstroms)
 Number     Number       Type             X           Y           Z
 ---------------------------------------------------------------------
      1          6           0        3.649798    0.758888   -0.131254
      2          1           0        3.237941    1.038174   -1.105104
      3          1           0        4.735890    0.691148   -0.240830
      4          1           0        3.515040    1.597083    0.557470
      5          7           0        3.036969   -0.516405    0.328282
      6          1           0        3.524123   -0.831198    1.142778
      7          6           0        1.565767   -0.380062    0.662895
      8          1           0        1.259216    0.450390    1.303897
      9          1           0        1.353139   -1.286615    1.235028
     10          6           0        0.833653   -0.227898   -0.681293
     11          1           0        1.049519   -1.061114   -1.353321
     12          1           0        1.146466    0.678781   -1.203618
     13          6           0       -0.643311   -0.060740   -0.345187
     14          7           0       -1.074952    1.183655   -0.177253
     15          6           0       -2.353855    1.322499    0.155958
     16          1           0       -2.622835    2.365294    0.318234
     17          6           0       -3.210677    0.265505    0.325704
     18          1           0       -4.275720    0.433184    0.468541
     19          6           0       -2.725593   -1.058364    0.067982
     20          1           0       -3.333954   -1.944569    0.225491
     21          6           0       -1.384261   -1.196022   -0.328744
     22          1           0       -0.852210   -2.143299   -0.368206
     23          1           0        3.140137   -1.200843   -0.393940
 ---------------------------------------------------------------------
 Rotational constants (GHZ):           3.7004233           0.6413529           0.5811564
 Leave Link  202 at Sun Jul 18 13:38:21 2021, MaxMem=   104857600 cpu:               0.1 elap:               0.0
 (Enter /dades/curu/g16A03_MST/g16/l301.exe)
 Standard basis: 6-31G(d) (6D, 7F)
 Ernie: Thresh=  0.10000D-02 Tol=  0.10000D-05 Strict=F.
 There are   176 symmetry adapted cartesian basis functions of A   symmetry.
 There are   176 symmetry adapted basis functions of A   symmetry.
   176 basis functions,   332 primitive gaussians,   176 cartesian basis functions
    37 alpha electrons       37 beta electrons
       nuclear repulsion energy       514.4755873748 Hartrees.
 IExCor=  402 DFT=T Ex+Corr=B3LYP ExCW=0 ScaHFX=  0.200000
 ScaDFX=  0.800000  0.720000  1.000000  0.810000 ScalE2=  1.000000  1.000000
 IRadAn=      5 IRanWt=     -1 IRanGd=            0 ICorTp=0 IEmpDi=  4
 NAtoms=   23 NActive=   23 NUniq=   23 SFac= 1.00D+00 NAtFMM=   60 NAOKFM=F Big=F
 Integral buffers will be    131072 words long.
 Raffenetti 2 integral format.
 Two-electron integral symmetry is turned on.
 Using the following non-standard input for PCM:
 MSTModel=DFT cav MSTCharged
 --- end of non-standard input.
 MST model for solvation energy: B3LYP parametrization.
 MST cavity parameters:
 ISph   IAn     Re0     Alpha   Atom Type   QCorr
 ------------------------------------------------
   1      6     1.50     1.50      CN+        F
   2      1     1.20     1.50      CN+        F
   3      1     1.20     1.50      CN+        F
   4      1     1.20     1.50      CN+        F
   5      7     1.50     1.15      NH+        T
   6      1     0.90     1.15      NH+        T
   7      6     1.50     1.50      CN+        F
   8      1     1.20     1.50      CN+        F
   9      1     1.20     1.50      CN+        F
  10      6     1.50     1.50      CH2        F
  11      1     1.20     1.50      CH2        F
  12      1     1.20     1.50      CH2        F
  13      6     1.50     1.50      C          F
  14      7     1.50     1.50      Nc         F
  15      6     1.50     1.50      CH         F
  16      1     1.20     1.50      CH         F
  17      6     1.50     1.50      CH         F
  18      1     1.20     1.50      CH         F
  19      6     1.50     1.50      CH         F
  20      1     1.20     1.50      CH         F
  21      6     1.50     1.50      CH         F
  22      1     1.20     1.50      CH         F
  23      1     0.90     1.15      NH+        T
 ------------------------------------------------------------------------------
 Polarizable Continuum Model (PCM)
 =================================
 Model                : PCM.
 Atomic radii         : MST.
 Polarization charges : Total charges.
 Charge compensation  : None.
 Solution method      : On-the-fly selection.
 Cavity type          : Scaled VdW (van der Waals Surface) (Alpha=1.500).
 Cavity algorithm     : GePol (No added spheres)
                        Default sphere list used, NSphG=   23.
                        Lebedev-Laikov grids with approx.  5.0 points / Ang**2.
                        Smoothing algorithm: York/Karplus (Gamma=1.0000).
                        Polarization charges: spherical gaussians, with
                                              point-specific exponents (IZeta= 3).
                        Self-potential: point-specific (ISelfS= 7).
                        Self-field    : sphere-specific E.n sum rule (ISelfD= 2).
 1st derivatives      : Analytical E(r).r(x)/FMM algorithm (CHGder, D1EAlg=3).
                        Cavity 1st derivative terms included.
 Solvent              : n-Octanol, Eps=   9.862900 Eps(inf)=   2.043470
 ------------------------------------------------------------------------------
 GePol: Number of generator spheres                  =      23
 GePol: Total number of spheres                      =      23
 GePol: Number of exposed spheres                    =      23 (100.00%)
 GePol: Number of points                             =    2303
 GePol: Average weight of points                     =       0.10
 GePol: Minimum weight of points                     =   0.30D-07
 GePol: Maximum weight of points                     =    0.21373
 GePol: Number of points with low weight             =     128
 GePol: Fraction of low-weight points (<1% of avg)   =       5.56%
 GePol: Cavity surface area                          =    240.929 Ang**2
 GePol: Cavity volume                                =    258.404 Ang**3
 Surface areas from nonelectrostatic (unscaled) cavity and vdw tensions:
 Sphere =    1 Type =  CN+ Surf =        5.191 Tension =       -0.227
 Sphere =    2 Type =  CN+ Surf =        9.113 Tension =       -0.227
 Sphere =    3 Type =  CN+ Surf =       10.107 Tension =       -0.227
 Sphere =    4 Type =  CN+ Surf =       10.120 Tension =       -0.227
 Sphere =    5 Type =  NH+ Surf =        8.151 Tension =       -0.274
 Sphere =    6 Type =  NH+ Surf =        3.848 Tension =       -0.274
 Sphere =    7 Type =  CN+ Surf =        3.885 Tension =       -0.227
 Sphere =    8 Type =  CN+ Surf =        9.964 Tension =       -0.227
 Sphere =    9 Type =  CN+ Surf =        9.971 Tension =       -0.227
 Sphere =   10 Type =  CH2 Surf =        3.591 Tension =       -0.194
 Sphere =   11 Type =  CH2 Surf =        9.983 Tension =       -0.194
 Sphere =   12 Type =  CH2 Surf =        8.797 Tension =       -0.194
 Sphere =   13 Type =  C   Surf =        5.329 Tension =       -0.205
 Sphere =   14 Type =  Nc  Surf =       12.332 Tension =       -0.161
 Sphere =   15 Type =  CH  Surf =        7.420 Tension =       -0.195
 Sphere =   16 Type =  CH  Surf =       10.168 Tension =       -0.195
 Sphere =   17 Type =  CH  Surf =        7.924 Tension =       -0.195
 Sphere =   18 Type =  CH  Surf =       10.257 Tension =       -0.195
 Sphere =   19 Type =  CH  Surf =        8.037 Tension =       -0.195
 Sphere =   20 Type =  CH  Surf =       10.267 Tension =       -0.195
 Sphere =   21 Type =  CH  Surf =        7.665 Tension =       -0.195
 Sphere =   22 Type =  CH  Surf =       10.065 Tension =       -0.195
 Sphere =   23 Type =  NH+ Surf =        3.843 Tension =       -0.274
 PCM non-electrostatic energy =        -0.0127852188 Hartrees.
 Nuclear repulsion after PCM non-electrostatic terms =      514.4628021560 Hartrees.
 Leave Link  301 at Sun Jul 18 13:38:22 2021, MaxMem=   104857600 cpu:               0.1 elap:               0.5
 (Enter /dades/curu/g16A03_MST/g16/l302.exe)
 NPDir=0 NMtPBC=     1 NCelOv=     1 NCel=       1 NClECP=     1 NCelD=      1
         NCelK=      1 NCelE2=     1 NClLst=     1 CellRange=     0.0.
 One-electron integrals computed using PRISM.
 One-electron integral symmetry used in STVInt
 NBasis=   176 RedAO= T EigKep=  9.56D-04  NBF=   176
 NBsUse=   176 1.00D-06 EigRej= -1.00D+00 NBFU=   176
 Precomputing XC quadrature grid using
 IXCGrd= 4 IRadAn=           5 IRanWt=          -1 IRanGd=           0 AccXCQ= 0.00D+00.
 Generated NRdTot=       0 NPtTot=           0 NUsed=           0 NTot=          32
 NSgBfM=   176   176   176   176   176 MxSgAt=    23 MxSgA2=    23.
 Leave Link  302 at Sun Jul 18 13:38:22 2021, MaxMem=   104857600 cpu:               2.0 elap:               0.5
 (Enter /dades/curu/g16A03_MST/g16/l303.exe)
 DipDrv:  MaxL=1.
 Leave Link  303 at Sun Jul 18 13:38:22 2021, MaxMem=   104857600 cpu:               0.1 elap:               0.0
 (Enter /dades/curu/g16A03_MST/g16/l401.exe)
 ExpMin= 1.61D-01 ExpMax= 4.17D+03 ExpMxC= 6.27D+02 IAcc=3 IRadAn=         5 AccDes= 0.00D+00
 Harris functional with IExCor=  402 and IRadAn=       5 diagonalized for initial guess.
 HarFok:  IExCor=  402 AccDes= 0.00D+00 IRadAn=         5 IDoV= 1 UseB2=F ITyADJ=14
 ICtDFT=  3500011 ScaDFX=  1.000000  1.000000  1.000000  1.000000
 FoFCou: FMM=F IPFlag=           0 FMFlag=      100000 FMFlg1=           0
         NFxFlg=           0 DoJE=T BraDBF=F KetDBF=T FulRan=T
         wScrn=  0.000000 ICntrl=       500 IOpCl=  0 I1Cent=   200000004 NGrid=           0
         NMat0=    1 NMatS0=      1 NMatT0=    0 NMatD0=    1 NMtDS0=    0 NMtDT0=    0
 Petite list used in FoFCou.
 Harris En= -421.961379639020    
 JPrj=0 DoOrth=F DoCkMO=F.
 Leave Link  401 at Sun Jul 18 13:38:26 2021, MaxMem=   104857600 cpu:              13.5 elap:               3.4
 (Enter /dades/curu/g16A03_MST/g16/l502.exe)
 Integral symmetry usage will be decided dynamically.
 Closed shell SCF:
 Using DIIS extrapolation, IDIIS=  1040.
 NGot=   104857600 LenX=   104792409 LenY=   104760992
 Requested convergence on RMS density matrix=1.00D-08 within 128 cycles.
 Requested convergence on MAX density matrix=1.00D-06.
 Requested convergence on             energy=1.00D-06.
 No special actions if energy rises.
 Fock matrices will be formed incrementally for  20 cycles.

 Cycle   1  Pass 1  IDiag  1:
 FoFJK:  IHMeth= 1 ICntrl=       0 DoSepK=F KAlg= 0 I1Cent=           0 FoldK=F
 IRaf= 900000000 NMat=       1 IRICut=       1 DoRegI=T DoRafI=F ISym2E= 0 IDoP0=0 IntGTp=1.
 FoFCou: FMM=F IPFlag=           0 FMFlag=      100000 FMFlg1=           0
         NFxFlg=           0 DoJE=F BraDBF=F KetDBF=F FulRan=T
         wScrn=  0.000000 ICntrl=         0 IOpCl=  0 I1Cent=           0 NGrid=           0
         NMat0=    1 NMatS0=      1 NMatT0=    0 NMatD0=    1 NMtDS0=    0 NMtDT0=    0
 Symmetry not used in FoFCou.
 Inv3:  Mode=1 IEnd=    15911427.
 Iteration    1 A*A^-1 deviation from unit magnitude is 4.22D-15 for   2295.
 Iteration    1 A*A^-1 deviation from orthogonality  is 2.49D-15 for   2276    140.
 Iteration    1 A^-1*A deviation from unit magnitude is 4.00D-15 for   2295.
 Iteration    1 A^-1*A deviation from orthogonality  is 1.40D-15 for   2296   1202.
 E= -421.841163679951    
 DIIS: error= 1.95D-02 at cycle   1 NSaved=   1.
 NSaved= 1 IEnMin= 1 EnMin= -421.841163679951     IErMin= 1 ErrMin= 1.95D-02
 ErrMax= 1.95D-02  0.00D+00 EMaxC= 1.00D-01 BMatC= 1.75D-01 BMatP= 1.75D-01
 IDIUse=3 WtCom= 8.05D-01 WtEn= 1.95D-01
 Coeff-Com:  0.100D+01
 Coeff-En:   0.100D+01
 Coeff:      0.100D+01
 Gap=     0.230 Goal=   None    Shift=    0.000
 GapD=    0.230 DampG=1.000 DampE=0.500 DampFc=0.5000 IDamp=-1.
 Damping current iteration by 5.00D-01
 RMSDP=5.09D-03 MaxDP=1.12D-01              OVMax= 1.29D-01

 Cycle   2  Pass 1  IDiag  1:
 RMSU=  2.48D-03    CP:  9.77D-01
 E= -421.932344205268     Delta-E=       -0.091180525317 Rises=F Damp=T
 DIIS: error= 5.58D-03 at cycle   2 NSaved=   2.
 NSaved= 2 IEnMin= 2 EnMin= -421.932344205268     IErMin= 2 ErrMin= 5.58D-03
 ErrMax= 5.58D-03  0.00D+00 EMaxC= 1.00D-01 BMatC= 1.07D-02 BMatP= 1.75D-01
 IDIUse=3 WtCom= 9.44D-01 WtEn= 5.58D-02
 Coeff-Com: -0.459D-01 0.105D+01
 Coeff-En:   0.000D+00 0.100D+01
 Coeff:     -0.433D-01 0.104D+01
 Gap=     0.233 Goal=   None    Shift=    0.000
 RMSDP=1.09D-03 MaxDP=1.54D-02 DE=-9.12D-02 OVMax= 6.34D-02

 Cycle   3  Pass 1  IDiag  1:
 RMSU=  1.08D-03    CP:  9.72D-01  1.01D+00
 E= -422.022074751898     Delta-E=       -0.089730546630 Rises=F Damp=F
 DIIS: error= 1.81D-03 at cycle   3 NSaved=   3.
 NSaved= 3 IEnMin= 3 EnMin= -422.022074751898     IErMin= 3 ErrMin= 1.81D-03
 ErrMax= 1.81D-03  0.00D+00 EMaxC= 1.00D-01 BMatC= 2.33D-03 BMatP= 1.07D-02
 IDIUse=3 WtCom= 9.82D-01 WtEn= 1.81D-02
 Coeff-Com: -0.580D-01 0.308D+00 0.750D+00
 Coeff-En:   0.000D+00 0.000D+00 0.100D+01
 Coeff:     -0.570D-01 0.302D+00 0.755D+00
 Gap=     0.228 Goal=   None    Shift=    0.000
 RMSDP=3.25D-04 MaxDP=1.15D-02 DE=-8.97D-02 OVMax= 1.70D-02

 Cycle   4  Pass 1  IDiag  1:
 RMSU=  2.65D-04    CP:  9.71D-01  1.04D+00  8.43D-01
 E= -422.023574514438     Delta-E=       -0.001499762540 Rises=F Damp=F
 DIIS: error= 1.22D-03 at cycle   4 NSaved=   4.
 NSaved= 4 IEnMin= 4 EnMin= -422.023574514438     IErMin= 4 ErrMin= 1.22D-03
 ErrMax= 1.22D-03  0.00D+00 EMaxC= 1.00D-01 BMatC= 6.60D-04 BMatP= 2.33D-03
 IDIUse=3 WtCom= 9.88D-01 WtEn= 1.22D-02
 Coeff-Com: -0.252D-01 0.910D-01 0.396D+00 0.538D+00
 Coeff-En:   0.000D+00 0.000D+00 0.183D+00 0.817D+00
 Coeff:     -0.249D-01 0.899D-01 0.394D+00 0.542D+00
 Gap=     0.230 Goal=   None    Shift=    0.000
 RMSDP=1.41D-04 MaxDP=6.28D-03 DE=-1.50D-03 OVMax= 9.16D-03

 Cycle   5  Pass 1  IDiag  1:
 RMSU=  8.46D-05    CP:  9.71D-01  1.04D+00  8.59D-01  5.83D-01
 E= -422.024135096220     Delta-E=       -0.000560581782 Rises=F Damp=F
 DIIS: error= 4.08D-04 at cycle   5 NSaved=   5.
 NSaved= 5 IEnMin= 5 EnMin= -422.024135096220     IErMin= 5 ErrMin= 4.08D-04
 ErrMax= 4.08D-04  0.00D+00 EMaxC= 1.00D-01 BMatC= 4.38D-05 BMatP= 6.60D-04
 IDIUse=3 WtCom= 9.96D-01 WtEn= 4.08D-03
 Coeff-Com: -0.675D-02 0.152D-01 0.123D+00 0.264D+00 0.605D+00
 Coeff-En:   0.000D+00 0.000D+00 0.000D+00 0.000D+00 0.100D+01
 Coeff:     -0.672D-02 0.152D-01 0.123D+00 0.263D+00 0.606D+00
 Gap=     0.229 Goal=   None    Shift=    0.000
 RMSDP=4.55D-05 MaxDP=1.09D-03 DE=-5.61D-04 OVMax= 2.98D-03

 Cycle   6  Pass 1  IDiag  1:
 RMSU=  2.81D-05    CP:  9.71D-01  1.05D+00  8.62D-01  6.43D-01  6.33D-01
 E= -422.024170983549     Delta-E=       -0.000035887329 Rises=F Damp=F
 DIIS: error= 1.60D-04 at cycle   6 NSaved=   6.
 NSaved= 6 IEnMin= 6 EnMin= -422.024170983549     IErMin= 6 ErrMin= 1.60D-04
 ErrMax= 1.60D-04  0.00D+00 EMaxC= 1.00D-01 BMatC= 5.69D-06 BMatP= 4.38D-05
 IDIUse=3 WtCom= 9.98D-01 WtEn= 1.60D-03
 Coeff-Com: -0.285D-02 0.521D-02 0.554D-01 0.131D+00 0.368D+00 0.443D+00
 Coeff-En:   0.000D+00 0.000D+00 0.000D+00 0.000D+00 0.641D-01 0.936D+00
 Coeff:     -0.285D-02 0.520D-02 0.553D-01 0.131D+00 0.367D+00 0.444D+00
 Gap=     0.229 Goal=   None    Shift=    0.000
 RMSDP=1.61D-05 MaxDP=4.44D-04 DE=-3.59D-05 OVMax= 8.93D-04

 Cycle   7  Pass 1  IDiag  1:
 RMSU=  5.88D-06    CP:  9.71D-01  1.05D+00  8.66D-01  6.38D-01  6.83D-01
                    CP:  5.26D-01
 E= -422.024176994522     Delta-E=       -0.000006010973 Rises=F Damp=F
 DIIS: error= 1.81D-05 at cycle   7 NSaved=   7.
 NSaved= 7 IEnMin= 7 EnMin= -422.024176994522     IErMin= 7 ErrMin= 1.81D-05
 ErrMax= 1.81D-05  0.00D+00 EMaxC= 1.00D-01 BMatC= 1.20D-07 BMatP= 5.69D-06
 IDIUse=1 WtCom= 1.00D+00 WtEn= 0.00D+00
 Coeff-Com: -0.654D-03 0.888D-03 0.139D-01 0.341D-01 0.107D+00 0.185D+00
 Coeff-Com:  0.660D+00
 Coeff:     -0.654D-03 0.888D-03 0.139D-01 0.341D-01 0.107D+00 0.185D+00
 Coeff:      0.660D+00
 Gap=     0.229 Goal=   None    Shift=    0.000
 RMSDP=2.67D-06 MaxDP=7.12D-05 DE=-6.01D-06 OVMax= 1.33D-04

 Cycle   8  Pass 1  IDiag  1:
 RMSU=  1.83D-06    CP:  9.71D-01  1.05D+00  8.66D-01  6.40D-01  6.84D-01
                    CP:  5.52D-01  7.13D-01
 E= -422.024177097633     Delta-E=       -0.000000103111 Rises=F Damp=F
 DIIS: error= 7.35D-06 at cycle   8 NSaved=   8.
 NSaved= 8 IEnMin= 8 EnMin= -422.024177097633     IErMin= 8 ErrMin= 7.35D-06
 ErrMax= 7.35D-06  0.00D+00 EMaxC= 1.00D-01 BMatC= 2.09D-08 BMatP= 1.20D-07
 IDIUse=1 WtCom= 1.00D+00 WtEn= 0.00D+00
 Coeff-Com: -0.769D-04-0.528D-04 0.245D-02 0.613D-02 0.245D-01 0.610D-01
 Coeff-Com:  0.353D+00 0.554D+00
 Coeff:     -0.769D-04-0.528D-04 0.245D-02 0.613D-02 0.245D-01 0.610D-01
 Coeff:      0.353D+00 0.554D+00
 Gap=     0.229 Goal=   None    Shift=    0.000
 RMSDP=9.77D-07 MaxDP=2.35D-05 DE=-1.03D-07 OVMax= 5.60D-05

 Cycle   9  Pass 1  IDiag  1:
 RMSU=  5.79D-07    CP:  9.71D-01  1.05D+00  8.66D-01  6.40D-01  6.85D-01
                    CP:  5.53D-01  7.80D-01  6.35D-01
 E= -422.024177117553     Delta-E=       -0.000000019920 Rises=F Damp=F
 DIIS: error= 2.81D-06 at cycle   9 NSaved=   9.
 NSaved= 9 IEnMin= 9 EnMin= -422.024177117553     IErMin= 9 ErrMin= 2.81D-06
 ErrMax= 2.81D-06  0.00D+00 EMaxC= 1.00D-01 BMatC= 1.85D-09 BMatP= 2.09D-08
 IDIUse=1 WtCom= 1.00D+00 WtEn= 0.00D+00
 Coeff-Com:  0.204D-04-0.106D-03 0.118D-04-0.747D-04 0.281D-02 0.153D-01
 Coeff-Com:  0.116D+00 0.281D+00 0.585D+00
 Coeff:      0.204D-04-0.106D-03 0.118D-04-0.747D-04 0.281D-02 0.153D-01
 Coeff:      0.116D+00 0.281D+00 0.585D+00
 Gap=     0.229 Goal=   None    Shift=    0.000
 RMSDP=3.37D-07 MaxDP=1.18D-05 DE=-1.99D-08 OVMax= 2.53D-05

 Cycle  10  Pass 1  IDiag  1:
 RMSU=  2.18D-07    CP:  9.71D-01  1.05D+00  8.66D-01  6.39D-01  6.86D-01
                    CP:  5.55D-01  7.79D-01  6.97D-01  6.37D-01
 E= -422.024177119165     Delta-E=       -0.000000001612 Rises=F Damp=F
 DIIS: error= 9.79D-07 at cycle  10 NSaved=  10.
 NSaved=10 IEnMin=10 EnMin= -422.024177119165     IErMin=10 ErrMin= 9.79D-07
 ErrMax= 9.79D-07  0.00D+00 EMaxC= 1.00D-01 BMatC= 4.22D-10 BMatP= 1.85D-09
 IDIUse=1 WtCom= 1.00D+00 WtEn= 0.00D+00
 Coeff-Com:  0.256D-04-0.582D-04-0.376D-03-0.107D-02-0.213D-02 0.274D-03
 Coeff-Com:  0.158D-01 0.878D-01 0.367D+00 0.533D+00
 Coeff:      0.256D-04-0.582D-04-0.376D-03-0.107D-02-0.213D-02 0.274D-03
 Coeff:      0.158D-01 0.878D-01 0.367D+00 0.533D+00
 Gap=     0.229 Goal=   None    Shift=    0.000
 RMSDP=1.23D-07 MaxDP=3.61D-06 DE=-1.61D-09 OVMax= 6.30D-06

 Cycle  11  Pass 1  IDiag  1:
 RMSU=  5.01D-08    CP:  9.71D-01  1.05D+00  8.66D-01  6.40D-01  6.85D-01
                    CP:  5.55D-01  7.82D-01  7.02D-01  7.38D-01  5.98D-01
 E= -422.024177119561     Delta-E=       -0.000000000396 Rises=F Damp=F
 DIIS: error= 8.34D-08 at cycle  11 NSaved=  11.
 NSaved=11 IEnMin=11 EnMin= -422.024177119561     IErMin=11 ErrMin= 8.34D-08
 ErrMax= 8.34D-08  0.00D+00 EMaxC= 1.00D-01 BMatC= 5.19D-12 BMatP= 4.22D-10
 IDIUse=1 WtCom= 1.00D+00 WtEn= 0.00D+00
 Coeff-Com:  0.688D-05-0.125D-04-0.107D-03-0.327D-03-0.717D-03-0.432D-03
 Coeff-Com: -0.124D-02 0.135D-01 0.892D-01 0.145D+00 0.755D+00
 Coeff:      0.688D-05-0.125D-04-0.107D-03-0.327D-03-0.717D-03-0.432D-03
 Coeff:     -0.124D-02 0.135D-01 0.892D-01 0.145D+00 0.755D+00
 Gap=     0.229 Goal=   None    Shift=    0.000
 RMSDP=1.93D-08 MaxDP=5.29D-07 DE=-3.96D-10 OVMax= 7.14D-07

 Cycle  12  Pass 1  IDiag  1:
 RMSU=  1.51D-08    CP:  9.71D-01  1.05D+00  8.66D-01  6.40D-01  6.86D-01
                    CP:  5.55D-01  7.81D-01  7.03D-01  7.46D-01  6.29D-01
                    CP:  8.43D-01
 E= -422.024177119573     Delta-E=       -0.000000000012 Rises=F Damp=F
 DIIS: error= 6.42D-08 at cycle  12 NSaved=  12.
 NSaved=12 IEnMin=12 EnMin= -422.024177119573     IErMin=12 ErrMin= 6.42D-08
 ErrMax= 6.42D-08  0.00D+00 EMaxC= 1.00D-01 BMatC= 2.23D-12 BMatP= 5.19D-12
 IDIUse=1 WtCom= 1.00D+00 WtEn= 0.00D+00
 Coeff-Com:  0.150D-05-0.141D-05-0.239D-04-0.835D-04-0.197D-03-0.274D-03
 Coeff-Com: -0.256D-02-0.150D-02 0.137D-01 0.217D-01 0.439D+00 0.530D+00
 Coeff:      0.150D-05-0.141D-05-0.239D-04-0.835D-04-0.197D-03-0.274D-03
 Coeff:     -0.256D-02-0.150D-02 0.137D-01 0.217D-01 0.439D+00 0.530D+00
 Gap=     0.229 Goal=   None    Shift=    0.000
 RMSDP=7.75D-09 MaxDP=1.96D-07 DE=-1.24D-11 OVMax= 3.62D-07

 Error on total polarization charges =  0.00596
 SCF Done:  E(RB3LYP) =  -422.024177120     A.U. after   12 cycles
            NFock= 12  Conv=0.78D-08     -V/T= 2.0095
 KE= 4.180421896950D+02 PE=-1.994511087862D+03 EE= 6.399819188918D+02
 Leave Link  502 at Sun Jul 18 13:39:50 2021, MaxMem=   104857600 cpu:             317.5 elap:              84.4
 (Enter /dades/curu/g16A03_MST/g16/l601.exe)
 Copying SCF densities to generalized density rwf, IOpCl= 0 IROHF=0.

 **********************************************************************

            Population analysis using the SCF density.

 **********************************************************************

 Orbital symmetries:
       Occupied  (A) (A) (A) (A) (A) (A) (A) (A) (A) (A) (A) (A)
                 (A) (A) (A) (A) (A) (A) (A) (A) (A) (A) (A) (A)
                 (A) (A) (A) (A) (A) (A) (A) (A) (A) (A) (A) (A)
                 (A)
       Virtual   (A) (A) (A) (A) (A) (A) (A) (A) (A) (A) (A) (A)
                 (A) (A) (A) (A) (A) (A) (A) (A) (A) (A) (A) (A)
                 (A) (A) (A) (A) (A) (A) (A) (A) (A) (A) (A) (A)
                 (A) (A) (A) (A) (A) (A) (A) (A) (A) (A) (A) (A)
                 (A) (A) (A) (A) (A) (A) (A) (A) (A) (A) (A) (A)
                 (A) (A) (A) (A) (A) (A) (A) (A) (A) (A) (A) (A)
                 (A) (A) (A) (A) (A) (A) (A) (A) (A) (A) (A) (A)
                 (A) (A) (A) (A) (A) (A) (A) (A) (A) (A) (A) (A)
                 (A) (A) (A) (A) (A) (A) (A) (A) (A) (A) (A) (A)
                 (A) (A) (A) (A) (A) (A) (A) (A) (A) (A) (A) (A)
                 (A) (A) (A) (A) (A) (A) (A) (A) (A) (A) (A) (A)
                 (A) (A) (A) (A) (A) (A) (A)
 The electronic state is 1-A.
 Alpha  occ. eigenvalues --  -14.48172 -14.34528 -10.27911 -10.26767 -10.24330
 Alpha  occ. eigenvalues --  -10.23618 -10.22958 -10.22340 -10.21450 -10.21117
 Alpha  occ. eigenvalues --   -1.04060  -0.96900  -0.83299  -0.81584  -0.77519
 Alpha  occ. eigenvalues --   -0.74632  -0.68475  -0.65105  -0.63748  -0.60575
 Alpha  occ. eigenvalues --   -0.56805  -0.54034  -0.52359  -0.50583  -0.47802
 Alpha  occ. eigenvalues --   -0.46639  -0.45670  -0.44362  -0.43449  -0.42600
 Alpha  occ. eigenvalues --   -0.41597  -0.40230  -0.38683  -0.36596  -0.29903
 Alpha  occ. eigenvalues --   -0.28202  -0.27495
 Alpha virt. eigenvalues --   -0.04572  -0.02359   0.03031   0.06827   0.07823
 Alpha virt. eigenvalues --    0.08414   0.09541   0.09809   0.11116   0.12188
 Alpha virt. eigenvalues --    0.13405   0.13818   0.13934   0.14968   0.16242
 Alpha virt. eigenvalues --    0.16883   0.18046   0.18842   0.21199   0.23034
 Alpha virt. eigenvalues --    0.25193   0.29614   0.31552   0.32451   0.43005
 Alpha virt. eigenvalues --    0.44364   0.45919   0.48704   0.49123   0.49964
 Alpha virt. eigenvalues --    0.50452   0.52468   0.54524   0.54571   0.57364
 Alpha virt. eigenvalues --    0.58420   0.58719   0.58911   0.60595   0.63207
 Alpha virt. eigenvalues --    0.63552   0.65152   0.67137   0.67557   0.69552
 Alpha virt. eigenvalues --    0.71673   0.77254   0.78023   0.78252   0.80106
 Alpha virt. eigenvalues --    0.81694   0.82157   0.83089   0.83285   0.84552
 Alpha virt. eigenvalues --    0.86220   0.87728   0.88128   0.88751   0.89520
 Alpha virt. eigenvalues --    0.91309   0.92517   0.93494   0.95183   0.97471
 Alpha virt. eigenvalues --    0.99038   1.00439   1.06780   1.08658   1.10055
 Alpha virt. eigenvalues --    1.17931   1.18441   1.21883   1.24602   1.29682
 Alpha virt. eigenvalues --    1.31409   1.36326   1.37641   1.45460   1.46529
 Alpha virt. eigenvalues --    1.48553   1.49105   1.51409   1.56095   1.61950
 Alpha virt. eigenvalues --    1.63391   1.69163   1.71534   1.76499   1.80731
 Alpha virt. eigenvalues --    1.81632   1.82760   1.86253   1.88028   1.89826
 Alpha virt. eigenvalues --    1.92020   1.93447   1.94689   1.97972   2.03469
 Alpha virt. eigenvalues --    2.05618   2.09094   2.12493   2.15799   2.17944
 Alpha virt. eigenvalues --    2.19843   2.21836   2.22512   2.28364   2.28953
 Alpha virt. eigenvalues --    2.31949   2.32721   2.36896   2.38436   2.42342
 Alpha virt. eigenvalues --    2.46789   2.48678   2.55113   2.57692   2.58219
 Alpha virt. eigenvalues --    2.64419   2.67480   2.70433   2.72235   2.75143
 Alpha virt. eigenvalues --    2.84766   2.89070   3.08819   3.37528   3.85125
 Alpha virt. eigenvalues --    4.03478   4.10492   4.15454   4.17541   4.19877
 Alpha virt. eigenvalues --    4.25581   4.36235   4.47141   4.60213
          Condensed to atoms (all electrons):
               1          2          3          4          5          6
     1  C    5.061622   0.383741   0.376913   0.382031   0.247546  -0.019563
     2  H    0.383741   0.471027  -0.023120  -0.023838  -0.032308   0.002963
     3  H    0.376913  -0.023120   0.477179  -0.029090  -0.023837  -0.002415
     4  H    0.382031  -0.023838  -0.029090   0.468600  -0.026665  -0.001608
     5  N    0.247546  -0.032308  -0.023837  -0.026665   6.707432   0.304644
     6  H   -0.019563   0.002963  -0.002415  -0.001608   0.304644   0.278560
     7  C   -0.040812  -0.003752   0.003303  -0.002079   0.212227  -0.017672
     8  H   -0.002977  -0.000072   0.000027   0.002542  -0.019955  -0.000528
     9  H    0.004267  -0.000030  -0.000144   0.000113  -0.036300  -0.002955
    10  C   -0.003425   0.003669   0.000128  -0.000665  -0.055429   0.003762
    11  H   -0.000351   0.000313  -0.000032   0.000033  -0.001648  -0.000005
    12  H    0.001874   0.002463   0.000019   0.000349  -0.004190   0.000005
    13  C   -0.000013   0.000006   0.000000  -0.000008   0.003116  -0.000076
    14  N   -0.000001  -0.000008  -0.000000   0.000001   0.000020   0.000002
    15  C    0.000001  -0.000000   0.000000  -0.000000  -0.000001  -0.000000
    16  H    0.000000   0.000000  -0.000000  -0.000000  -0.000000   0.000000
    17  C   -0.000000  -0.000000  -0.000000   0.000000   0.000000  -0.000000
    18  H   -0.000000  -0.000000  -0.000000  -0.000000   0.000000  -0.000000
    19  C   -0.000000   0.000000  -0.000000  -0.000000   0.000001  -0.000000
    20  H    0.000000   0.000000   0.000000  -0.000000  -0.000000   0.000000
    21  C   -0.000012  -0.000006   0.000000   0.000001  -0.000003  -0.000000
    22  H    0.000001   0.000001  -0.000000  -0.000000  -0.000064   0.000002
    23  H   -0.021471  -0.003159  -0.001412   0.002768   0.306359  -0.012169
               7          8          9         10         11         12
     1  C   -0.040812  -0.002977   0.004267  -0.003425  -0.000351   0.001874
     2  H   -0.003752  -0.000072  -0.000030   0.003669   0.000313   0.002463
     3  H    0.003303   0.000027  -0.000144   0.000128  -0.000032   0.000019
     4  H   -0.002079   0.002542   0.000113  -0.000665   0.000033   0.000349
     5  N    0.212227  -0.019955  -0.036300  -0.055429  -0.001648  -0.004190
     6  H   -0.017672  -0.000528  -0.002955   0.003762  -0.000005   0.000005
     7  C    5.074139   0.373045   0.379540   0.343883  -0.038351  -0.031353
     8  H    0.373045   0.477178  -0.030714  -0.041910   0.004376  -0.002659
     9  H    0.379540  -0.030714   0.500614  -0.028453  -0.003592   0.003729
    10  C    0.343883  -0.041910  -0.028453   5.244984   0.369157   0.353633
    11  H   -0.038351   0.004376  -0.003592   0.369157   0.529883  -0.031304
    12  H   -0.031353  -0.002659   0.003729   0.353633  -0.031304   0.527393
    13  C   -0.036822   0.000429  -0.000266   0.343825  -0.024216  -0.027012
    14  N   -0.006158   0.006323   0.000241  -0.081211   0.002227   0.009432
    15  C    0.000015  -0.000097  -0.000008   0.006142  -0.000174   0.000415
    16  H    0.000007  -0.000014  -0.000000  -0.000313   0.000003  -0.000039
    17  C   -0.000051   0.000011   0.000001   0.000941   0.000017   0.000049
    18  H    0.000000  -0.000001  -0.000000   0.000012  -0.000000  -0.000001
    19  C   -0.000046   0.000018  -0.000160   0.006203   0.000328  -0.000201
    20  H   -0.000002   0.000001   0.000004  -0.000249  -0.000005   0.000005
    21  C   -0.004379   0.001248   0.002489  -0.082103   0.001327   0.004858
    22  H    0.000486  -0.000109   0.000947  -0.007432   0.001725   0.000077
    23  H   -0.021240   0.002575  -0.001295  -0.002631   0.005418  -0.000288
              13         14         15         16         17         18
     1  C   -0.000013  -0.000001   0.000001   0.000000  -0.000000  -0.000000
     2  H    0.000006  -0.000008  -0.000000   0.000000  -0.000000  -0.000000
     3  H    0.000000  -0.000000   0.000000  -0.000000  -0.000000  -0.000000
     4  H   -0.000008   0.000001  -0.000000  -0.000000   0.000000  -0.000000
     5  N    0.003116   0.000020  -0.000001  -0.000000   0.000000   0.000000
     6  H   -0.000076   0.000002  -0.000000   0.000000  -0.000000  -0.000000
     7  C   -0.036822  -0.006158   0.000015   0.000007  -0.000051   0.000000
     8  H    0.000429   0.006323  -0.000097  -0.000014   0.000011  -0.000001
     9  H   -0.000266   0.000241  -0.000008  -0.000000   0.000001  -0.000000
    10  C    0.343825  -0.081211   0.006142  -0.000313   0.000941   0.000012
    11  H   -0.024216   0.002227  -0.000174   0.000003   0.000017  -0.000000
    12  H   -0.027012   0.009432   0.000415  -0.000039   0.000049  -0.000001
    13  C    4.625772   0.467205  -0.062879   0.006072  -0.039231   0.000236
    14  N    0.467205   6.769568   0.473996  -0.057432  -0.037088   0.004833
    15  C   -0.062879   0.473996   4.759876   0.377106   0.510138  -0.035458
    16  H    0.006072  -0.057432   0.377106   0.575403  -0.058926  -0.002287
    17  C   -0.039231  -0.037088   0.510138  -0.058926   4.957838   0.358141
    18  H    0.000236   0.004833  -0.035458  -0.002287   0.358141   0.552328
    19  C   -0.026768  -0.041357  -0.025999   0.003442   0.522177  -0.040351
    20  H    0.004565   0.000060   0.004237  -0.000115  -0.038856  -0.004204
    21  C    0.524356  -0.050361  -0.041425   0.000562  -0.032193   0.004476
    22  H   -0.040809   0.005168  -0.000017   0.000028   0.004303  -0.000086
    23  H    0.000012  -0.000002  -0.000000   0.000000   0.000000  -0.000000
              19         20         21         22         23
     1  C   -0.000000   0.000000  -0.000012   0.000001  -0.021471
     2  H    0.000000   0.000000  -0.000006   0.000001  -0.003159
     3  H   -0.000000   0.000000   0.000000  -0.000000  -0.001412
     4  H   -0.000000  -0.000000   0.000001  -0.000000   0.002768
     5  N    0.000001  -0.000000  -0.000003  -0.000064   0.306359
     6  H   -0.000000   0.000000  -0.000000   0.000002  -0.012169
     7  C   -0.000046  -0.000002  -0.004379   0.000486  -0.021240
     8  H    0.000018   0.000001   0.001248  -0.000109   0.002575
     9  H   -0.000160   0.000004   0.002489   0.000947  -0.001295
    10  C    0.006203  -0.000249  -0.082103  -0.007432  -0.002631
    11  H    0.000328  -0.000005   0.001327   0.001725   0.005418
    12  H   -0.000201   0.000005   0.004858   0.000077  -0.000288
    13  C   -0.026768   0.004565   0.524356  -0.040809   0.000012
    14  N   -0.041357   0.000060  -0.050361   0.005168  -0.000002
    15  C   -0.025999   0.004237  -0.041425  -0.000017  -0.000000
    16  H    0.003442  -0.000115   0.000562   0.000028   0.000000
    17  C    0.522177  -0.038856  -0.032193   0.004303   0.000000
    18  H   -0.040351  -0.004204   0.004476  -0.000086  -0.000000
    19  C    4.881920   0.362504   0.518356  -0.038642   0.000000
    20  H    0.362504   0.546277  -0.039570  -0.004103  -0.000000
    21  C    0.518356  -0.039570   4.981402   0.357641   0.000027
    22  H   -0.038642  -0.004103   0.357641   0.562929  -0.000000
    23  H    0.000000  -0.000000   0.000027  -0.000000   0.281832
 Mulliken charges:
               1
     1  C   -0.369368
     2  H    0.222111
     3  H    0.222480
     4  H    0.227516
     5  N   -0.580945
     6  H    0.467055
     7  C   -0.183928
     8  H    0.231264
     9  H    0.211972
    10  C   -0.372517
    11  H    0.184870
    12  H    0.192746
    13  C    0.282506
    14  N   -0.465459
    15  C    0.034132
    16  H    0.156503
    17  C   -0.147268
    18  H    0.162361
    19  C   -0.121427
    20  H    0.169450
    21  C   -0.146689
    22  H    0.157956
    23  H    0.464678
 Sum of Mulliken charges =   1.00000
 Mulliken charges with hydrogens summed into heavy atoms:
               1
     1  C    0.302738
     5  N    0.350788
     7  C    0.259308
    10  C    0.005100
    13  C    0.282506
    14  N   -0.465459
    15  C    0.190635
    17  C    0.015093
    19  C    0.048024
    21  C    0.011267
 Electronic spatial extent (au):  <R**2>=           1940.9110
 Charge=              1.0000 electrons
 Dipole moment (field-independent basis, Debye):
    X=             11.9401    Y=             -3.8846    Z=              1.7287  Tot=             12.6746
 Quadrupole moment (field-independent basis, Debye-Ang):
   XX=             -2.3058   YY=            -51.5403   ZZ=            -56.1186
   XY=             -4.8592   XZ=              2.2621   YZ=             -0.1106
 Traceless Quadrupole moment (field-independent basis, Debye-Ang):
   XX=             34.3491   YY=            -14.8854   ZZ=            -19.4637
   XY=             -4.8592   XZ=              2.2621   YZ=             -0.1106
 Octapole moment (field-independent basis, Debye-Ang**2):
  XXX=            147.4749  YYY=            -11.0137  ZZZ=              4.3613  XYY=             13.8482
  XXY=            -15.1017  XXZ=             19.7079  XZZ=             23.7419  YZZ=             -2.3106
  YYZ=              3.2638  XYZ=             -3.9991
 Hexadecapole moment (field-independent basis, Debye-Ang**3):
 XXXX=          -1274.9946 YYYY=           -332.5959 ZZZZ=           -135.2486 XXXY=            -48.1687
 XXXZ=             28.1175 YYYX=            -13.3071 YYYZ=              3.0483 ZZZX=             15.4031
 ZZZY=             -5.2551 XXYY=           -313.3764 XXZZ=           -341.3019 YYZZ=            -80.1018
 XXYZ=            -11.7721 YYXZ=             -0.6328 ZZXY=            -10.5175
 N-N= 5.144628021560D+02 E-N=-1.994511087968D+03  KE= 4.180421896950D+02
 No NMR shielding tensors so no spin-rotation constants.
 Leave Link  601 at Sun Jul 18 13:39:50 2021, MaxMem=   104857600 cpu:               0.4 elap:               0.1
 (Enter /dades/curu/g16A03_MST/g16/l701.exe)
 ... and contract with generalized density number  0.
 Compute integral first derivatives.
 D1PCM: PCM CHGder 1st derivatives, ID1Alg=3 FixD1E=F DoIter=F DoCFld=F I1PDM=0.
 GePol: Maximum number of non-zero 1st derivatives   =     262
 Leave Link  701 at Sun Jul 18 13:39:52 2021, MaxMem=   104857600 cpu:               8.5 elap:               2.2
 (Enter /dades/curu/g16A03_MST/g16/l702.exe)
 L702 exits ... SP integral derivatives will be done elsewhere.
 Leave Link  702 at Sun Jul 18 13:39:52 2021, MaxMem=   104857600 cpu:               0.1 elap:               0.0
 (Enter /dades/curu/g16A03_MST/g16/l703.exe)
 Integral derivatives from FoFJK, PRISM(SPDF).
 Compute integral first derivatives, UseDBF=F ICtDFT=           0.
 Calling FoFJK, ICntrl=      2127 FMM=F ISym2X=0 I1Cent= 0 IOpClX= 0 NMat=1 NMatS=1 NMatT=0.
 FoFJK:  IHMeth= 1 ICntrl=    2127 DoSepK=F KAlg= 0 I1Cent=           0 FoldK=F
 IRaf=         0 NMat=       1 IRICut=       1 DoRegI=T DoRafI=F ISym2E= 0 IDoP0=0 IntGTp=1.
 FoFCou: FMM=F IPFlag=           0 FMFlag=      100000 FMFlg1=         800
         NFxFlg=           0 DoJE=F BraDBF=F KetDBF=F FulRan=T
         wScrn=  0.000000 ICntrl=      2127 IOpCl=  0 I1Cent=           0 NGrid=           0
         NMat0=    1 NMatS0=      1 NMatT0=    0 NMatD0=    1 NMtDS0=    0 NMtDT0=    0
 Symmetry not used in FoFCou.
 Leave Link  703 at Sun Jul 18 13:40:03 2021, MaxMem=   104857600 cpu:              43.2 elap:              10.9
 (Enter /dades/curu/g16A03_MST/g16/l716.exe)
 Dipole        = 4.69761451D+00-1.52830244D+00 6.80105079D-01
 ***** Axes restored to original set *****
 -------------------------------------------------------------------
 Center     Atomic                   Forces (Hartrees/Bohr)
 Number     Number              X              Y              Z
 -------------------------------------------------------------------
      1        6           0.014653768    0.002817919    0.025316923
      2        1          -0.000085063    0.000503723   -0.005248515
      3        1          -0.010096843    0.003132088   -0.005563787
      4        1          -0.008785228   -0.004731497   -0.010184960
      5        7           0.039379373   -0.034847019    0.007439809
      6        1           0.007320001    0.019470450   -0.019066778
      7        6          -0.019919916    0.003895496    0.011976835
      8        1           0.011859658    0.015038659    0.006901263
      9        1          -0.009107522   -0.005852674    0.003966951
     10        6           0.008511858   -0.011851046   -0.009235948
     11        1          -0.003303461   -0.003887314   -0.005494186
     12        1           0.004862057    0.002264078   -0.003026657
     13        6           0.008567053    0.032112834    0.041890876
     14        7           0.006351519    0.008301346   -0.001375759
     15        6           0.020368404   -0.004250141    0.009641550
     16        1          -0.007150587   -0.006478100   -0.003997873
     17        6          -0.043682963    0.006193604   -0.008342421
     18        1           0.005124026    0.003619668   -0.006130479
     19        6           0.015384583   -0.005850891    0.005442152
     20        1          -0.000033100   -0.005319064    0.003336609
     21        6          -0.012914597   -0.021157982   -0.043126724
     22        1          -0.008968080   -0.006580322    0.003347229
     23        1          -0.018334941    0.013456185    0.001533889
 -------------------------------------------------------------------
 Cartesian Forces:  Max     0.043682963 RMS     0.014996010
 Leave Link  716 at Sun Jul 18 13:40:03 2021, MaxMem=   104857600 cpu:               0.1 elap:               0.0
 (Enter /dades/curu/g16A03_MST/g16/l103.exe)

 GradGradGradGradGradGradGradGradGradGradGradGradGradGradGradGradGradGrad
 Berny optimization.
 FormGI is forming the generalized inverse of G from B-inverse, IUseBI=4.
 GSVD:  received Info=                   1 from GESDD.
 Internal  Forces:  Max     0.045015413 RMS     0.009459006
 Search for a local minimum.
 Step number   1 out of a maximum of  126
 All quantities printed in internal units (Hartrees-Bohrs-Radians)
 RMS Force = .94590D-02 SwitMx=.10000D-02 MixMth= 1
 Mixed Optimization -- RFO/linear search
 Second derivative matrix not updated -- first step.
 ITU=  0
     Eigenvalues ---    0.00230   0.00261   0.00450   0.00532   0.01725
     Eigenvalues ---    0.01822   0.01981   0.02148   0.02431   0.02509
     Eigenvalues ---    0.02520   0.02651   0.03599   0.03868   0.04489
     Eigenvalues ---    0.04833   0.04901   0.05259   0.05443   0.05532
     Eigenvalues ---    0.07241   0.08320   0.08439   0.11313   0.12148
     Eigenvalues ---    0.12190   0.15371   0.15704   0.15970   0.15991
     Eigenvalues ---    0.16000   0.16000   0.16000   0.21554   0.21765
     Eigenvalues ---    0.22009   0.22010   0.22448   0.24364   0.24965
     Eigenvalues ---    0.28681   0.29992   0.30861   0.33708   0.34388
     Eigenvalues ---    0.34397   0.34446   0.34476   0.34482   0.34568
     Eigenvalues ---    0.34582   0.34919   0.35094   0.35140   0.35232
     Eigenvalues ---    0.39242   0.43046   0.47626   0.47704   0.48209
     Eigenvalues ---    0.52684   0.57335   0.59107
 RFO step:  Lambda=-3.75524353D-02 EMin= 2.30000000D-03
 Linear search not attempted -- first point.
 Maximum step size (   0.300) exceeded in Quadratic search.
    -- Step size scaled by   0.861
 Iteration  1 RMS(Cart)=  0.08708969 RMS(Int)=  0.00225900
 Iteration  2 RMS(Cart)=  0.00287007 RMS(Int)=  0.00108716
 Iteration  3 RMS(Cart)=  0.00000563 RMS(Int)=  0.00108716
 Iteration  4 RMS(Cart)=  0.00000002 RMS(Int)=  0.00108716
 ITry= 1 IFail=0 DXMaxC= 2.76D-01 DCOld= 1.00D+10 DXMaxT= 3.00D-01 DXLimC= 3.00D+00 Rises=F
 Variable       Old X    -DE/DX   Delta X   Delta X   Delta X     New X
                                 (Linear)    (Quad)   (Total)
    R1        2.06665  -0.00435   0.00000  -0.00981  -0.00981   2.05684
    R2        2.06680  -0.00205   0.00000  -0.00463  -0.00463   2.06218
    R3        2.06583  -0.00299   0.00000  -0.00674  -0.00674   2.05910
    R4        2.81125   0.00044   0.00000   0.00101   0.00101   2.81226
    R5        1.88955   0.02762   0.00000   0.04622   0.04622   1.93577
    R6        2.86279   0.00321   0.00000   0.00798   0.00798   2.87077
    R7        1.89039   0.02185   0.00000   0.03661   0.03661   1.92700
    R8        2.06535  -0.00203   0.00000  -0.00456  -0.00456   2.06079
    R9        2.06524  -0.00095   0.00000  -0.00215  -0.00215   2.06310
   R10        2.90673  -0.00179   0.00000  -0.00475  -0.00475   2.90198
   R11        2.06359  -0.00068   0.00000  -0.00153  -0.00153   2.06206
   R12        2.06382  -0.00058   0.00000  -0.00131  -0.00131   2.06251
   R13        2.87979   0.00284   0.00000   0.00726   0.00726   2.88705
   R14        2.50916   0.00826   0.00000   0.01383   0.01400   2.52316
   R15        2.56205   0.04502   0.00000   0.06876   0.06902   2.63108
   R16        2.51120   0.01898   0.00000   0.02727   0.02713   2.53833
   R17        2.05807  -0.00150   0.00000  -0.00333  -0.00333   2.05474
   R18        2.59120   0.01990   0.00000   0.03025   0.02996   2.62115
   R19        2.05523  -0.00296   0.00000  -0.00656  -0.00656   2.04868
   R20        2.70855  -0.02835   0.00000  -0.05900  -0.05914   2.64940
   R21        2.05301  -0.00158   0.00000  -0.00349  -0.00349   2.04951
   R22        2.65607  -0.00629   0.00000  -0.01316  -0.01301   2.64305
   R23        2.05448  -0.00245   0.00000  -0.00542  -0.00542   2.04906
    A1        1.87610   0.00564   0.00000   0.02655   0.02658   1.90267
    A2        1.89524   0.00649   0.00000   0.02363   0.02320   1.91844
    A3        1.91650   0.00113   0.00000   0.00329   0.00308   1.91957
    A4        1.80598   0.01532   0.00000   0.06964   0.06837   1.87435
    A5        1.96810  -0.01113   0.00000  -0.04591  -0.04654   1.92156
    A6        1.99533  -0.01535   0.00000  -0.06787  -0.06872   1.92661
    A7        1.89738  -0.00079   0.00000   0.00235   0.00214   1.89951
    A8        1.97266   0.00394   0.00000   0.01925   0.01909   1.99175
    A9        1.89761   0.00036   0.00000   0.00509   0.00510   1.90271
   A10        1.89816   0.00046   0.00000   0.00790   0.00772   1.90588
   A11        1.89911  -0.00239   0.00000  -0.02883  -0.02881   1.87030
   A12        1.89779  -0.00181   0.00000  -0.00775  -0.00784   1.88995
   A13        2.06045  -0.02596   0.00000  -0.13789  -0.13830   1.92214
   A14        1.80279  -0.00025   0.00000   0.03057   0.03199   1.83478
   A15        1.85262   0.03052   0.00000   0.10612   0.10729   1.95991
   A16        1.84282   0.00855   0.00000   0.03023   0.03030   1.87312
   A17        1.87954   0.00051   0.00000   0.02488   0.02885   1.90839
   A18        2.03414  -0.01668   0.00000  -0.06907  -0.07148   1.96266
   A19        1.94790  -0.00202   0.00000  -0.00365  -0.00328   1.94462
   A20        1.94308  -0.00912   0.00000  -0.03949  -0.03982   1.90326
   A21        1.85398   0.01563   0.00000   0.05133   0.05161   1.90558
   A22        1.85720   0.00531   0.00000   0.02307   0.02299   1.88019
   A23        1.99436  -0.01003   0.00000  -0.04584  -0.04576   1.94860
   A24        1.86713  -0.00049   0.00000   0.01214   0.01272   1.87985
   A25        2.03282  -0.00222   0.00000  -0.00895  -0.00945   2.02337
   A26        2.02695   0.02348   0.00000   0.06812   0.06767   2.09462
   A27        2.22128  -0.02106   0.00000  -0.05652  -0.05642   2.16487
   A28        2.02917  -0.00002   0.00000   0.01169   0.01196   2.04114
   A29        1.95530   0.00919   0.00000   0.04178   0.04187   1.99716
   A30        2.15540   0.00230   0.00000   0.00731   0.00700   2.16241
   A31        2.17161  -0.01143   0.00000  -0.04833  -0.04828   2.12333
   A32        2.10520  -0.00105   0.00000   0.00525   0.00488   2.11009
   A33        2.06947   0.00242   0.00000  -0.00097  -0.00171   2.06776
   A34        2.09145  -0.00071   0.00000   0.00632   0.00591   2.09736
   A35        2.13869  -0.00775   0.00000  -0.02412  -0.02441   2.11428
   A36        2.05352   0.00649   0.00000   0.00954   0.00960   2.06313
   A37        2.08913   0.00140   0.00000   0.01624   0.01606   2.10519
   A38        2.02969   0.01036   0.00000   0.03638   0.03525   2.06494
   A39        2.05072   0.00253   0.00000   0.02627   0.02475   2.07547
   A40        2.16834  -0.01090   0.00000  -0.03617  -0.03869   2.12965
    D1        2.98733  -0.00096   0.00000  -0.00724  -0.00739   2.97995
    D2       -1.18658   0.00162   0.00000   0.01688   0.01675  -1.16983
    D3        0.92239   0.00214   0.00000   0.02310   0.02302   0.94541
    D4        0.89571  -0.00159   0.00000  -0.01305  -0.01273   0.88298
    D5        3.00499   0.00099   0.00000   0.01107   0.01141   3.01640
    D6       -1.16923   0.00151   0.00000   0.01729   0.01768  -1.15155
    D7       -1.16098  -0.00254   0.00000  -0.02216  -0.02241  -1.18339
    D8        0.94830   0.00005   0.00000   0.00197   0.00172   0.95002
    D9        3.05727   0.00057   0.00000   0.00818   0.00799   3.06526
   D10       -0.84576  -0.00413   0.00000  -0.02498  -0.02348  -0.86924
   D11       -2.87076  -0.00105   0.00000  -0.01223  -0.01108  -2.88184
   D12        1.26344   0.00375   0.00000   0.00142  -0.00143   1.26201
   D13        1.26307  -0.00226   0.00000  -0.00400  -0.00239   1.26068
   D14       -0.76193   0.00082   0.00000   0.00875   0.01001  -0.75192
   D15       -2.91092   0.00563   0.00000   0.02241   0.01966  -2.89126
   D16       -2.95463  -0.00589   0.00000  -0.03850  -0.03691  -2.99154
   D17        1.30356  -0.00281   0.00000  -0.02575  -0.02451   1.27905
   D18       -0.84543   0.00199   0.00000  -0.01209  -0.01486  -0.86029
   D19        0.97794   0.00855   0.00000   0.05960   0.05759   1.03552
   D20       -1.09449   0.00926   0.00000   0.05917   0.05691  -1.03759
   D21       -3.12104   0.00552   0.00000   0.03542   0.03374  -3.08729
   D22       -3.08308  -0.00363   0.00000  -0.02652  -0.02554  -3.10862
   D23        1.12768  -0.00292   0.00000  -0.02695  -0.02622   1.10146
   D24       -0.89886  -0.00666   0.00000  -0.05070  -0.04939  -0.94825
   D25       -1.01776  -0.00281   0.00000  -0.01294  -0.01199  -1.02975
   D26       -3.09019  -0.00210   0.00000  -0.01337  -0.01267  -3.10286
   D27        1.16645  -0.00584   0.00000  -0.03712  -0.03584   1.13061
   D28        1.58518  -0.00346   0.00000  -0.03677  -0.03649   1.54869
   D29       -1.62140  -0.00123   0.00000   0.00122   0.00197  -1.61944
   D30       -2.54260  -0.00106   0.00000  -0.03345  -0.03389  -2.57648
   D31        0.53400   0.00117   0.00000   0.00454   0.00457   0.53857
   D32       -0.49192  -0.00061   0.00000  -0.02327  -0.02381  -0.51573
   D33        2.58468   0.00162   0.00000   0.01472   0.01465   2.59933
   D34       -3.10680   0.00007   0.00000  -0.00346  -0.00526  -3.11206
   D35        0.10813  -0.00447   0.00000  -0.05197  -0.05087   0.05726
   D36        3.06969   0.00160   0.00000   0.02415   0.02495   3.09464
   D37        0.19484  -0.00417   0.00000  -0.07012  -0.07202   0.12282
   D38       -0.14502   0.00520   0.00000   0.06974   0.06927  -0.07575
   D39       -3.01987  -0.00057   0.00000  -0.02453  -0.02770  -3.04757
   D40        3.09820  -0.00014   0.00000   0.01105   0.01258   3.11079
   D41       -0.00019  -0.00138   0.00000  -0.00654  -0.00543  -0.00562
   D42       -2.99936  -0.00195   0.00000  -0.03117  -0.03160  -3.03096
   D43       -0.05555   0.00173   0.00000   0.03026   0.03094  -0.02461
   D44        0.19079  -0.00391   0.00000  -0.05338  -0.05322   0.13757
   D45        3.13460  -0.00023   0.00000   0.00806   0.00933  -3.13926
   D46        3.09115   0.00217   0.00000   0.02101   0.01916   3.11031
   D47        0.01510  -0.00039   0.00000  -0.00908  -0.00976   0.00535
   D48       -0.24663   0.00579   0.00000   0.08183   0.08112  -0.16551
   D49        2.96051   0.00323   0.00000   0.05173   0.05220   3.01272
   D50        0.07420  -0.00181   0.00000  -0.03245  -0.03339   0.04082
   D51        2.92906   0.00699   0.00000   0.08055   0.07802   3.00708
   D52       -3.00377  -0.00393   0.00000  -0.06008  -0.06057  -3.06434
   D53       -0.14892   0.00487   0.00000   0.05292   0.05083  -0.09808
         Item               Value     Threshold  Converged?
 Maximum Force            0.045015     0.000450     NO 
 RMS     Force            0.009459     0.000300     NO 
 Maximum Displacement     0.276038     0.001800     NO 
 RMS     Displacement     0.085802     0.001200     NO 
 Predicted change in Energy=-2.117352D-02
 Lowest energy point so far.  Saving SCF results.
 GradGradGradGradGradGradGradGradGradGradGradGradGradGradGradGradGradGrad

 Leave Link  103 at Sun Jul 18 13:40:03 2021, MaxMem=   104857600 cpu:               0.1 elap:               0.1
 (Enter /dades/curu/g16A03_MST/g16/l202.exe)
                          Input orientation:                          
 ---------------------------------------------------------------------
 Center     Atomic      Atomic             Coordinates (Angstroms)
 Number     Number       Type             X           Y           Z
 ---------------------------------------------------------------------
      1          6           0        1.980302    2.627189    1.308945
      2          1           0        1.501319    2.201874    2.188926
      3          1           0        2.345340    3.626699    1.550952
      4          1           0        2.843455    2.024317    1.028227
      5          7           0        1.008285    2.696229    0.184174
      6          1           0        1.424824    3.236194   -0.580194
      7          6           0        0.571098    1.340064   -0.342590
      8          1           0        1.442804    0.714990   -0.539179
      9          1           0        0.096320    1.547294   -1.303602
     10          6           0       -0.367735    0.612140    0.630534
     11          1           0       -1.269500    1.194889    0.825289
     12          1           0        0.147183    0.468661    1.582113
     13          6           0       -0.699808   -0.769311    0.068950
     14          7           0        0.138239   -1.752993    0.404816
     15          6           0       -0.114632   -2.969187   -0.106246
     16          1           0        0.609520   -3.732109    0.169108
     17          6           0       -1.184779   -3.249421   -0.943012
     18          1           0       -1.402793   -4.267192   -1.246179
     19          6           0       -2.076859   -2.214348   -1.256756
     20          1           0       -2.911673   -2.378073   -1.929466
     21          6           0       -1.837407   -0.947886   -0.713671
     22          1           0       -2.411997   -0.077322   -1.009826
     23          1           0        0.178496    3.202303    0.492688
 ---------------------------------------------------------------------
                    Distance matrix (angstroms):
                    1          2          3          4          5
     1  C    0.000000
     2  H    1.088432   0.000000
     3  H    1.091256   1.774686   0.000000
     4  H    1.089628   1.783277   1.757552   0.000000
     5  N    1.488184   2.122851   2.126399   2.128788   0.000000
     6  H    2.061137   2.956973   2.354067   2.463367   1.024366
     7  C    2.523909   2.831360   3.458633   2.740611   1.519144
     8  H    2.713111   3.107540   3.696116   2.476474   2.153452
     9  H    3.397199   3.821027   4.186944   3.634795   2.089308
    10  C    3.167641   2.906751   4.158788   3.530460   2.536946
    11  H    3.584218   3.248224   4.416713   4.200659   2.802384
    12  H    2.845030   2.281652   3.847866   3.161763   2.767271
    13  C    4.500755   4.262299   5.549249   4.612948   3.865336
    14  N    4.837007   4.547747   5.926720   4.687740   4.538858
    15  C    6.140924   5.883790   7.232115   5.913747   5.782925
    16  H    6.604464   6.331439   7.686002   6.234180   6.440712
    17  C    7.044402   6.836722   8.121738   6.922772   6.436678
    18  H    8.093608   7.879253   9.175291   7.923802   7.506560
    19  C    6.817908   6.646736   7.845821   6.884543   5.975631
    20  H    7.711769   7.577042   8.706710   7.826270   6.751451
    21  C    5.607766   5.430759   6.599297   5.811942   4.709954
    22  H    5.655384   5.544437   6.550543   6.015839   4.562516
    23  H    2.059984   2.372328   2.448520   2.962509   1.019726
                    6          7          8          9         10
     6  H    0.000000
     7  C    2.092991   0.000000
     8  H    2.521602   1.090521   0.000000
     9  H    2.267294   1.091743   1.757866   0.000000
    10  C    3.400704   1.535660   2.157976   2.197896   0.000000
    11  H    3.660831   2.184678   3.073869   2.553788   1.091195
    12  H    3.737269   2.154885   2.497838   3.081135   1.091435
    13  C    4.580340   2.496804   2.676520   2.807914   1.527761
    14  N    5.245715   3.211383   2.946855   3.716496   2.429158
[...]
 The integrals were generated   1 times.
 ANorm=    0.1230688493D+01
 E2 =    -0.1457820728D+01 EUMP2 =    -0.42070959484658D+03
 Leave Link  906 at Sun Jul 18 14:23:04 2021, MaxMem=   262144000 cpu:             560.1 elap:             151.7
 (Enter /dades/curu/g16A03_MST/g16/l601.exe)
 Copying SCF densities to generalized density rwf, IOpCl= 0 IROHF=0.

 **********************************************************************

            Population analysis using the SCF density.

 **********************************************************************

 Orbital symmetries:
       Occupied  (A) (A) (A) (A) (A) (A) (A) (A) (A) (A) (A) (A)
                 (A) (A) (A) (A) (A) (A) (A) (A) (A) (A) (A) (A)
                 (A) (A) (A) (A) (A) (A) (A) (A) (A) (A) (A) (A)
                 (A)
       Virtual   (A) (A) (A) (A) (A) (A) (A) (A) (A) (A) (A) (A)
                 (A) (A) (A) (A) (A) (A) (A) (A) (A) (A) (A) (A)
                 (A) (A) (A) (A) (A) (A) (A) (A) (A) (A) (A) (A)
                 (A) (A) (A) (A) (A) (A) (A) (A) (A) (A) (A) (A)
                 (A) (A) (A) (A) (A) (A) (A) (A) (A) (A) (A) (A)
                 (A) (A) (A) (A) (A) (A) (A) (A) (A) (A) (A) (A)
                 (A) (A) (A) (A) (A) (A) (A) (A) (A) (A) (A) (A)
                 (A) (A) (A) (A) (A) (A) (A) (A) (A) (A) (A) (A)
                 (A) (A) (A) (A) (A) (A) (A) (A) (A) (A) (A) (A)
                 (A) (A) (A) (A) (A) (A) (A) (A) (A) (A) (A) (A)
                 (A) (A) (A) (A) (A) (A) (A) (A) (A) (A) (A) (A)
                 (A) (A) (A) (A) (A) (A) (A) (A) (A) (A) (A) (A)
                 (A) (A) (A) (A) (A) (A) (A) (A) (A) (A) (A) (A)
                 (A) (A) (A) (A) (A) (A) (A) (A) (A) (A) (A) (A)
                 (A) (A) (A) (A) (A) (A) (A) (A) (A) (A) (A) (A)
                 (A) (A) (A) (A) (A) (A) (A) (A) (A) (A) (A) (A)
                 (A) (A) (A) (A) (A) (A) (A) (A) (A) (A) (A) (A)
                 (A) (A) (A) (A) (A) (A) (A) (A) (A) (A) (A) (A)
                 (A) (A) (A) (A) (A) (A) (A) (A) (A) (A) (A) (A)
                 (A) (A) (A) (A) (A) (A) (A) (A) (A) (A) (A) (A)
                 (A) (A) (A) (A) (A) (A) (A) (A) (A) (A) (A) (A)
                 (A) (A) (A) (A) (A) (A) (A) (A) (A) (A) (A) (A)
                 (A) (A) (A) (A) (A) (A) (A) (A) (A) (A) (A) (A)
                 (A) (A) (A) (A) (A) (A) (A) (A) (A) (A) (A) (A)
                 (A) (A) (A) (A) (A) (A) (A) (A) (A) (A) (A) (A)
                 (A) (A) (A) (A) (A) (A) (A) (A) (A) (A)
 The electronic state is 1-A.
 Alpha  occ. eigenvalues --  -15.87826 -15.68718 -11.46417 -11.45764 -11.40839
 Alpha  occ. eigenvalues --  -11.39713 -11.38967 -11.37096 -11.35810 -11.35063
 Alpha  occ. eigenvalues --   -1.49687  -1.37880  -1.22735  -1.19776  -1.15676
 Alpha  occ. eigenvalues --   -1.12348  -1.04047  -0.97223  -0.96100  -0.92692
 Alpha  occ. eigenvalues --   -0.88801  -0.83256  -0.80933  -0.79286  -0.76176
 Alpha  occ. eigenvalues --   -0.75505  -0.74778  -0.73771  -0.70304  -0.69477
 Alpha  occ. eigenvalues --   -0.67914  -0.67057  -0.63854  -0.62670  -0.53339
 Alpha  occ. eigenvalues --   -0.49031  -0.45268
 Alpha virt. eigenvalues --   -0.09818  -0.07133  -0.06622  -0.05555  -0.03842
 Alpha virt. eigenvalues --   -0.03542  -0.03377  -0.03129  -0.02242  -0.01771
 Alpha virt. eigenvalues --   -0.01492  -0.01237  -0.00365   0.00097   0.00300
 Alpha virt. eigenvalues --    0.00912   0.01240   0.02133   0.02918   0.02961
 Alpha virt. eigenvalues --    0.04229   0.04357   0.04725   0.04879   0.05434
 Alpha virt. eigenvalues --    0.06093   0.06436   0.06897   0.06916   0.07677
 Alpha virt. eigenvalues --    0.07868   0.07965   0.08218   0.08591   0.09201
 Alpha virt. eigenvalues --    0.09574   0.10233   0.10568   0.11278   0.11487
 Alpha virt. eigenvalues --    0.12120   0.12230   0.13175   0.13872   0.14670
 Alpha virt. eigenvalues --    0.14958   0.16364   0.16637   0.17623   0.17947
 Alpha virt. eigenvalues --    0.18623   0.19623   0.20200   0.20884   0.21268
 Alpha virt. eigenvalues --    0.21833   0.22593   0.23276   0.23657   0.24082
 Alpha virt. eigenvalues --    0.24432   0.24479   0.25219   0.26151   0.27206
 Alpha virt. eigenvalues --    0.28150   0.28752   0.29046   0.29927   0.30093
 Alpha virt. eigenvalues --    0.30674   0.31324   0.31988   0.32358   0.32577
 Alpha virt. eigenvalues --    0.33235   0.33662   0.33914   0.34395   0.34829
 Alpha virt. eigenvalues --    0.35379   0.36203   0.37030   0.37161   0.38105
 Alpha virt. eigenvalues --    0.38433   0.38748   0.40115   0.40640   0.41265
 Alpha virt. eigenvalues --    0.42472   0.43367   0.43884   0.45253   0.45515
 Alpha virt. eigenvalues --    0.45918   0.46355   0.47199   0.47774   0.48274
 Alpha virt. eigenvalues --    0.48370   0.49209   0.49460   0.49811   0.50760
 Alpha virt. eigenvalues --    0.51760   0.52899   0.53004   0.54285   0.54967
 Alpha virt. eigenvalues --    0.55714   0.56638   0.56954   0.57519   0.57920
 Alpha virt. eigenvalues --    0.58297   0.58689   0.59790   0.60249   0.60914
 Alpha virt. eigenvalues --    0.61420   0.61536   0.62168   0.62876   0.63391
 Alpha virt. eigenvalues --    0.64101   0.64832   0.65502   0.66660   0.67319
 Alpha virt. eigenvalues --    0.68175   0.68585   0.68901   0.69632   0.70766
 Alpha virt. eigenvalues --    0.73028   0.74328   0.74633   0.75221   0.75397
 Alpha virt. eigenvalues --    0.76431   0.77263   0.78418   0.78621   0.79563
 Alpha virt. eigenvalues --    0.80948   0.81921   0.82773   0.83327   0.84357
 Alpha virt. eigenvalues --    0.84527   0.85054   0.86277   0.86688   0.86893
 Alpha virt. eigenvalues --    0.87393   0.89901   0.90602   0.91411   0.92441
 Alpha virt. eigenvalues --    0.94013   0.94688   0.95386   0.96928   0.97317
 Alpha virt. eigenvalues --    0.98873   0.99921   1.01817   1.03058   1.03603
 Alpha virt. eigenvalues --    1.04852   1.06403   1.09137   1.09975   1.11960
 Alpha virt. eigenvalues --    1.13132   1.13880   1.17085   1.18617   1.19540
 Alpha virt. eigenvalues --    1.20751   1.26114   1.27612   1.29198   1.31022
 Alpha virt. eigenvalues --    1.32603   1.34547   1.37006   1.37277   1.41297
 Alpha virt. eigenvalues --    1.42377   1.42831   1.45393   1.46866   1.48769
 Alpha virt. eigenvalues --    1.49194   1.50856   1.52491   1.53024   1.54529
 Alpha virt. eigenvalues --    1.55451   1.57745   1.58696   1.58919   1.60352
 Alpha virt. eigenvalues --    1.61296   1.64074   1.64267   1.66332   1.66919
 Alpha virt. eigenvalues --    1.68198   1.70448   1.70647   1.73165   1.74276
 Alpha virt. eigenvalues --    1.74669   1.75393   1.77181   1.78410   1.79659
 Alpha virt. eigenvalues --    1.80726   1.81427   1.83145   1.84267   1.85206
 Alpha virt. eigenvalues --    1.86105   1.88899   1.89604   1.91361   1.93597
 Alpha virt. eigenvalues --    1.94720   1.95367   1.96326   1.96671   1.97588
 Alpha virt. eigenvalues --    2.00788   2.01940   2.02432   2.04240   2.05097
 Alpha virt. eigenvalues --    2.07689   2.08371   2.08806   2.10209   2.12135
 Alpha virt. eigenvalues --    2.13713   2.14530   2.15264   2.16320   2.17488
 Alpha virt. eigenvalues --    2.19534   2.19647   2.22827   2.23149   2.23989
 Alpha virt. eigenvalues --    2.25533   2.26712   2.29574   2.31072   2.32623
 Alpha virt. eigenvalues --    2.33708   2.36188   2.38310   2.39965   2.40898
 Alpha virt. eigenvalues --    2.42651   2.45388   2.47301   2.47798   2.49860
 Alpha virt. eigenvalues --    2.54325   2.56455   2.56723   2.59312   2.60142
 Alpha virt. eigenvalues --    2.62770   2.63559   2.66259   2.69313   2.70123
 Alpha virt. eigenvalues --    2.70980   2.71681   2.73485   2.73812   2.74239
 Alpha virt. eigenvalues --    2.78819   2.80968   2.81482   2.84572   2.88213
 Alpha virt. eigenvalues --    2.91047   2.91376   2.93802   2.95787   2.98466
 Alpha virt. eigenvalues --    3.02959   3.04422   3.07808   3.10363   3.15811
 Alpha virt. eigenvalues --    3.19467   3.24956   3.29218   3.32133   3.41528
 Alpha virt. eigenvalues --    3.46844   3.53309   3.68058   3.89833   4.42127
          Condensed to atoms (all electrons):
               1          2          3          4          5          6
     1  C    3.956287   0.383172   0.427313   0.341659   0.129439  -0.031494
     2  H    0.383172   1.012561  -0.208185  -0.059119  -0.023080   0.016305
     3  H    0.427313  -0.208185   1.170956  -0.192730  -0.120052  -0.002594
     4  H    0.341659  -0.059119  -0.192730   0.978144   0.010178  -0.025362
     5  N    0.129439  -0.023080  -0.120052   0.010178   7.055643   0.497762
     6  H   -0.031494   0.016305  -0.002594  -0.025362   0.497762   0.593056
     7  C    0.013838   0.013497   0.036958  -0.011810  -0.240975  -0.089830
     8  H   -0.001662  -0.021804   0.000704   0.009874  -0.092841  -0.036703
     9  H   -0.002806   0.004208   0.002000  -0.001931  -0.121315  -0.043412
    10  C    0.010739  -0.020923   0.014301   0.009522   0.005524   0.053435
    11  H    0.001183  -0.007356   0.000799   0.000566  -0.021912   0.001236
    12  H    0.013336  -0.017033   0.007571  -0.007106  -0.004039  -0.001333
    13  C   -0.020387   0.001784  -0.006577  -0.002126   0.011427  -0.012152
    14  N    0.000325   0.003611  -0.001828  -0.004389   0.027531   0.002332
    15  C   -0.005892   0.000240   0.000219  -0.003470  -0.007907   0.000834
    16  H   -0.000189   0.000041   0.000060  -0.000292  -0.000258  -0.000012
    17  C    0.003655   0.001271  -0.000434   0.001435   0.009630   0.000234
    18  H    0.000044  -0.000015  -0.000013   0.000051   0.000142  -0.000015
    19  C   -0.006242  -0.002950   0.000575  -0.001361  -0.012528  -0.000838
    20  H    0.000017  -0.000054   0.000024  -0.000021  -0.000136  -0.000021
    21  C    0.008220   0.006425  -0.001622   0.004063   0.050089  -0.003442
    22  H   -0.001220   0.000123  -0.000135  -0.000266  -0.005277  -0.000313
    23  H   -0.044356  -0.011743  -0.006804   0.015015   0.444889  -0.081893
               7          8          9         10         11         12
     1  C    0.013838  -0.001662  -0.002806   0.010739   0.001183   0.013336
     2  H    0.013497  -0.021804   0.004208  -0.020923  -0.007356  -0.017033
     3  H    0.036958   0.000704   0.002000   0.014301   0.000799   0.007571
     4  H   -0.011810   0.009874  -0.001931   0.009522   0.000566  -0.007106
     5  N   -0.240975  -0.092841  -0.121315   0.005524  -0.021912  -0.004039
     6  H   -0.089830  -0.036703  -0.043412   0.053435   0.001236  -0.001333
     7  C    4.840965   0.319555   0.180084   0.331722   0.051202  -0.240646
     8  H    0.319555   1.262617  -0.196954  -0.150769   0.085788  -0.038628
     9  H    0.180084  -0.196954   1.403911  -0.033688  -0.127406   0.078911
    10  C    0.331722  -0.150769  -0.033688   6.298604  -0.124155   0.224077
    11  H    0.051202   0.085788  -0.127406  -0.124155   1.401626  -0.143384
    12  H   -0.240646  -0.038628   0.078911   0.224077  -0.143384   1.106825
    13  C    0.114198   0.069060  -0.033273  -0.810019   0.439854  -0.105193
    14  N   -0.073849  -0.032760  -0.005425   0.131531  -0.048233   0.012842
    15  C    0.031349  -0.010946   0.002638  -0.380202   0.000682  -0.010960
    16  H    0.010059  -0.003161   0.000978   0.017800   0.000606  -0.000231
    17  C   -0.034759  -0.011744  -0.008044   0.342673  -0.019463   0.011944
    18  H   -0.002154  -0.000173   0.000453  -0.013842  -0.000175   0.000497
    19  C    0.049528   0.009661   0.023131  -0.542235   0.017137   0.005426
    20  H   -0.001956   0.000399  -0.001030   0.059308   0.005872   0.000847
    21  C   -0.257349  -0.016170   0.049878   0.339178  -0.267818   0.142736
    22  H    0.031272  -0.000977   0.014504  -0.110223  -0.091886   0.019044
    23  H   -0.017052   0.017454  -0.005918  -0.073110   0.002186  -0.006628
              13         14         15         16         17         18
     1  C   -0.020387   0.000325  -0.005892  -0.000189   0.003655   0.000044
     2  H    0.001784   0.003611   0.000240   0.000041   0.001271  -0.000015
     3  H   -0.006577  -0.001828   0.000219   0.000060  -0.000434  -0.000013
     4  H   -0.002126  -0.004389  -0.003470  -0.000292   0.001435   0.000051
     5  N    0.011427   0.027531  -0.007907  -0.000258   0.009630   0.000142
     6  H   -0.012152   0.002332   0.000834  -0.000012   0.000234  -0.000015
     7  C    0.114198  -0.073849   0.031349   0.010059  -0.034759  -0.002154
     8  H    0.069060  -0.032760  -0.010946  -0.003161  -0.011744  -0.000173
     9  H   -0.033273  -0.005425   0.002638   0.000978  -0.008044   0.000453
    10  C   -0.810019   0.131531  -0.380202   0.017800   0.342673  -0.013842
    11  H    0.439854  -0.048233   0.000682   0.000606  -0.019463  -0.000175
    12  H   -0.105193   0.012842  -0.010960  -0.000231   0.011944   0.000497
    13  C    8.253200  -0.165400   0.353669   0.164444  -1.145354  -0.017084
    14  N   -0.165400   7.671601   0.245861  -0.166203   0.182315  -0.026690
    15  C    0.353669   0.245861   6.317960   0.076181  -0.958739   0.097689
    16  H    0.164444  -0.166203   0.076181   1.351004  -0.010544  -0.049148
    17  C   -1.145354   0.182315  -0.958739  -0.010544   6.637807  -0.312015
    18  H   -0.017084  -0.026690   0.097689  -0.049148  -0.312015   1.505442
    19  C    1.504568  -0.407947   1.145566   0.045293  -1.271699   0.341070
    20  H   -0.171551   0.032734  -0.162973  -0.007969   0.285386  -0.060239
    21  C   -2.837450   0.345411  -1.244062  -0.074163   1.435633  -0.054350
    22  H    0.318026  -0.017560   0.051981   0.000473  -0.074888  -0.009429
    23  H    0.018184  -0.000438  -0.000611   0.000057   0.000832  -0.000028
              19         20         21         22         23
     1  C   -0.006242   0.000017   0.008220  -0.001220  -0.044356
     2  H   -0.002950  -0.000054   0.006425   0.000123  -0.011743
     3  H    0.000575   0.000024  -0.001622  -0.000135  -0.006804
     4  H   -0.001361  -0.000021   0.004063  -0.000266   0.015015
     5  N   -0.012528  -0.000136   0.050089  -0.005277   0.444889
     6  H   -0.000838  -0.000021  -0.003442  -0.000313  -0.081893
     7  C    0.049528  -0.001956  -0.257349   0.031272  -0.017052
     8  H    0.009661   0.000399  -0.016170  -0.000977   0.017454
     9  H    0.023131  -0.001030   0.049878   0.014504  -0.005918
    10  C   -0.542235   0.059308   0.339178  -0.110223  -0.073110
    11  H    0.017137   0.005872  -0.267818  -0.091886   0.002186
    12  H    0.005426   0.000847   0.142736   0.019044  -0.006628
    13  C    1.504568  -0.171551  -2.837450   0.318026   0.018184
    14  N   -0.407947   0.032734   0.345411  -0.017560  -0.000438
    15  C    1.145566  -0.162973  -1.244062   0.051981  -0.000611
    16  H    0.045293  -0.007969  -0.074163   0.000473   0.000057
    17  C   -1.271699   0.285386   1.435633  -0.074888   0.000832
    18  H    0.341070  -0.060239  -0.054350  -0.009429  -0.000028
    19  C    7.965947  -0.491744  -2.534404   0.378280   0.000373
    20  H   -0.491744   1.558740   0.435622  -0.090869   0.000024
    21  C   -2.534404   0.435622  10.261287  -0.802345   0.004557
    22  H    0.378280  -0.090869  -0.802345   1.944583   0.000198
    23  H    0.000373   0.000024   0.004557   0.000198   0.577530
 Mulliken charges:
               1
     1  C    0.825021
     2  H   -0.070978
     3  H   -0.120507
     4  H   -0.060523
     5  N   -0.591934
     6  H    0.164217
     7  C    0.946155
     8  H   -0.159826
     9  H   -0.179491
    10  C    0.420752
    11  H   -0.156949
    12  H   -0.048875
    13  C    0.078151
    14  N   -0.705371
    15  C    0.460893
    16  H   -0.354827
    17  C    0.934866
    18  H   -0.400017
    19  C   -0.214606
    20  H   -0.390409
    21  C    1.010074
    22  H   -0.553094
    23  H    0.167281
 Sum of Mulliken charges =   1.00000
 Mulliken charges with hydrogens summed into heavy atoms:
               1
     1  C    0.573012
     5  N   -0.260436
     7  C    0.606838
    10  C    0.214927
    13  C    0.078151
    14  N   -0.705371
    15  C    0.106066
    17  C    0.534849
    19  C   -0.605016
    21  C    0.456980
 Electronic spatial extent (au):  <R**2>=           2001.7940
 Charge=              1.0000 electrons
 Dipole moment (field-independent basis, Debye):
    X=             10.2320    Y=             -1.9106    Z=              1.6286  Tot=             10.5355
 Quadrupole moment (field-independent basis, Debye-Ang):
   XX=              1.5201   YY=            -51.8227   ZZ=            -57.4797
   XY=             -1.6933   XZ=              3.5215   YZ=             -0.1055
 Traceless Quadrupole moment (field-independent basis, Debye-Ang):
   XX=             37.4475   YY=            -15.8953   ZZ=            -21.5522
   XY=             -1.6933   XZ=              3.5215   YZ=             -0.1055
 Octapole moment (field-independent basis, Debye-Ang**2):
  XXX=            137.4689  YYY=             -3.3137  ZZZ=              5.6698  XYY=              4.7770
  XXY=             -0.7668  XXZ=             17.6279  XZZ=             31.5946  YZZ=              0.2486
  YYZ=              1.9824  XYZ=             -4.7812
 Hexadecapole moment (field-independent basis, Debye-Ang**3):
 XXXX=          -1270.8960 YYYY=           -310.8272 ZZZZ=           -135.5317 XXXY=             -7.6403
 XXXZ=             30.1553 YYYX=            -12.9115 YYYZ=              1.8616 ZZZX=             17.4727
 ZZZY=             -3.7079 XXYY=           -335.3906 XXZZ=           -352.5967 YYZZ=            -89.1380
 XXYZ=            -11.1613 YYXZ=              2.0904 ZZXY=             -0.3804
 N-N= 5.104891594120D+02 E-N=-1.986062316770D+03  KE= 4.186964192360D+02
 Leave Link  601 at Sun Jul 18 14:23:04 2021, MaxMem=   262144000 cpu:               0.2 elap:               0.1
 (Enter /dades/curu/g16A03_MST/g16/l9999.exe)
 1\1\GINC-PIRINEUS28\SP\RMP2-FC\Aug-CC-pVDZ\C8H13N2(1+)\UBATOR02\18-Jul
 -2021\0\\#p mp2/aug-cc-pVDZ scf=tight maxdisk=180GB geom=allcheck\\SET
 _328_BBB256_conf1.geo_075_180_090 geometry\\1,1\C,0,1.8703210649,2.568
 2326584,1.4957713566\H,0,1.1550414112,2.1990477043,2.2263259633\H,0,2.
 20473688,3.5666124726,1.7696166514\H,0,2.7179489549,1.8907818173,1.421
 3462619\N,0,1.2062457623,2.6362097952,0.1551740616\H,0,1.8609144702,3.
 0472227269,-0.5286356328\C,0,0.738665745,1.3001114162,-0.3649048986\H,
 0,1.585618996,0.617057653,-0.3041630279\H,0,0.4834329175,1.4501213325,
 -1.4142882172\C,0,-0.4460572619,0.7371494866,0.410051052\H,0,-1.328574
 4763,1.3664380856,0.2797498348\H,0,-0.214227479,0.7037601777,1.4796213
 652\C,0,-0.7439167681,-0.6677180164,-0.070972499\N,0,0.285175644,-1.52
 97475624,-0.037836444\C,0,0.0613482314,-2.7837562421,-0.4455774555\H,0
 ,0.9126322183,-3.4574950347,-0.4050954793\C,0,-1.1764656917,-3.2386460
 395,-0.9005294796\H,0,-1.2984099161,-4.2670084313,-1.2168108235\C,0,-2
 .2367033723,-2.3369791872,-0.9377291431\H,0,-3.2158038372,-2.644989267
 ,-1.288079643\C,0,-2.0166683277,-1.0262053667,-0.5177710766\H,0,-2.812
 7510752,-0.2906030609,-0.5313628133\H,0,0.4174959099,3.2954028818,0.19
 01000863\\Version=ES64L-G16RevA.03\State=1-A\HF=-419.2517741\MP2=-420.
 7095948\RMSD=5.480e-09\PG=C01 [X(C8H13N2)]\\@


 THE VALUE OF PHILOSOPHY IS, IN FACT, TO BE SOUGHT LARGELY IN ITS
 VERY UNCERTAINTY.  THE MAN WHO HAS NO TINCTURE OF PHILOSOPHY GOES
 THROUGH LIFE IMPRISONED IN THE PREJUDICES DERIVED FROM COMMON SENSE,
 FROM THE HABITUAL BELIEFS OF HIS AGE OR HIS NATION, AND FROM
 CONVICTIONS WHICH HAVE GROWN UP IN HIS MIND WITHOUT THE CO-OPERATION
 OR CONSENT OF HIS DELIBERATE REASON.  TO SUCH A MAN THE WORLD TENDS
 TO BE DEFINITE, FINITE, OBVIOUS; COMMON OBJECTS ROUSE NO QUESTIONS,
 AND UNFAMILIAR POSSIBILITIES ARE CONTEMPTUOUSLY REJECTED.

                             -- BERTRAND RUSSELL
 Job cpu time:       0 days  0 hours 28 minutes 44.9 seconds.
 Elapsed time:       0 days  0 hours  7 minutes 26.7 seconds.
 File lengths (MBytes):  RWF=  10481 Int=      0 D2E=      0 Chk=     13 Scr=      1
 Normal termination of Gaussian 16 at Sun Jul 18 14:23:13 2021.
