 Entering Gaussian System, Link 0=g16
 Input=SET_328_BBB301_conf1.geo_090_285_090_OCTANOL.dat
 Output=SET_328_BBB301_conf1.geo_090_285_090_OCTANOL.log
 Initial command:
 /dades/curu/g16A03_MST/g16/l1.exe "/tmp/ubator02/1839646/Gau-5634.inp" -scrdir="/tmp/ubator02/1839646/"
 Entering Link 1 = /dades/curu/g16A03_MST/g16/l1.exe PID=      5635.
  
 Copyright (c) 1988,1990,1992,1993,1995,1998,2003,2009,2016,
            Gaussian, Inc.  All Rights Reserved.
  
 This is part of the Gaussian(R) 16 program.  It is based on
 the Gaussian(R) 09 system (copyright 2009, Gaussian, Inc.),
 the Gaussian(R) 03 system (copyright 2003, Gaussian, Inc.),
 the Gaussian(R) 98 system (copyright 1998, Gaussian, Inc.),
 the Gaussian(R) 94 system (copyright 1995, Gaussian, Inc.),
 the Gaussian 92(TM) system (copyright 1992, Gaussian, Inc.),
 the Gaussian 90(TM) system (copyright 1990, Gaussian, Inc.),
 the Gaussian 88(TM) system (copyright 1988, Gaussian, Inc.),
 the Gaussian 86(TM) system (copyright 1986, Carnegie Mellon
 University), and the Gaussian 82(TM) system (copyright 1983,
 Carnegie Mellon University). Gaussian is a federally registered
 trademark of Gaussian, Inc.
  
 This software contains proprietary and confidential information,
 including trade secrets, belonging to Gaussian, Inc.
  
 This software is provided under written license and may be
 used, copied, transmitted, or stored only in accord with that
 written license.
  
 The following legend is applicable only to US Government
 contracts under FAR:
  
                    RESTRICTED RIGHTS LEGEND
  
 Use, reproduction and disclosure by the US Government is
 subject to restrictions as set forth in subparagraphs (a)
 and (c) of the Commercial Computer Software - Restricted
 Rights clause in FAR 52.227-19.
  
 Gaussian, Inc.
 340 Quinnipiac St., Bldg. 40, Wallingford CT 06492
  
  
 ---------------------------------------------------------------
 Warning -- This program may not be used in any manner that
 competes with the business of Gaussian, Inc. or will provide
 assistance to any competitor of Gaussian, Inc.  The licensee
 of this program is prohibited from giving any competitor of
 Gaussian, Inc. access to this program.  By using this program,
 the user acknowledges that Gaussian, Inc. is engaged in the
 business of creating and licensing software in the field of
 computational chemistry and represents and warrants to the
 licensee that it is not a competitor of Gaussian, Inc. and that
 it will not use this program in any manner prohibited above.
 ---------------------------------------------------------------
  

 Cite this work as:
 Gaussian 16, Revision A.03,
 M. J. Frisch, G. W. Trucks, H. B. Schlegel, G. E. Scuseria, 
 M. A. Robb, J. R. Cheeseman, G. Scalmani, V. Barone, 
 G. A. Petersson, H. Nakatsuji, X. Li, M. Caricato, A. V. Marenich, 
 J. Bloino, B. G. Janesko, R. Gomperts, B. Mennucci, H. P. Hratchian, 
 J. V. Ortiz, A. F. Izmaylov, J. L. Sonnenberg, D. Williams-Young, 
 F. Ding, F. Lipparini, F. Egidi, J. Goings, B. Peng, A. Petrone, 
 T. Henderson, D. Ranasinghe, V. G. Zakrzewski, J. Gao, N. Rega, 
 G. Zheng, W. Liang, M. Hada, M. Ehara, K. Toyota, R. Fukuda, 
 J. Hasegawa, M. Ishida, T. Nakajima, Y. Honda, O. Kitao, H. Nakai, 
 T. Vreven, K. Throssell, J. A. Montgomery, Jr., J. E. Peralta, 
 F. Ogliaro, M. J. Bearpark, J. J. Heyd, E. N. Brothers, K. N. Kudin, 
 V. N. Staroverov, T. A. Keith, R. Kobayashi, J. Normand, 
 K. Raghavachari, A. P. Rendell, J. C. Burant, S. S. Iyengar, 
 J. Tomasi, M. Cossi, J. M. Millam, M. Klene, C. Adamo, R. Cammi, 
 J. W. Ochterski, R. L. Martin, K. Morokuma, O. Farkas, 
 J. B. Foresman, and D. J. Fox, Gaussian, Inc., Wallingford CT, 2016.
 
 ******************************************
 Gaussian 16:  ES64L-G16RevA.03 25-Dec-2016
                18-Jul-2021 
 ******************************************
 %mem=800MB
 %nproc=4
 Will use up to    4 processors via shared memory.
 %chk=SET_328_BBB301_conf1.geo_090_285_090.chk
 ---------------------------------------------------------------
 #p b3lyp/6-31G(d) opt freq scrf=(iefpcm,read,solvent=n-octanol)
 ---------------------------------------------------------------
 1/18=20,19=15,26=3,38=1,40=2/1,3;
 2/9=110,12=2,17=6,18=5,40=1/2;
 3/5=1,6=6,7=1,11=2,25=1,30=1,70=2203,71=1,72=25,74=-5/1,2,3;
 4//1;
 5/5=2,38=5,53=25/2;
 6/7=2,8=2,9=2,10=2,28=1/1;
 7//1,2,3,16;
 1/18=20,19=15,26=3/3(2);
 2/9=110/2;
 99//99;
 2/9=110/2;
 3/5=1,6=6,7=1,11=2,25=1,30=1,70=2205,71=1,72=25,74=-5/1,2,3;
 4/5=5,16=3,69=1/1;
 5/5=2,38=5,53=25/2;
 7//1,2,3,16;
 1/18=20,19=15,26=3/3(-5);
 2/9=110/2;
 6/7=2,8=2,9=2,10=2,19=2,28=1/1;
 99/9=1/99;
 Leave Link    1 at Sun Jul 18 14:43:10 2021, MaxMem=   104857600 cpu:               0.1 elap:               0.0
 (Enter /dades/curu/g16A03_MST/g16/l101.exe)
 ---------------------------------------------
 SET_328_BBB301_conf1.geo_090_285_090 geometry
 ---------------------------------------------
 Symbolic Z-matrix:
 Charge =  1 Multiplicity = 1
 C                    -0.589    -0.361     3.971 
 H                    -0.947    -1.049     4.739 
 H                    -1.37      0.402     3.982 
 H                     0.343     0.136     4.248 
 C                    -0.52     -1.144     2.729 
 C                     0.558    -2.174     2.927 
 H                     1.518    -1.658     2.988 
 H                     0.61     -2.942     2.152 
 H                     0.435    -2.718     3.866 
 C                    -1.84     -1.809     2.383 
 H                    -2.463    -0.985     2.03 
 H                    -2.172    -2.308     3.295 
 H                    -1.715    -2.546     1.587 
 N                     0.       -0.335     1.65 
 H                     0.091    -0.928     0.85 
 C                    -0.799     0.961     1.19 
 H                    -1.104     1.567     2.047 
 H                    -1.676     0.636     0.625 
 C                     0.152     1.899     0.365 
 O                     1.435     1.577     0.885 
 H                     0.971     0.863     1.359 
 H                    -0.087     2.943     0.583 
 C                     0.125     1.58     -1.083 
 C                     0.711     0.457    -1.599 
 H                     1.139    -0.27     -0.914 
 C                     0.718     0.181    -2.962 
 C                     1.374    -1.024    -3.471 
 O                     2.721    -0.774    -3.821 
 H                     3.067    -1.588    -4.228 
 H                     0.718    -1.418    -4.251 
 H                     1.302    -1.885    -2.802 
 C                     0.084     1.057    -3.869 
 O                     0.057     0.892    -5.22 
 H                    -0.725     1.426    -5.445 
 C                    -0.298     2.325    -3.365 
 H                    -0.733     3.131    -3.95 
 C                    -0.34      2.546    -1.979 
 H                    -0.729     3.491    -1.607 
 H                     0.918    -0.04      1.915 
 
 ITRead=  0  0  0  0  0  0  0  0  0  0  0  0  0  0  0  0  0  0  0  0
 ITRead=  0  0  0  0  0  0  0  0  0  0  0  0  0  0  0  0  0  0  0
 MicOpt= -1 -1 -1 -1 -1 -1 -1 -1 -1 -1 -1 -1 -1 -1 -1 -1 -1 -1 -1 -1
 MicOpt= -1 -1 -1 -1 -1 -1 -1 -1 -1 -1 -1 -1 -1 -1 -1 -1 -1 -1 -1
 NAtoms=     39 NQM=       39 NQMF=       0 NMMI=      0 NMMIF=      0
                NMic=       0 NMicF=      0.
                    Isotopes and Nuclear Properties:
 (Nuclear quadrupole moments (NQMom) in fm**2, nuclear magnetic moments (NMagM)
  in nuclear magnetons)

  Atom         1           2           3           4           5           6           7           8           9          10
 IAtWgt=          12           1           1           1          12          12           1           1           1          12
 AtmWgt=  12.0000000   1.0078250   1.0078250   1.0078250  12.0000000  12.0000000   1.0078250   1.0078250   1.0078250  12.0000000
 NucSpn=           0           1           1           1           0           0           1           1           1           0
 AtZEff=  -0.0000000  -0.0000000  -0.0000000  -0.0000000  -0.0000000  -0.0000000  -0.0000000  -0.0000000  -0.0000000  -0.0000000
 NQMom=    0.0000000   0.0000000   0.0000000   0.0000000   0.0000000   0.0000000   0.0000000   0.0000000   0.0000000   0.0000000
 NMagM=    0.0000000   2.7928460   2.7928460   2.7928460   0.0000000   0.0000000   2.7928460   2.7928460   2.7928460   0.0000000
 AtZNuc=   6.0000000   1.0000000   1.0000000   1.0000000   6.0000000   6.0000000   1.0000000   1.0000000   1.0000000   6.0000000

  Atom        11          12          13          14          15          16          17          18          19          20
 IAtWgt=           1           1           1          14           1          12           1           1          12          16
 AtmWgt=   1.0078250   1.0078250   1.0078250  14.0030740   1.0078250  12.0000000   1.0078250   1.0078250  12.0000000  15.9949146
 NucSpn=           1           1           1           2           1           0           1           1           0           0
 AtZEff=  -0.0000000  -0.0000000  -0.0000000  -0.0000000  -0.0000000  -0.0000000  -0.0000000  -0.0000000  -0.0000000  -0.0000000
 NQMom=    0.0000000   0.0000000   0.0000000   2.0440000   0.0000000   0.0000000   0.0000000   0.0000000   0.0000000   0.0000000
 NMagM=    2.7928460   2.7928460   2.7928460   0.4037610   2.7928460   0.0000000   2.7928460   2.7928460   0.0000000   0.0000000
 AtZNuc=   1.0000000   1.0000000   1.0000000   7.0000000   1.0000000   6.0000000   1.0000000   1.0000000   6.0000000   8.0000000

  Atom        21          22          23          24          25          26          27          28          29          30
 IAtWgt=           1           1          12          12           1          12          12          16           1           1
 AtmWgt=   1.0078250   1.0078250  12.0000000  12.0000000   1.0078250  12.0000000  12.0000000  15.9949146   1.0078250   1.0078250
 NucSpn=           1           1           0           0           1           0           0           0           1           1
 AtZEff=  -0.0000000  -0.0000000  -0.0000000  -0.0000000  -0.0000000  -0.0000000  -0.0000000  -0.0000000  -0.0000000  -0.0000000
 NQMom=    0.0000000   0.0000000   0.0000000   0.0000000   0.0000000   0.0000000   0.0000000   0.0000000   0.0000000   0.0000000
 NMagM=    2.7928460   2.7928460   0.0000000   0.0000000   2.7928460   0.0000000   0.0000000   0.0000000   2.7928460   2.7928460
 AtZNuc=   1.0000000   1.0000000   6.0000000   6.0000000   1.0000000   6.0000000   6.0000000   8.0000000   1.0000000   1.0000000

  Atom        31          32          33          34          35          36          37          38          39
 IAtWgt=           1          12          16           1          12           1          12           1           1
 AtmWgt=   1.0078250  12.0000000  15.9949146   1.0078250  12.0000000   1.0078250  12.0000000   1.0078250   1.0078250
 NucSpn=           1           0           0           1           0           1           0           1           1
 AtZEff=  -0.0000000  -0.0000000  -0.0000000  -0.0000000  -0.0000000  -0.0000000  -0.0000000  -0.0000000  -0.0000000
 NQMom=    0.0000000   0.0000000   0.0000000   0.0000000   0.0000000   0.0000000   0.0000000   0.0000000   0.0000000
 NMagM=    2.7928460   0.0000000   0.0000000   2.7928460   0.0000000   2.7928460   0.0000000   2.7928460   2.7928460
 AtZNuc=   1.0000000   6.0000000   8.0000000   1.0000000   6.0000000   1.0000000   6.0000000   1.0000000   1.0000000
 Leave Link  101 at Sun Jul 18 14:43:10 2021, MaxMem=   104857600 cpu:               0.1 elap:               0.1
 (Enter /dades/curu/g16A03_MST/g16/l103.exe)

 GradGradGradGradGradGradGradGradGradGradGradGradGradGradGradGradGradGrad
 Berny optimization.
 Initialization pass.
                           ----------------------------
                           !    Initial Parameters    !
                           ! (Angstroms and Degrees)  !
 --------------------------                            --------------------------
 ! Name  Definition              Value          Derivative Info.                !
 --------------------------------------------------------------------------------
 ! R1    R(1,2)                  1.0915         estimate D2E/DX2                !
 ! R2    R(1,3)                  1.0919         estimate D2E/DX2                !
 ! R3    R(1,4)                  1.092          estimate D2E/DX2                !
 ! R4    R(1,5)                  1.4698         estimate D2E/DX2                !
 ! R5    R(5,6)                  1.5041         estimate D2E/DX2                !
 ! R6    R(5,10)                 1.518          estimate D2E/DX2                !
 ! R7    R(5,14)                 1.4454         estimate D2E/DX2                !
 ! R8    R(6,7)                  1.0916         estimate D2E/DX2                !
 ! R9    R(6,8)                  1.0923         estimate D2E/DX2                !
 ! R10   R(6,9)                  1.0921         estimate D2E/DX2                !
 ! R11   R(10,11)                1.0917         estimate D2E/DX2                !
 ! R12   R(10,12)                1.0913         estimate D2E/DX2                !
 ! R13   R(10,13)                1.092          estimate D2E/DX2                !
 ! R14   R(14,15)                1.0            estimate D2E/DX2                !
 ! R15   R(14,16)                1.5905         estimate D2E/DX2                !
 ! R16   R(14,39)                1.0            estimate D2E/DX2                !
 ! R17   R(16,17)                1.093          estimate D2E/DX2                !
 ! R18   R(16,18)                1.0927         estimate D2E/DX2                !
 ! R19   R(16,19)                1.57           estimate D2E/DX2                !
 ! R20   R(19,20)                1.4213         estimate D2E/DX2                !
 ! R21   R(19,22)                1.093          estimate D2E/DX2                !
 ! R22   R(19,23)                1.483          estimate D2E/DX2                !
 ! R23   R(20,21)                0.9746         estimate D2E/DX2                !
 ! R24   R(23,24)                1.3678         estimate D2E/DX2                !
 ! R25   R(23,37)                1.3972         estimate D2E/DX2                !
 ! R26   R(24,25)                1.0867         estimate D2E/DX2                !
 ! R27   R(24,26)                1.3907         estimate D2E/DX2                !
 ! R28   R(26,27)                1.4634         estimate D2E/DX2                !
 ! R29   R(26,32)                1.4114         estimate D2E/DX2                !
 ! R30   R(27,28)                1.414          estimate D2E/DX2                !
 ! R31   R(27,30)                1.0927         estimate D2E/DX2                !
 ! R32   R(27,31)                1.0927         estimate D2E/DX2                !
 ! R33   R(28,29)                0.9736         estimate D2E/DX2                !
 ! R34   R(32,33)                1.3613         estimate D2E/DX2                !
 ! R35   R(32,35)                1.417          estimate D2E/DX2                !
 ! R36   R(33,34)                0.9733         estimate D2E/DX2                !
 ! R37   R(35,36)                1.0868         estimate D2E/DX2                !
 ! R38   R(35,37)                1.4041         estimate D2E/DX2                !
 ! R39   R(37,38)                1.0875         estimate D2E/DX2                !
 ! A1    A(2,1,3)              101.4653         estimate D2E/DX2                !
 ! A2    A(2,1,4)              112.852          estimate D2E/DX2                !
 ! A3    A(2,1,5)              105.9127         estimate D2E/DX2                !
 ! A4    A(3,1,4)              106.8512         estimate D2E/DX2                !
 ! A5    A(3,1,5)              114.4777         estimate D2E/DX2                !
 ! A6    A(4,1,5)              114.6295         estimate D2E/DX2                !
 ! A7    A(1,5,6)              106.6914         estimate D2E/DX2                !
 ! A8    A(1,5,10)             112.6529         estimate D2E/DX2                !
 ! A9    A(1,5,14)             110.4581         estimate D2E/DX2                !
 ! A10   A(6,5,10)             110.6859         estimate D2E/DX2                !
 ! A11   A(6,5,14)             102.9276         estimate D2E/DX2                !
 ! A12   A(10,5,14)            112.8228         estimate D2E/DX2                !
 ! A13   A(5,6,7)              108.2985         estimate D2E/DX2                !
 ! A14   A(5,6,8)              114.974          estimate D2E/DX2                !
 ! A15   A(5,6,9)              111.936          estimate D2E/DX2                !
 ! A16   A(7,6,8)              109.2771         estimate D2E/DX2                !
 ! A17   A(7,6,9)              106.6458         estimate D2E/DX2                !
 ! A18   A(8,6,9)              105.3765         estimate D2E/DX2                !
 ! A19   A(5,10,11)            103.8447         estimate D2E/DX2                !
 ! A20   A(5,10,12)            105.9243         estimate D2E/DX2                !
 ! A21   A(5,10,13)            111.2402         estimate D2E/DX2                !
 ! A22   A(11,10,12)           116.2156         estimate D2E/DX2                !
 ! A23   A(11,10,13)           109.8193         estimate D2E/DX2                !
 ! A24   A(12,10,13)           109.5967         estimate D2E/DX2                !
 ! A25   A(5,14,15)            107.3406         estimate D2E/DX2                !
 ! A26   A(5,14,16)            119.4233         estimate D2E/DX2                !
 ! A27   A(5,14,39)            107.311          estimate D2E/DX2                !
 ! A28   A(15,14,16)           107.3108         estimate D2E/DX2                !
 ! A29   A(15,14,39)           107.6626         estimate D2E/DX2                !
 ! A30   A(16,14,39)           107.3038         estimate D2E/DX2                !
 ! A31   A(14,16,17)           111.419          estimate D2E/DX2                !
 ! A32   A(14,16,18)           108.0826         estimate D2E/DX2                !
 ! A33   A(14,16,19)           109.5431         estimate D2E/DX2                !
 ! A34   A(17,16,18)           110.2647         estimate D2E/DX2                !
 ! A35   A(17,16,19)           104.4651         estimate D2E/DX2                !
 ! A36   A(18,16,19)           113.0888         estimate D2E/DX2                !
 ! A37   A(16,19,20)           102.661          estimate D2E/DX2                !
 ! A38   A(16,19,22)           109.4765         estimate D2E/DX2                !
 ! A39   A(16,19,23)           111.9343         estimate D2E/DX2                !
 ! A40   A(20,19,22)           109.9265         estimate D2E/DX2                !
 ! A41   A(20,19,23)           108.9614         estimate D2E/DX2                !
 ! A42   A(22,19,23)           113.3436         estimate D2E/DX2                !
 ! A43   A(19,20,21)            85.0748         estimate D2E/DX2                !
 ! A44   A(19,23,24)           122.4916         estimate D2E/DX2                !
 ! A45   A(19,23,37)           118.9139         estimate D2E/DX2                !
 ! A46   A(24,23,37)           117.9248         estimate D2E/DX2                !
 ! A47   A(23,24,25)           118.6992         estimate D2E/DX2                !
 ! A48   A(23,24,26)           122.334          estimate D2E/DX2                !
 ! A49   A(25,24,26)           118.8843         estimate D2E/DX2                !
 ! A50   A(24,26,27)           120.4366         estimate D2E/DX2                !
 ! A51   A(24,26,32)           120.2917         estimate D2E/DX2                !
 ! A52   A(27,26,32)           119.2704         estimate D2E/DX2                !
 ! A53   A(26,27,28)           111.5644         estimate D2E/DX2                !
 ! A54   A(26,27,30)           106.0264         estimate D2E/DX2                !
 ! A55   A(26,27,31)           113.9746         estimate D2E/DX2                !
 ! A56   A(28,27,30)           117.3203         estimate D2E/DX2                !
 ! A57   A(28,27,31)           110.7087         estimate D2E/DX2                !
 ! A58   A(30,27,31)            96.509          estimate D2E/DX2                !
 ! A59   A(27,28,29)           107.1087         estimate D2E/DX2                !
 ! A60   A(26,32,33)           124.8514         estimate D2E/DX2                !
 ! A61   A(26,32,35)           116.612          estimate D2E/DX2                !
 ! A62   A(33,32,35)           117.1369         estimate D2E/DX2                !
 ! A63   A(32,33,34)           100.3033         estimate D2E/DX2                !
 ! A64   A(32,35,36)           125.4591         estimate D2E/DX2                !
 ! A65   A(32,35,37)           120.0005         estimate D2E/DX2                !
 ! A66   A(36,35,37)           113.743          estimate D2E/DX2                !
 ! A67   A(23,37,35)           120.9455         estimate D2E/DX2                !
 ! A68   A(23,37,38)           120.0299         estimate D2E/DX2                !
 ! A69   A(35,37,38)           119.0192         estimate D2E/DX2                !
 ! D1    D(2,1,5,6)            -66.4563         estimate D2E/DX2                !
 ! D2    D(2,1,5,10)            55.1953         estimate D2E/DX2                !
 ! D3    D(2,1,5,14)          -177.6268         estimate D2E/DX2                !
 ! D4    D(3,1,5,6)           -177.3662         estimate D2E/DX2                !
 ! D5    D(3,1,5,10)           -55.7146         estimate D2E/DX2                !
 ! D6    D(3,1,5,14)            71.4633         estimate D2E/DX2                !
 ! D7    D(4,1,5,6)             58.6397         estimate D2E/DX2                !
 ! D8    D(4,1,5,10)          -179.7087         estimate D2E/DX2                !
 ! D9    D(4,1,5,14)           -52.5308         estimate D2E/DX2                !
 ! D10   D(1,5,6,7)            -67.5066         estimate D2E/DX2                !
 ! D11   D(1,5,6,8)            169.9726         estimate D2E/DX2                !
 ! D12   D(1,5,6,9)             49.7797         estimate D2E/DX2                !
 ! D13   D(10,5,6,7)           169.6041         estimate D2E/DX2                !
 ! D14   D(10,5,6,8)            47.0833         estimate D2E/DX2                !
 ! D15   D(10,5,6,9)           -73.1097         estimate D2E/DX2                !
 ! D16   D(14,5,6,7)            48.8026         estimate D2E/DX2                !
 ! D17   D(14,5,6,8)           -73.7182         estimate D2E/DX2                !
 ! D18   D(14,5,6,9)           166.0888         estimate D2E/DX2                !
 ! D19   D(1,5,10,11)           73.9447         estimate D2E/DX2                !
 ! D20   D(1,5,10,12)          -48.9735         estimate D2E/DX2                !
 ! D21   D(1,5,10,13)         -167.9924         estimate D2E/DX2                !
 ! D22   D(6,5,10,11)         -166.6978         estimate D2E/DX2                !
 ! D23   D(6,5,10,12)           70.384          estimate D2E/DX2                !
 ! D24   D(6,5,10,13)          -48.6348         estimate D2E/DX2                !
 ! D25   D(14,5,10,11)         -51.9673         estimate D2E/DX2                !
 ! D26   D(14,5,10,12)        -174.8855         estimate D2E/DX2                !
 ! D27   D(14,5,10,13)          66.0956         estimate D2E/DX2                !
 ! D28   D(1,5,14,15)          175.872          estimate D2E/DX2                !
 ! D29   D(1,5,14,16)          -61.8524         estimate D2E/DX2                !
 ! D30   D(1,5,14,39)           60.3881         estimate D2E/DX2                !
 ! D31   D(6,5,14,15)           62.2842         estimate D2E/DX2                !
 ! D32   D(6,5,14,16)         -175.4402         estimate D2E/DX2                !
 ! D33   D(6,5,14,39)          -53.1997         estimate D2E/DX2                !
 ! D34   D(10,5,14,15)         -57.0441         estimate D2E/DX2                !
 ! D35   D(10,5,14,16)          65.2315         estimate D2E/DX2                !
 ! D36   D(10,5,14,39)        -172.5281         estimate D2E/DX2                !
 ! D37   D(5,14,16,17)          46.8276         estimate D2E/DX2                !
 ! D38   D(5,14,16,18)         -74.469          estimate D2E/DX2                !
 ! D39   D(5,14,16,19)         161.9132         estimate D2E/DX2                !
 ! D40   D(15,14,16,17)        169.1179         estimate D2E/DX2                !
 ! D41   D(15,14,16,18)         47.8213         estimate D2E/DX2                !
 ! D42   D(15,14,16,19)        -75.7966         estimate D2E/DX2                !
 ! D43   D(39,14,16,17)        -75.4165         estimate D2E/DX2                !
 ! D44   D(39,14,16,18)        163.287          estimate D2E/DX2                !
 ! D45   D(39,14,16,19)         39.6691         estimate D2E/DX2                !
 ! D46   D(14,16,19,20)        -27.2798         estimate D2E/DX2                !
 ! D47   D(14,16,19,22)       -144.0208         estimate D2E/DX2                !
 ! D48   D(14,16,19,23)         89.4304         estimate D2E/DX2                !
 ! D49   D(17,16,19,20)         92.1769         estimate D2E/DX2                !
 ! D50   D(17,16,19,22)        -24.564          estimate D2E/DX2                !
 ! D51   D(17,16,19,23)       -151.1129         estimate D2E/DX2                !
 ! D52   D(18,16,19,20)       -147.9014         estimate D2E/DX2                !
 ! D53   D(18,16,19,22)         95.3577         estimate D2E/DX2                !
 ! D54   D(18,16,19,23)        -31.1911         estimate D2E/DX2                !
 ! D55   D(16,19,20,21)          7.8901         estimate D2E/DX2                !
 ! D56   D(22,19,20,21)        124.3089         estimate D2E/DX2                !
 ! D57   D(23,19,20,21)       -110.9261         estimate D2E/DX2                !
 ! D58   D(16,19,23,24)        -72.6411         estimate D2E/DX2                !
 ! D59   D(16,19,23,37)        116.9379         estimate D2E/DX2                !
 ! D60   D(20,19,23,24)         40.2012         estimate D2E/DX2                !
 ! D61   D(20,19,23,37)       -130.2198         estimate D2E/DX2                !
 ! D62   D(22,19,23,24)        162.9375         estimate D2E/DX2                !
 ! D63   D(22,19,23,37)         -7.4835         estimate D2E/DX2                !
 ! D64   D(19,23,24,25)          5.2883         estimate D2E/DX2                !
 ! D65   D(19,23,24,26)       -178.0527         estimate D2E/DX2                !
 ! D66   D(37,23,24,25)        175.7992         estimate D2E/DX2                !
 ! D67   D(37,23,24,26)         -7.5419         estimate D2E/DX2                !
 ! D68   D(19,23,37,35)        175.5614         estimate D2E/DX2                !
 ! D69   D(19,23,37,38)         -3.5844         estimate D2E/DX2                !
 ! D70   D(24,23,37,35)          4.702          estimate D2E/DX2                !
 ! D71   D(24,23,37,38)       -174.4438         estimate D2E/DX2                !
 ! D72   D(23,24,26,27)        179.1269         estimate D2E/DX2                !
 ! D73   D(23,24,26,32)         -1.289          estimate D2E/DX2                !
 ! D74   D(25,24,26,27)         -4.2201         estimate D2E/DX2                !
 ! D75   D(25,24,26,32)        175.364          estimate D2E/DX2                !
 ! D76   D(24,26,27,28)        -91.866          estimate D2E/DX2                !
 ! D77   D(24,26,27,30)        139.306          estimate D2E/DX2                !
 ! D78   D(24,26,27,31)         34.4247         estimate D2E/DX2                !
 ! D79   D(32,26,27,28)         88.5457         estimate D2E/DX2                !
 ! D80   D(32,26,27,30)        -40.2823         estimate D2E/DX2                !
 ! D81   D(32,26,27,31)       -145.1636         estimate D2E/DX2                !
 ! D82   D(24,26,32,33)        178.6232         estimate D2E/DX2                !
 ! D83   D(24,26,32,35)         12.5614         estimate D2E/DX2                !
 ! D84   D(27,26,32,33)         -1.7879         estimate D2E/DX2                !
 ! D85   D(27,26,32,35)       -167.8497         estimate D2E/DX2                !
 ! D86   D(26,27,28,29)       -174.6744         estimate D2E/DX2                !
 ! D87   D(30,27,28,29)        -52.1071         estimate D2E/DX2                !
 ! D88   D(31,27,28,29)         57.2648         estimate D2E/DX2                !
 ! D89   D(26,32,33,34)        157.847          estimate D2E/DX2                !
 ! D90   D(35,32,33,34)        -36.1574         estimate D2E/DX2                !
 ! D91   D(26,32,35,36)        175.6883         estimate D2E/DX2                !
 ! D92   D(26,32,35,37)        -15.2006         estimate D2E/DX2                !
 ! D93   D(33,32,35,36)          8.522          estimate D2E/DX2                !
 ! D94   D(33,32,35,37)        177.6331         estimate D2E/DX2                !
 ! D95   D(32,35,37,23)          6.8564         estimate D2E/DX2                !
 ! D96   D(32,35,37,38)       -173.9893         estimate D2E/DX2                !
 ! D97   D(36,35,37,23)        177.1792         estimate D2E/DX2                !
 ! D98   D(36,35,37,38)         -3.6665         estimate D2E/DX2                !
 --------------------------------------------------------------------------------
 Trust Radius=3.00D-01 FncErr=1.00D-07 GrdErr=1.00D-06 EigMax=2.50D+02 EigMin=1.00D-04
 Number of steps in this run=    216 maximum allowed number of steps=    234.
 GradGradGradGradGradGradGradGradGradGradGradGradGradGradGradGradGradGrad

 Leave Link  103 at Sun Jul 18 14:43:10 2021, MaxMem=   104857600 cpu:               0.1 elap:               0.0
 (Enter /dades/curu/g16A03_MST/g16/l202.exe)
                          Input orientation:                          
 ---------------------------------------------------------------------
 Center     Atomic      Atomic             Coordinates (Angstroms)
 Number     Number       Type             X           Y           Z
 ---------------------------------------------------------------------
      1          6           0       -0.589000   -0.361000    3.971000
      2          1           0       -0.947000   -1.049000    4.739000
      3          1           0       -1.370000    0.402000    3.982000
      4          1           0        0.343000    0.136000    4.248000
      5          6           0       -0.520000   -1.144000    2.729000
      6          6           0        0.558000   -2.174000    2.927000
      7          1           0        1.518000   -1.658000    2.988000
      8          1           0        0.610000   -2.942000    2.152000
      9          1           0        0.435000   -2.718000    3.866000
     10          6           0       -1.840000   -1.809000    2.383000
     11          1           0       -2.463000   -0.985000    2.030000
     12          1           0       -2.172000   -2.308000    3.295000
     13          1           0       -1.715000   -2.546000    1.587000
     14          7           0        0.000000   -0.335000    1.650000
     15          1           0        0.091000   -0.928000    0.850000
     16          6           0       -0.799000    0.961000    1.190000
     17          1           0       -1.104000    1.567000    2.047000
     18          1           0       -1.676000    0.636000    0.625000
     19          6           0        0.152000    1.899000    0.365000
     20          8           0        1.435000    1.577000    0.885000
     21          1           0        0.971000    0.863000    1.359000
     22          1           0       -0.087000    2.943000    0.583000
     23          6           0        0.125000    1.580000   -1.083000
     24          6           0        0.711000    0.457000   -1.599000
     25          1           0        1.139000   -0.270000   -0.914000
     26          6           0        0.718000    0.181000   -2.962000
     27          6           0        1.374000   -1.024000   -3.471000
     28          8           0        2.721000   -0.774000   -3.821000
     29          1           0        3.067000   -1.588000   -4.228000
     30          1           0        0.718000   -1.418000   -4.251000
     31          1           0        1.302000   -1.885000   -2.802000
     32          6           0        0.084000    1.057000   -3.869000
     33          8           0        0.057000    0.892000   -5.220000
     34          1           0       -0.725000    1.426000   -5.445000
     35          6           0       -0.298000    2.325000   -3.365000
     36          1           0       -0.733000    3.131000   -3.950000
     37          6           0       -0.340000    2.546000   -1.979000
     38          1           0       -0.729000    3.491000   -1.607000
     39          1           0        0.918000   -0.040000    1.915000
 ---------------------------------------------------------------------
                    Distance matrix (angstroms):
                    1          2          3          4          5
     1  C    0.000000
     2  H    1.091482   0.000000
     3  H    1.091902   1.690378   0.000000
     4  H    1.091953   1.819177   1.753819   0.000000
     5  C    1.469835   2.057050   2.163937   2.165763   0.000000
     6  C    2.385899   2.610363   3.386146   2.669713   1.504057
     7  H    2.662320   3.084333   3.684044   2.487300   2.117716
     8  H    3.377562   3.563743   4.295537   3.733442   2.200598
     9  H    2.571974   2.336154   3.606367   2.880921   2.163855
    10  C    2.486654   2.631689   2.768794   3.467959   1.518006
    11  H    2.769248   3.105001   2.632247   3.748306   2.071022
    12  H    2.598783   2.273949   2.908483   3.634084   2.098656
    13  H    3.424260   3.572945   3.813890   4.302256   2.167439
    14  N    2.394710   3.308856   2.803265   2.662535   1.445380
    15  H    3.244153   4.026960   3.703086   3.569594   1.987616
    16  C    3.086381   4.081348   2.904098   3.366920   2.622477
    17  H    2.772036   3.756989   2.274248   2.997661   2.855819
    18  H    3.656678   4.505071   3.379030   4.177618   2.988570
    19  C    4.319713   5.387985   4.200022   4.268763   3.911512
    20  O    4.168431   5.236709   4.340514   3.818208   3.824422
    21  H    3.279378   4.331151   3.545833   3.044542   2.850970
    22  H    4.758883   5.826491   4.433505   4.636418   4.636418
    23  C    5.460787   6.477384   5.410816   5.527406   4.729434
    24  C    5.777891   6.722146   5.956605   5.867357   4.775997
    25  H    5.182421   6.075742   5.542335   5.238769   4.097268
    26  C    7.075910   7.974367   7.254497   7.219886   5.972918
    27  C    7.725044   8.531809   8.069090   7.873470   6.483952
    28  O    8.475962   9.316837   8.888536   8.461191   7.317341
    29  H    9.060655   9.839197   9.542074   9.068348   7.839870
    30  H    8.392067   9.150327   8.686451   8.648037   7.094231
    31  H    7.195275   7.913506   7.641506   7.396392   5.870326
    32  C    7.995577   8.921651   8.011326   8.173189   6.981606
    33  O    9.298484  10.195939   9.324872   9.502439   8.225863
    34  H    9.585036  10.482784   9.504364   9.836614   8.570951
    35  C    7.817683   8.802266   7.669780   7.947350   7.015702
    36  H    8.657773   9.644528   8.412481   8.794032   7.932845
    37  C    6.626851   7.643559   6.418034   6.711938   5.984460
    38  H    6.780235   7.805821   6.417922   6.832733   6.350417
    39  H    2.569285   3.531470   3.114931   2.409251   1.987274
                    6          7          8          9         10
     6  C    0.000000
     7  H    1.091594   0.000000
     8  H    1.092315   1.781015   0.000000
     9  H    1.092147   1.751392   1.737411   0.000000
    10  C    2.485873   3.415405   2.709160   2.863773   0.000000
    11  H    3.368200   4.149585   3.645279   3.843513   1.091657
    12  H    2.757949   3.759368   3.073748   2.700109   1.091315
    13  H    2.664679   3.633681   2.425215   3.137822   1.091975
    14  N    2.307382   2.417622   2.724069   3.283073   2.468920
    15  H    2.466685   2.672129   2.453724   3.524016   2.618208
    16  C    3.832342   3.931978   4.259593   4.713679   3.190585
    17  H    4.187090   4.261571   4.824925   4.902908   3.471594
    18  H    4.264512   4.587793   4.512162   5.119543   3.015872
    19  C    4.828872   4.625833   5.180580   5.801188   4.667939
    20  O    4.359919   3.859368   4.765215   5.322911   4.943139
    21  H    3.442755   3.050949   3.903485   4.404078   4.011219
    22  H    5.665161   5.434082   6.130318   6.564868   5.375362
    23  C    5.510000   5.384992   5.581123   6.562127   5.230650
    24  C    5.237389   5.115178   5.062944   6.326375   5.243918
    25  H    4.326206   4.158821   4.101193   5.416338   4.702464
    26  C    6.344442   6.278887   5.993145   7.423333   6.250799
    27  C    6.551546   6.491639   5.990037   7.588341   6.724235
    28  O    7.223162   6.970735   6.695765   8.251963   7.769399
    29  H    7.604768   7.380715   6.969546   8.585870   8.236068
    30  H    7.219475   7.287024   6.582754   8.225313   7.120829
    31  H    5.784332   5.798473   5.112556   6.775530   6.063181
    32  C    7.539871   7.513057   7.247146   8.614177   7.141655
    33  O    8.719230   8.718273   8.327770   9.784190   8.288523
    34  H    9.203069   9.255139   8.864314  10.257342   8.543186
    35  C    7.782223   7.715099   7.681344   8.846270   7.246187
    36  H    8.780822   8.725673   8.713173   9.831830   8.107770
    37  C    6.866851   6.767338   6.934393   7.904071   6.343743
    38  H    7.369244   7.257771   7.570105   8.358248   6.726397
    39  H    2.389079   2.032056   2.927907   3.348339   3.309826
                   11         12         13         14         15
    11  H    0.000000
    12  H    1.853439   0.000000
    13  H    1.786750   1.784028   0.000000
    14  N    2.575513   3.363977   2.798877   0.000000
    15  H    2.813994   3.606050   2.534310   0.999965   0.000000
    16  C    2.694701   4.123411   3.646329   1.590477   2.115661
    17  H    2.891345   4.208771   4.183502   2.234732   3.014276
    18  H    2.284958   4.005253   3.324468   2.191447   2.370445
    19  C    4.234136   5.628919   4.973630   2.581683   2.868950
    20  O    4.803048   5.823382   5.235879   2.510019   2.842989
    21  H    3.956981   4.866394   4.346017   1.569307   2.059408
    22  H    4.813353   6.266991   5.812703   3.448383   3.884278
    23  C    4.792467   6.289645   5.247702   3.339482   3.166656
    24  C    5.032224   6.317290   5.005405   3.418887   2.881011
    25  H    4.706672   5.729908   4.424985   2.806357   2.154754
    26  C    6.033107   7.327842   5.835188   4.695990   4.019248
    27  C    6.707093   7.746065   6.118968   5.346703   4.508475
    28  O    7.820011   8.771092   7.215576   6.126043   5.362729
    29  H    8.372997   9.195708   7.589434   6.747398   5.922690
    30  H    7.053879   8.129349   6.424494   6.042368   5.162696
    31  H    6.191401   7.030008   5.366799   4.890604   3.964779
    32  C    6.742045   8.230167   6.781294   5.692458   5.119496
    33  O    7.901647   9.365557   7.829117   6.978945   6.337070
    34  H    8.044202   9.613749   8.136701   7.346140   6.770096
    35  C    6.689495   8.326594   7.089205   5.684596   5.338497
    36  H    7.462892   9.172975   7.990683   6.626496   6.339910
    37  C    5.748667   7.398149   6.366745   4.646009   4.500853
    38  H    6.022383   7.729182   6.900667   5.077181   5.122188
    39  H    3.512465   4.073859   3.649700   0.999987   1.614527
                   16         17         18         19         20
    16  C    0.000000
    17  H    1.093028   0.000000
    18  H    1.092693   1.793329   0.000000
    19  C    1.569990   2.125296   2.237041   0.000000
    20  O    2.337357   2.792287   3.260583   1.421328   0.000000
    21  H    1.780748   2.296646   2.756246   1.652904   0.974560
    22  H    2.191738   2.251879   2.801595   1.092969   2.067279
    23  C    2.530507   3.362664   2.655560   1.482968   2.364135
    24  C    3.211329   4.221332   3.267413   2.499828   2.819367
    25  H    3.114165   4.144049   3.333704   2.704546   2.595270
    26  C    4.488741   5.507337   4.336454   3.786926   4.154794
    27  C    5.512447   6.580432   5.369853   4.975149   5.073821
    28  O    6.364805   7.385413   6.410041   5.591716   5.415481
    29  H    7.127277   8.168653   7.140997   6.461582   6.230844
    30  H    6.129063   7.203799   5.807368   5.712294   5.988540
    31  H    5.333852   6.420120   5.193097   5.066660   5.059358
    32  C    5.136379   6.055617   4.844675   4.317446   4.969519
    33  O    6.467271   7.390050   6.101873   5.675852   6.295962
    34  H    6.651686   7.502905   6.194627   5.894825   6.690090
    35  C    4.781163   5.523943   4.546615   3.781121   4.650300
    36  H    5.579682   6.208683   5.295743   4.573869   5.521989
    37  C    3.572879   4.213171   3.494826   2.480929   3.506007
    38  H    3.772136   4.146579   3.745619   2.683171   3.815279
    39  H    2.115589   2.586186   2.974880   2.597879   1.985668
                   21         22         23         24         25
    21  H    0.000000
    22  H    2.459256   0.000000
    23  C    2.682008   2.162931   0.000000
    24  C    2.997032   3.402664   1.367765   0.000000
    25  H    2.545278   3.750660   2.116426   1.086710   0.000000
    26  C    4.381800   4.565489   2.416504   1.390681   2.138912
    27  C    5.201161   5.857177   3.747447   2.477360   2.676189
    28  O    5.707422   6.410629   4.447154   3.239251   3.347744
    29  H    6.450983   7.322800   5.346271   4.079755   4.054245
    30  H    6.061276   6.560023   4.401804   3.247888   3.553972
    31  H    4.997498   6.057816   4.043082   2.698417   2.489847
    32  C    5.306259   4.838031   2.834961   2.430232   3.406755
    33  O    6.642249   6.156472   4.194370   3.705210   4.589401
    34  H    7.034757   6.248609   4.446713   4.218148   5.184677
    35  C    5.105290   4.001643   2.437515   2.761569   3.847908
    36  H    6.019379   4.582657   3.370676   3.842215   4.928335
    37  C    3.961496   2.604892   1.397210   2.369161   3.354329
    38  H    4.312023   2.347034   2.157733   3.358395   4.256148
    39  H    1.061769   3.417973   3.498750   3.555004   2.846925
                   26         27         28         29         30
    26  C    0.000000
    27  C    1.463367   0.000000
    28  O    2.379478   1.414005   0.000000
    29  H    3.201549   1.938400   0.973633   0.000000
    30  H    2.053855   1.092690   2.147474   2.355256   0.000000
    31  H    2.152908   1.092733   2.070324   2.288430   1.630566
    32  C    1.411376   2.480537   3.210706   4.002898   2.583313
    33  O    2.457846   2.909389   3.439426   4.024247   2.590749
    34  H    3.130106   3.782192   4.399124   4.994452   3.405322
    35  C    2.406533   3.744679   4.350414   5.232548   3.978354
    36  H    3.432790   4.683259   5.214958   6.065167   4.784287
    37  C    2.771079   4.231874   4.876995   5.809957   4.689845
    38  H    3.858229   5.318113   5.915617   6.861159   5.760454
    39  H    4.886100   5.494105   6.057331   6.689615   6.321269
                   31         32         33         34         35
    31  H    0.000000
    32  C    3.358181   0.000000
    33  O    3.886963   1.361306   0.000000
    34  H    4.696477   1.809535   0.973296   0.000000
    35  C    4.538840   1.416956   2.370768   2.305847   0.000000
    36  H    5.533479   2.230589   2.692605   2.267623   1.086778
    37  C    4.796588   2.443153   3.660247   3.662756   1.404137
    38  H    5.869784   3.420814   4.519554   4.358266   2.153110
    39  H    5.079525   5.945891   7.246942   7.682331   5.911876
                   36         37         38         39
    36  H    0.000000
    37  C    2.093207   0.000000
    38  H    2.370499   1.087534   0.000000
    39  H    6.868717   4.840785   5.252148   0.000000
 Stoichiometry    C13H22NO3(1+)
 Framework group  C1[X(C13H22NO3)]
 Deg. of freedom   111
 Full point group                 C1      NOp   1
 Largest Abelian subgroup         C1      NOp   1
 Largest concise Abelian subgroup C1      NOp   1
                         Standard orientation:                         
 ---------------------------------------------------------------------
 Center     Atomic      Atomic             Coordinates (Angstroms)
 Number     Number       Type             X           Y           Z
 ---------------------------------------------------------------------
      1          6           0       -4.589527   -0.411119   -0.121946
      2          1           0       -5.539725   -0.033518    0.259987
      3          1           0       -4.557154   -1.407529    0.323442
      4          1           0       -4.592445   -0.548547   -1.205213
      5          6           0       -3.559735    0.512122    0.375617
      6          6           0       -3.804101    1.834977   -0.297085
      7          1           0       -3.590638    1.722699   -1.361699
      8          1           0       -3.222492    2.669353    0.101288
      9          1           0       -4.848065    2.146008   -0.218432
     10          6           0       -3.591418    0.664464    1.885627
     11          1           0       -3.169830   -0.273595    2.251718
     12          1           0       -4.633513    0.858447    2.145198
     13          1           0       -2.970780    1.501586    2.211887
     14          7           0       -2.257192    0.131882   -0.122298
     15          1           0       -1.606086    0.825237    0.186327
     16          6           0       -1.656059   -1.288305    0.266707
     17          1           0       -2.393982   -2.083788    0.134849
     18          1           0       -1.328976   -1.244361    1.308371
     19          6           0       -0.498380   -1.658641   -0.727025
     20          8           0       -0.860487   -0.950474   -1.904968
     21          1           0       -1.551290   -0.546482   -1.348777
     22          1           0       -0.513616   -2.734401   -0.919611
     23          6           0        0.817367   -1.165060   -0.253335
     24          6           0        1.157979    0.159361   -0.279270
     25          1           0        0.407188    0.885504   -0.579218
     26          6           0        2.407207    0.614231    0.128794
     27          6           0        2.734202    2.039202    0.065746
     28          8           0        3.346375    2.378075   -1.163001
     29          1           0        3.612095    3.312787   -1.102449
     30          1           0        3.288560    2.262266    0.980569
     31          1           0        1.887187    2.698595    0.270275
     32          6           0        3.370977   -0.293994    0.616909
     33          8           0        4.627924    0.044857    1.014928
     34          1           0        4.835746   -0.708355    1.595263
     35          6           0        3.107612   -1.670846    0.410317
     36          1           0        3.778819   -2.486430    0.666033
     37          6           0        1.818277   -2.092325    0.047590
     38          1           0        1.608439   -3.157831   -0.010677
     39          1           0       -2.296001    0.175109   -1.120596
 ---------------------------------------------------------------------
 Rotational constants (GHZ):           0.8021613           0.2215623           0.1992391
 Leave Link  202 at Sun Jul 18 14:43:10 2021, MaxMem=   104857600 cpu:               0.0 elap:               0.0
 (Enter /dades/curu/g16A03_MST/g16/l301.exe)
 Standard basis: 6-31G(d) (6D, 7F)
 Ernie: Thresh=  0.10000D-02 Tol=  0.10000D-05 Strict=F.
 There are   299 symmetry adapted cartesian basis functions of A   symmetry.
 There are   299 symmetry adapted basis functions of A   symmetry.
   299 basis functions,   564 primitive gaussians,   299 cartesian basis functions
    65 alpha electrons       65 beta electrons
       nuclear repulsion energy      1281.6506595551 Hartrees.
 IExCor=  402 DFT=T Ex+Corr=B3LYP ExCW=0 ScaHFX=  0.200000
 ScaDFX=  0.800000  0.720000  1.000000  0.810000 ScalE2=  1.000000  1.000000
 IRadAn=      5 IRanWt=     -1 IRanGd=            0 ICorTp=0 IEmpDi=  4
 NAtoms=   39 NActive=   39 NUniq=   39 SFac= 1.00D+00 NAtFMM=   60 NAOKFM=F Big=F
 Integral buffers will be    131072 words long.
 Raffenetti 2 integral format.
 Two-electron integral symmetry is turned on.
 Using the following non-standard input for PCM:
 MSTModel=DFT cav MSTCharged
 --- end of non-standard input.
 MST model for solvation energy: B3LYP parametrization.
 MST cavity parameters:
 ISph   IAn     Re0     Alpha   Atom Type   QCorr
 ------------------------------------------------
   1      6     1.50     1.50      CH3        F
   2      1     1.20     1.50      CH3        F
   3      1     1.20     1.50      CH3        F
   4      1     1.20     1.50      CH3        F
   5      6     1.50     1.50      CN+        F
   6      6     1.50     1.50      CH3        F
   7      1     1.20     1.50      CH3        F
   8      1     1.20     1.50      CH3        F
   9      1     1.20     1.50      CH3        F
  10      6     1.50     1.50      CH3        F
  11      1     1.20     1.50      CH3        F
  12      1     1.20     1.50      CH3        F
  13      1     1.20     1.50      CH3        F
  14      7     1.50     1.15      NH+        T
  15      1     0.90     1.15      NH+        T
  16      6     1.50     1.50      CN+        F
  17      1     1.20     1.50      CN+        F
  18      1     1.20     1.50      CN+        F
  19      6     1.50     1.50      CH         F
  20      8     1.40     1.50      OH         F
  21      1     0.90     1.50      OH         F
  22      1     1.20     1.50      CH         F
  23      6     1.50     1.50      C          F
  24      6     1.50     1.50      CH         F
  25      1     1.20     1.50      CH         F
  26      6     1.50     1.50      C          F
  27      6     1.50     1.50      CH2        F
  28      8     1.40     1.50      OH         F
  29      1     0.90     1.50      OH         F
  30      1     1.20     1.50      CH2        F
  31      1     1.20     1.50      CH2        F
  32      6     1.50     1.50      C          F
  33      8     1.40     1.50      OH         F
  34      1     0.90     1.50      OH         F
  35      6     1.50     1.50      CH         F
  36      1     1.20     1.50      CH         F
  37      6     1.50     1.50      CH         F
  38      1     1.20     1.50      CH         F
  39      1     0.90     1.15      NH+        T
 ------------------------------------------------------------------------------
 Polarizable Continuum Model (PCM)
 =================================
 Model                : PCM.
 Atomic radii         : MST.
 Polarization charges : Total charges.
 Charge compensation  : None.
 Solution method      : On-the-fly selection.
 Cavity type          : Scaled VdW (van der Waals Surface) (Alpha=1.500).
 Cavity algorithm     : GePol (No added spheres)
                        Default sphere list used, NSphG=   39.
                        Lebedev-Laikov grids with approx.  5.0 points / Ang**2.
                        Smoothing algorithm: York/Karplus (Gamma=1.0000).
                        Polarization charges: spherical gaussians, with
                                              point-specific exponents (IZeta= 3).
                        Self-potential: point-specific (ISelfS= 7).
                        Self-field    : sphere-specific E.n sum rule (ISelfD= 2).
 1st derivatives      : Analytical E(r).r(x)/FMM algorithm (CHGder, D1EAlg=3).
                        Cavity 1st derivative terms included.
 Solvent              : n-Octanol, Eps=   9.862900 Eps(inf)=   2.043470
 ------------------------------------------------------------------------------
 GePol: Number of generator spheres                  =      39
 GePol: Total number of spheres                      =      39
 GePol: Number of exposed spheres                    =      39 (100.00%)
 GePol: Number of points                             =    3303
 GePol: Average weight of points                     =       0.11
 GePol: Minimum weight of points                     =   0.18D-08
 GePol: Maximum weight of points                     =    0.20959
 GePol: Number of points with low weight             =     201
 GePol: Fraction of low-weight points (<1% of avg)   =       6.09%
 GePol: Cavity surface area                          =    363.041 Ang**2
 GePol: Cavity volume                                =    414.154 Ang**3
 Surface areas from nonelectrostatic (unscaled) cavity and vdw tensions:
 Sphere =    1 Type =  CH3 Surf =        4.301 Tension =       -0.183
 Sphere =    2 Type =  CH3 Surf =        9.395 Tension =       -0.183
 Sphere =    3 Type =  CH3 Surf =        9.626 Tension =       -0.183
 Sphere =    4 Type =  CH3 Surf =       10.126 Tension =       -0.183
 Sphere =    5 Type =  CN+ Surf =        1.311 Tension =       -0.227
 Sphere =    6 Type =  CH3 Surf =        4.230 Tension =       -0.183
 Sphere =    7 Type =  CH3 Surf =        9.632 Tension =       -0.183
 Sphere =    8 Type =  CH3 Surf =       10.083 Tension =       -0.183
 Sphere =    9 Type =  CH3 Surf =        9.840 Tension =       -0.183
 Sphere =   10 Type =  CH3 Surf =        4.950 Tension =       -0.183
 Sphere =   11 Type =  CH3 Surf =        9.378 Tension =       -0.183
 Sphere =   12 Type =  CH3 Surf =        9.691 Tension =       -0.183
 Sphere =   13 Type =  CH3 Surf =       10.061 Tension =       -0.183
 Sphere =   14 Type =  NH+ Surf =        6.261 Tension =       -0.274
 Sphere =   15 Type =  NH+ Surf =        3.840 Tension =       -0.274
 Sphere =   16 Type =  CN+ Surf =        4.156 Tension =       -0.227
 Sphere =   17 Type =  CN+ Surf =        9.455 Tension =       -0.227
 Sphere =   18 Type =  CN+ Surf =        9.721 Tension =       -0.227
 Sphere =   19 Type =  CH  Surf =        3.325 Tension =       -0.195
 Sphere =   20 Type =  OH  Surf =       14.495 Tension =       -0.238
 Sphere =   21 Type =  OH  Surf =        0.887 Tension =       -0.238
 Sphere =   22 Type =  CH  Surf =        9.763 Tension =       -0.195
 Sphere =   23 Type =  C   Surf =        5.808 Tension =       -0.205
 Sphere =   24 Type =  CH  Surf =        7.379 Tension =       -0.195
 Sphere =   25 Type =  CH  Surf =        9.989 Tension =       -0.195
 Sphere =   26 Type =  C   Surf =        5.903 Tension =       -0.205
 Sphere =   27 Type =  CH2 Surf =        4.339 Tension =       -0.194
 Sphere =   28 Type =  OH  Surf =       14.561 Tension =       -0.238
 Sphere =   29 Type =  OH  Surf =        4.457 Tension =       -0.238
 Sphere =   30 Type =  CH2 Surf =        9.713 Tension =       -0.194
 Sphere =   31 Type =  CH2 Surf =        9.955 Tension =       -0.194
 Sphere =   32 Type =  C   Surf =        6.745 Tension =       -0.205
 Sphere =   33 Type =  OH  Surf =       14.409 Tension =       -0.238
 Sphere =   34 Type =  OH  Surf =        4.311 Tension =       -0.238
 Sphere =   35 Type =  CH  Surf =        7.807 Tension =       -0.195
 Sphere =   36 Type =  CH  Surf =       10.187 Tension =       -0.195
 Sphere =   37 Type =  CH  Surf =        7.593 Tension =       -0.195
 Sphere =   38 Type =  CH  Surf =       10.043 Tension =       -0.195
 Sphere =   39 Type =  NH+ Surf =        2.811 Tension =       -0.274
 PCM non-electrostatic energy =        -0.0179204532 Hartrees.
 Nuclear repulsion after PCM non-electrostatic terms =     1281.6327391018 Hartrees.
 Leave Link  301 at Sun Jul 18 14:43:11 2021, MaxMem=   104857600 cpu:               0.2 elap:               0.2
 (Enter /dades/curu/g16A03_MST/g16/l302.exe)
 NPDir=0 NMtPBC=     1 NCelOv=     1 NCel=       1 NClECP=     1 NCelD=      1
         NCelK=      1 NCelE2=     1 NClLst=     1 CellRange=     0.0.
 One-electron integrals computed using PRISM.
 One-electron integral symmetry used in STVInt
 NBasis=   299 RedAO= T EigKep=  4.66D-04  NBF=   299
 NBsUse=   299 1.00D-06 EigRej= -1.00D+00 NBFU=   299
 Precomputing XC quadrature grid using
 IXCGrd= 4 IRadAn=           5 IRanWt=          -1 IRanGd=           0 AccXCQ= 0.00D+00.
 Generated NRdTot=       0 NPtTot=           0 NUsed=           0 NTot=          32
 NSgBfM=   298   298   298   298   298 MxSgAt=    39 MxSgA2=    39.
 Leave Link  302 at Sun Jul 18 14:43:13 2021, MaxMem=   104857600 cpu:               9.7 elap:               2.6
 (Enter /dades/curu/g16A03_MST/g16/l303.exe)
 DipDrv:  MaxL=1.
 Leave Link  303 at Sun Jul 18 14:43:13 2021, MaxMem=   104857600 cpu:               0.1 elap:               0.1
 (Enter /dades/curu/g16A03_MST/g16/l401.exe)
 ExpMin= 1.61D-01 ExpMax= 5.48D+03 ExpMxC= 8.25D+02 IAcc=3 IRadAn=         5 AccDes= 0.00D+00
 Harris functional with IExCor=  402 and IRadAn=       5 diagonalized for initial guess.
 HarFok:  IExCor=  402 AccDes= 0.00D+00 IRadAn=         5 IDoV= 1 UseB2=F ITyADJ=14
 ICtDFT=  3500011 ScaDFX=  1.000000  1.000000  1.000000  1.000000
 FoFCou: FMM=F IPFlag=           0 FMFlag=      100000 FMFlg1=           0
         NFxFlg=           0 DoJE=T BraDBF=F KetDBF=T FulRan=T
         wScrn=  0.000000 ICntrl=       500 IOpCl=  0 I1Cent=   200000004 NGrid=           0
         NMat0=    1 NMatS0=      1 NMatT0=    0 NMatD0=    1 NMtDS0=    0 NMtDT0=    0
 Petite list used in FoFCou.
 Harris En= -788.773555071314    
 JPrj=0 DoOrth=F DoCkMO=F.
 Leave Link  401 at Sun Jul 18 14:43:22 2021, MaxMem=   104857600 cpu:              33.3 elap:               8.4
 (Enter /dades/curu/g16A03_MST/g16/l502.exe)
 Integral symmetry usage will be decided dynamically.
 Closed shell SCF:
 Using DIIS extrapolation, IDIIS=  1040.
 NGot=   104857600 LenX=   104673418 LenY=   104583576
 Requested convergence on RMS density matrix=1.00D-08 within 128 cycles.
 Requested convergence on MAX density matrix=1.00D-06.
 Requested convergence on             energy=1.00D-06.
 No special actions if energy rises.
 Fock matrices will be formed incrementally for  20 cycles.

 Cycle   1  Pass 1  IDiag  1:
 FoFJK:  IHMeth= 1 ICntrl=       0 DoSepK=F KAlg= 0 I1Cent=           0 FoldK=F
 IRaf= 810000000 NMat=       1 IRICut=       1 DoRegI=T DoRafI=F ISym2E= 0 IDoP0=0 IntGTp=1.
 FoFCou: FMM=F IPFlag=           0 FMFlag=      100000 FMFlg1=           0
         NFxFlg=           0 DoJE=F BraDBF=F KetDBF=F FulRan=T
         wScrn=  0.000000 ICntrl=         0 IOpCl=  0 I1Cent=           0 NGrid=           0
         NMat0=    1 NMatS0=      1 NMatT0=    0 NMatD0=    1 NMtDS0=    0 NMtDT0=    0
 Symmetry not used in FoFCou.
 Inv3:  Mode=1 IEnd=    32729427.
 Iteration    1 A*A^-1 deviation from unit magnitude is 5.77D-15 for   3295.
 Iteration    1 A*A^-1 deviation from orthogonality  is 2.55D-15 for   3303   1583.
 Iteration    1 A^-1*A deviation from unit magnitude is 5.77D-15 for   3295.
 Iteration    1 A^-1*A deviation from orthogonality  is 2.08D-15 for   3287    810.
 E= -788.320737774675    
 DIIS: error= 3.24D-02 at cycle   1 NSaved=   1.
 NSaved= 1 IEnMin= 1 EnMin= -788.320737774675     IErMin= 1 ErrMin= 3.24D-02
 ErrMax= 3.24D-02  0.00D+00 EMaxC= 1.00D-01 BMatC= 4.74D-01 BMatP= 4.74D-01
 IDIUse=3 WtCom= 6.76D-01 WtEn= 3.24D-01
 Coeff-Com:  0.100D+01
 Coeff-En:   0.100D+01
 Coeff:      0.100D+01
 Gap=     0.230 Goal=   None    Shift=    0.000
 GapD=    0.230 DampG=1.000 DampE=0.500 DampFc=0.5000 IDamp=-1.
 Damping current iteration by 5.00D-01
 RMSDP=5.20D-03 MaxDP=1.31D-01              OVMax= 1.73D-01

 Cycle   2  Pass 1  IDiag  1:
 RMSU=  2.58D-03    CP:  9.85D-01
 E= -788.519479392891     Delta-E=       -0.198741618216 Rises=F Damp=T
 DIIS: error= 8.08D-03 at cycle   2 NSaved=   2.
 NSaved= 2 IEnMin= 2 EnMin= -788.519479392891     IErMin= 2 ErrMin= 8.08D-03
 ErrMax= 8.08D-03  0.00D+00 EMaxC= 1.00D-01 BMatC= 2.81D-02 BMatP= 4.74D-01
 IDIUse=3 WtCom= 9.19D-01 WtEn= 8.08D-02
 Coeff-Com:  0.745D-01 0.925D+00
 Coeff-En:   0.112D+00 0.888D+00
 Coeff:      0.776D-01 0.922D+00
 Gap=     0.257 Goal=   None    Shift=    0.000
 RMSDP=1.21D-03 MaxDP=3.12D-02 DE=-1.99D-01 OVMax= 1.07D-01

 Cycle   3  Pass 1  IDiag  1:
 RMSU=  1.15D-03    CP:  9.77D-01  8.71D-01
 E= -788.757222498777     Delta-E=       -0.237743105886 Rises=F Damp=F
 DIIS: error= 4.95D-03 at cycle   3 NSaved=   3.
 NSaved= 3 IEnMin= 3 EnMin= -788.757222498777     IErMin= 3 ErrMin= 4.95D-03
 ErrMax= 4.95D-03  0.00D+00 EMaxC= 1.00D-01 BMatC= 1.41D-02 BMatP= 2.81D-02
 IDIUse=3 WtCom= 9.50D-01 WtEn= 4.95D-02
 Coeff-Com: -0.840D-02 0.396D+00 0.612D+00
 Coeff-En:   0.000D+00 0.000D+00 0.100D+01
 Coeff:     -0.798D-02 0.377D+00 0.631D+00
 Gap=     0.212 Goal=   None    Shift=    0.000
 RMSDP=5.62D-04 MaxDP=2.03D-02 DE=-2.38D-01 OVMax= 3.31D-02

 Cycle   4  Pass 1  IDiag  1:
 RMSU=  4.54D-04    CP:  9.80D-01  9.18D-01  7.37D-01
 E= -788.766057074405     Delta-E=       -0.008834575628 Rises=F Damp=F
 DIIS: error= 1.81D-03 at cycle   4 NSaved=   4.
 NSaved= 4 IEnMin= 4 EnMin= -788.766057074405     IErMin= 4 ErrMin= 1.81D-03
 ErrMax= 1.81D-03  0.00D+00 EMaxC= 1.00D-01 BMatC= 3.30D-03 BMatP= 1.41D-02
 IDIUse=3 WtCom= 9.82D-01 WtEn= 1.81D-02
 Coeff-Com: -0.104D-01 0.741D-01 0.347D+00 0.590D+00
 Coeff-En:   0.000D+00 0.000D+00 0.202D+00 0.798D+00
 Coeff:     -0.102D-01 0.728D-01 0.344D+00 0.593D+00
 Gap=     0.210 Goal=   None    Shift=    0.000
 RMSDP=2.32D-04 MaxDP=7.55D-03 DE=-8.83D-03 OVMax= 1.46D-02

 Cycle   5  Pass 1  IDiag  1:
 RMSU=  1.03D-04    CP:  9.79D-01  9.07D-01  8.03D-01  5.82D-01
 E= -788.768829183879     Delta-E=       -0.002772109474 Rises=F Damp=F
 DIIS: error= 4.32D-04 at cycle   5 NSaved=   5.
 NSaved= 5 IEnMin= 5 EnMin= -788.768829183879     IErMin= 5 ErrMin= 4.32D-04
 ErrMax= 4.32D-04  0.00D+00 EMaxC= 1.00D-01 BMatC= 1.28D-04 BMatP= 3.30D-03
 IDIUse=3 WtCom= 9.96D-01 WtEn= 4.32D-03
 Coeff-Com: -0.405D-02 0.149D-01 0.131D+00 0.280D+00 0.578D+00
 Coeff-En:   0.000D+00 0.000D+00 0.000D+00 0.000D+00 0.100D+01
 Coeff:     -0.403D-02 0.149D-01 0.131D+00 0.279D+00 0.579D+00
 Gap=     0.210 Goal=   None    Shift=    0.000
 RMSDP=5.63D-05 MaxDP=1.81D-03 DE=-2.77D-03 OVMax= 5.44D-03

 Cycle   6  Pass 1  IDiag  1:
 RMSU=  3.77D-05    CP:  9.79D-01  9.09D-01  8.01D-01  6.11D-01  6.19D-01
 E= -788.768936636958     Delta-E=       -0.000107453080 Rises=F Damp=F
 DIIS: error= 2.47D-04 at cycle   6 NSaved=   6.
 NSaved= 6 IEnMin= 6 EnMin= -788.768936636958     IErMin= 6 ErrMin= 2.47D-04
 ErrMax= 2.47D-04  0.00D+00 EMaxC= 1.00D-01 BMatC= 2.06D-05 BMatP= 1.28D-04
 IDIUse=3 WtCom= 9.98D-01 WtEn= 2.47D-03
 Coeff-Com: -0.137D-02 0.191D-02 0.442D-01 0.108D+00 0.337D+00 0.510D+00
 Coeff-En:   0.000D+00 0.000D+00 0.000D+00 0.000D+00 0.112D+00 0.888D+00
 Coeff:     -0.136D-02 0.190D-02 0.441D-01 0.107D+00 0.337D+00 0.511D+00
 Gap=     0.210 Goal=   None    Shift=    0.000
 RMSDP=1.98D-05 MaxDP=7.41D-04 DE=-1.07D-04 OVMax= 2.02D-03

 Cycle   7  Pass 1  IDiag  1:
 RMSU=  8.06D-06    CP:  9.79D-01  9.09D-01  8.05D-01  6.13D-01  6.72D-01
                    CP:  5.57D-01
 E= -788.768956712292     Delta-E=       -0.000020075334 Rises=F Damp=F
 DIIS: error= 4.12D-05 at cycle   7 NSaved=   7.
 NSaved= 7 IEnMin= 7 EnMin= -788.768956712292     IErMin= 7 ErrMin= 4.12D-05
 ErrMax= 4.12D-05  0.00D+00 EMaxC= 1.00D-01 BMatC= 1.05D-06 BMatP= 2.06D-05
 IDIUse=1 WtCom= 1.00D+00 WtEn= 0.00D+00
 Coeff-Com: -0.530D-03 0.223D-03 0.172D-01 0.444D-01 0.154D+00 0.276D+00
 Coeff-Com:  0.508D+00
 Coeff:     -0.530D-03 0.223D-03 0.172D-01 0.444D-01 0.154D+00 0.276D+00
 Coeff:      0.508D+00
 Gap=     0.210 Goal=   None    Shift=    0.000
 RMSDP=4.59D-06 MaxDP=1.78D-04 DE=-2.01D-05 OVMax= 4.34D-04

 Cycle   8  Pass 1  IDiag  1:
 RMSU=  2.73D-06    CP:  9.79D-01  9.09D-01  8.04D-01  6.14D-01  6.74D-01
                    CP:  5.95D-01  5.93D-01
 E= -788.768957668059     Delta-E=       -0.000000955767 Rises=F Damp=F
 DIIS: error= 8.44D-06 at cycle   8 NSaved=   8.
 NSaved= 8 IEnMin= 8 EnMin= -788.768957668059     IErMin= 8 ErrMin= 8.44D-06
 ErrMax= 8.44D-06  0.00D+00 EMaxC= 1.00D-01 BMatC= 7.40D-08 BMatP= 1.05D-06
 IDIUse=1 WtCom= 1.00D+00 WtEn= 0.00D+00
 Coeff-Com: -0.870D-04-0.121D-03 0.287D-02 0.824D-02 0.327D-01 0.701D-01
 Coeff-Com:  0.248D+00 0.638D+00
 Coeff:     -0.870D-04-0.121D-03 0.287D-02 0.824D-02 0.327D-01 0.701D-01
 Coeff:      0.248D+00 0.638D+00
 Gap=     0.210 Goal=   None    Shift=    0.000
 RMSDP=1.20D-06 MaxDP=4.62D-05 DE=-9.56D-07 OVMax= 1.02D-04

 Cycle   9  Pass 1  IDiag  1:
 RMSU=  6.78D-07    CP:  9.79D-01  9.09D-01  8.05D-01  6.14D-01  6.75D-01
                    CP:  5.92D-01  6.50D-01  6.95D-01
 E= -788.768957730724     Delta-E=       -0.000000062664 Rises=F Damp=F
 DIIS: error= 3.87D-06 at cycle   9 NSaved=   9.
 NSaved= 9 IEnMin= 9 EnMin= -788.768957730724     IErMin= 9 ErrMin= 3.87D-06
 ErrMax= 3.87D-06  0.00D+00 EMaxC= 1.00D-01 BMatC= 6.49D-09 BMatP= 7.40D-08
 IDIUse=1 WtCom= 1.00D+00 WtEn= 0.00D+00
 Coeff-Com: -0.179D-05-0.801D-04 0.508D-04 0.551D-03 0.367D-02 0.121D-01
 Coeff-Com:  0.791D-01 0.309D+00 0.596D+00
 Coeff:     -0.179D-05-0.801D-04 0.508D-04 0.551D-03 0.367D-02 0.121D-01
 Coeff:      0.791D-01 0.309D+00 0.596D+00
 Gap=     0.210 Goal=   None    Shift=    0.000
 RMSDP=3.18D-07 MaxDP=1.17D-05 DE=-6.27D-08 OVMax= 2.08D-05

 Cycle  10  Pass 1  IDiag  1:
 RMSU=  2.22D-07    CP:  9.79D-01  9.09D-01  8.05D-01  6.14D-01  6.75D-01
                    CP:  5.94D-01  6.50D-01  7.35D-01  7.35D-01
 E= -788.768957736033     Delta-E=       -0.000000005309 Rises=F Damp=F
 DIIS: error= 1.38D-06 at cycle  10 NSaved=  10.
 NSaved=10 IEnMin=10 EnMin= -788.768957736033     IErMin=10 ErrMin= 1.38D-06
 ErrMax= 1.38D-06  0.00D+00 EMaxC= 1.00D-01 BMatC= 6.61D-10 BMatP= 6.49D-09
 IDIUse=1 WtCom= 1.00D+00 WtEn= 0.00D+00
 Coeff-Com:  0.770D-05-0.261D-04-0.281D-03-0.602D-03-0.163D-02-0.119D-02
 Coeff-Com:  0.135D-01 0.868D-01 0.294D+00 0.610D+00
 Coeff:      0.770D-05-0.261D-04-0.281D-03-0.602D-03-0.163D-02-0.119D-02
 Coeff:      0.135D-01 0.868D-01 0.294D+00 0.610D+00
 Gap=     0.210 Goal=   None    Shift=    0.000
 RMSDP=1.08D-07 MaxDP=3.47D-06 DE=-5.31D-09 OVMax= 9.70D-06

 Cycle  11  Pass 1  IDiag  1:
 RMSU=  5.81D-08    CP:  9.79D-01  9.09D-01  8.05D-01  6.14D-01  6.75D-01
                    CP:  5.94D-01  6.53D-01  7.46D-01  7.84D-01  6.64D-01
 E= -788.768957736544     Delta-E=       -0.000000000511 Rises=F Damp=F
 DIIS: error= 2.74D-07 at cycle  11 NSaved=  11.
 NSaved=11 IEnMin=11 EnMin= -788.768957736544     IErMin=11 ErrMin= 2.74D-07
 ErrMax= 2.74D-07  0.00D+00 EMaxC= 1.00D-01 BMatC= 5.24D-11 BMatP= 6.61D-10
 IDIUse=1 WtCom= 1.00D+00 WtEn= 0.00D+00
 Coeff-Com:  0.386D-05-0.838D-05-0.154D-03-0.356D-03-0.109D-02-0.132D-02
 Coeff-Com:  0.250D-02 0.277D-01 0.118D+00 0.315D+00 0.539D+00
 Coeff:      0.386D-05-0.838D-05-0.154D-03-0.356D-03-0.109D-02-0.132D-02
 Coeff:      0.250D-02 0.277D-01 0.118D+00 0.315D+00 0.539D+00
 Gap=     0.210 Goal=   None    Shift=    0.000
 RMSDP=3.24D-08 MaxDP=1.48D-06 DE=-5.11D-10 OVMax= 3.60D-06

 Cycle  12  Pass 1  IDiag  1:
 RMSU=  2.20D-08    CP:  9.79D-01  9.09D-01  8.05D-01  6.14D-01  6.75D-01
                    CP:  5.94D-01  6.53D-01  7.47D-01  7.84D-01  7.16D-01
                    CP:  6.66D-01
 E= -788.768957736593     Delta-E=       -0.000000000049 Rises=F Damp=F
 DIIS: error= 7.68D-08 at cycle  12 NSaved=  12.
 NSaved=12 IEnMin=12 EnMin= -788.768957736593     IErMin=12 ErrMin= 7.68D-08
 ErrMax= 7.68D-08  0.00D+00 EMaxC= 1.00D-01 BMatC= 4.68D-12 BMatP= 5.24D-11
 IDIUse=1 WtCom= 1.00D+00 WtEn= 0.00D+00
 Coeff-Com:  0.613D-06-0.297D-06-0.335D-04-0.842D-04-0.281D-03-0.404D-03
 Coeff-Com: -0.408D-03 0.212D-02 0.178D-01 0.711D-01 0.260D+00 0.650D+00
 Coeff:      0.613D-06-0.297D-06-0.335D-04-0.842D-04-0.281D-03-0.404D-03
 Coeff:     -0.408D-03 0.212D-02 0.178D-01 0.711D-01 0.260D+00 0.650D+00
 Gap=     0.210 Goal=   None    Shift=    0.000
 RMSDP=1.14D-08 MaxDP=5.59D-07 DE=-4.89D-11 OVMax= 1.66D-06

 Cycle  13  Pass 1  IDiag  1:
 RMSU=  6.69D-09    CP:  9.79D-01  9.09D-01  8.05D-01  6.14D-01  6.75D-01
                    CP:  5.94D-01  6.53D-01  7.47D-01  7.88D-01  7.18D-01
                    CP:  7.61D-01  7.14D-01
 E= -788.768957736587     Delta-E=        0.000000000006 Rises=F Damp=F
 DIIS: error= 3.15D-08 at cycle  13 NSaved=  13.
 NSaved=13 IEnMin=12 EnMin= -788.768957736593     IErMin=13 ErrMin= 3.15D-08
 ErrMax= 3.15D-08  0.00D+00 EMaxC= 1.00D-01 BMatC= 7.40D-13 BMatP= 4.68D-12
 IDIUse=1 WtCom= 1.00D+00 WtEn= 0.00D+00
 Coeff-Com: -0.336D-07 0.612D-06-0.364D-05-0.120D-04-0.474D-04-0.885D-04
 Coeff-Com: -0.451D-03-0.154D-02-0.187D-02 0.787D-02 0.869D-01 0.362D+00
 Coeff-Com:  0.548D+00
 Coeff:     -0.336D-07 0.612D-06-0.364D-05-0.120D-04-0.474D-04-0.885D-04
 Coeff:     -0.451D-03-0.154D-02-0.187D-02 0.787D-02 0.869D-01 0.362D+00
 Coeff:      0.548D+00
 Gap=     0.210 Goal=   None    Shift=    0.000
 RMSDP=3.39D-09 MaxDP=1.07D-07 DE= 5.91D-12 OVMax= 4.10D-07

 Error on total polarization charges =  0.00915
 SCF Done:  E(RB3LYP) =  -788.768957737     A.U. after   13 cycles
            NFock= 13  Conv=0.34D-08     -V/T= 2.0081
 KE= 7.824054056485D+02 PE=-4.380101694627D+03 EE= 1.527294592140D+03
 Leave Link  502 at Sun Jul 18 14:47:24 2021, MaxMem=   104857600 cpu:             940.5 elap:             242.7
 (Enter /dades/curu/g16A03_MST/g16/l601.exe)
 Copying SCF densities to generalized density rwf, IOpCl= 0 IROHF=0.

 **********************************************************************

            Population analysis using the SCF density.

 **********************************************************************

 Orbital symmetries:
       Occupied  (A) (A) (A) (A) (A) (A) (A) (A) (A) (A) (A) (A)
                 (A) (A) (A) (A) (A) (A) (A) (A) (A) (A) (A) (A)
                 (A) (A) (A) (A) (A) (A) (A) (A) (A) (A) (A) (A)
                 (A) (A) (A) (A) (A) (A) (A) (A) (A) (A) (A) (A)
                 (A) (A) (A) (A) (A) (A) (A) (A) (A) (A) (A) (A)
                 (A) (A) (A) (A) (A)
       Virtual   (A) (A) (A) (A) (A) (A) (A) (A) (A) (A) (A) (A)
                 (A) (A) (A) (A) (A) (A) (A) (A) (A) (A) (A) (A)
                 (A) (A) (A) (A) (A) (A) (A) (A) (A) (A) (A) (A)
                 (A) (A) (A) (A) (A) (A) (A) (A) (A) (A) (A) (A)
                 (A) (A) (A) (A) (A) (A) (A) (A) (A) (A) (A) (A)
                 (A) (A) (A) (A) (A) (A) (A) (A) (A) (A) (A) (A)
                 (A) (A) (A) (A) (A) (A) (A) (A) (A) (A) (A) (A)
                 (A) (A) (A) (A) (A) (A) (A) (A) (A) (A) (A) (A)
                 (A) (A) (A) (A) (A) (A) (A) (A) (A) (A) (A) (A)
                 (A) (A) (A) (A) (A) (A) (A) (A) (A) (A) (A) (A)
                 (A) (A) (A) (A) (A) (A) (A) (A) (A) (A) (A) (A)
                 (A) (A) (A) (A) (A) (A) (A) (A) (A) (A) (A) (A)
                 (A) (A) (A) (A) (A) (A) (A) (A) (A) (A) (A) (A)
                 (A) (A) (A) (A) (A) (A) (A) (A) (A) (A) (A) (A)
                 (A) (A) (A) (A) (A) (A) (A) (A) (A) (A) (A) (A)
                 (A) (A) (A) (A) (A) (A) (A) (A) (A) (A) (A) (A)
                 (A) (A) (A) (A) (A) (A) (A) (A) (A) (A) (A) (A)
                 (A) (A) (A) (A) (A) (A) (A) (A) (A) (A) (A) (A)
                 (A) (A) (A) (A) (A) (A) (A) (A) (A) (A) (A) (A)
                 (A) (A) (A) (A) (A) (A)
 The electronic state is 1-A.
 Alpha  occ. eigenvalues --  -19.19489 -19.18291 -19.15228 -14.50755 -10.29889
 Alpha  occ. eigenvalues --  -10.29020 -10.28772 -10.27117 -10.23655 -10.22169
 Alpha  occ. eigenvalues --  -10.21673 -10.21543 -10.21154 -10.21057 -10.20964
 Alpha  occ. eigenvalues --  -10.20696 -10.20611  -1.12229  -1.08093  -1.05905
 Alpha  occ. eigenvalues --   -1.02513  -0.88017  -0.87357  -0.81708  -0.78646
 Alpha  occ. eigenvalues --   -0.76703  -0.75304  -0.73850  -0.70046  -0.68837
 Alpha  occ. eigenvalues --   -0.66653  -0.65339  -0.62609  -0.59811  -0.55927
 Alpha  occ. eigenvalues --   -0.55518  -0.55143  -0.53123  -0.52248  -0.51630
 Alpha  occ. eigenvalues --   -0.50822  -0.48777  -0.48245  -0.46568  -0.46259
 Alpha  occ. eigenvalues --   -0.45464  -0.44199  -0.44092  -0.43292  -0.42835
 Alpha  occ. eigenvalues --   -0.42559  -0.41923  -0.40642  -0.39689  -0.39581
 Alpha  occ. eigenvalues --   -0.39135  -0.38212  -0.37391  -0.36783  -0.34978
 Alpha  occ. eigenvalues --   -0.33652  -0.31418  -0.27170  -0.26818  -0.24299
 Alpha virt. eigenvalues --   -0.03299  -0.02214   0.00216   0.03146   0.05377
 Alpha virt. eigenvalues --    0.05900   0.06757   0.07518   0.07648   0.08366
 Alpha virt. eigenvalues --    0.08797   0.09960   0.10961   0.12108   0.12576
 Alpha virt. eigenvalues --    0.13213   0.13704   0.13994   0.14678   0.14980
 Alpha virt. eigenvalues --    0.16417   0.16741   0.17035   0.17636   0.18866
 Alpha virt. eigenvalues --    0.19581   0.19958   0.20361   0.21242   0.21795
 Alpha virt. eigenvalues --    0.22755   0.22941   0.24455   0.26587   0.27786
 Alpha virt. eigenvalues --    0.30916   0.32778   0.33140   0.34520   0.37281
 Alpha virt. eigenvalues --    0.43489   0.44379   0.45366   0.46105   0.48143
 Alpha virt. eigenvalues --    0.48597   0.49170   0.50991   0.51154   0.52358
 Alpha virt. eigenvalues --    0.53332   0.53678   0.54781   0.55784   0.56742
 Alpha virt. eigenvalues --    0.57534   0.57991   0.58304   0.59599   0.61213
 Alpha virt. eigenvalues --    0.61650   0.62935   0.63549   0.64179   0.66153
 Alpha virt. eigenvalues --    0.67149   0.68885   0.69611   0.70051   0.72130
 Alpha virt. eigenvalues --    0.73714   0.74209   0.75497   0.76522   0.78909
 Alpha virt. eigenvalues --    0.79132   0.79840   0.80516   0.81675   0.82304
 Alpha virt. eigenvalues --    0.82845   0.83654   0.84044   0.84252   0.85378
 Alpha virt. eigenvalues --    0.85977   0.86310   0.86631   0.87720   0.88075
 Alpha virt. eigenvalues --    0.89239   0.89873   0.90887   0.91855   0.92223
 Alpha virt. eigenvalues --    0.92985   0.93725   0.94334   0.94775   0.96234
 Alpha virt. eigenvalues --    0.97218   0.97395   0.98287   0.99490   0.99778
 Alpha virt. eigenvalues --    1.00424   1.02605   1.03481   1.06520   1.07095
 Alpha virt. eigenvalues --    1.08305   1.11309   1.11396   1.13968   1.17743
 Alpha virt. eigenvalues --    1.18341   1.19459   1.20576   1.24277   1.26079
 Alpha virt. eigenvalues --    1.27619   1.31953   1.32969   1.34743   1.38688
 Alpha virt. eigenvalues --    1.40707   1.41724   1.46002   1.46672   1.47448
 Alpha virt. eigenvalues --    1.48189   1.49973   1.51156   1.52045   1.56933
 Alpha virt. eigenvalues --    1.62060   1.62983   1.63637   1.65896   1.66879
 Alpha virt. eigenvalues --    1.69130   1.70088   1.71646   1.72700   1.74232
 Alpha virt. eigenvalues --    1.74697   1.76984   1.77719   1.78692   1.79931
 Alpha virt. eigenvalues --    1.82043   1.82788   1.83950   1.85640   1.87810
 Alpha virt. eigenvalues --    1.88355   1.88646   1.89887   1.91044   1.94330
 Alpha virt. eigenvalues --    1.94640   1.96651   1.97487   2.00103   2.01972
 Alpha virt. eigenvalues --    2.03756   2.04720   2.07348   2.07845   2.08975
 Alpha virt. eigenvalues --    2.09448   2.11643   2.13418   2.14158   2.15162
 Alpha virt. eigenvalues --    2.20217   2.20514   2.21443   2.21624   2.22944
 Alpha virt. eigenvalues --    2.24073   2.25265   2.26099   2.28441   2.29101
 Alpha virt. eigenvalues --    2.31764   2.33550   2.35184   2.36232   2.39652
 Alpha virt. eigenvalues --    2.43141   2.43734   2.43914   2.44737   2.46647
 Alpha virt. eigenvalues --    2.48674   2.51766   2.56817   2.59511   2.59747
 Alpha virt. eigenvalues --    2.63440   2.65832   2.67529   2.68365   2.71949
 Alpha virt. eigenvalues --    2.73333   2.74575   2.79076   2.79396   2.82520
 Alpha virt. eigenvalues --    2.84767   2.88091   2.91009   2.94882   2.97067
 Alpha virt. eigenvalues --    3.15735   3.39314   3.69920   3.89086   3.93421
 Alpha virt. eigenvalues --    4.08294   4.09206   4.14722   4.19343   4.20685
 Alpha virt. eigenvalues --    4.25759   4.26846   4.29247   4.30515   4.39174
 Alpha virt. eigenvalues --    4.48038   4.53232   4.62123   4.75430
          Condensed to atoms (all electrons):
               1          2          3          4          5          6
     1  C    5.190228   0.375591   0.365905   0.371487   0.406389  -0.087452
     2  H    0.375591   0.500096  -0.028902  -0.015308  -0.027393  -0.008099
     3  H    0.365905  -0.028902   0.533789  -0.029929  -0.028470   0.006961
     4  H    0.371487  -0.015308  -0.029929   0.515371  -0.028386  -0.007119
     5  C    0.406389  -0.027393  -0.028470  -0.028386   4.834623   0.395441
     6  C   -0.087452  -0.008099   0.006961  -0.007119   0.395441   5.228282
     7  H   -0.006260  -0.000043  -0.000178   0.003544  -0.032064   0.362246
     8  H    0.006318   0.000162  -0.000210   0.000031  -0.025697   0.367114
     9  H   -0.005673   0.003375   0.000173  -0.000077  -0.026334   0.376908
    10  C   -0.068854  -0.006230  -0.004400   0.005490   0.389622  -0.069075
    11  H   -0.005032  -0.000115   0.003103  -0.000170  -0.035976   0.006699
    12  H   -0.006599   0.004769  -0.000116   0.000119  -0.028266  -0.002399
    13  H    0.005719   0.000003  -0.000048  -0.000171  -0.026063  -0.007724
    14  N   -0.076093   0.005766  -0.003946  -0.002860   0.179505  -0.085096
    15  H    0.006194  -0.000129  -0.000179  -0.000080  -0.019297  -0.003993
    16  C   -0.005103   0.000204   0.001295  -0.000243  -0.031128   0.005813
    17  H    0.004521  -0.000060   0.003423  -0.000175  -0.003186   0.000122
    18  H   -0.000192  -0.000010   0.000003   0.000017  -0.000818  -0.000083
    19  C   -0.000182  -0.000001  -0.000064  -0.000022   0.003775  -0.000139
    20  O    0.000115   0.000001   0.000000  -0.000036   0.001357   0.000007
    21  H    0.000115   0.000005   0.000107   0.000729  -0.006147  -0.001388
    22  H   -0.000026  -0.000000   0.000004  -0.000012   0.000107   0.000003
    23  C    0.000021   0.000000  -0.000003   0.000006  -0.000672  -0.000005
    24  C   -0.000007   0.000000   0.000000  -0.000001   0.000190  -0.000002
    25  H   -0.000006  -0.000000  -0.000000  -0.000001   0.000338  -0.000005
    26  C    0.000000  -0.000000   0.000000  -0.000000   0.000005  -0.000000
    27  C   -0.000000  -0.000000  -0.000000   0.000000  -0.000000  -0.000000
    28  O   -0.000000   0.000000  -0.000000   0.000000   0.000000  -0.000000
    29  H    0.000000  -0.000000   0.000000   0.000000  -0.000000   0.000000
    30  H    0.000000   0.000000   0.000000   0.000000  -0.000000   0.000000
    31  H    0.000000   0.000000  -0.000000  -0.000000  -0.000000   0.000000
    32  C    0.000000   0.000000  -0.000000  -0.000000   0.000000   0.000000
    33  O    0.000000   0.000000   0.000000   0.000000  -0.000000   0.000000
    34  H   -0.000000   0.000000   0.000000  -0.000000   0.000000   0.000000
    35  C    0.000000   0.000000   0.000000  -0.000000  -0.000000   0.000000
    36  H   -0.000000  -0.000000  -0.000000  -0.000000   0.000000  -0.000000
    37  C   -0.000000   0.000000  -0.000000  -0.000000   0.000002  -0.000000
    38  H    0.000000  -0.000000  -0.000000   0.000000   0.000000  -0.000000
    39  H   -0.002566  -0.000051  -0.000690   0.003960  -0.010305   0.002105
               7          8          9         10         11         12
     1  C   -0.006260   0.006318  -0.005673  -0.068854  -0.005032  -0.006599
     2  H   -0.000043   0.000162   0.003375  -0.006230  -0.000115   0.004769
     3  H   -0.000178  -0.000210   0.000173  -0.004400   0.003103  -0.000116
     4  H    0.003544   0.000031  -0.000077   0.005490  -0.000170   0.000119
     5  C   -0.032064  -0.025697  -0.026334   0.389622  -0.035976  -0.028266
     6  C    0.362246   0.367114   0.376908  -0.069075   0.006699  -0.002399
     7  H    0.530639  -0.025152  -0.020700   0.006330  -0.000307  -0.000072
     8  H   -0.025152   0.517578  -0.024628  -0.006906   0.000056  -0.000105
     9  H   -0.020700  -0.024628   0.492963  -0.001574  -0.000044   0.001329
    10  C    0.006330  -0.006906  -0.001574   5.143546   0.365024   0.378415
    11  H   -0.000307   0.000056  -0.000044   0.365024   0.533025  -0.013345
    12  H   -0.000072  -0.000105   0.001329   0.378415  -0.013345   0.486836
    13  H    0.000067   0.004450  -0.000166   0.370207  -0.027364  -0.023047
[...]
    36  H    0.000072   0.000173  -0.000019   0.000207  -0.000615   0.000081
    37  C    0.001476  -0.011560  -0.001752  -0.049215  -0.017212   0.002759
    38  H    0.000087  -0.000672   0.000005   0.002649   0.003788   0.000142
    39  H   -0.009481  -0.003972   0.004380  -0.008391   0.007828  -0.001434
              13         14         15         16         17         18
     1  C   -0.000796   0.101241  -0.010244  -0.005612   0.013688  -0.019257
     2  H    0.004685   0.134772  -0.002300  -0.046560   0.012941  -0.007349
     3  H    0.016290  -0.098810   0.010537   0.109128  -0.036718  -0.005011
     4  H   -0.010062  -0.119739   0.000454   0.047553   0.009621   0.000247
     5  C    0.109270  -2.498135   0.016038  -0.165228   0.053652  -0.008840
     6  C   -0.037549   0.184035  -0.033299   0.025436   0.028540   0.011515
     7  H    0.011644  -0.001316   0.003300  -0.027603  -0.001640  -0.000081
     8  H   -0.034503  -0.178877   0.021394   0.010320   0.006936   0.003429
     9  H    0.004372   0.072902  -0.020271   0.030563  -0.002106   0.000944
    10  C    0.140471   0.121369   0.007971  -0.017470   0.008134  -0.011588
    11  H   -0.257836  -0.109445  -0.001841   0.037786  -0.014892  -0.010914
    12  H   -0.299438   0.124426  -0.009140  -0.042203   0.003084   0.009517
    13  H    1.346701  -0.085494   0.026151   0.076139   0.000245  -0.013580
    14  N   -0.085494  10.389883   0.145577  -0.788573  -0.175879  -0.063911
    15  H    0.026151   0.145577   0.704414   0.098835   0.032108  -0.054734
    16  C    0.076139  -0.788573   0.098835   6.853837  -0.076948   0.184679
    17  H    0.000245  -0.175879   0.032108  -0.076948   1.881338  -0.331235
    18  H   -0.013580  -0.063911  -0.054734   0.184679  -0.331235   1.889729
    19  C    0.019014   0.042190  -0.161674   0.014502  -0.126763  -0.009790
    20  O   -0.000654   0.015568   0.005022   0.149885   0.024092   0.017904
    21  H    0.000443  -0.004348  -0.000455  -0.056008   0.014017   0.004691
    22  H    0.000211   0.121110   0.004506   0.149300  -0.123101  -0.012911
    23  C   -0.013382  -0.066248   0.210655  -0.421652   0.231118  -0.241438
    24  C    0.001494  -0.120005  -0.045187  -0.503216  -0.031073  -0.011546
    25  H   -0.001259  -0.048278   0.010733   0.066797   0.004797   0.002404
    26  C   -0.001975  -0.171690   0.063292  -0.055049   0.038270  -0.039013
    27  C    0.000953   0.006859  -0.020525  -0.069346   0.000439  -0.007068
    28  O   -0.000010  -0.000931   0.000475   0.001155  -0.000083  -0.000095
    29  H    0.000001  -0.000087   0.000102  -0.000143   0.000007  -0.000010
    30  H    0.000015  -0.000758  -0.003155  -0.000232  -0.000039   0.000283
    31  H    0.000146   0.003824  -0.001342  -0.002559   0.000294  -0.000082
    32  C   -0.000281  -0.012053  -0.026315  -0.087491  -0.015558   0.018242
    33  O    0.000063   0.000638  -0.001814   0.001720   0.000265  -0.000003
    34  H    0.000039   0.000584   0.000213  -0.000729  -0.000006  -0.000410
    35  C   -0.006730   0.090239   0.070933   0.218155   0.002811   0.038192
    36  H    0.000262  -0.003688  -0.002292   0.011312   0.000855   0.004226
    37  C    0.003473   0.270760  -0.146332  -0.646965  -0.173428  -0.023953
    38  H   -0.007722   0.002899   0.015379   0.167771   0.012575  -0.019616
    39  H   -0.002983   0.332148  -0.097264   0.037592  -0.047959   0.063492
              19         20         21         22         23         24
     1  C    0.001204   0.005520  -0.001128   0.001019   0.034093   0.017920
     2  H    0.021100   0.000252   0.000855   0.000090  -0.010761   0.001494
     3  H   -0.043298   0.003119  -0.004046   0.005630   0.025431   0.003385
     4  H   -0.023305  -0.003106   0.000674  -0.001560   0.023121  -0.005195
     5  C   -0.188447  -0.034530   0.001295  -0.002420  -0.005327   0.024232
     6  C   -0.018959   0.008342  -0.001063  -0.002431  -0.045352  -0.015382
     7  H    0.009395   0.000878  -0.000100   0.000289  -0.006632  -0.003071
     8  H    0.003158  -0.003191   0.000044  -0.001049   0.004139  -0.013649
     9  H   -0.005985   0.001166   0.000030   0.000297   0.000081   0.002210
    10  C    0.022886   0.004334   0.000911  -0.001925   0.031804   0.010095
    11  H   -0.017315   0.000649   0.000107  -0.002256   0.044810  -0.002416
    12  H    0.001056  -0.000126  -0.000016   0.000316  -0.008605  -0.003124
    13  H    0.019014  -0.000654   0.000443   0.000211  -0.013382   0.001494
    14  N    0.042190   0.015568  -0.004348   0.121110  -0.066248  -0.120005
    15  H   -0.161674   0.005022  -0.000455   0.004506   0.210655  -0.045187
    16  C    0.014502   0.149885  -0.056008   0.149300  -0.421652  -0.503216
    17  H   -0.126763   0.024092   0.014017  -0.123101   0.231118  -0.031073
    18  H   -0.009790   0.017904   0.004691  -0.012911  -0.241438  -0.011546
    19  C   10.803583  -0.296646   0.045011  -0.487295  -1.777319  -1.889142
    20  O   -0.296646   8.832489   0.388189  -0.128984  -0.106164   0.458895
    21  H    0.045011   0.388189   0.480100  -0.066341  -0.058406   0.050956
    22  H   -0.487295  -0.128984  -0.066341   1.557267  -0.111626  -0.152841
    23  C   -1.777319  -0.106164  -0.058406  -0.111626  25.803279  -5.484661
    24  C   -1.889142   0.458895   0.050956  -0.152841  -5.484661  26.358326
    25  H    0.074208  -0.078629   0.001408   0.003794   1.058427  -2.138551
    26  C   -0.202797  -0.123141   0.036788  -0.104193   2.556864  -5.400456
    27  C   -0.107556  -0.029753   0.001537   0.002250  -1.556978  -0.880071
    28  O   -0.009384   0.000964  -0.000188  -0.000340  -0.010811  -0.157859
    29  H   -0.000741  -0.000021   0.000035  -0.000002  -0.005355  -0.012034
    30  H    0.004854  -0.000628  -0.000070   0.000109  -0.093102  -0.038848
    31  H    0.017076  -0.001962   0.000464   0.000042   0.217447   0.300755
    32  C   -0.067123   0.018387  -0.002356   0.026178  -7.172841   1.657739
    33  O    0.012451  -0.000298   0.000115   0.000088   0.234868  -0.177281
    34  H   -0.002563   0.000304  -0.000019  -0.000263  -0.010031   0.082606
    35  C    0.255844  -0.056595  -0.007072   0.091802   1.129118  -6.669746
    36  H    0.036090  -0.000845  -0.000074   0.001199  -0.382730   0.122941
    37  C   -0.640255  -0.145941  -0.058517   0.389424  -9.569170   0.171187
    38  H   -0.121868   0.009388  -0.000588  -0.014510   0.794938   0.001589
    39  H   -0.050051  -0.017293  -0.003571   0.010704  -0.031995  -0.044881
              25         26         27         28         29         30
     1  C    0.000176  -0.001358   0.000165   0.000004  -0.000004   0.000059
     2  H   -0.000123  -0.000405  -0.000004  -0.000001  -0.000000   0.000001
     3  H   -0.000540  -0.003069  -0.000230   0.000006  -0.000002   0.000007
     4  H    0.000161   0.002704   0.000330   0.000002   0.000002  -0.000004
     5  C   -0.030015  -0.057104   0.000817  -0.000098   0.000001  -0.000586
     6  C   -0.000768  -0.000613   0.001816  -0.000019  -0.000013   0.000376
     7  H    0.000929  -0.001112  -0.000626   0.000027   0.000007  -0.000045
     8  H   -0.002458   0.003780   0.000245  -0.000014  -0.000020   0.000280
     9  H   -0.000459  -0.000086   0.000272  -0.000004  -0.000001   0.000015
    10  C    0.001833   0.020503   0.000521   0.000017   0.000007  -0.000067
    11  H    0.000129   0.005757  -0.000145   0.000006   0.000002  -0.000054
    12  H    0.000129  -0.000166   0.000019   0.000001  -0.000000   0.000014
    13  H   -0.001259  -0.001975   0.000953  -0.000010   0.000001   0.000015
    14  N   -0.048278  -0.171690   0.006859  -0.000931  -0.000087  -0.000758
    15  H    0.010733   0.063292  -0.020525   0.000475   0.000102  -0.003155
    16  C    0.066797  -0.055049  -0.069346   0.001155  -0.000143  -0.000232
    17  H    0.004797   0.038270   0.000439  -0.000083   0.000007  -0.000039
    18  H    0.002404  -0.039013  -0.007068  -0.000095  -0.000010   0.000283
    19  C    0.074208  -0.202797  -0.107556  -0.009384  -0.000741   0.004854
    20  O   -0.078629  -0.123141  -0.029753   0.000964  -0.000021  -0.000628
    21  H    0.001408   0.036788   0.001537  -0.000188   0.000035  -0.000070
    22  H    0.003794  -0.104193   0.002250  -0.000340  -0.000002   0.000109
    23  C    1.058427   2.556864  -1.556978  -0.010811  -0.005355  -0.093102
    24  C   -2.138551  -5.400456  -0.880071  -0.157859  -0.012034  -0.038848
    25  H    2.574497   0.656378  -0.152973  -0.010405  -0.003918   0.007328
    26  C    0.656378  20.733004  -1.092074   0.169874   0.035988  -0.297975
    27  C   -0.152973  -1.092074   6.661433   0.187584  -0.012544   0.185692
    28  O   -0.010405   0.169874   0.187584   8.321339   0.380798  -0.006017
    29  H   -0.003918   0.035988  -0.012544   0.380798   0.540657  -0.027794
    30  H    0.007328  -0.297975   0.185692  -0.006017  -0.027794   0.994545
    31  H   -0.030206   0.115052  -0.075770  -0.026734  -0.002865  -0.044857
    32  C   -0.370776  -5.414471   0.619764  -0.104949  -0.023709   0.317959
    33  O   -0.005130   0.253088   0.070988  -0.011328  -0.000017  -0.028515
    34  H   -0.001763  -0.029853  -0.032663   0.000948  -0.000326  -0.004979
    35  C    0.116122   0.465423   0.430761  -0.014143  -0.002612   0.091264
    36  H    0.010746  -0.247404   0.010454   0.001070  -0.000104   0.004914
    37  C    0.118422  -6.015975   0.565607  -0.036773   0.001992   0.040666
    38  H   -0.022886  -0.075069  -0.014983  -0.000295   0.000035  -0.001211
    39  H   -0.000843  -0.063283  -0.005853  -0.000400  -0.000145   0.000653
              31         32         33         34         35         36
     1  C    0.000119   0.004372  -0.000021   0.000018  -0.019569  -0.000399
     2  H    0.000005   0.000235  -0.000002   0.000001  -0.000399  -0.000014
     3  H   -0.000066   0.001662  -0.000015   0.000007  -0.001950  -0.000042
     4  H    0.000070  -0.000010  -0.000002  -0.000001  -0.001073  -0.000010
     5  C    0.002308   0.040002  -0.000161   0.000445   0.004185  -0.000376
     6  C   -0.000049  -0.004480   0.000105  -0.000113   0.001919   0.000462
     7  H   -0.000558  -0.001007  -0.000025  -0.000014   0.002266   0.000072
     8  H    0.000532  -0.002722   0.000197  -0.000060   0.001366   0.000173
     9  H    0.000124   0.000394   0.000005   0.000002  -0.001337  -0.000019
    10  C   -0.000053  -0.016893   0.000183  -0.000074   0.012136   0.000207
    11  H   -0.000010  -0.002818  -0.000009   0.000000  -0.001425  -0.000615
    12  H   -0.000017  -0.000994   0.000022  -0.000011   0.004160   0.000081
    13  H    0.000146  -0.000281   0.000063   0.000039  -0.006730   0.000262
    14  N    0.003824  -0.012053   0.000638   0.000584   0.090239  -0.003688
    15  H   -0.001342  -0.026315  -0.001814   0.000213   0.070933  -0.002292
    16  C   -0.002559  -0.087491   0.001720  -0.000729   0.218155   0.011312
    17  H    0.000294  -0.015558   0.000265  -0.000006   0.002811   0.000855
    18  H   -0.000082   0.018242  -0.000003  -0.000410   0.038192   0.004226
    19  C    0.017076  -0.067123   0.012451  -0.002563   0.255844   0.036090
    20  O   -0.001962   0.018387  -0.000298   0.000304  -0.056595  -0.000845
    21  H    0.000464  -0.002356   0.000115  -0.000019  -0.007072  -0.000074
    22  H    0.000042   0.026178   0.000088  -0.000263   0.091802   0.001199
    23  C    0.217447  -7.172841   0.234868  -0.010031   1.129118  -0.382730
    24  C    0.300755   1.657739  -0.177281   0.082606  -6.669746   0.122941
    25  H   -0.030206  -0.370776  -0.005130  -0.001763   0.116122   0.010746
    26  C    0.115052  -5.414471   0.253088  -0.029853   0.465423  -0.247404
    27  C   -0.075770   0.619764   0.070988  -0.032663   0.430761   0.010454
    28  O   -0.026734  -0.104949  -0.011328   0.000948  -0.014143   0.001070
    29  H   -0.002865  -0.023709  -0.000017  -0.000326  -0.002612  -0.000104
    30  H   -0.044857   0.317959  -0.028515  -0.004979   0.091264   0.004914
    31  H    1.009298  -0.240901   0.008346   0.001827  -0.077617  -0.001133
    32  C   -0.240901  20.203173  -1.412615   0.033455  -5.509193   1.250314
    33  O    0.008346  -1.412615   9.209169   0.266692   0.712527  -0.141598
    34  H    0.001827   0.033455   0.266692   0.536778  -0.104146   0.008078
    35  C   -0.077617  -5.509193   0.712527  -0.104146  19.449680  -1.544556
    36  H   -0.001133   1.250314  -0.141598   0.008078  -1.544556   2.036797
    37  C    0.000682   1.502681  -0.014436   0.014173  -4.089712   0.584524
    38  H   -0.002326  -0.207376   0.002773  -0.000274   0.745572  -0.126781
    39  H    0.000771   0.002361   0.000360   0.000066   0.000854   0.000097
              37         38         39
     1  C    0.012437   0.000667   0.005328
     2  H    0.001872   0.000146  -0.004327
     3  H   -0.000162  -0.000712  -0.012986
     4  H   -0.001445  -0.000092   0.017925
     5  C   -0.055760   0.005352  -0.028945
     6  C   -0.019593  -0.000538  -0.002350
     7  H    0.001476   0.000087  -0.009481
     8  H   -0.011560  -0.000672  -0.003972
     9  H   -0.001752   0.000005   0.004380
    10  C   -0.049215   0.002649  -0.008391
    11  H   -0.017212   0.003788   0.007828
    12  H    0.002759   0.000142  -0.001434
    13  H    0.003473  -0.007722  -0.002983
    14  N    0.270760   0.002899   0.332148
    15  H   -0.146332   0.015379  -0.097264
    16  C   -0.646965   0.167771   0.037592
    17  H   -0.173428   0.012575  -0.047959
    18  H   -0.023953  -0.019616   0.063492
    19  C   -0.640255  -0.121868  -0.050051
    20  O   -0.145941   0.009388  -0.017293
    21  H   -0.058517  -0.000588  -0.003571
    22  H    0.389424  -0.014510   0.010704
    23  C   -9.569170   0.794938  -0.031995
    24  C    0.171187   0.001589  -0.044881
    25  H    0.118422  -0.022886  -0.000843
    26  C   -6.015975  -0.075069  -0.063283
    27  C    0.565607  -0.014983  -0.005853
    28  O   -0.036773  -0.000295  -0.000400
    29  H    0.001992   0.000035  -0.000145
    30  H    0.040666  -0.001211   0.000653
    31  H    0.000682  -0.002326   0.000771
    32  C    1.502681  -0.207376   0.002361
    33  O   -0.014436   0.002773   0.000360
    34  H    0.014173  -0.000274   0.000066
    35  C   -4.089712   0.745572   0.000854
    36  H    0.584524  -0.126781   0.000097
    37  C   25.584747  -1.761382   0.067561
    38  H   -1.761382   2.375777   0.001514
    39  H    0.067561   0.001514   0.628109
 Mulliken charges:
               1
     1  C    1.311403
     2  H    0.009026
     3  H   -0.025653
     4  H   -0.008443
     5  C   -3.291246
     6  C    1.284569
     7  H    0.019361
     8  H   -0.011711
     9  H    0.023285
    10  C    1.249255
    11  H   -0.018053
    12  H   -0.001393
    13  H    0.012171
    14  N   -0.612760
    15  H    0.190096
    16  C    0.721120
    17  H   -0.222399
    18  H   -0.357062
    19  C    0.864654
    20  O   -0.916841
    21  H    0.236697
    22  H   -0.151579
    23  C    0.790392
    24  C    0.534412
    25  H   -0.809438
    26  C    0.241565
    27  C    1.310657
    28  O   -0.673389
    29  H    0.132831
    30  H   -0.100099
    31  H   -0.170072
    32  C    1.000013
    33  O   -0.981393
    34  H    0.242061
    35  C    0.172546
    36  H   -0.632194
    37  C    0.145095
    38  H   -0.764145
    39  H    0.256662
 Sum of Mulliken charges =   1.00000
 Mulliken charges with hydrogens summed into heavy atoms:
               1
     1  C    1.286332
     5  C   -3.291246
     6  C    1.315504
    10  C    1.241980
    14  N   -0.166002
    16  C    0.141660
    19  C    0.713074
    20  O   -0.680144
    23  C    0.790392
    24  C   -0.275026
    26  C    0.241565
    27  C    1.040486
    28  O   -0.540557
    32  C    1.000013
    33  O   -0.739332
    35  C   -0.459648
    37  C   -0.619051
 Electronic spatial extent (au):  <R**2>=           5736.0012
 Charge=              1.0000 electrons
 Dipole moment (field-independent basis, Debye):
    X=            -10.3548    Y=              1.4843    Z=             -0.5713  Tot=             10.4762
 Quadrupole moment (field-independent basis, Debye-Ang):
   XX=            -54.7708   YY=            -85.6959   ZZ=            -87.1697
   XY=              7.2519   XZ=             -6.2904   YZ=              3.2645
 Traceless Quadrupole moment (field-independent basis, Debye-Ang):
   XX=             21.1080   YY=             -9.8171   ZZ=            -11.2909
   XY=              7.2519   XZ=             -6.2904   YZ=              3.2645
 Octapole moment (field-independent basis, Debye-Ang**2):
  XXX=           -103.3740  YYY=              9.8722  ZZZ=             12.2174  XYY=             33.2217
  XXY=              9.1746  XXZ=            -63.4706  XZZ=            -22.3426  YZZ=            -18.3371
  YYZ=             -0.1817  XYZ=             27.5360
 Hexadecapole moment (field-independent basis, Debye-Ang**3):
 XXXX=          -4592.7690 YYYY=           -850.3475 ZZZZ=           -811.3322 XXXY=            -17.1080
 XXXZ=           -108.9452 YYYX=             96.1210 YYYZ=             -9.4735 ZZZX=            -53.2618
 ZZZY=            -38.6234 XXYY=           -818.1152 XXZZ=           -946.1516 YYZZ=           -268.0578
 XXYZ=             70.4464 YYXZ=            -64.6515 ZZXY=            -13.8931
 N-N= 1.268828453789D+03 E-N=-4.354810497512D+03  KE= 7.829864682813D+02
 Leave Link  601 at Sun Jul 18 18:42:14 2021, MaxMem=   262144000 cpu:               0.5 elap:               0.4
 (Enter /dades/curu/g16A03_MST/g16/l9999.exe)
 1\1\GINC-PIRINEUS35\SP\RMP2-FC\Aug-CC-pVDZ\C13H22N1O3(1+)\UBATOR02\18-
 Jul-2021\0\\#p mp2/aug-cc-pVDZ scf=tight maxdisk=180GB geom=allcheck\\
 SET_328_BBB301_conf1.geo_090_285_090 geometry\\1,1\C,0,-0.302016677,-0
 .4864281622,4.0441808134\H,0,-0.73107366,-1.0620565987,4.867203509\H,0
 ,-0.6099919646,0.552495968,4.1793693118\H,0,0.7879230182,-0.546953094,
 4.1296236019\C,0,-0.8078464502,-1.0795659049,2.7265181238\C,0,-0.37329
 71668,-2.5424005919,2.5915181247\H,0,0.7137566958,-2.6537828472,2.6608
 987775\H,0,-0.7132416932,-2.9842071135,1.6507740738\H,0,-0.8178722543,
 -3.1171876396,3.4058001524\C,0,-2.3258999063,-0.9433864531,2.596569587
 8\H,0,-2.6573976853,0.0926026761,2.7083652016\H,0,-2.7997686198,-1.527
 3124983,3.3882327375\H,0,-2.6888059271,-1.3280814356,1.639378661\N,0,-
 0.1558922983,-0.321473528,1.550852513\H,0,-0.3951766814,-0.8061229047,
 0.6742661541\C,0,-0.4736327675,1.1386735544,1.4023264239\H,0,-0.377975
 7395,1.5917361654,2.3881903833\H,0,-1.5023551394,1.2364075444,1.060569
 005\C,0,0.5263179166,1.7876333223,0.4244132513\O,0,1.8481022782,1.4716
 631846,0.8493696047\H,0,2.1016804535,2.0837559118,1.5588036709\H,0,0.3
 506750031,2.8676083026,0.4809683195\C,0,0.3310411893,1.3288772758,-1.0
 089370873\C,0,1.306086475,0.5915265278,-1.687899342\H,0,2.2347407631,0
 .3508041756,-1.1816404082\C,0,1.1251294191,0.1650772451,-3.0046764986\
 C,0,2.2022975179,-0.5962428323,-3.7296940236\O,0,3.0053395311,0.335442
 7411,-4.4601257016\H,0,3.5905482699,-0.1827819264,-5.0347892376\H,0,1.
 7385261788,-1.3227812869,-4.4068155511\H,0,2.8116893191,-1.1487008221,
 -2.9994393709\C,0,-0.0694084511,0.501879961,-3.6626406813\O,0,-0.22021
 49397,0.0730627514,-4.9450448398\H,0,-1.0882428538,0.3503092522,-5.285
 6831676\C,0,-1.0536928829,1.2415578325,-2.9990673801\H,0,-1.9739040549
 ,1.5025693539,-3.5130120636\C,0,-0.8493604766,1.6510205402,-1.68616590
 31\H,0,-1.6200207169,2.2361464905,-1.1942858086\H,0,0.873234978,-0.387
 3851371,1.621725063\\Version=ES64L-G16RevA.03\State=1-A\HF=-784.030512
 9\MP2=-786.6653671\RMSD=4.118e-09\PG=C01 [X(C13H22N1O3)]\\@


 ACHIEVEMENT--  THE MAN WHO ROWS THE BOAT GENERALLY 
                DOESN'T HAVE TIME TO ROCK IT.

                   -- FROM THE BACK OF A SUGAR PACKET
 Job cpu time:       0 days  3 hours 35 minutes 11.6 seconds.
 Elapsed time:       0 days  1 hours 13 minutes 51.9 seconds.
 File lengths (MBytes):  RWF= 101782 Int=      0 D2E=      0 Chk=     28 Scr=      1
 Normal termination of Gaussian 16 at Sun Jul 18 18:42:17 2021.
