 Entering Gaussian System, Link 0=g16
 Input=SET_328_BBB20_conf1.geo_060_180_300_OCTANOL.dat
 Output=SET_328_BBB20_conf1.geo_060_180_300_OCTANOL.log
 Initial command:
 /dades/curu/g16A03_MST/g16/l1.exe "/tmp/ubator02/1839501/Gau-211856.inp" -scrdir="/tmp/ubator02/1839501/"
 Entering Link 1 = /dades/curu/g16A03_MST/g16/l1.exe PID=    211859.
  
 Copyright (c) 1988,1990,1992,1993,1995,1998,2003,2009,2016,
            Gaussian, Inc.  All Rights Reserved.
  
 This is part of the Gaussian(R) 16 program.  It is based on
 the Gaussian(R) 09 system (copyright 2009, Gaussian, Inc.),
 the Gaussian(R) 03 system (copyright 2003, Gaussian, Inc.),
 the Gaussian(R) 98 system (copyright 1998, Gaussian, Inc.),
 the Gaussian(R) 94 system (copyright 1995, Gaussian, Inc.),
 the Gaussian 92(TM) system (copyright 1992, Gaussian, Inc.),
 the Gaussian 90(TM) system (copyright 1990, Gaussian, Inc.),
 the Gaussian 88(TM) system (copyright 1988, Gaussian, Inc.),
 the Gaussian 86(TM) system (copyright 1986, Carnegie Mellon
 University), and the Gaussian 82(TM) system (copyright 1983,
 Carnegie Mellon University). Gaussian is a federally registered
 trademark of Gaussian, Inc.
  
 This software contains proprietary and confidential information,
 including trade secrets, belonging to Gaussian, Inc.
  
 This software is provided under written license and may be
 used, copied, transmitted, or stored only in accord with that
 written license.
  
 The following legend is applicable only to US Government
 contracts under FAR:
  
                    RESTRICTED RIGHTS LEGEND
  
 Use, reproduction and disclosure by the US Government is
 subject to restrictions as set forth in subparagraphs (a)
 and (c) of the Commercial Computer Software - Restricted
 Rights clause in FAR 52.227-19.
  
 Gaussian, Inc.
 340 Quinnipiac St., Bldg. 40, Wallingford CT 06492
  
  
 ---------------------------------------------------------------
 Warning -- This program may not be used in any manner that
 competes with the business of Gaussian, Inc. or will provide
 assistance to any competitor of Gaussian, Inc.  The licensee
 of this program is prohibited from giving any competitor of
 Gaussian, Inc. access to this program.  By using this program,
 the user acknowledges that Gaussian, Inc. is engaged in the
 business of creating and licensing software in the field of
 computational chemistry and represents and warrants to the
 licensee that it is not a competitor of Gaussian, Inc. and that
 it will not use this program in any manner prohibited above.
 ---------------------------------------------------------------
  

 Cite this work as:
 Gaussian 16, Revision A.03,
 M. J. Frisch, G. W. Trucks, H. B. Schlegel, G. E. Scuseria, 
 M. A. Robb, J. R. Cheeseman, G. Scalmani, V. Barone, 
 G. A. Petersson, H. Nakatsuji, X. Li, M. Caricato, A. V. Marenich, 
 J. Bloino, B. G. Janesko, R. Gomperts, B. Mennucci, H. P. Hratchian, 
 J. V. Ortiz, A. F. Izmaylov, J. L. Sonnenberg, D. Williams-Young, 
 F. Ding, F. Lipparini, F. Egidi, J. Goings, B. Peng, A. Petrone, 
 T. Henderson, D. Ranasinghe, V. G. Zakrzewski, J. Gao, N. Rega, 
 G. Zheng, W. Liang, M. Hada, M. Ehara, K. Toyota, R. Fukuda, 
 J. Hasegawa, M. Ishida, T. Nakajima, Y. Honda, O. Kitao, H. Nakai, 
 T. Vreven, K. Throssell, J. A. Montgomery, Jr., J. E. Peralta, 
 F. Ogliaro, M. J. Bearpark, J. J. Heyd, E. N. Brothers, K. N. Kudin, 
 V. N. Staroverov, T. A. Keith, R. Kobayashi, J. Normand, 
 K. Raghavachari, A. P. Rendell, J. C. Burant, S. S. Iyengar, 
 J. Tomasi, M. Cossi, J. M. Millam, M. Klene, C. Adamo, R. Cammi, 
 J. W. Ochterski, R. L. Martin, K. Morokuma, O. Farkas, 
 J. B. Foresman, and D. J. Fox, Gaussian, Inc., Wallingford CT, 2016.
 
 ******************************************
 Gaussian 16:  ES64L-G16RevA.03 25-Dec-2016
                18-Jul-2021 
 ******************************************
 %mem=800MB
 %nproc=4
 Will use up to    4 processors via shared memory.
 %chk=SET_328_BBB20_conf1.geo_060_180_300.chk
 ---------------------------------------------------------------
 #p b3lyp/6-31G(d) opt freq scrf=(iefpcm,read,solvent=n-octanol)
 ---------------------------------------------------------------
 1/18=20,19=15,26=3,38=1,40=2/1,3;
 2/9=110,12=2,17=6,18=5,40=1/2;
 3/5=1,6=6,7=1,11=2,25=1,30=1,70=2203,71=1,72=25,74=-5/1,2,3;
 4//1;
 5/5=2,38=5,53=25/2;
 6/7=2,8=2,9=2,10=2,28=1/1;
 7//1,2,3,16;
 1/18=20,19=15,26=3/3(2);
 2/9=110/2;
 99//99;
 2/9=110/2;
 3/5=1,6=6,7=1,11=2,25=1,30=1,70=2205,71=1,72=25,74=-5/1,2,3;
 4/5=5,16=3,69=1/1;
 5/5=2,38=5,53=25/2;
 7//1,2,3,16;
 1/18=20,19=15,26=3/3(-5);
 2/9=110/2;
 6/7=2,8=2,9=2,10=2,19=2,28=1/1;
 99/9=1/99;
 Leave Link    1 at Sun Jul 18 13:31:18 2021, MaxMem=   104857600 cpu:               0.0 elap:               0.0
 (Enter /dades/curu/g16A03_MST/g16/l101.exe)
 --------------------------------------------
 SET_328_BBB20_conf1.geo_060_180_300 geometry
 --------------------------------------------
 Symbolic Z-matrix:
 Charge =  1 Multiplicity = 1
 N                     1.584    -0.467     4.315 
 H                     1.796     0.397     3.859 
 H                     2.26     -1.156     4.055 
 C                     0.275    -0.908     3.92 
 H                    -0.392    -0.083     4.185 
 H                     0.134    -1.947     4.228 
 C                     0.021    -0.842     2.332 
 H                    -0.99     -1.228     2.184 
 H                     0.713    -1.53      1.842 
 C                     0.157     0.576     1.669 
 H                     1.071     1.086     1.984 
 H                    -0.712     1.062     2.121 
 N                    -0.087     0.533     0.208 
 C                    -1.315     0.084    -0.217 
 C                    -2.51      0.749    -0.022 
 H                    -2.552     1.621     0.626 
 C                    -3.7       0.296    -0.494 
 H                    -4.579     0.9      -0.285 
 C                    -3.806    -0.87     -1.25 
 H                    -4.781    -1.255    -1.539 
 C                    -2.637    -1.578    -1.462 
 H                    -2.67     -2.56     -1.926 
 C                    -1.401    -1.051    -1.014 
 C                    -0.186    -1.838    -1.451 
 H                    -0.496    -2.582    -2.188 
 H                     0.413    -2.298    -0.663 
 C                     0.775    -1.047    -2.356 
 H                     0.248    -0.744    -3.262 
 H                     1.539    -1.72     -2.751 
 C                     1.361     0.294    -1.824 
 C                     2.37      0.826    -2.612 
 H                     2.769     0.241    -3.436 
 C                     2.888     2.139    -2.394 
 H                     3.761     2.511    -2.924 
 C                     2.387     2.752    -1.327 
 H                     2.921     3.658    -1.05 
 C                     1.413     2.243    -0.494 
 H                     1.131     2.812     0.389 
 C                     0.858     0.981    -0.679 
 H                     1.606    -0.335     5.306 
 
 ITRead=  0  0  0  0  0  0  0  0  0  0  0  0  0  0  0  0  0  0  0  0
 ITRead=  0  0  0  0  0  0  0  0  0  0  0  0  0  0  0  0  0  0  0  0
 MicOpt= -1 -1 -1 -1 -1 -1 -1 -1 -1 -1 -1 -1 -1 -1 -1 -1 -1 -1 -1 -1
 MicOpt= -1 -1 -1 -1 -1 -1 -1 -1 -1 -1 -1 -1 -1 -1 -1 -1 -1 -1 -1 -1
 NAtoms=     40 NQM=       40 NQMF=       0 NMMI=      0 NMMIF=      0
                NMic=       0 NMicF=      0.
                    Isotopes and Nuclear Properties:
 (Nuclear quadrupole moments (NQMom) in fm**2, nuclear magnetic moments (NMagM)
  in nuclear magnetons)

  Atom         1           2           3           4           5           6           7           8           9          10
 IAtWgt=          14           1           1          12           1           1          12           1           1          12
 AtmWgt=  14.0030740   1.0078250   1.0078250  12.0000000   1.0078250   1.0078250  12.0000000   1.0078250   1.0078250  12.0000000
 NucSpn=           2           1           1           0           1           1           0           1           1           0
 AtZEff=  -0.0000000  -0.0000000  -0.0000000  -0.0000000  -0.0000000  -0.0000000  -0.0000000  -0.0000000  -0.0000000  -0.0000000
 NQMom=    2.0440000   0.0000000   0.0000000   0.0000000   0.0000000   0.0000000   0.0000000   0.0000000   0.0000000   0.0000000
 NMagM=    0.4037610   2.7928460   2.7928460   0.0000000   2.7928460   2.7928460   0.0000000   2.7928460   2.7928460   0.0000000
 AtZNuc=   7.0000000   1.0000000   1.0000000   6.0000000   1.0000000   1.0000000   6.0000000   1.0000000   1.0000000   6.0000000

  Atom        11          12          13          14          15          16          17          18          19          20
 IAtWgt=           1           1          14          12          12           1          12           1          12           1
 AtmWgt=   1.0078250   1.0078250  14.0030740  12.0000000  12.0000000   1.0078250  12.0000000   1.0078250  12.0000000   1.0078250
 NucSpn=           1           1           2           0           0           1           0           1           0           1
 AtZEff=  -0.0000000  -0.0000000  -0.0000000  -0.0000000  -0.0000000  -0.0000000  -0.0000000  -0.0000000  -0.0000000  -0.0000000
 NQMom=    0.0000000   0.0000000   2.0440000   0.0000000   0.0000000   0.0000000   0.0000000   0.0000000   0.0000000   0.0000000
 NMagM=    2.7928460   2.7928460   0.4037610   0.0000000   0.0000000   2.7928460   0.0000000   2.7928460   0.0000000   2.7928460
 AtZNuc=   1.0000000   1.0000000   7.0000000   6.0000000   6.0000000   1.0000000   6.0000000   1.0000000   6.0000000   1.0000000

  Atom        21          22          23          24          25          26          27          28          29          30
 IAtWgt=          12           1          12          12           1           1          12           1           1          12
 AtmWgt=  12.0000000   1.0078250  12.0000000  12.0000000   1.0078250   1.0078250  12.0000000   1.0078250   1.0078250  12.0000000
 NucSpn=           0           1           0           0           1           1           0           1           1           0
 AtZEff=  -0.0000000  -0.0000000  -0.0000000  -0.0000000  -0.0000000  -0.0000000  -0.0000000  -0.0000000  -0.0000000  -0.0000000
 NQMom=    0.0000000   0.0000000   0.0000000   0.0000000   0.0000000   0.0000000   0.0000000   0.0000000   0.0000000   0.0000000
 NMagM=    0.0000000   2.7928460   0.0000000   0.0000000   2.7928460   2.7928460   0.0000000   2.7928460   2.7928460   0.0000000
 AtZNuc=   6.0000000   1.0000000   6.0000000   6.0000000   1.0000000   1.0000000   6.0000000   1.0000000   1.0000000   6.0000000

  Atom        31          32          33          34          35          36          37          38          39          40
 IAtWgt=          12           1          12           1          12           1          12           1          12           1
 AtmWgt=  12.0000000   1.0078250  12.0000000   1.0078250  12.0000000   1.0078250  12.0000000   1.0078250  12.0000000   1.0078250
 NucSpn=           0           1           0           1           0           1           0           1           0           1
 AtZEff=  -0.0000000  -0.0000000  -0.0000000  -0.0000000  -0.0000000  -0.0000000  -0.0000000  -0.0000000  -0.0000000  -0.0000000
 NQMom=    0.0000000   0.0000000   0.0000000   0.0000000   0.0000000   0.0000000   0.0000000   0.0000000   0.0000000   0.0000000
 NMagM=    0.0000000   2.7928460   0.0000000   2.7928460   0.0000000   2.7928460   0.0000000   2.7928460   0.0000000   2.7928460
 AtZNuc=   6.0000000   1.0000000   6.0000000   1.0000000   6.0000000   1.0000000   6.0000000   1.0000000   6.0000000   1.0000000
 Leave Link  101 at Sun Jul 18 13:31:18 2021, MaxMem=   104857600 cpu:               0.1 elap:               0.1
 (Enter /dades/curu/g16A03_MST/g16/l103.exe)

 GradGradGradGradGradGradGradGradGradGradGradGradGradGradGradGradGradGrad
 Berny optimization.
 Initialization pass.
                           ----------------------------
                           !    Initial Parameters    !
                           ! (Angstroms and Degrees)  !
 --------------------------                            --------------------------
 ! Name  Definition              Value          Derivative Info.                !
 --------------------------------------------------------------------------------
 ! R1    R(1,2)                  0.9997         estimate D2E/DX2                !
 ! R2    R(1,3)                  0.9996         estimate D2E/DX2                !
 ! R3    R(1,4)                  1.4367         estimate D2E/DX2                !
 ! R4    R(1,40)                 1.0            estimate D2E/DX2                !
 ! R5    R(4,5)                  1.0935         estimate D2E/DX2                !
 ! R6    R(4,6)                  1.0928         estimate D2E/DX2                !
 ! R7    R(4,7)                  1.6095         estimate D2E/DX2                !
 ! R8    R(7,8)                  1.0923         estimate D2E/DX2                !
 ! R9    R(7,9)                  1.0919         estimate D2E/DX2                !
 ! R10   R(7,10)                 1.5712         estimate D2E/DX2                !
 ! R11   R(10,11)                1.093          estimate D2E/DX2                !
 ! R12   R(10,12)                1.0935         estimate D2E/DX2                !
 ! R13   R(10,13)                1.4819         estimate D2E/DX2                !
 ! R14   R(13,14)                1.3748         estimate D2E/DX2                !
 ! R15   R(13,39)                1.3713         estimate D2E/DX2                !
 ! R16   R(14,15)                1.3814         estimate D2E/DX2                !
 ! R17   R(14,23)                1.3895         estimate D2E/DX2                !
 ! R18   R(15,16)                1.0872         estimate D2E/DX2                !
 ! R19   R(15,17)                1.358          estimate D2E/DX2                !
 ! R20   R(17,18)                1.0868         estimate D2E/DX2                !
 ! R21   R(17,19)                1.3937         estimate D2E/DX2                !
 ! R22   R(19,20)                1.0874         estimate D2E/DX2                !
 ! R23   R(19,21)                1.383          estimate D2E/DX2                !
 ! R24   R(21,22)                1.0866         estimate D2E/DX2                !
 ! R25   R(21,23)                1.4164         estimate D2E/DX2                !
 ! R26   R(23,24)                1.5121         estimate D2E/DX2                !
 ! R27   R(24,25)                1.0922         estimate D2E/DX2                !
 ! R28   R(24,26)                1.0915         estimate D2E/DX2                !
 ! R29   R(24,27)                1.5389         estimate D2E/DX2                !
 ! R30   R(27,28)                1.091          estimate D2E/DX2                !
 ! R31   R(27,29)                1.0921         estimate D2E/DX2                !
 ! R32   R(27,30)                1.5571         estimate D2E/DX2                !
 ! R33   R(30,31)                1.3864         estimate D2E/DX2                !
 ! R34   R(30,39)                1.4269         estimate D2E/DX2                !
 ! R35   R(31,32)                1.0865         estimate D2E/DX2                !
 ! R36   R(31,33)                1.4282         estimate D2E/DX2                !
 ! R37   R(33,34)                1.0869         estimate D2E/DX2                !
 ! R38   R(33,35)                1.3286         estimate D2E/DX2                !
 ! R39   R(35,36)                1.0875         estimate D2E/DX2                !
 ! R40   R(35,37)                1.379          estimate D2E/DX2                !
 ! R41   R(37,38)                1.0876         estimate D2E/DX2                !
 ! R42   R(37,39)                1.391          estimate D2E/DX2                !
 ! A1    A(2,1,3)              109.4902         estimate D2E/DX2                !
 ! A2    A(2,1,4)              109.4575         estimate D2E/DX2                !
 ! A3    A(2,1,40)             109.4686         estimate D2E/DX2                !
 ! A4    A(3,1,4)              109.455          estimate D2E/DX2                !
 ! A5    A(3,1,40)             109.5029         estimate D2E/DX2                !
 ! A6    A(4,1,40)             109.4531         estimate D2E/DX2                !
 ! A7    A(1,4,5)              104.9246         estimate D2E/DX2                !
 ! A8    A(1,4,6)              109.3849         estimate D2E/DX2                !
 ! A9    A(1,4,7)              113.7323         estimate D2E/DX2                !
 ! A10   A(5,4,6)              124.771          estimate D2E/DX2                !
 ! A11   A(5,4,7)               96.425          estimate D2E/DX2                !
 ! A12   A(6,4,7)              107.259          estimate D2E/DX2                !
 ! A13   A(4,7,8)              105.3827         estimate D2E/DX2                !
 ! A14   A(4,7,9)              108.4753         estimate D2E/DX2                !
 ! A15   A(4,7,10)             116.0822         estimate D2E/DX2                !
 ! A16   A(8,7,9)              107.6453         estimate D2E/DX2                !
 ! A17   A(8,7,10)             109.991          estimate D2E/DX2                !
 ! A18   A(9,7,10)             108.9305         estimate D2E/DX2                !
 ! A19   A(7,10,11)            111.8304         estimate D2E/DX2                !
 ! A20   A(7,10,12)             99.0851         estimate D2E/DX2                !
 ! A21   A(7,10,13)            112.0602         estimate D2E/DX2                !
 ! A22   A(11,10,12)           109.7577         estimate D2E/DX2                !
 ! A23   A(11,10,13)           115.8082         estimate D2E/DX2                !
 ! A24   A(12,10,13)           106.8332         estimate D2E/DX2                !
 ! A25   A(10,13,14)           117.4724         estimate D2E/DX2                !
 ! A26   A(10,13,39)           120.9822         estimate D2E/DX2                !
 ! A27   A(14,13,39)           121.4838         estimate D2E/DX2                !
 ! A28   A(13,14,15)           124.8768         estimate D2E/DX2                !
 ! A29   A(13,14,23)           119.9564         estimate D2E/DX2                !
 ! A30   A(15,14,23)           114.8748         estimate D2E/DX2                !
 ! A31   A(14,15,16)           120.2419         estimate D2E/DX2                !
 ! A32   A(14,15,17)           123.2579         estimate D2E/DX2                !
 ! A33   A(16,15,17)           116.1587         estimate D2E/DX2                !
 ! A34   A(15,17,18)           117.1626         estimate D2E/DX2                !
 ! A35   A(15,17,19)           122.2953         estimate D2E/DX2                !
 ! A36   A(18,17,19)           120.5155         estimate D2E/DX2                !
 ! A37   A(17,19,20)           120.5703         estimate D2E/DX2                !
 ! A38   A(17,19,21)           116.5612         estimate D2E/DX2                !
 ! A39   A(20,19,21)           122.4053         estimate D2E/DX2                !
 ! A40   A(19,21,22)           120.1606         estimate D2E/DX2                !
 ! A41   A(19,21,23)           119.9104         estimate D2E/DX2                !
 ! A42   A(22,21,23)           119.8562         estimate D2E/DX2                !
 ! A43   A(14,23,21)           122.6391         estimate D2E/DX2                !
 ! A44   A(14,23,24)           122.7616         estimate D2E/DX2                !
 ! A45   A(21,23,24)           114.5894         estimate D2E/DX2                !
 ! A46   A(23,24,25)           108.7534         estimate D2E/DX2                !
 ! A47   A(23,24,26)           116.85           estimate D2E/DX2                !
 ! A48   A(23,24,27)           113.8409         estimate D2E/DX2                !
 ! A49   A(25,24,26)           110.8459         estimate D2E/DX2                !
 ! A50   A(25,24,27)            97.5017         estimate D2E/DX2                !
 ! A51   A(26,24,27)           107.3665         estimate D2E/DX2                !
 ! A52   A(24,27,28)           109.2356         estimate D2E/DX2                !
 ! A53   A(24,27,29)           109.4398         estimate D2E/DX2                !
 ! A54   A(24,27,30)           118.4729         estimate D2E/DX2                !
 ! A55   A(28,27,29)           102.0466         estimate D2E/DX2                !
 ! A56   A(28,27,30)           103.0803         estimate D2E/DX2                !
 ! A57   A(29,27,30)           113.0175         estimate D2E/DX2                !
 ! A58   A(27,30,31)           114.2154         estimate D2E/DX2                !
 ! A59   A(27,30,39)           123.7886         estimate D2E/DX2                !
 ! A60   A(31,30,39)           121.864          estimate D2E/DX2                !
 ! A61   A(30,31,32)           119.455          estimate D2E/DX2                !
 ! A62   A(30,31,33)           122.0042         estimate D2E/DX2                !
 ! A63   A(32,31,33)           118.527          estimate D2E/DX2                !
 ! A64   A(31,33,34)           122.1079         estimate D2E/DX2                !
 ! A65   A(31,33,35)           114.2032         estimate D2E/DX2                !
 ! A66   A(34,33,35)           122.4491         estimate D2E/DX2                !
 ! A67   A(33,35,36)           113.8134         estimate D2E/DX2                !
 ! A68   A(33,35,37)           125.5313         estimate D2E/DX2                !
 ! A69   A(36,35,37)           120.0298         estimate D2E/DX2                !
 ! A70   A(35,37,38)           118.7137         estimate D2E/DX2                !
 ! A71   A(35,37,39)           122.4354         estimate D2E/DX2                !
 ! A72   A(38,37,39)           118.6302         estimate D2E/DX2                !
 ! A73   A(13,39,30)           127.2056         estimate D2E/DX2                !
 ! A74   A(13,39,37)           119.0337         estimate D2E/DX2                !
 ! A75   A(30,39,37)           113.7588         estimate D2E/DX2                !
 ! D1    D(2,1,4,5)            -56.8694         estimate D2E/DX2                !
 ! D2    D(2,1,4,6)            167.1205         estimate D2E/DX2                !
 ! D3    D(2,1,4,7)             47.235          estimate D2E/DX2                !
 ! D4    D(3,1,4,5)           -176.8743         estimate D2E/DX2                !
 ! D5    D(3,1,4,6)             47.1156         estimate D2E/DX2                !
 ! D6    D(3,1,4,7)            -72.7699         estimate D2E/DX2                !
 ! D7    D(40,1,4,5)            63.1079         estimate D2E/DX2                !
 ! D8    D(40,1,4,6)           -72.9022         estimate D2E/DX2                !
 ! D9    D(40,1,4,7)           167.2123         estimate D2E/DX2                !
 ! D10   D(1,4,7,8)            178.4926         estimate D2E/DX2                !
 ! D11   D(1,4,7,9)             63.4437         estimate D2E/DX2                !
 ! D12   D(1,4,7,10)           -59.539          estimate D2E/DX2                !
 ! D13   D(5,4,7,8)            -72.0792         estimate D2E/DX2                !
 ! D14   D(5,4,7,9)            172.8719         estimate D2E/DX2                !
 ! D15   D(5,4,7,10)            49.8892         estimate D2E/DX2                !
 ! D16   D(6,4,7,8)             57.4111         estimate D2E/DX2                !
 ! D17   D(6,4,7,9)            -57.6378         estimate D2E/DX2                !
 ! D18   D(6,4,7,10)           179.3796         estimate D2E/DX2                !
 ! D19   D(4,7,10,11)           47.7441         estimate D2E/DX2                !
 ! D20   D(4,7,10,12)          -67.9038         estimate D2E/DX2                !
 ! D21   D(4,7,10,13)          179.686          estimate D2E/DX2                !
 ! D22   D(8,7,10,11)          167.2398         estimate D2E/DX2                !
 ! D23   D(8,7,10,12)           51.5918         estimate D2E/DX2                !
 ! D24   D(8,7,10,13)          -60.8183         estimate D2E/DX2                !
 ! D25   D(9,7,10,11)          -75.0            estimate D2E/DX2                !
 ! D26   D(9,7,10,12)          169.3521         estimate D2E/DX2                !
 ! D27   D(9,7,10,13)           56.9419         estimate D2E/DX2                !
 ! D28   D(7,10,13,14)          59.6997         estimate D2E/DX2                !
 ! D29   D(7,10,13,39)        -123.1142         estimate D2E/DX2                !
 ! D30   D(11,10,13,14)       -170.3842         estimate D2E/DX2                !
 ! D31   D(11,10,13,39)          6.802          estimate D2E/DX2                !
 ! D32   D(12,10,13,14)        -47.7946         estimate D2E/DX2                !
 ! D33   D(12,10,13,39)        129.3916         estimate D2E/DX2                !
 ! D34   D(10,13,14,15)         67.8448         estimate D2E/DX2                !
 ! D35   D(10,13,14,23)       -118.69           estimate D2E/DX2                !
 ! D36   D(39,13,14,15)       -109.3264         estimate D2E/DX2                !
 ! D37   D(39,13,14,23)         64.1388         estimate D2E/DX2                !
 ! D38   D(10,13,39,30)        129.6601         estimate D2E/DX2                !
 ! D39   D(10,13,39,37)        -50.8772         estimate D2E/DX2                !
 ! D40   D(14,13,39,30)        -53.2675         estimate D2E/DX2                !
 ! D41   D(14,13,39,37)        126.1952         estimate D2E/DX2                !
 ! D42   D(13,14,15,16)         -9.1761         estimate D2E/DX2                !
 ! D43   D(13,14,15,17)        177.7967         estimate D2E/DX2                !
 ! D44   D(23,14,15,16)        177.0635         estimate D2E/DX2                !
 ! D45   D(23,14,15,17)          4.0362         estimate D2E/DX2                !
 ! D46   D(13,14,23,21)        178.7427         estimate D2E/DX2                !
 ! D47   D(13,14,23,24)         -0.0549         estimate D2E/DX2                !
 ! D48   D(15,14,23,21)         -7.1642         estimate D2E/DX2                !
 ! D49   D(15,14,23,24)        174.0382         estimate D2E/DX2                !
 ! D50   D(14,15,17,18)       -179.8469         estimate D2E/DX2                !
 ! D51   D(14,15,17,19)         -1.7167         estimate D2E/DX2                !
 ! D52   D(16,15,17,18)          6.863          estimate D2E/DX2                !
 ! D53   D(16,15,17,19)       -175.0068         estimate D2E/DX2                !
 ! D54   D(15,17,19,20)        174.5343         estimate D2E/DX2                !
 ! D55   D(15,17,19,21)          2.1582         estimate D2E/DX2                !
 ! D56   D(18,17,19,20)         -7.3968         estimate D2E/DX2                !
 ! D57   D(18,17,19,21)       -179.7729         estimate D2E/DX2                !
 ! D58   D(17,19,21,22)        171.7597         estimate D2E/DX2                !
 ! D59   D(17,19,21,23)         -5.1324         estimate D2E/DX2                !
 ! D60   D(20,19,21,22)         -0.4644         estimate D2E/DX2                !
 ! D61   D(20,19,21,23)       -177.3566         estimate D2E/DX2                !
 ! D62   D(19,21,23,14)          8.0712         estimate D2E/DX2                !
 ! D63   D(19,21,23,24)       -173.0407         estimate D2E/DX2                !
 ! D64   D(22,21,23,14)       -168.8305         estimate D2E/DX2                !
 ! D65   D(22,21,23,24)         10.0576         estimate D2E/DX2                !
 ! D66   D(14,23,24,25)       -171.2773         estimate D2E/DX2                !
 ! D67   D(14,23,24,26)         62.346          estimate D2E/DX2                !
 ! D68   D(14,23,24,27)        -63.7732         estimate D2E/DX2                !
 ! D69   D(21,23,24,25)          9.8362         estimate D2E/DX2                !
 ! D70   D(21,23,24,26)       -116.5406         estimate D2E/DX2                !
 ! D71   D(21,23,24,27)        117.3403         estimate D2E/DX2                !
 ! D72   D(23,24,27,28)        -60.4565         estimate D2E/DX2                !
 ! D73   D(23,24,27,29)       -171.4071         estimate D2E/DX2                !
 ! D74   D(23,24,27,30)         57.0547         estimate D2E/DX2                !
 ! D75   D(25,24,27,28)         53.9189         estimate D2E/DX2                !
 ! D76   D(25,24,27,29)        -57.0317         estimate D2E/DX2                !
 ! D77   D(25,24,27,30)        171.4301         estimate D2E/DX2                !
 ! D78   D(26,24,27,28)        168.5802         estimate D2E/DX2                !
 ! D79   D(26,24,27,29)         57.6296         estimate D2E/DX2                !
 ! D80   D(26,24,27,30)        -73.9086         estimate D2E/DX2                !
 ! D81   D(24,27,30,31)        170.3869         estimate D2E/DX2                !
 ! D82   D(24,27,30,39)        -13.7291         estimate D2E/DX2                !
 ! D83   D(28,27,30,31)        -68.8973         estimate D2E/DX2                !
 ! D84   D(28,27,30,39)        106.9867         estimate D2E/DX2                !
 ! D85   D(29,27,30,31)         40.4631         estimate D2E/DX2                !
 ! D86   D(29,27,30,39)       -143.6529         estimate D2E/DX2                !
 ! D87   D(27,30,31,32)         -8.0448         estimate D2E/DX2                !
 ! D88   D(27,30,31,33)        170.584          estimate D2E/DX2                !
 ! D89   D(39,30,31,32)        175.9829         estimate D2E/DX2                !
 ! D90   D(39,30,31,33)         -5.3883         estimate D2E/DX2                !
 ! D91   D(27,30,39,13)          7.7007         estimate D2E/DX2                !
 ! D92   D(27,30,39,37)       -171.786          estimate D2E/DX2                !
 ! D93   D(31,30,39,13)       -176.7198         estimate D2E/DX2                !
 ! D94   D(31,30,39,37)          3.7935         estimate D2E/DX2                !
 ! D95   D(30,31,33,34)        172.016          estimate D2E/DX2                !
 ! D96   D(30,31,33,35)          4.4542         estimate D2E/DX2                !
 ! D97   D(32,31,33,34)         -9.3429         estimate D2E/DX2                !
 ! D98   D(32,31,33,35)       -176.9048         estimate D2E/DX2                !
 ! D99   D(31,33,35,36)        168.3672         estimate D2E/DX2                !
 ! D100  D(31,33,35,37)         -2.5083         estimate D2E/DX2                !
 ! D101  D(34,33,35,36)          0.853          estimate D2E/DX2                !
 ! D102  D(34,33,35,37)       -170.0225         estimate D2E/DX2                !
 ! D103  D(33,35,37,38)        175.9137         estimate D2E/DX2                !
 ! D104  D(33,35,37,39)          1.3884         estimate D2E/DX2                !
 ! D105  D(36,35,37,38)          5.5605         estimate D2E/DX2                !
 ! D106  D(36,35,37,39)       -168.9647         estimate D2E/DX2                !
 ! D107  D(35,37,39,13)        178.6673         estimate D2E/DX2                !
 ! D108  D(35,37,39,30)         -1.8003         estimate D2E/DX2                !
 ! D109  D(38,37,39,13)          4.1377         estimate D2E/DX2                !
 ! D110  D(38,37,39,30)       -176.3299         estimate D2E/DX2                !
 --------------------------------------------------------------------------------
 Trust Radius=3.00D-01 FncErr=1.00D-07 GrdErr=1.00D-06 EigMax=2.50D+02 EigMin=1.00D-04
 Number of steps in this run=    237 maximum allowed number of steps=    240.
 GradGradGradGradGradGradGradGradGradGradGradGradGradGradGradGradGradGrad

 Leave Link  103 at Sun Jul 18 13:31:18 2021, MaxMem=   104857600 cpu:               0.0 elap:               0.0
 (Enter /dades/curu/g16A03_MST/g16/l202.exe)
                          Input orientation:                          
 ---------------------------------------------------------------------
 Center     Atomic      Atomic             Coordinates (Angstroms)
 Number     Number       Type             X           Y           Z
 ---------------------------------------------------------------------
      1          7           0        1.584000   -0.467000    4.315000
      2          1           0        1.796000    0.397000    3.859000
      3          1           0        2.260000   -1.156000    4.055000
      4          6           0        0.275000   -0.908000    3.920000
      5          1           0       -0.392000   -0.083000    4.185000
      6          1           0        0.134000   -1.947000    4.228000
      7          6           0        0.021000   -0.842000    2.332000
      8          1           0       -0.990000   -1.228000    2.184000
      9          1           0        0.713000   -1.530000    1.842000
     10          6           0        0.157000    0.576000    1.669000
     11          1           0        1.071000    1.086000    1.984000
     12          1           0       -0.712000    1.062000    2.121000
     13          7           0       -0.087000    0.533000    0.208000
     14          6           0       -1.315000    0.084000   -0.217000
     15          6           0       -2.510000    0.749000   -0.022000
     16          1           0       -2.552000    1.621000    0.626000
     17          6           0       -3.700000    0.296000   -0.494000
     18          1           0       -4.579000    0.900000   -0.285000
     19          6           0       -3.806000   -0.870000   -1.250000
     20          1           0       -4.781000   -1.255000   -1.539000
     21          6           0       -2.637000   -1.578000   -1.462000
     22          1           0       -2.670000   -2.560000   -1.926000
     23          6           0       -1.401000   -1.051000   -1.014000
     24          6           0       -0.186000   -1.838000   -1.451000
     25          1           0       -0.496000   -2.582000   -2.188000
     26          1           0        0.413000   -2.298000   -0.663000
     27          6           0        0.775000   -1.047000   -2.356000
     28          1           0        0.248000   -0.744000   -3.262000
     29          1           0        1.539000   -1.720000   -2.751000
     30          6           0        1.361000    0.294000   -1.824000
     31          6           0        2.370000    0.826000   -2.612000
     32          1           0        2.769000    0.241000   -3.436000
     33          6           0        2.888000    2.139000   -2.394000
     34          1           0        3.761000    2.511000   -2.924000
     35          6           0        2.387000    2.752000   -1.327000
     36          1           0        2.921000    3.658000   -1.050000
     37          6           0        1.413000    2.243000   -0.494000
     38          1           0        1.131000    2.812000    0.389000
     39          6           0        0.858000    0.981000   -0.679000
     40          1           0        1.606000   -0.335000    5.306000
 ---------------------------------------------------------------------
                    Distance matrix (angstroms):
                    1          2          3          4          5
     1  N    0.000000
     2  H    0.999688   0.000000
     3  H    0.999648   1.632642   0.000000
     4  C    1.436658   2.005040   2.004982   0.000000
     5  H    2.017159   2.263630   2.863797   1.093499   0.000000
     6  H    2.073757   2.897023   2.274969   1.092825   1.937272
     7  C    2.552623   2.649052   2.842613   1.609539   2.044568
     8  H    3.427208   3.634288   3.750777   2.171709   2.381728
     9  H    2.829194   2.992408   2.725886   2.212874   2.967235
    10  C    3.182058   2.741252   3.621523   2.698737   2.658183
    11  H    2.847550   2.125081   3.275565   2.890977   2.889867
    12  H    3.524641   3.122969   4.182423   2.844551   2.381915
    13  N    4.545293   4.110229   4.812540   3.998308   4.035965
    14  C    5.408033   5.137126   5.706856   4.541688   4.500825
    15  C    6.086794   5.807556   6.557732   5.103062   4.782990
    16  H    5.922412   5.554779   6.528791   5.023764   4.498410
    17  C    7.185354   7.011763   7.636970   6.060828   5.742782
    18  H    7.810970   7.620129   8.356713   6.671747   6.203076
    19  C    7.757818   7.686974   8.063571   6.586722   6.466374
    20  H    8.683518   8.667435   8.993237   7.448773   7.307604
    21  C    7.240504   7.201747   7.388909   6.155856   6.258087
    22  H    7.837554   7.883859   7.877086   6.751137   6.976327
    23  C    6.135921   6.005301   6.253695   5.212848   5.383745
    24  C    6.185410   6.092590   6.063339   5.470380   5.906518
    25  H    7.147631   7.119966   6.971661   6.379999   6.846236
    26  H    5.431785   5.442812   5.193756   4.791141   5.390487
    27  C    6.744859   6.461718   6.581643   6.297420   6.713856
    28  H    7.698867   7.376098   7.599762   7.183923   7.503621
    29  H    7.176377   6.945490   6.867283   6.838076   7.383537
    30  C    6.190006   5.700555   6.121547   5.968060   6.270823
    31  C    7.090344   6.510557   6.956243   7.075507   7.392843
    32  H    7.872959   7.361256   7.637131   7.851813   8.256909
    33  C    7.314529   6.582328   7.269182   7.481883   7.679774
    34  H    8.124711   7.371520   8.025356   8.407264   8.632157
    35  C    6.545146   5.726247   6.652407   6.736999   6.792806
    36  H    6.898291   5.999836   7.047875   7.249177   7.237146
    37  C    5.522664   4.743734   5.741429   5.541411   5.528231
    38  H    5.135224   4.279644   5.518987   5.199913   5.011005
    39  C    5.250125   4.670583   5.379882   5.005898   5.133526
    40  H    0.999994   1.632707   1.633021   2.005215   2.304810
                    6          7          8          9         10
     6  H    0.000000
     7  C    2.197410   0.000000
     8  H    2.440957   1.092255   0.000000
     9  H    2.490407   1.091929   1.763059   0.000000
    10  C    3.593680   1.571238   2.198920   2.185017   0.000000
    11  H    3.887492   2.222788   3.105208   2.644198   1.093033
    12  H    3.769515   2.051104   2.307673   2.971015   1.093463
    13  N    4.728598   2.532521   2.796624   2.750623   1.481859
    14  C    5.097312   3.023206   2.755317   3.310175   2.442508
    15  C    5.685213   3.805070   3.329469   4.365325   3.162641
    16  H    5.737563   3.949321   3.603333   4.697625   3.085216
    17  C    6.482892   4.809071   4.103457   5.316553   4.430961
    18  H    7.119336   5.571647   4.848223   6.199540   5.133497
    19  C    6.833155   5.241893   4.455376   5.515199   5.129995
    20  H    7.608836   6.181781   5.313487   6.456843   6.166658
    21  C    6.339614   4.690533   4.016021   4.705446   4.716918
    22  H    6.790427   5.321989   4.635593   5.167535   5.545309
    23  C    5.535125   3.641632   3.229157   3.585411   3.503282
    24  C    5.689053   3.917391   3.772498   3.427377   3.959728
    25  H    6.478054   4.870861   4.603448   4.336967   5.027507
    26  H    4.911509   3.353152   3.349435   2.637205   3.709937
    27  C    6.676072   4.752671   4.874381   4.226149   4.383683
    28  H    7.586851   5.599461   5.605873   5.185059   5.105433
    29  H    7.122640   5.376997   5.567058   4.670549   5.168940
    30  C    6.569194   4.512032   4.889555   4.145653   3.705427
    31  C    7.711992   5.722164   6.205653   5.304197   4.825643
    32  H    8.394490   6.480295   6.918991   5.934717   5.744197
    33  C    8.254138   6.280217   6.879946   6.011313   5.138998
    34  H    9.174966   7.270196   7.914783   6.952319   6.150503
    35  C    7.616734   5.648281   6.290600   5.583938   4.322487
    36  H    8.187837   6.332292   7.044691   6.336740   4.952916
    37  C    6.441213   4.409214   4.999393   4.492485   3.005827
    38  H    6.195160   4.284748   4.903291   4.597706   2.754410
    39  C    5.759862   3.618013   4.060979   3.561122   2.483653
    40  H    2.434628   3.407925   4.157349   3.771574   4.019613
                   11         12         13         14         15
    11  H    0.000000
    12  H    1.788417   0.000000
    13  N    2.191107   2.080874   0.000000
    14  C    3.397264   2.605060   1.374849   0.000000
    15  C    4.118394   2.814822   2.443458   1.381403   0.000000
    16  H    3.905959   2.435797   2.726663   2.145504   1.087222
    17  C    5.433878   4.043900   3.688190   2.410373   1.357974
    18  H    6.091425   4.557276   4.533851   3.365141   2.091108
    19  C    6.170075   4.966800   4.233808   2.860470   2.410137
    20  H    7.220645   5.943135   5.318138   3.943826   3.387439
    21  C    5.720234   4.849032   3.707792   2.461697   2.739463
    22  H    6.525067   5.773288   4.559879   3.427454   3.821033
    23  C    4.434586   3.842878   2.393520   1.389543   2.335368
    24  C    4.682846   4.630968   2.895466   2.547838   3.759732
    25  H    5.771940   5.647378   3.951117   3.415137   4.454583
    26  H    4.346381   4.506205   3.003865   2.976378   4.270716
    27  C    4.844884   5.167454   3.132657   3.197277   4.411847
    28  H    5.616649   5.758466   3.712661   3.521445   4.509236
    29  H    5.523847   6.045073   4.059010   4.221479   5.471545
    30  C    3.900286   4.522187   2.506561   3.128502   4.294051
    31  C    4.783118   5.652938   3.751679   4.457108   5.525254
    32  H    5.742267   6.608453   4.639045   5.202467   6.307242
    33  C    4.855634   5.874109   4.266177   5.160190   6.057796
    34  H    5.775395   6.896329   5.341256   6.243713   7.131037
    35  C    3.933209   4.934431   3.660719   4.696289   5.449371
    36  H    4.386666   5.476600   4.516221   5.604557   6.246185
    37  C    2.756102   3.570520   2.380526   3.489985   4.224305
    38  H    2.350894   3.075544   2.590391   3.713777   4.204970
    39  C    2.673567   3.211146   1.371313   2.395826   3.439316
    40  H    3.652554   4.179588   5.441441   6.261895   6.819391
                   16         17         18         19         20
    16  H    0.000000
    17  C    2.080368   0.000000
    18  H    2.336341   1.086802   0.000000
    19  C    3.361097   1.393674   2.159086   0.000000
    20  H    4.234034   2.160136   2.501469   1.087369   0.000000
    21  C    3.821069   2.361963   3.361127   1.383029   2.169561
    22  H    4.899734   3.356823   4.278874   2.145594   2.511795
    23  C    3.339758   2.714813   3.799674   2.423320   3.426608
    24  C    4.677239   4.221137   5.306095   3.752576   4.632673
    25  H    5.459940   4.627973   5.693560   3.842771   4.532478
    26  H    5.080483   4.865611   5.940551   4.492629   5.369624
    27  C    5.203794   5.029545   6.061779   4.715944   5.619599
    28  H    5.343198   4.932558   5.904676   4.527575   5.340477
    29  H    6.269186   6.050242   7.097569   5.616451   6.451943
    30  C    4.803644   5.232841   6.165984   5.327500   6.340725
    31  C    5.944977   6.450715   7.328643   6.547857   7.524539
    32  H    6.835004   7.106782   8.022231   7.017374   7.927113
    33  C    6.243583   7.099887   7.857423   7.427816   8.429936
    34  H    7.297162   8.153382   8.894675   8.455349   9.437518
    35  C    5.430202   6.616449   7.282913   7.174821   8.214695
    36  H    6.075531   7.446464   8.027564   8.111431   9.148633
    37  C    4.166834   5.471159   6.144216   6.123746   7.189831
    38  H    3.878033   5.518016   6.059218   6.373179   7.430304
    39  C    3.706848   4.612896   5.451859   5.050261   6.126795
    40  H    6.558758   7.886178   8.428448   8.518046   9.407135
                   21         22         23         24         25
    21  C    0.000000
    22  H    1.086604   0.000000
    23  C    1.416379   2.172369   0.000000
    24  C    2.464776   2.630050   1.512139   0.000000
    25  H    2.473656   2.189841   2.131024   1.092156   0.000000
    26  H    3.234084   3.341961   2.229082   1.091488   1.797933
    27  C    3.566923   3.787096   2.556552   1.538904   1.999972
    28  H    3.501254   3.687476   2.804809   2.159841   2.255051
    29  H    4.372718   4.370573   3.479703   2.163227   2.280622
    30  C    4.429383   4.940109   3.177069   2.660406   3.442720
    31  C    5.672016   6.110417   4.505239   3.870136   4.473052
    32  H    6.035750   6.301462   4.992419   4.122438   4.493001
    33  C    6.723863   7.293215   5.520509   5.114221   5.812206
    34  H    7.732514   8.250382   6.556080   6.054943   6.678502
    35  C    6.633830   7.358627   5.376776   5.263440   6.124097
    36  H    7.647013   8.407745   6.391843   6.326157   7.204758
    37  C    5.651510   6.464543   4.363420   4.486336   5.458438
    38  H    6.074218   6.976045   4.827235   5.171324   6.195425
    39  C    4.401885   5.151745   3.056850   3.103656   4.099435
    40  H    8.084177   8.691181   7.035418   7.150337   8.101077
                   26         27         28         29         30
    26  H    0.000000
    27  C    2.135953   0.000000
    28  H    3.032646   1.091043   0.000000
    29  H    2.441660   1.092085   1.697168   0.000000
    30  C    2.994176   1.557145   2.093814   2.224232   0.000000
    31  C    4.169871   2.473396   2.718508   2.681790   1.386380
    32  H    4.436979   2.607946   2.712184   2.414052   2.140985
    33  C    5.367397   3.823194   4.004337   4.103551   2.461840
    34  H    6.280741   4.679550   4.801087   4.782110   3.447476
    35  C    5.462607   4.253209   4.532280   4.769241   2.709511
    36  H    6.474084   5.333665   5.604951   5.807427   3.788030
    37  C    4.652875   3.833822   4.235707   4.562378   2.360128
    38  H    5.266339   4.749067   5.172487   5.528570   3.360148
    39  C    3.309097   2.632870   3.165377   3.471649   1.426886
    40  H    6.395747   7.739751   8.684588   8.175449   7.161883
                   31         32         33         34         35
    31  C    0.000000
    32  H    1.086463   0.000000
    33  C    1.428222   2.168485   0.000000
    34  H    2.207136   2.529646   1.086928   0.000000
    35  C    2.315381   3.301352   1.328630   2.120464   0.000000
    36  H    3.280803   4.170370   2.028494   2.352251   1.087530
    37  C    2.722069   3.808163   2.407580   3.389665   1.379002
    38  H    3.805958   4.891187   3.359325   4.240692   2.127391
    39  C    2.458995   3.435196   2.898808   3.975970   2.427794
    40  H    8.039051   8.837811   8.188663   8.970877   7.357732
                   36         37         38         39         40
    36  H    0.000000
    37  C    2.141361   0.000000
    38  H    2.447557   1.087646   0.000000
    39  C    3.399991   1.391005   2.137221   0.000000
    40  H    7.620499   6.350066   5.857143   6.173458   0.000000
 Stoichiometry    C17H21N2(1+)
 Framework group  C1[X(C17H21N2)]
 Deg. of freedom   114
 Full point group                 C1      NOp   1
 Largest Abelian subgroup         C1      NOp   1
 Largest concise Abelian subgroup C1      NOp   1
                         Standard orientation:                         
 ---------------------------------------------------------------------
 Center     Atomic      Atomic             Coordinates (Angstroms)
 Number     Number       Type             X           Y           Z
 ---------------------------------------------------------------------
      1          7           0        2.833681   -3.771685    0.551554
      2          1           0        2.067756   -3.864897   -0.084093
      3          1           0        2.519937   -3.960184    1.481785
      4          6           0        3.352067   -2.433549    0.483337
      5          1           0        3.617979   -2.287758   -0.567270
      6          1           0        4.026017   -2.262228    1.326371
      7          6           0        2.215884   -1.294973    0.541228
      8          1           0        2.755063   -0.345655    0.508018
      9          1           0        1.713318   -1.356514    1.508671
     10          6           0        1.135066   -1.339017   -0.598369
     11          1           0        0.733825   -2.345923   -0.739316
     12          1           0        1.769116   -1.071476   -1.448112
     13          7           0        0.130995   -0.258622   -0.455205
     14          6           0        0.586867    1.038217   -0.479702
     15          6           0        1.125678    1.665328   -1.586359
     16          1           0        1.353064    1.093958   -2.482955
     17          6           0        1.526507    2.962798   -1.585579
     18          1           0        1.934433    3.356615   -2.512748
     19          6           0        1.392664    3.782813   -0.466656
     20          1           0        1.802443    4.790013   -0.466950
     21          6           0        0.868836    3.196099    0.670947
     22          1           0        0.862413    3.739436    1.611931
     23          6           0        0.399843    1.860419    0.624760
     24          6           0       -0.296653    1.394218    1.883375
     25          1           0       -0.456560    2.255419    2.535731
     26          1           0        0.171192    0.573915    2.430703
     27          6           0       -1.775437    1.022841    1.674797
     28          1           0       -2.318500    1.897975    1.314800
     29          1           0       -2.245894    0.845546    2.644274
     30          6           0       -2.125303   -0.067633    0.619732
     31          6           0       -3.447454   -0.483701    0.648941
     32          1           0       -4.096291   -0.145682    1.452157
     33          6           0       -3.998593   -1.325648   -0.364561
     34          1           0       -4.993015   -1.756255   -0.280197
     35          6           0       -3.116435   -1.740312   -1.267396
     36          1           0       -3.488621   -2.531801   -1.913725
     37          6           0       -1.785042   -1.383592   -1.309692
     38          1           0       -1.144777   -1.842180   -2.059847
     39          6           0       -1.206625   -0.545908   -0.361740
     40          1           0        3.553142   -4.420576    0.303955
 ---------------------------------------------------------------------
 Rotational constants (GHZ):           0.3781236           0.3528834           0.2285687
 Leave Link  202 at Sun Jul 18 13:31:18 2021, MaxMem=   104857600 cpu:               0.0 elap:               0.0
 (Enter /dades/curu/g16A03_MST/g16/l301.exe)
 Standard basis: 6-31G(d) (6D, 7F)
 Ernie: Thresh=  0.10000D-02 Tol=  0.10000D-05 Strict=F.
 There are   327 symmetry adapted cartesian basis functions of A   symmetry.
 There are   327 symmetry adapted basis functions of A   symmetry.
   327 basis functions,   616 primitive gaussians,   327 cartesian basis functions
    68 alpha electrons       68 beta electrons
       nuclear repulsion energy      1423.1760527845 Hartrees.
 IExCor=  402 DFT=T Ex+Corr=B3LYP ExCW=0 ScaHFX=  0.200000
 ScaDFX=  0.800000  0.720000  1.000000  0.810000 ScalE2=  1.000000  1.000000
 IRadAn=      5 IRanWt=     -1 IRanGd=            0 ICorTp=0 IEmpDi=  4
 NAtoms=   40 NActive=   40 NUniq=   40 SFac= 1.00D+00 NAtFMM=   60 NAOKFM=F Big=F
 Integral buffers will be    131072 words long.
 Raffenetti 2 integral format.
 Two-electron integral symmetry is turned on.
 Using the following non-standard input for PCM:
 MSTModel=DFT cav MSTCharged
 --- end of non-standard input.
 MST model for solvation energy: B3LYP parametrization.
 MST cavity parameters:
 ISph   IAn     Re0     Alpha   Atom Type   QCorr
 ------------------------------------------------
   1      7     1.50     1.15      NH+        T
   2      1     0.90     1.15      NH+        T
   3      1     0.90     1.15      NH+        T
   4      6     1.50     1.50      CN+        F
   5      1     1.20     1.50      CN+        F
   6      1     1.20     1.50      CN+        F
   7      6     1.50     1.50      CH2        F
   8      1     1.20     1.50      CH2        F
   9      1     1.20     1.50      CH2        F
  10      6     1.50     1.50      CH2        F
  11      1     1.20     1.50      CH2        F
  12      1     1.20     1.50      CH2        F
  13      7     1.50     1.50      N          F
  14      6     1.50     1.50      C          F
  15      6     1.50     1.50      CH         F
  16      1     1.20     1.50      CH         F
  17      6     1.50     1.50      CH         F
  18      1     1.20     1.50      CH         F
  19      6     1.50     1.50      CH         F
  20      1     1.20     1.50      CH         F
  21      6     1.50     1.50      CH         F
  22      1     1.20     1.50      CH         F
  23      6     1.50     1.50      C          F
  24      6     1.50     1.50      CH2        F
  25      1     1.20     1.50      CH2        F
  26      1     1.20     1.50      CH2        F
  27      6     1.50     1.50      CH2        F
  28      1     1.20     1.50      CH2        F
  29      1     1.20     1.50      CH2        F
  30      6     1.50     1.50      C          F
  31      6     1.50     1.50      CH         F
  32      1     1.20     1.50      CH         F
  33      6     1.50     1.50      CH         F
  34      1     1.20     1.50      CH         F
  35      6     1.50     1.50      CH         F
  36      1     1.20     1.50      CH         F
  37      6     1.50     1.50      CH         F
  38      1     1.20     1.50      CH         F
  39      6     1.50     1.50      C          F
  40      1     0.90     1.15      NH+        T
 ------------------------------------------------------------------------------
 Polarizable Continuum Model (PCM)
 =================================
 Model                : PCM.
 Atomic radii         : MST.
 Polarization charges : Total charges.
 Charge compensation  : None.
 Solution method      : On-the-fly selection.
 Cavity type          : Scaled VdW (van der Waals Surface) (Alpha=1.500).
 Cavity algorithm     : GePol (No added spheres)
                        Default sphere list used, NSphG=   40.
                        Lebedev-Laikov grids with approx.  5.0 points / Ang**2.
                        Smoothing algorithm: York/Karplus (Gamma=1.0000).
                        Polarization charges: spherical gaussians, with
                                              point-specific exponents (IZeta= 3).
                        Self-potential: point-specific (ISelfS= 7).
                        Self-field    : sphere-specific E.n sum rule (ISelfD= 2).
 1st derivatives      : Analytical E(r).r(x)/FMM algorithm (CHGder, D1EAlg=3).
                        Cavity 1st derivative terms included.
 Solvent              : n-Octanol, Eps=   9.862900 Eps(inf)=   2.043470
 ------------------------------------------------------------------------------
 GePol: Number of generator spheres                  =      40
 GePol: Total number of spheres                      =      40
 GePol: Number of exposed spheres                    =      40 (100.00%)
 GePol: Number of points                             =    3456
 GePol: Average weight of points                     =       0.10
 GePol: Minimum weight of points                     =   0.34D-11
 GePol: Maximum weight of points                     =    0.21373
 GePol: Number of points with low weight             =     198
 GePol: Fraction of low-weight points (<1% of avg)   =       5.73%
 GePol: Cavity surface area                          =    362.180 Ang**2
 GePol: Cavity volume                                =    429.443 Ang**3
 Surface areas from nonelectrostatic (unscaled) cavity and vdw tensions:
 Sphere =    1 Type =  NH+ Surf =       12.393 Tension =       -0.274
 Sphere =    2 Type =  NH+ Surf =        3.828 Tension =       -0.274
 Sphere =    3 Type =  NH+ Surf =        3.852 Tension =       -0.274
 Sphere =    4 Type =  CN+ Surf =        4.457 Tension =       -0.227
 Sphere =    5 Type =  CN+ Surf =        9.481 Tension =       -0.227
 Sphere =    6 Type =  CN+ Surf =       10.067 Tension =       -0.227
 Sphere =    7 Type =  CH2 Surf =        3.807 Tension =       -0.194
 Sphere =    8 Type =  CH2 Surf =        9.962 Tension =       -0.194
 Sphere =    9 Type =  CH2 Surf =       10.049 Tension =       -0.194
 Sphere =   10 Type =  CH2 Surf =        4.014 Tension =       -0.194
 Sphere =   11 Type =  CH2 Surf =        9.805 Tension =       -0.194
 Sphere =   12 Type =  CH2 Surf =        9.469 Tension =       -0.194
 Sphere =   13 Type =  N   Surf =        5.278 Tension =       -0.115
 Sphere =   14 Type =  C   Surf =        5.569 Tension =       -0.205
 Sphere =   15 Type =  CH  Surf =        7.442 Tension =       -0.195
 Sphere =   16 Type =  CH  Surf =       10.136 Tension =       -0.195
 Sphere =   17 Type =  CH  Surf =        7.558 Tension =       -0.195
 Sphere =   18 Type =  CH  Surf =       10.192 Tension =       -0.195
 Sphere =   19 Type =  CH  Surf =        7.867 Tension =       -0.195
 Sphere =   20 Type =  CH  Surf =       10.265 Tension =       -0.195
 Sphere =   21 Type =  CH  Surf =        7.526 Tension =       -0.195
 Sphere =   22 Type =  CH  Surf =        9.680 Tension =       -0.195
 Sphere =   23 Type =  C   Surf =        6.065 Tension =       -0.205
 Sphere =   24 Type =  CH2 Surf =        3.975 Tension =       -0.194
 Sphere =   25 Type =  CH2 Surf =        8.911 Tension =       -0.194
 Sphere =   26 Type =  CH2 Surf =       10.111 Tension =       -0.194
 Sphere =   27 Type =  CH2 Surf =        3.774 Tension =       -0.194
 Sphere =   28 Type =  CH2 Surf =        9.795 Tension =       -0.194
 Sphere =   29 Type =  CH2 Surf =        9.923 Tension =       -0.194
 Sphere =   30 Type =  C   Surf =        6.377 Tension =       -0.205
 Sphere =   31 Type =  CH  Surf =        7.604 Tension =       -0.195
 Sphere =   32 Type =  CH  Surf =       10.085 Tension =       -0.195
 Sphere =   33 Type =  CH  Surf =        7.825 Tension =       -0.195
 Sphere =   34 Type =  CH  Surf =       10.256 Tension =       -0.195
 Sphere =   35 Type =  CH  Surf =        7.352 Tension =       -0.195
 Sphere =   36 Type =  CH  Surf =       10.134 Tension =       -0.195
 Sphere =   37 Type =  CH  Surf =        7.449 Tension =       -0.195
 Sphere =   38 Type =  CH  Surf =        9.904 Tension =       -0.195
 Sphere =   39 Type =  C   Surf =        5.922 Tension =       -0.205
 Sphere =   40 Type =  NH+ Surf =        3.855 Tension =       -0.274
 PCM non-electrostatic energy =        -0.0182618824 Hartrees.
 Nuclear repulsion after PCM non-electrostatic terms =     1423.1577909021 Hartrees.
 Leave Link  301 at Sun Jul 18 13:31:18 2021, MaxMem=   104857600 cpu:               0.1 elap:               0.2
 (Enter /dades/curu/g16A03_MST/g16/l302.exe)
 NPDir=0 NMtPBC=     1 NCelOv=     1 NCel=       1 NClECP=     1 NCelD=      1
         NCelK=      1 NCelE2=     1 NClLst=     1 CellRange=     0.0.
 One-electron integrals computed using PRISM.
 One-electron integral symmetry used in STVInt
 NBasis=   327 RedAO= T EigKep=  3.92D-04  NBF=   327
 NBsUse=   327 1.00D-06 EigRej= -1.00D+00 NBFU=   327
 Precomputing XC quadrature grid using
 IXCGrd= 4 IRadAn=           5 IRanWt=          -1 IRanGd=           0 AccXCQ= 0.00D+00.
 Generated NRdTot=       0 NPtTot=           0 NUsed=           0 NTot=          32
 NSgBfM=   326   326   326   326   326 MxSgAt=    40 MxSgA2=    40.
 Leave Link  302 at Sun Jul 18 13:31:20 2021, MaxMem=   104857600 cpu:               5.5 elap:               1.5
 (Enter /dades/curu/g16A03_MST/g16/l303.exe)
 DipDrv:  MaxL=1.
 Leave Link  303 at Sun Jul 18 13:31:20 2021, MaxMem=   104857600 cpu:               0.1 elap:               0.1
 (Enter /dades/curu/g16A03_MST/g16/l401.exe)
 ExpMin= 1.61D-01 ExpMax= 4.17D+03 ExpMxC= 6.27D+02 IAcc=3 IRadAn=         5 AccDes= 0.00D+00
 Harris functional with IExCor=  402 and IRadAn=       5 diagonalized for initial guess.
 HarFok:  IExCor=  402 AccDes= 0.00D+00 IRadAn=         5 IDoV= 1 UseB2=F ITyADJ=14
 ICtDFT=  3500011 ScaDFX=  1.000000  1.000000  1.000000  1.000000
 FoFCou: FMM=F IPFlag=           0 FMFlag=      100000 FMFlg1=           0
         NFxFlg=           0 DoJE=T BraDBF=F KetDBF=T FulRan=T
         wScrn=  0.000000 ICntrl=       500 IOpCl=  0 I1Cent=   200000004 NGrid=           0
         NMat0=    1 NMatS0=      1 NMatT0=    0 NMatD0=    1 NMtDS0=    0 NMtDT0=    0
 Petite list used in FoFCou.
 Harris En= -769.743212024291    
 JPrj=0 DoOrth=F DoCkMO=F.
 Leave Link  401 at Sun Jul 18 13:31:30 2021, MaxMem=   104857600 cpu:              41.4 elap:              10.4
 (Enter /dades/curu/g16A03_MST/g16/l502.exe)
 Integral symmetry usage will be decided dynamically.
 Closed shell SCF:
 Using DIIS extrapolation, IDIIS=  1040.
 NGot=   104857600 LenX=   104637961 LenY=   104530591
 Requested convergence on RMS density matrix=1.00D-08 within 128 cycles.
 Requested convergence on MAX density matrix=1.00D-06.
 Requested convergence on             energy=1.00D-06.
 No special actions if energy rises.
 Fock matrices will be formed incrementally for  20 cycles.

 Cycle   1  Pass 1  IDiag  1:
 FoFJK:  IHMeth= 1 ICntrl=       0 DoSepK=F KAlg= 0 I1Cent=           0 FoldK=F
 IRaf= 830000000 NMat=       1 IRICut=       1 DoRegI=T DoRafI=F ISym2E= 0 IDoP0=0 IntGTp=1.
 FoFCou: FMM=F IPFlag=           0 FMFlag=      100000 FMFlg1=           0
         NFxFlg=           0 DoJE=F BraDBF=F KetDBF=F FulRan=T
         wScrn=  0.000000 ICntrl=         0 IOpCl=  0 I1Cent=           0 NGrid=           0
         NMat0=    1 NMatS0=      1 NMatT0=    0 NMatD0=    1 NMtDS0=    0 NMtDT0=    0
 Symmetry not used in FoFCou.
 Inv3:  Mode=1 IEnd=    35831808.
 Iteration    1 A*A^-1 deviation from unit magnitude is 7.77D-15 for   3451.
 Iteration    1 A*A^-1 deviation from orthogonality  is 2.16D-15 for   3438   1975.
 Iteration    1 A^-1*A deviation from unit magnitude is 7.99D-15 for   3451.
 Iteration    1 A^-1*A deviation from orthogonality  is 1.56D-15 for   2828    474.
 E= -769.349508152651    
 DIIS: error= 2.25D-02 at cycle   1 NSaved=   1.
 NSaved= 1 IEnMin= 1 EnMin= -769.349508152651     IErMin= 1 ErrMin= 2.25D-02
 ErrMax= 2.25D-02  0.00D+00 EMaxC= 1.00D-01 BMatC= 3.91D-01 BMatP= 3.91D-01
 IDIUse=3 WtCom= 7.75D-01 WtEn= 2.25D-01
 Coeff-Com:  0.100D+01
 Coeff-En:   0.100D+01
 Coeff:      0.100D+01
 Gap=     0.232 Goal=   None    Shift=    0.000
 GapD=    0.232 DampG=1.000 DampE=0.500 DampFc=0.5000 IDamp=-1.
 Damping current iteration by 5.00D-01
 RMSDP=4.40D-03 MaxDP=1.35D-01              OVMax= 1.83D-01

 Cycle   2  Pass 1  IDiag  1:
 RMSU=  2.15D-03    CP:  9.74D-01
 E= -769.551847054169     Delta-E=       -0.202338901518 Rises=F Damp=T
 DIIS: error= 7.22D-03 at cycle   2 NSaved=   2.
 NSaved= 2 IEnMin= 2 EnMin= -769.551847054169     IErMin= 2 ErrMin= 7.22D-03
 ErrMax= 7.22D-03  0.00D+00 EMaxC= 1.00D-01 BMatC= 2.48D-02 BMatP= 3.91D-01
 IDIUse=3 WtCom= 9.28D-01 WtEn= 7.22D-02
 Coeff-Com: -0.359D-04 0.100D+01
 Coeff-En:   0.000D+00 0.100D+01
 Coeff:     -0.333D-04 0.100D+01
 Gap=     0.221 Goal=   None    Shift=    0.000
 RMSDP=1.23D-03 MaxDP=4.86D-02 DE=-2.02D-01 OVMax= 1.31D-01

 Cycle   3  Pass 1  IDiag  1:
 RMSU=  1.22D-03    CP:  9.63D-01  9.54D-01
 E= -769.751787980145     Delta-E=       -0.199940925976 Rises=F Damp=F
 DIIS: error= 5.61D-03 at cycle   3 NSaved=   3.
 NSaved= 3 IEnMin= 3 EnMin= -769.751787980145     IErMin= 3 ErrMin= 5.61D-03
 ErrMax= 5.61D-03  0.00D+00 EMaxC= 1.00D-01 BMatC= 2.18D-02 BMatP= 2.48D-02
 IDIUse=3 WtCom= 9.44D-01 WtEn= 5.61D-02
 Coeff-Com: -0.481D-01 0.506D+00 0.542D+00
 Coeff-En:   0.000D+00 0.000D+00 0.100D+01
 Coeff:     -0.454D-01 0.478D+00 0.568D+00
 Gap=     0.207 Goal=   None    Shift=    0.000
 RMSDP=8.46D-04 MaxDP=3.65D-02 DE=-2.00D-01 OVMax= 9.05D-02

 Cycle   4  Pass 1  IDiag  1:
 RMSU=  6.87D-04    CP:  9.63D-01  1.01D+00  6.07D-01
 E= -769.765020720971     Delta-E=       -0.013232740826 Rises=F Damp=F
 DIIS: error= 3.86D-03 at cycle   4 NSaved=   4.
 NSaved= 4 IEnMin= 4 EnMin= -769.765020720971     IErMin= 4 ErrMin= 3.86D-03
 ErrMax= 3.86D-03  0.00D+00 EMaxC= 1.00D-01 BMatC= 8.80D-03 BMatP= 2.18D-02
 IDIUse=3 WtCom= 9.61D-01 WtEn= 3.86D-02
 Coeff-Com: -0.265D-01 0.117D+00 0.398D+00 0.511D+00
 Coeff-En:   0.000D+00 0.000D+00 0.335D+00 0.665D+00
 Coeff:     -0.254D-01 0.113D+00 0.395D+00 0.517D+00
 Gap=     0.194 Goal=   None    Shift=    0.000
 RMSDP=4.06D-04 MaxDP=1.43D-02 DE=-1.32D-02 OVMax= 3.52D-02

 Cycle   5  Pass 1  IDiag  1:
 RMSU=  1.35D-04    CP:  9.63D-01  1.01D+00  7.24D-01  4.82D-01
 E= -769.774473711909     Delta-E=       -0.009452990938 Rises=F Damp=F
 DIIS: error= 4.17D-04 at cycle   5 NSaved=   5.
 NSaved= 5 IEnMin= 5 EnMin= -769.774473711909     IErMin= 5 ErrMin= 4.17D-04
 ErrMax= 4.17D-04  0.00D+00 EMaxC= 1.00D-01 BMatC= 1.70D-04 BMatP= 8.80D-03
 IDIUse=3 WtCom= 9.96D-01 WtEn= 4.17D-03
 Coeff-Com: -0.859D-02 0.247D-01 0.146D+00 0.231D+00 0.607D+00
 Coeff-En:   0.000D+00 0.000D+00 0.000D+00 0.000D+00 0.100D+01
 Coeff:     -0.855D-02 0.246D-01 0.145D+00 0.230D+00 0.609D+00
 Gap=     0.193 Goal=   None    Shift=    0.000
 RMSDP=6.42D-05 MaxDP=1.80D-03 DE=-9.45D-03 OVMax= 5.04D-03

 Cycle   6  Pass 1  IDiag  1:
 RMSU=  4.08D-05    CP:  9.63D-01  1.01D+00  7.31D-01  5.24D-01  7.11D-01
 E= -769.774616509704     Delta-E=       -0.000142797795 Rises=F Damp=F
 DIIS: error= 2.00D-04 at cycle   6 NSaved=   6.
 NSaved= 6 IEnMin= 6 EnMin= -769.774616509704     IErMin= 6 ErrMin= 2.00D-04
 ErrMax= 2.00D-04  0.00D+00 EMaxC= 1.00D-01 BMatC= 3.43D-05 BMatP= 1.70D-04
 IDIUse=3 WtCom= 9.98D-01 WtEn= 2.00D-03
 Coeff-Com: -0.243D-02 0.339D-02 0.467D-01 0.832D-01 0.357D+00 0.512D+00
 Coeff-En:   0.000D+00 0.000D+00 0.000D+00 0.000D+00 0.149D+00 0.851D+00
 Coeff:     -0.243D-02 0.338D-02 0.466D-01 0.831D-01 0.357D+00 0.513D+00
 Gap=     0.193 Goal=   None    Shift=    0.000
 RMSDP=2.00D-05 MaxDP=8.26D-04 DE=-1.43D-04 OVMax= 1.92D-03

 Cycle   7  Pass 1  IDiag  1:
 RMSU=  8.93D-06    CP:  9.63D-01  1.01D+00  7.32D-01  5.26D-01  7.58D-01
                    CP:  5.92D-01
 E= -769.774650775143     Delta-E=       -0.000034265439 Rises=F Damp=F
 DIIS: error= 2.73D-05 at cycle   7 NSaved=   7.
 NSaved= 7 IEnMin= 7 EnMin= -769.774650775143     IErMin= 7 ErrMin= 2.73D-05
 ErrMax= 2.73D-05  0.00D+00 EMaxC= 1.00D-01 BMatC= 8.66D-07 BMatP= 3.43D-05
 IDIUse=1 WtCom= 1.00D+00 WtEn= 0.00D+00
 Coeff-Com: -0.668D-03 0.397D-03 0.142D-01 0.257D-01 0.131D+00 0.230D+00
 Coeff-Com:  0.599D+00
 Coeff:     -0.668D-03 0.397D-03 0.142D-01 0.257D-01 0.131D+00 0.230D+00
 Coeff:      0.599D+00
 Gap=     0.193 Goal=   None    Shift=    0.000
 RMSDP=4.14D-06 MaxDP=1.17D-04 DE=-3.43D-05 OVMax= 3.42D-04

 Cycle   8  Pass 1  IDiag  1:
 RMSU=  2.98D-06    CP:  9.63D-01  1.01D+00  7.32D-01  5.26D-01  7.58D-01
                    CP:  6.16D-01  7.10D-01
 E= -769.774651489244     Delta-E=       -0.000000714101 Rises=F Damp=F
 DIIS: error= 1.26D-05 at cycle   8 NSaved=   8.
 NSaved= 8 IEnMin= 8 EnMin= -769.774651489244     IErMin= 8 ErrMin= 1.26D-05
 ErrMax= 1.26D-05  0.00D+00 EMaxC= 1.00D-01 BMatC= 1.58D-07 BMatP= 8.66D-07
 IDIUse=1 WtCom= 1.00D+00 WtEn= 0.00D+00
 Coeff-Com:  0.490D-04-0.377D-03 0.260D-03 0.287D-05 0.143D-01 0.442D-01
 Coeff-Com:  0.319D+00 0.622D+00
 Coeff:      0.490D-04-0.377D-03 0.260D-03 0.287D-05 0.143D-01 0.442D-01
 Coeff:      0.319D+00 0.622D+00
 Gap=     0.193 Goal=   None    Shift=    0.000
 RMSDP=1.51D-06 MaxDP=4.51D-05 DE=-7.14D-07 OVMax= 1.11D-04

 Cycle   9  Pass 1  IDiag  1:
 RMSU=  8.99D-07    CP:  9.63D-01  1.01D+00  7.32D-01  5.26D-01  7.61D-01
                    CP:  6.18D-01  7.87D-01  7.17D-01
 E= -769.774651646902     Delta-E=       -0.000000157658 Rises=F Damp=F
 DIIS: error= 3.99D-06 at cycle   9 NSaved=   9.
 NSaved= 9 IEnMin= 9 EnMin= -769.774651646902     IErMin= 9 ErrMin= 3.99D-06
 ErrMax= 3.99D-06  0.00D+00 EMaxC= 1.00D-01 BMatC= 8.29D-09 BMatP= 1.58D-07
 IDIUse=1 WtCom= 1.00D+00 WtEn= 0.00D+00
 Coeff-Com:  0.542D-04-0.178D-03-0.481D-03-0.133D-02 0.336D-03 0.879D-02
 Coeff-Com:  0.106D+00 0.273D+00 0.613D+00
 Coeff:      0.542D-04-0.178D-03-0.481D-03-0.133D-02 0.336D-03 0.879D-02
 Coeff:      0.106D+00 0.273D+00 0.613D+00
 Gap=     0.193 Goal=   None    Shift=    0.000
 RMSDP=4.11D-07 MaxDP=1.76D-05 DE=-1.58D-07 OVMax= 4.08D-05

 Cycle  10  Pass 1  IDiag  1:
 RMSU=  2.81D-07    CP:  9.63D-01  1.01D+00  7.32D-01  5.26D-01  7.62D-01
                    CP:  6.21D-01  7.91D-01  7.73D-01  7.97D-01
 E= -769.774651654553     Delta-E=       -0.000000007651 Rises=F Damp=F
 DIIS: error= 1.21D-06 at cycle  10 NSaved=  10.
 NSaved=10 IEnMin=10 EnMin= -769.774651654553     IErMin=10 ErrMin= 1.21D-06
 ErrMax= 1.21D-06  0.00D+00 EMaxC= 1.00D-01 BMatC= 1.74D-09 BMatP= 8.29D-09
 IDIUse=1 WtCom= 1.00D+00 WtEn= 0.00D+00
 Coeff-Com:  0.279D-04-0.584D-04-0.349D-03-0.918D-03-0.198D-02-0.107D-02
 Coeff-Com:  0.175D-01 0.778D-01 0.361D+00 0.548D+00
 Coeff:      0.279D-04-0.584D-04-0.349D-03-0.918D-03-0.198D-02-0.107D-02
 Coeff:      0.175D-01 0.778D-01 0.361D+00 0.548D+00
 Gap=     0.193 Goal=   None    Shift=    0.000
 RMSDP=1.51D-07 MaxDP=5.69D-06 DE=-7.65D-09 OVMax= 1.08D-05

 Cycle  11  Pass 1  IDiag  1:
 RMSU=  8.62D-08    CP:  9.63D-01  1.01D+00  7.32D-01  5.26D-01  7.62D-01
                    CP:  6.21D-01  7.96D-01  7.78D-01  8.68D-01  7.06D-01
 E= -769.774651656157     Delta-E=       -0.000000001604 Rises=F Damp=F
 DIIS: error= 2.76D-07 at cycle  11 NSaved=  11.
 NSaved=11 IEnMin=11 EnMin= -769.774651656157     IErMin=11 ErrMin= 2.76D-07
 ErrMax= 2.76D-07  0.00D+00 EMaxC= 1.00D-01 BMatC= 5.32D-11 BMatP= 1.74D-09
 IDIUse=1 WtCom= 1.00D+00 WtEn= 0.00D+00
 Coeff-Com:  0.517D-05-0.538D-05-0.634D-04-0.210D-03-0.601D-03-0.860D-03
 Coeff-Com: -0.290D-02 0.547D-02 0.807D-01 0.176D+00 0.743D+00
 Coeff:      0.517D-05-0.538D-05-0.634D-04-0.210D-03-0.601D-03-0.860D-03
 Coeff:     -0.290D-02 0.547D-02 0.807D-01 0.176D+00 0.743D+00
 Gap=     0.193 Goal=   None    Shift=    0.000
 RMSDP=3.83D-08 MaxDP=1.08D-06 DE=-1.60D-09 OVMax= 3.48D-06

 Cycle  12  Pass 1  IDiag  1:
 RMSU=  2.27D-08    CP:  9.63D-01  1.01D+00  7.32D-01  5.26D-01  7.62D-01
                    CP:  6.21D-01  7.96D-01  7.81D-01  8.85D-01  7.59D-01
                    CP:  8.59D-01
 E= -769.774651656197     Delta-E=       -0.000000000040 Rises=F Damp=F
 DIIS: error= 1.00D-07 at cycle  12 NSaved=  12.
 NSaved=12 IEnMin=12 EnMin= -769.774651656197     IErMin=12 ErrMin= 1.00D-07
 ErrMax= 1.00D-07  0.00D+00 EMaxC= 1.00D-01 BMatC= 1.25D-11 BMatP= 5.32D-11
 IDIUse=1 WtCom= 1.00D+00 WtEn= 0.00D+00
 Coeff-Com:  0.198D-06 0.284D-05-0.136D-05-0.268D-04-0.159D-03-0.439D-03
 Coeff-Com: -0.404D-02-0.607D-02 0.448D-02 0.295D-01 0.394D+00 0.583D+00
 Coeff:      0.198D-06 0.284D-05-0.136D-05-0.268D-04-0.159D-03-0.439D-03
 Coeff:     -0.404D-02-0.607D-02 0.448D-02 0.295D-01 0.394D+00 0.583D+00
 Gap=     0.193 Goal=   None    Shift=    0.000
 RMSDP=1.42D-08 MaxDP=5.36D-07 DE=-3.98D-11 OVMax= 9.11D-07

 Cycle  13  Pass 1  IDiag  1:
 RMSU=  8.92D-09    CP:  9.63D-01  1.01D+00  7.32D-01  5.26D-01  7.62D-01
                    CP:  6.21D-01  7.96D-01  7.82D-01  8.92D-01  7.62D-01
                    CP:  9.22D-01  7.96D-01
 E= -769.774651656209     Delta-E=       -0.000000000012 Rises=F Damp=F
 DIIS: error= 1.94D-08 at cycle  13 NSaved=  13.
 NSaved=13 IEnMin=13 EnMin= -769.774651656209     IErMin=13 ErrMin= 1.94D-08
 ErrMax= 1.94D-08  0.00D+00 EMaxC= 1.00D-01 BMatC= 5.43D-13 BMatP= 1.25D-11
 IDIUse=1 WtCom= 1.00D+00 WtEn= 0.00D+00
 Coeff-Com: -0.428D-06 0.136D-05 0.762D-05 0.138D-04 0.178D-04-0.421D-04
 Coeff-Com: -0.108D-02-0.248D-02-0.673D-02-0.109D-01 0.610D-01 0.213D+00
 Coeff-Com:  0.748D+00
 Coeff:     -0.428D-06 0.136D-05 0.762D-05 0.138D-04 0.178D-04-0.421D-04
 Coeff:     -0.108D-02-0.248D-02-0.673D-02-0.109D-01 0.610D-01 0.213D+00
 Coeff:      0.748D+00
 Gap=     0.193 Goal=   None    Shift=    0.000
 RMSDP=3.84D-09 MaxDP=1.26D-07 DE=-1.21D-11 OVMax= 3.42D-07

 Error on total polarization charges =  0.00839
 SCF Done:  E(RB3LYP) =  -769.774651656     A.U. after   13 cycles
            NFock= 13  Conv=0.38D-08     -V/T= 2.0091
 KE= 7.628570944387D+02 PE=-4.613193167306D+03 EE= 1.657403630309D+03
 Leave Link  502 at Sun Jul 18 13:36:49 2021, MaxMem=   104857600 cpu:            1239.4 elap:             318.5
 (Enter /dades/curu/g16A03_MST/g16/l601.exe)
 Copying SCF densities to generalized density rwf, IOpCl= 0 IROHF=0.

 **********************************************************************

            Population analysis using the SCF density.

 **********************************************************************

 Orbital symmetries:
       Occupied  (A) (A) (A) (A) (A) (A) (A) (A) (A) (A) (A) (A)
                 (A) (A) (A) (A) (A) (A) (A) (A) (A) (A) (A) (A)
                 (A) (A) (A) (A) (A) (A) (A) (A) (A) (A) (A) (A)
                 (A) (A) (A) (A) (A) (A) (A) (A) (A) (A) (A) (A)
                 (A) (A) (A) (A) (A) (A) (A) (A) (A) (A) (A) (A)
                 (A) (A) (A) (A) (A) (A) (A) (A)
       Virtual   (A) (A) (A) (A) (A) (A) (A) (A) (A) (A) (A) (A)
                 (A) (A) (A) (A) (A) (A) (A) (A) (A) (A) (A) (A)
                 (A) (A) (A) (A) (A) (A) (A) (A) (A) (A) (A) (A)
                 (A) (A) (A) (A) (A) (A) (A) (A) (A) (A) (A) (A)
                 (A) (A) (A) (A) (A) (A) (A) (A) (A) (A) (A) (A)
                 (A) (A) (A) (A) (A) (A) (A) (A) (A) (A) (A) (A)
                 (A) (A) (A) (A) (A) (A) (A) (A) (A) (A) (A) (A)
                 (A) (A) (A) (A) (A) (A) (A) (A) (A) (A) (A) (A)
                 (A) (A) (A) (A) (A) (A) (A) (A) (A) (A) (A) (A)
                 (A) (A) (A) (A) (A) (A) (A) (A) (A) (A) (A) (A)
                 (A) (A) (A) (A) (A) (A) (A) (A) (A) (A) (A) (A)
                 (A) (A) (A) (A) (A) (A) (A) (A) (A) (A) (A) (A)
                 (A) (A) (A) (A) (A) (A) (A) (A) (A) (A) (A) (A)
                 (A) (A) (A) (A) (A) (A) (A) (A) (A) (A) (A) (A)
                 (A) (A) (A) (A) (A) (A) (A) (A) (A) (A) (A) (A)
                 (A) (A) (A) (A) (A) (A) (A) (A) (A) (A) (A) (A)
                 (A) (A) (A) (A) (A) (A) (A) (A) (A) (A) (A) (A)
                 (A) (A) (A) (A) (A) (A) (A) (A) (A) (A) (A) (A)
                 (A) (A) (A) (A) (A) (A) (A) (A) (A) (A) (A) (A)
                 (A) (A) (A) (A) (A) (A) (A) (A) (A) (A) (A) (A)
                 (A) (A) (A) (A) (A) (A) (A) (A) (A) (A) (A) (A)
                 (A) (A) (A) (A) (A) (A) (A)
 The electronic state is 1-A.
 Alpha  occ. eigenvalues --  -14.46694 -14.36015 -10.27476 -10.25095 -10.23338
 Alpha  occ. eigenvalues --  -10.22817 -10.22235 -10.20162 -10.20084 -10.19539
 Alpha  occ. eigenvalues --  -10.19448 -10.19362 -10.19260 -10.19171 -10.19098
 Alpha  occ. eigenvalues --  -10.19088 -10.18680 -10.18576 -10.18198  -1.04188
 Alpha  occ. eigenvalues --   -0.97730  -0.86872  -0.85700  -0.80918  -0.80283
 Alpha  occ. eigenvalues --   -0.76873  -0.76087  -0.74379  -0.72628  -0.69946
 Alpha  occ. eigenvalues --   -0.65354  -0.64822  -0.62484  -0.61623  -0.60831
 Alpha  occ. eigenvalues --   -0.60317  -0.58713  -0.57761  -0.52955  -0.52449
 Alpha  occ. eigenvalues --   -0.51783  -0.49411  -0.49056  -0.48662  -0.47506
 Alpha  occ. eigenvalues --   -0.46331  -0.45336  -0.44912  -0.43810  -0.43441
 Alpha  occ. eigenvalues --   -0.41842  -0.40491  -0.39426  -0.39189  -0.39005
 Alpha  occ. eigenvalues --   -0.38307  -0.37328  -0.36899  -0.36218  -0.35391
 Alpha  occ. eigenvalues --   -0.35162  -0.33640  -0.31933  -0.29018  -0.25751
 Alpha  occ. eigenvalues --   -0.25045  -0.24264  -0.20972
 Alpha virt. eigenvalues --   -0.01649  -0.01040  -0.00457   0.00331   0.02563
 Alpha virt. eigenvalues --    0.07133   0.08006   0.08873   0.09132   0.09754
 Alpha virt. eigenvalues --    0.10037   0.10816   0.11942   0.12365   0.13305
 Alpha virt. eigenvalues --    0.13738   0.13978   0.14400   0.15245   0.15503
 Alpha virt. eigenvalues --    0.16125   0.16474   0.17149   0.18110   0.18634
 Alpha virt. eigenvalues --    0.19038   0.19953   0.20511   0.21882   0.22167
 Alpha virt. eigenvalues --    0.22890   0.23261   0.24565   0.26481   0.27511
 Alpha virt. eigenvalues --    0.29722   0.31179   0.31753   0.33044   0.34311
 Alpha virt. eigenvalues --    0.35295   0.35997   0.37979   0.40695   0.45945
 Alpha virt. eigenvalues --    0.46870   0.48143   0.48710   0.48976   0.49910
 Alpha virt. eigenvalues --    0.50860   0.51587   0.52354   0.52571   0.53695
 Alpha virt. eigenvalues --    0.53979   0.54382   0.55197   0.55958   0.56489
 Alpha virt. eigenvalues --    0.56809   0.58248   0.59474   0.59923   0.60071
 Alpha virt. eigenvalues --    0.60207   0.60731   0.61086   0.61398   0.62098
 Alpha virt. eigenvalues --    0.62309   0.63412   0.63834   0.65289   0.65879
 Alpha virt. eigenvalues --    0.66534   0.68474   0.69651   0.70060   0.70699
 Alpha virt. eigenvalues --    0.70957   0.73818   0.74099   0.75740   0.77588
 Alpha virt. eigenvalues --    0.78413   0.79208   0.80650   0.81487   0.82138
 Alpha virt. eigenvalues --    0.82502   0.82753   0.83060   0.83776   0.84167
 Alpha virt. eigenvalues --    0.84419   0.84691   0.85547   0.87015   0.87711
 Alpha virt. eigenvalues --    0.88717   0.89739   0.89979   0.90692   0.91950
 Alpha virt. eigenvalues --    0.92827   0.93439   0.94531   0.95072   0.95400
 Alpha virt. eigenvalues --    0.97085   0.98800   0.99436   1.00251   1.00972
 Alpha virt. eigenvalues --    1.02251   1.03266   1.04137   1.04863   1.06736
 Alpha virt. eigenvalues --    1.09253   1.10890   1.11825   1.12016   1.14750
 Alpha virt. eigenvalues --    1.15479   1.17973   1.18776   1.20195   1.21461
 Alpha virt. eigenvalues --    1.22862   1.25204   1.27413   1.28259   1.31120
 Alpha virt. eigenvalues --    1.31360   1.37034   1.37550   1.39590   1.40962
 Alpha virt. eigenvalues --    1.41948   1.44909   1.45186   1.48453   1.48950
 Alpha virt. eigenvalues --    1.50214   1.51389   1.53349   1.54633   1.56757
 Alpha virt. eigenvalues --    1.57518   1.61329   1.62732   1.65264   1.66804
 Alpha virt. eigenvalues --    1.68661   1.72141   1.73740   1.75470   1.76351
 Alpha virt. eigenvalues --    1.78224   1.79734   1.80821   1.84106   1.84461
 Alpha virt. eigenvalues --    1.85564   1.86222   1.87071   1.88405   1.88697
 Alpha virt. eigenvalues --    1.90755   1.90941   1.92720   1.93777   1.94750
 Alpha virt. eigenvalues --    1.96745   1.98226   1.98488   1.99020   1.99897
 Alpha virt. eigenvalues --    2.02191   2.02976   2.03964   2.06387   2.06981
 Alpha virt. eigenvalues --    2.09956   2.11722   2.13833   2.15626   2.16842
 Alpha virt. eigenvalues --    2.16952   2.18820   2.20438   2.22221   2.23250
 Alpha virt. eigenvalues --    2.24188   2.26091   2.26767   2.28012   2.29463
 Alpha virt. eigenvalues --    2.30596   2.31062   2.31968   2.32593   2.34577
 Alpha virt. eigenvalues --    2.36169   2.36598   2.38725   2.39056   2.39944
 Alpha virt. eigenvalues --    2.44293   2.45995   2.50780   2.55402   2.57389
 Alpha virt. eigenvalues --    2.58291   2.59370   2.60625   2.62905   2.63496
 Alpha virt. eigenvalues --    2.64661   2.66016   2.67084   2.70168   2.71971
 Alpha virt. eigenvalues --    2.74571   2.76368   2.77170   2.79469   2.81320
 Alpha virt. eigenvalues --    2.82361   2.83899   2.86581   2.89321   2.97409
 Alpha virt. eigenvalues --    3.04017   3.17299   3.20688   3.42763   3.43848
 Alpha virt. eigenvalues --    3.76424   4.08174   4.09348   4.09946   4.12087
 Alpha virt. eigenvalues --    4.12725   4.15184   4.19715   4.22172   4.29976
 Alpha virt. eigenvalues --    4.33760   4.36891   4.41029   4.41987   4.44648
 Alpha virt. eigenvalues --    4.46940   4.53232   4.75498   4.76188
          Condensed to atoms (all electrons):
               1          2          3          4          5          6
     1  N    6.653902   0.301731   0.303248   0.238229  -0.048095  -0.039332
     2  H    0.301731   0.280212  -0.010015  -0.023042  -0.001996   0.003880
     3  H    0.303248  -0.010015   0.273789  -0.020561   0.004664  -0.003088
     4  C    0.238229  -0.023042  -0.020561   5.047308   0.386397   0.388121
     5  H   -0.048095  -0.001996   0.004664   0.386397   0.516873  -0.012240
     6  H   -0.039332   0.003880  -0.003088   0.388121  -0.012240   0.470791
     7  C   -0.044728  -0.005277  -0.002210   0.330216  -0.057388  -0.027599
     8  H    0.003131   0.000141  -0.000064  -0.030483  -0.003367  -0.001681
     9  H   -0.002512  -0.000287   0.002961  -0.033058   0.005983  -0.002174
    10  C   -0.002445   0.005609  -0.000241  -0.029388  -0.003560   0.002383
    11  H    0.001776   0.006676   0.000004  -0.003577  -0.000362   0.000000
[...]
    39  C    3.423077   1.407960   2.155641   0.000000
    40  H    7.693587   6.356669   5.672350   6.392450   0.000000
 Stoichiometry    C17H21N2(1+)
 Framework group  C1[X(C17H21N2)]
 Deg. of freedom   114
 Full point group                 C1      NOp   1
 RotChk:  IX=0 Diff= 9.29D-15
 Largest Abelian subgroup         C1      NOp   1
 Largest concise Abelian subgroup C1      NOp   1
                         Standard orientation:                         
 ---------------------------------------------------------------------
 Center     Atomic      Atomic             Coordinates (Angstroms)
 Number     Number       Type             X           Y           Z
 ---------------------------------------------------------------------
      1          7           0        3.917082   -2.739900    0.763090
      2          1           0        3.280627   -3.356880    0.242638
      3          1           0        3.658177   -2.806016    1.756575
      4          6           0        3.901747   -1.313003    0.272203
      5          1           0        4.138066   -1.350128   -0.793075
      6          1           0        4.721747   -0.813726    0.788817
      7          6           0        2.584021   -0.595017    0.542993
      8          1           0        2.758712    0.463127    0.330386
      9          1           0        2.330597   -0.658582    1.605059
     10          6           0        1.395094   -1.084236   -0.293926
     11          1           0        1.142845   -2.109592   -0.020047
     12          1           0        1.671682   -1.097854   -1.360492
     13          7           0        0.203609   -0.283906   -0.025891
     14          6           0        0.298262    1.119253   -0.289152
     15          6           0        0.984799    1.613839   -1.404291
     16          1           0        1.443140    0.921515   -2.101485
     17          6           0        1.073577    2.989442   -1.619880
     18          1           0        1.605915    3.364131   -2.487192
     19          6           0        0.469215    3.875881   -0.729047
     20          1           0        0.533312    4.945983   -0.894141
     21          6           0       -0.212396    3.378734    0.382312
     22          1           0       -0.674719    4.060822    1.088237
     23          6           0       -0.295137    2.005823    0.622601
     24          6           0       -1.014647    1.435798    1.809956
     25          1           0       -1.248357    2.234736    2.519973
     26          1           0       -0.364095    0.716737    2.319234
     27          6           0       -2.320258    0.742434    1.409255
     28          1           0       -2.973883    1.492097    0.945761
     29          1           0       -2.841539    0.420764    2.318440
     30          6           0       -2.229272   -0.454936    0.477954
     31          6           0       -3.423248   -1.160665    0.279606
     32          1           0       -4.310254   -0.808832    0.801007
     33          6           0       -3.511181   -2.286901   -0.531381
     34          1           0       -4.455579   -2.806190   -0.646131
     35          6           0       -2.366608   -2.730506   -1.189457
     36          1           0       -2.401910   -3.597787   -1.841805
     37          6           0       -1.168551   -2.042301   -1.023757
     38          1           0       -0.294725   -2.374249   -1.571684
     39          6           0       -1.068714   -0.913317   -0.188426
     40          1           0        4.855186   -3.155362    0.674164
 ---------------------------------------------------------------------
 Rotational constants (GHZ):           0.3950449           0.3456166           0.2214938
 Leave Link  202 at Sun Jul 18 17:24:56 2021, MaxMem=   262144000 cpu:               0.0 elap:               0.0
 (Enter /dades/curu/g16A03_MST/g16/l301.exe)
 Standard basis: Aug-CC-pVDZ (5D, 7F)
 Ernie: Thresh=  0.10000D-02 Tol=  0.10000D-05 Strict=F.
 Ernie:  38 primitive shells out of 622 were deleted.
 There are   664 symmetry adapted cartesian basis functions of A   symmetry.
 There are   626 symmetry adapted basis functions of A   symmetry.
   626 basis functions,  1048 primitive gaussians,   664 cartesian basis functions
    68 alpha electrons       68 beta electrons
       nuclear repulsion energy      1420.2641852086 Hartrees.
 IExCor=    0 DFT=F Ex=HF Corr=None ExCW=0 ScaHFX=  1.000000
 ScaDFX=  1.000000  1.000000  1.000000  1.000000 ScalE2=  1.000000  1.000000
 IRadAn=      5 IRanWt=     -1 IRanGd=            0 ICorTp=0 IEmpDi=  4
 NAtoms=   40 NActive=   40 NUniq=   40 SFac= 1.00D+00 NAtFMM=   60 NAOKFM=F Big=F
 Integral buffers will be    131072 words long.
 Raffenetti 1 integral format.
 Two-electron integral symmetry is turned on.
 Leave Link  301 at Sun Jul 18 17:24:56 2021, MaxMem=   262144000 cpu:               0.1 elap:               0.1
 (Enter /dades/curu/g16A03_MST/g16/l302.exe)
 NPDir=0 NMtPBC=     1 NCelOv=     1 NCel=       1 NClECP=     1 NCelD=      1
         NCelK=      1 NCelE2=     1 NClLst=     1 CellRange=     0.0.
 One-electron integrals computed using PRISM.
 One-electron integral symmetry used in STVInt
 NBasis=   626 RedAO= T EigKep=  1.00D-06  NBF=   626
 NBsUse=   625 1.00D-06 EigRej=  7.93D-07 NBFU=   625
 Leave Link  302 at Sun Jul 18 17:24:57 2021, MaxMem=   262144000 cpu:               2.9 elap:               1.3
 (Enter /dades/curu/g16A03_MST/g16/l303.exe)
 DipDrv:  MaxL=1.
 Leave Link  303 at Sun Jul 18 17:24:57 2021, MaxMem=   262144000 cpu:               0.2 elap:               0.1
 (Enter /dades/curu/g16A03_MST/g16/l401.exe)
 ExpMin= 2.97D-02 ExpMax= 9.05D+03 ExpMxC= 3.09D+02 IAcc=3 IRadAn=         5 AccDes= 0.00D+00
 Harris functional with IExCor=  205 and IRadAn=       5 diagonalized for initial guess.
 HarFok:  IExCor=  205 AccDes= 0.00D+00 IRadAn=         5 IDoV= 1 UseB2=F ITyADJ=14
 ICtDFT=  3500011 ScaDFX=  1.000000  1.000000  1.000000  1.000000
 FoFCou: FMM=F IPFlag=           0 FMFlag=      100000 FMFlg1=           0
         NFxFlg=           0 DoJE=T BraDBF=F KetDBF=T FulRan=T
         wScrn=  0.000000 ICntrl=       500 IOpCl=  0 I1Cent=   200000004 NGrid=           0
         NMat0=    1 NMatS0=      1 NMatT0=    0 NMatD0=    1 NMtDS0=    0 NMtDT0=    0
 Petite list used in FoFCou.
 Harris En= -765.966356467507    
 JPrj=0 DoOrth=F DoCkMO=F.
 Leave Link  401 at Sun Jul 18 17:25:19 2021, MaxMem=   262144000 cpu:              85.0 elap:              21.8
 (Enter /dades/curu/g16A03_MST/g16/l502.exe)
 Integral symmetry usage will be decided dynamically.
 Closed shell SCF:
 Using DIIS extrapolation, IDIIS=  1040.
 NGot=   262144000 LenX=   261251926 LenY=   260810366
 Requested convergence on RMS density matrix=1.00D-08 within 128 cycles.
 Requested convergence on MAX density matrix=1.00D-06.
 Requested convergence on             energy=1.00D-06.
 No special actions if energy rises.
 Fock matrices will be formed incrementally for  20 cycles.

 Cycle   1  Pass 0  IDiag  1:
 FoFJK:  IHMeth= 1 ICntrl=       0 DoSepK=F KAlg= 0 I1Cent=           0 FoldK=F
 IRaf= 950000000 NMat=       1 IRICut=       1 DoRegI=T DoRafI=F ISym2E= 0 IDoP0=0 IntGTp=1.
 FoFCou: FMM=F IPFlag=           0 FMFlag=      100000 FMFlg1=           0
         NFxFlg=           0 DoJE=F BraDBF=F KetDBF=F FulRan=T
         wScrn=  0.000000 ICntrl=         0 IOpCl=  0 I1Cent=           0 NGrid=           0
         NMat0=    1 NMatS0=      1 NMatT0=    0 NMatD0=    1 NMtDS0=    0 NMtDT0=    0
 Symmetry not used in FoFCou.
 E= -764.013352430568    
 DIIS: error= 1.43D-02 at cycle   1 NSaved=   1.
 NSaved= 1 IEnMin= 1 EnMin= -764.013352430568     IErMin= 1 ErrMin= 1.43D-02
 ErrMax= 1.43D-02  0.00D+00 EMaxC= 1.00D-01 BMatC= 8.68D-01 BMatP= 8.68D-01
 IDIUse=3 WtCom= 8.57D-01 WtEn= 1.43D-01
 Coeff-Com:  0.100D+01
 Coeff-En:   0.100D+01
 Coeff:      0.100D+01
 Gap=     0.494 Goal=   None    Shift=    0.000
 GapD=    0.494 DampG=2.000 DampE=0.500 DampFc=1.0000 IDamp=-1.
 RMSDP=9.27D-02 MaxDP=8.30D+00              OVMax= 1.67D-01

 Cycle   2  Pass 0  IDiag  1:
 RMSU=  2.84D-02    CP:  4.48D-01
 E= -764.639057638666     Delta-E=       -0.625705208098 Rises=F Damp=F
 DIIS: error= 8.78D-03 at cycle   2 NSaved=   2.
 NSaved= 2 IEnMin= 2 EnMin= -764.639057638666     IErMin= 2 ErrMin= 8.78D-03
 ErrMax= 8.78D-03  0.00D+00 EMaxC= 1.00D-01 BMatC= 1.04D-01 BMatP= 8.68D-01
 IDIUse=3 WtCom= 9.12D-01 WtEn= 8.78D-02
 Coeff-Com:  0.193D+00 0.807D+00
 Coeff-En:   0.000D+00 0.100D+01
 Coeff:      0.176D+00 0.824D+00
 Gap=     0.284 Goal=   None    Shift=    0.000
 RMSDP=6.26D-03 MaxDP=5.52D-01 DE=-6.26D-01 OVMax= 5.59D-02

 Cycle   3  Pass 0  IDiag  1:
 RMSU=  6.08D-03    CP:  4.55D-01  9.64D-01
 E= -764.736286852113     Delta-E=       -0.097229213447 Rises=F Damp=F
 DIIS: error= 1.75D-03 at cycle   3 NSaved=   3.
 NSaved= 3 IEnMin= 3 EnMin= -764.736286852113     IErMin= 3 ErrMin= 1.75D-03
 ErrMax= 1.75D-03  0.00D+00 EMaxC= 1.00D-01 BMatC= 8.69D-03 BMatP= 1.04D-01
 IDIUse=3 WtCom= 9.82D-01 WtEn= 1.75D-02
 Coeff-Com: -0.174D-01 0.175D+00 0.842D+00
 Coeff-En:   0.000D+00 0.000D+00 0.100D+01
 Coeff:     -0.171D-01 0.172D+00 0.845D+00
 Gap=     0.280 Goal=   None    Shift=    0.000
 RMSDP=2.61D-03 MaxDP=2.25D-01 DE=-9.72D-02 OVMax= 3.50D-02

 Cycle   4  Pass 0  IDiag  1:
 RMSU=  1.36D-03    CP:  4.43D-01  9.75D-01  8.17D-01
 E= -764.745096315862     Delta-E=       -0.008809463749 Rises=F Damp=F
 DIIS: error= 6.25D-04 at cycle   4 NSaved=   4.
 NSaved= 4 IEnMin= 4 EnMin= -764.745096315862     IErMin= 4 ErrMin= 6.25D-04
 ErrMax= 6.25D-04  0.00D+00 EMaxC= 1.00D-01 BMatC= 1.07D-03 BMatP= 8.69D-03
 IDIUse=3 WtCom= 9.94D-01 WtEn= 6.25D-03
 Coeff-Com: -0.146D-01 0.221D-01 0.295D+00 0.697D+00
 Coeff-En:   0.000D+00 0.000D+00 0.000D+00 0.100D+01
 Coeff:     -0.146D-01 0.220D-01 0.293D+00 0.699D+00
 Gap=     0.270 Goal=   None    Shift=    0.000
 RMSDP=5.67D-04 MaxDP=7.35D-02 DE=-8.81D-03 OVMax= 6.46D-03

 Cycle   5  Pass 0  IDiag  1:
 RMSU=  3.97D-04    CP:  4.41D-01  9.73D-01  8.22D-01  8.85D-01
 E= -764.746221562782     Delta-E=       -0.001125246920 Rises=F Damp=F
 DIIS: error= 1.82D-04 at cycle   5 NSaved=   5.
 NSaved= 5 IEnMin= 5 EnMin= -764.746221562782     IErMin= 5 ErrMin= 1.82D-04
 ErrMax= 1.82D-04  0.00D+00 EMaxC= 1.00D-01 BMatC= 6.06D-05 BMatP= 1.07D-03
 IDIUse=3 WtCom= 9.98D-01 WtEn= 1.82D-03
 Coeff-Com:  0.167D-03-0.173D-01-0.560D-01 0.751D-01 0.998D+00
 Coeff-En:   0.000D+00 0.000D+00 0.000D+00 0.000D+00 0.100D+01
 Coeff:      0.167D-03-0.173D-01-0.559D-01 0.750D-01 0.998D+00
 Gap=     0.273 Goal=   None    Shift=    0.000
 RMSDP=2.21D-04 MaxDP=1.56D-02 DE=-1.13D-03 OVMax= 5.81D-03

 Cycle   6  Pass 0  IDiag  1:
 RMSU=  1.41D-04    CP:  4.40D-01  9.74D-01  8.34D-01  9.71D-01  9.58D-01
 E= -764.746350214541     Delta-E=       -0.000128651759 Rises=F Damp=F
 DIIS: error= 6.56D-05 at cycle   6 NSaved=   6.
 NSaved= 6 IEnMin= 6 EnMin= -764.746350214541     IErMin= 6 ErrMin= 6.56D-05
 ErrMax= 6.56D-05  0.00D+00 EMaxC= 1.00D-01 BMatC= 1.16D-05 BMatP= 6.06D-05
 IDIUse=1 WtCom= 1.00D+00 WtEn= 0.00D+00
 Coeff-Com:  0.142D-02-0.700D-02-0.400D-01-0.639D-01 0.252D+00 0.858D+00
 Coeff:      0.142D-02-0.700D-02-0.400D-01-0.639D-01 0.252D+00 0.858D+00
 Gap=     0.274 Goal=   None    Shift=    0.000
 RMSDP=6.94D-05 MaxDP=5.29D-03 DE=-1.29D-04 OVMax= 1.44D-03

 Cycle   7  Pass 0  IDiag  1:
 RMSU=  5.24D-05    CP:  4.40D-01  9.74D-01  8.33D-01  9.70D-01  1.04D+00
                    CP:  9.83D-01
 E= -764.746369637308     Delta-E=       -0.000019422767 Rises=F Damp=F
 DIIS: error= 1.97D-05 at cycle   7 NSaved=   7.
 NSaved= 7 IEnMin= 7 EnMin= -764.746369637308     IErMin= 7 ErrMin= 1.97D-05
 ErrMax= 1.97D-05  0.00D+00 EMaxC= 1.00D-01 BMatC= 1.30D-06 BMatP= 1.16D-05
 IDIUse=1 WtCom= 1.00D+00 WtEn= 0.00D+00
 Coeff-Com:  0.284D-03 0.539D-03-0.614D-03-0.299D-01-0.637D-01 0.163D+00
 Coeff-Com:  0.930D+00
 Coeff:      0.284D-03 0.539D-03-0.614D-03-0.299D-01-0.637D-01 0.163D+00
 Coeff:      0.930D+00
 Gap=     0.274 Goal=   None    Shift=    0.000
 RMSDP=2.25D-05 MaxDP=1.25D-03 DE=-1.94D-05 OVMax= 9.91D-04

 Cycle   8  Pass 0  IDiag  1:
 RMSU=  1.69D-05    CP:  4.40D-01  9.74D-01  8.34D-01  9.72D-01  1.05D+00
                    CP:  1.06D+00  1.04D+00
 E= -764.746372925431     Delta-E=       -0.000003288123 Rises=F Damp=F
 DIIS: error= 1.01D-05 at cycle   8 NSaved=   8.
 NSaved= 8 IEnMin= 8 EnMin= -764.746372925431     IErMin= 8 ErrMin= 1.01D-05
 ErrMax= 1.01D-05  0.00D+00 EMaxC= 1.00D-01 BMatC= 2.08D-07 BMatP= 1.30D-06
 IDIUse=1 WtCom= 1.00D+00 WtEn= 0.00D+00
 Coeff-Com: -0.209D-03 0.917D-03 0.625D-02 0.868D-02-0.220D-01-0.145D+00
 Coeff-Com: -0.669D-01 0.122D+01
 Coeff:     -0.209D-03 0.917D-03 0.625D-02 0.868D-02-0.220D-01-0.145D+00
 Coeff:     -0.669D-01 0.122D+01
 Gap=     0.274 Goal=   None    Shift=    0.000
 RMSDP=1.39D-05 MaxDP=7.33D-04 DE=-3.29D-06 OVMax= 5.57D-04

 Cycle   9  Pass 0  IDiag  1:
 RMSU=  8.36D-06    CP:  4.40D-01  9.74D-01  8.34D-01  9.69D-01  1.05D+00
                    CP:  1.07D+00  1.18D+00  1.40D+00
 E= -764.746373730069     Delta-E=       -0.000000804637 Rises=F Damp=F
 DIIS: error= 5.64D-06 at cycle   9 NSaved=   9.
 NSaved= 9 IEnMin= 9 EnMin= -764.746373730069     IErMin= 9 ErrMin= 5.64D-06
 ErrMax= 5.64D-06  0.00D+00 EMaxC= 1.00D-01 BMatC= 4.16D-08 BMatP= 2.08D-07
 IDIUse=1 WtCom= 1.00D+00 WtEn= 0.00D+00
 Coeff-Com: -0.937D-04 0.153D-03 0.174D-02 0.608D-02 0.565D-02-0.591D-01
 Coeff-Com: -0.162D+00 0.281D+00 0.926D+00
 Coeff:     -0.937D-04 0.153D-03 0.174D-02 0.608D-02 0.565D-02-0.591D-01
 Coeff:     -0.162D+00 0.281D+00 0.926D+00
 Gap=     0.274 Goal=   None    Shift=    0.000
 RMSDP=5.19D-06 MaxDP=2.61D-04 DE=-8.05D-07 OVMax= 2.18D-04

 Initial convergence to 1.0D-05 achieved.  Increase integral accuracy.
 Cycle  10  Pass 1  IDiag  1:
 E= -764.746373890626     Delta-E=       -0.000000160558 Rises=F Damp=F
 DIIS: error= 2.47D-06 at cycle   1 NSaved=   1.
 NSaved= 1 IEnMin= 1 EnMin= -764.746373890626     IErMin= 1 ErrMin= 2.47D-06
 ErrMax= 2.47D-06  0.00D+00 EMaxC= 1.00D-01 BMatC= 8.71D-09 BMatP= 8.71D-09
 IDIUse=1 WtCom= 1.00D+00 WtEn= 0.00D+00
 Coeff-Com:  0.100D+01
 Coeff:      0.100D+01
 Gap=     0.274 Goal=   None    Shift=    0.000
 RMSDP=5.19D-06 MaxDP=2.61D-04 DE=-1.61D-07 OVMax= 7.44D-05

 Cycle  11  Pass 1  IDiag  1:
 RMSU=  2.12D-06    CP:  1.00D+00
 E= -764.746373924155     Delta-E=       -0.000000033529 Rises=F Damp=F
 DIIS: error= 1.79D-06 at cycle   2 NSaved=   2.
 NSaved= 2 IEnMin= 2 EnMin= -764.746373924155     IErMin= 2 ErrMin= 1.79D-06
 ErrMax= 1.79D-06  0.00D+00 EMaxC= 1.00D-01 BMatC= 3.74D-09 BMatP= 8.71D-09
 IDIUse=1 WtCom= 1.00D+00 WtEn= 0.00D+00
 Coeff-Com: -0.151D-01 0.102D+01
 Coeff:     -0.151D-01 0.102D+01
 Gap=     0.274 Goal=   None    Shift=    0.000
 RMSDP=1.29D-06 MaxDP=9.26D-05 DE=-3.35D-08 OVMax= 5.07D-05

 Cycle  12  Pass 1  IDiag  1:
 RMSU=  9.13D-07    CP:  1.00D+00  1.43D+00
 E= -764.746373938764     Delta-E=       -0.000000014609 Rises=F Damp=F
 DIIS: error= 1.15D-06 at cycle   3 NSaved=   3.
 NSaved= 3 IEnMin= 3 EnMin= -764.746373938764     IErMin= 3 ErrMin= 1.15D-06
 ErrMax= 1.15D-06  0.00D+00 EMaxC= 1.00D-01 BMatC= 1.74D-09 BMatP= 3.74D-09
 IDIUse=1 WtCom= 1.00D+00 WtEn= 0.00D+00
 Coeff-Com: -0.728D+00 0.176D+00 0.155D+01
 Coeff:     -0.728D+00 0.176D+00 0.155D+01
 Gap=     0.274 Goal=   None    Shift=    0.000
 RMSDP=2.23D-06 MaxDP=8.21D-05 DE=-1.46D-08 OVMax= 7.57D-05

 Cycle  13  Pass 1  IDiag  1:
 RMSU=  5.47D-07    CP:  1.00D+00  2.40D+00  1.65D+00
 E= -764.746373949850     Delta-E=       -0.000000011085 Rises=F Damp=F
 DIIS: error= 1.51D-07 at cycle   4 NSaved=   4.
 NSaved= 4 IEnMin= 4 EnMin= -764.746373949850     IErMin= 4 ErrMin= 1.51D-07
 ErrMax= 1.51D-07  0.00D+00 EMaxC= 1.00D-01 BMatC= 5.78D-11 BMatP= 1.74D-09
 IDIUse=1 WtCom= 1.00D+00 WtEn= 0.00D+00
 Coeff-Com: -0.131D+00-0.161D-01 0.283D+00 0.864D+00
 Coeff:     -0.131D+00-0.161D-01 0.283D+00 0.864D+00
 Gap=     0.274 Goal=   None    Shift=    0.000
 RMSDP=2.24D-07 MaxDP=1.24D-05 DE=-1.11D-08 OVMax= 7.08D-06

 Cycle  14  Pass 1  IDiag  1:
 RMSU=  1.56D-07    CP:  1.00D+00  2.46D+00  1.72D+00  1.14D+00
 E= -764.746373949920     Delta-E=       -0.000000000070 Rises=F Damp=F
 DIIS: error= 7.03D-08 at cycle   5 NSaved=   5.
 NSaved= 5 IEnMin= 5 EnMin= -764.746373949920     IErMin= 5 ErrMin= 7.03D-08
 ErrMax= 7.03D-08  0.00D+00 EMaxC= 1.00D-01 BMatC= 1.25D-11 BMatP= 5.78D-11
 IDIUse=1 WtCom= 1.00D+00 WtEn= 0.00D+00
 Coeff-Com:  0.160D+00-0.466D-01-0.339D+00 0.130D+00 0.110D+01
 Coeff:      0.160D+00-0.466D-01-0.339D+00 0.130D+00 0.110D+01
 Gap=     0.274 Goal=   None    Shift=    0.000
 RMSDP=1.32D-07 MaxDP=9.47D-06 DE=-7.05D-11 OVMax= 2.96D-06

 Cycle  15  Pass 1  IDiag  1:
 RMSU=  5.48D-08    CP:  1.00D+00  2.48D+00  1.76D+00  1.33D+00  1.03D+00
 E= -764.746373949819     Delta-E=        0.000000000101 Rises=F Damp=F
 DIIS: error= 2.07D-08 at cycle   6 NSaved=   6.
 NSaved= 6 IEnMin= 5 EnMin= -764.746373949920     IErMin= 6 ErrMin= 2.07D-08
 ErrMax= 2.07D-08  0.00D+00 EMaxC= 1.00D-01 BMatC= 9.16D-13 BMatP= 1.25D-11
 IDIUse=1 WtCom= 1.00D+00 WtEn= 0.00D+00
 Coeff-Com:  0.450D-01-0.906D-02-0.965D-01-0.357D-01 0.247D+00 0.849D+00
 Coeff:      0.450D-01-0.906D-02-0.965D-01-0.357D-01 0.247D+00 0.849D+00
 Gap=     0.274 Goal=   None    Shift=    0.000
 RMSDP=1.96D-08 MaxDP=1.90D-06 DE= 1.01D-10 OVMax= 7.75D-07

 Cycle  16  Pass 1  IDiag  1:
 RMSU=  1.42D-08    CP:  1.00D+00  2.49D+00  1.76D+00  1.34D+00  1.09D+00
                    CP:  1.04D+00
 E= -764.746373949894     Delta-E=       -0.000000000075 Rises=F Damp=F
 DIIS: error= 8.74D-09 at cycle   7 NSaved=   7.
 NSaved= 7 IEnMin= 5 EnMin= -764.746373949920     IErMin= 7 ErrMin= 8.74D-09
 ErrMax= 8.74D-09  0.00D+00 EMaxC= 1.00D-01 BMatC= 1.83D-13 BMatP= 9.16D-13
 IDIUse=1 WtCom= 1.00D+00 WtEn= 0.00D+00
 Coeff-Com: -0.136D-01 0.512D-02 0.283D-01-0.296D-01-0.111D+00 0.200D+00
 Coeff-Com:  0.920D+00
 Coeff:     -0.136D-01 0.512D-02 0.283D-01-0.296D-01-0.111D+00 0.200D+00
 Coeff:      0.920D+00
 Gap=     0.274 Goal=   None    Shift=    0.000
 RMSDP=7.92D-09 MaxDP=6.72D-07 DE=-7.50D-11 OVMax= 2.16D-07

 SCF Done:  E(RHF) =  -764.746373950     A.U. after   16 cycles
            NFock= 16  Conv=0.79D-08     -V/T= 2.0010
 KE= 7.639761926150D+02 PE=-4.605876566223D+03 EE= 1.656889814450D+03
 Leave Link  502 at Sun Jul 18 18:10:17 2021, MaxMem=   262144000 cpu:           10739.7 elap:            2698.3
 (Enter /dades/curu/g16A03_MST/g16/l801.exe)
 ExpMin= 2.97D-02 ExpMax= 9.05D+03 ExpMxC= 3.09D+02 IAcc=3 IRadAn=         5 AccDes= 0.00D+00
 HarFok:  IExCor=  205 AccDes= 0.00D+00 IRadAn=         5 IDoV=-2 UseB2=F ITyADJ=14
 ICtDFT= 12500011 ScaDFX=  1.000000  1.000000  1.000000  1.000000
 Largest valence mixing into a core orbital is  1.14D-04
 Largest core mixing into a valence orbital is  4.04D-05
 Range of M.O.s used for correlation:    20   625
 NBasis=   626 NAE=    68 NBE=    68 NFC=    19 NFV=     0
 NROrb=    606 NOA=    49 NOB=    49 NVA=   557 NVB=   557

 **** Warning!!: The largest alpha MO coefficient is  0.10802337D+03

 Leave Link  801 at Sun Jul 18 18:10:18 2021, MaxMem=   262144000 cpu:               2.1 elap:               0.5
 (Enter /dades/curu/g16A03_MST/g16/l906.exe)
 FulOut=F Deriv=F AODrv=F NAtomX=    40
   MMem=           3  MDisk=          49 MDiskD=          49
  W3Min=    18122552 MinDsk=    19000149 NBas6D=         664
 NBas2D=      221647    NTT=      220780    LW2=     2000000
    MDV=   259395994 MDiskM=        5383 NBas2p=      205586
 Disk-based method using OVN memory for 49 occupieds at a time.
 Estimated scratch disk usage= 17092490762 words.
 IMap=   1   2   3   4   5   6   7   8   9  10  11  12  13  14  15  16  17  18  19  20
 IMap=  21  22  23  24  25  26  27  28  29  30  31  32  33  34  35  36  37  38  39  40
 IMap=  41  42  43  44  45  46  47  48  49
 Actual    scratch disk usage= 16877195274 words.
 JobTyp=1 Pass  1:  I=   1 to  49 NPSUse=  4 ParTrn=T ParDer=T DoDerP=F.
Erroneous write. Write -1 instead of 889456.
fd = 4
orig len = 8384512 left = 889456
g_write
