 Entering Gaussian System, Link 0=g16
 Input=SET_328_BBB256_conf1.geo_180_300_120_OCTANOL.dat
 Output=SET_328_BBB256_conf1.geo_180_300_120_OCTANOL.log
 Initial command:
 /dades/curu/g16A03_MST/g16/l1.exe "/tmp/ubator02/1839543/Gau-110223.inp" -scrdir="/tmp/ubator02/1839543/"
 Entering Link 1 = /dades/curu/g16A03_MST/g16/l1.exe PID=    110231.
  
 Copyright (c) 1988,1990,1992,1993,1995,1998,2003,2009,2016,
            Gaussian, Inc.  All Rights Reserved.
  
 This is part of the Gaussian(R) 16 program.  It is based on
 the Gaussian(R) 09 system (copyright 2009, Gaussian, Inc.),
 the Gaussian(R) 03 system (copyright 2003, Gaussian, Inc.),
 the Gaussian(R) 98 system (copyright 1998, Gaussian, Inc.),
 the Gaussian(R) 94 system (copyright 1995, Gaussian, Inc.),
 the Gaussian 92(TM) system (copyright 1992, Gaussian, Inc.),
 the Gaussian 90(TM) system (copyright 1990, Gaussian, Inc.),
 the Gaussian 88(TM) system (copyright 1988, Gaussian, Inc.),
 the Gaussian 86(TM) system (copyright 1986, Carnegie Mellon
 University), and the Gaussian 82(TM) system (copyright 1983,
 Carnegie Mellon University). Gaussian is a federally registered
 trademark of Gaussian, Inc.
  
 This software contains proprietary and confidential information,
 including trade secrets, belonging to Gaussian, Inc.
  
 This software is provided under written license and may be
 used, copied, transmitted, or stored only in accord with that
 written license.
  
 The following legend is applicable only to US Government
 contracts under FAR:
  
                    RESTRICTED RIGHTS LEGEND
  
 Use, reproduction and disclosure by the US Government is
 subject to restrictions as set forth in subparagraphs (a)
 and (c) of the Commercial Computer Software - Restricted
 Rights clause in FAR 52.227-19.
  
 Gaussian, Inc.
 340 Quinnipiac St., Bldg. 40, Wallingford CT 06492
  
  
 ---------------------------------------------------------------
 Warning -- This program may not be used in any manner that
 competes with the business of Gaussian, Inc. or will provide
 assistance to any competitor of Gaussian, Inc.  The licensee
 of this program is prohibited from giving any competitor of
 Gaussian, Inc. access to this program.  By using this program,
 the user acknowledges that Gaussian, Inc. is engaged in the
 business of creating and licensing software in the field of
 computational chemistry and represents and warrants to the
 licensee that it is not a competitor of Gaussian, Inc. and that
 it will not use this program in any manner prohibited above.
 ---------------------------------------------------------------
  

 Cite this work as:
 Gaussian 16, Revision A.03,
 M. J. Frisch, G. W. Trucks, H. B. Schlegel, G. E. Scuseria, 
 M. A. Robb, J. R. Cheeseman, G. Scalmani, V. Barone, 
 G. A. Petersson, H. Nakatsuji, X. Li, M. Caricato, A. V. Marenich, 
 J. Bloino, B. G. Janesko, R. Gomperts, B. Mennucci, H. P. Hratchian, 
 J. V. Ortiz, A. F. Izmaylov, J. L. Sonnenberg, D. Williams-Young, 
 F. Ding, F. Lipparini, F. Egidi, J. Goings, B. Peng, A. Petrone, 
 T. Henderson, D. Ranasinghe, V. G. Zakrzewski, J. Gao, N. Rega, 
 G. Zheng, W. Liang, M. Hada, M. Ehara, K. Toyota, R. Fukuda, 
 J. Hasegawa, M. Ishida, T. Nakajima, Y. Honda, O. Kitao, H. Nakai, 
 T. Vreven, K. Throssell, J. A. Montgomery, Jr., J. E. Peralta, 
 F. Ogliaro, M. J. Bearpark, J. J. Heyd, E. N. Brothers, K. N. Kudin, 
 V. N. Staroverov, T. A. Keith, R. Kobayashi, J. Normand, 
 K. Raghavachari, A. P. Rendell, J. C. Burant, S. S. Iyengar, 
 J. Tomasi, M. Cossi, J. M. Millam, M. Klene, C. Adamo, R. Cammi, 
 J. W. Ochterski, R. L. Martin, K. Morokuma, O. Farkas, 
 J. B. Foresman, and D. J. Fox, Gaussian, Inc., Wallingford CT, 2016.
 
 ******************************************
 Gaussian 16:  ES64L-G16RevA.03 25-Dec-2016
                18-Jul-2021 
 ******************************************
 %mem=800MB
 %nproc=4
 Will use up to    4 processors via shared memory.
 %chk=SET_328_BBB256_conf1.geo_180_300_120.chk
 ---------------------------------------------------------------
 #p b3lyp/6-31G(d) opt freq scrf=(iefpcm,read,solvent=n-octanol)
 ---------------------------------------------------------------
 1/18=20,19=15,26=3,38=1,40=2/1,3;
 2/9=110,12=2,17=6,18=5,40=1/2;
 3/5=1,6=6,7=1,11=2,25=1,30=1,70=2203,71=1,72=25,74=-5/1,2,3;
 4//1;
 5/5=2,38=5,53=25/2;
 6/7=2,8=2,9=2,10=2,28=1/1;
 7//1,2,3,16;
 1/18=20,19=15,26=3/3(2);
 2/9=110/2;
 99//99;
 2/9=110/2;
 3/5=1,6=6,7=1,11=2,25=1,30=1,70=2205,71=1,72=25,74=-5/1,2,3;
 4/5=5,16=3,69=1/1;
 5/5=2,38=5,53=25/2;
 7//1,2,3,16;
 1/18=20,19=15,26=3/3(-5);
 2/9=110/2;
 6/7=2,8=2,9=2,10=2,19=2,28=1/1;
 99/9=1/99;
 Leave Link    1 at Sun Jul 18 13:38:25 2021, MaxMem=   104857600 cpu:               0.1 elap:               0.0
 (Enter /dades/curu/g16A03_MST/g16/l101.exe)
 ---------------------------------------------
 SET_328_BBB256_conf1.geo_180_300_120 geometry
 ---------------------------------------------
 Symbolic Z-matrix:
 Charge =  1 Multiplicity = 1
 C                     1.781    -2.016     1.802 
 H                     1.885    -3.071     1.533 
 H                     1.098    -1.992     2.655 
 H                     2.705    -1.591     2.201 
 N                     1.327    -1.291     0.624 
 H                     2.075    -1.285    -0.04 
 C                     0.106    -1.814    -0.063 
 H                    -0.801    -1.752     0.543 
 H                     0.219    -2.819    -0.477 
 C                    -0.209    -0.885    -1.274 
 H                    -1.065    -1.284    -1.822 
 H                     0.609    -0.867    -1.996 
 C                    -0.427     0.486    -0.853 
 N                     0.364     1.418    -1.391 
 C                     0.114     2.699    -1.008 
 H                     0.808     3.448    -1.385 
 C                    -0.989     3.133    -0.262 
 H                    -1.235     4.162    -0.015 
 C                    -1.857     2.161     0.223 
 H                    -2.738     2.468     0.781 
 C                    -1.546     0.798    -0.022 
 H                    -2.186    -0.015     0.308 
 H                     1.146    -0.346     0.896 
 
 ITRead=  0  0  0  0  0  0  0  0  0  0  0  0  0  0  0  0  0  0  0  0
 ITRead=  0  0  0
 MicOpt= -1 -1 -1 -1 -1 -1 -1 -1 -1 -1 -1 -1 -1 -1 -1 -1 -1 -1 -1 -1
 MicOpt= -1 -1 -1
 NAtoms=     23 NQM=       23 NQMF=       0 NMMI=      0 NMMIF=      0
                NMic=       0 NMicF=      0.
                    Isotopes and Nuclear Properties:
 (Nuclear quadrupole moments (NQMom) in fm**2, nuclear magnetic moments (NMagM)
  in nuclear magnetons)

  Atom         1           2           3           4           5           6           7           8           9          10
 IAtWgt=          12           1           1           1          14           1          12           1           1          12
 AtmWgt=  12.0000000   1.0078250   1.0078250   1.0078250  14.0030740   1.0078250  12.0000000   1.0078250   1.0078250  12.0000000
 NucSpn=           0           1           1           1           2           1           0           1           1           0
 AtZEff=  -0.0000000  -0.0000000  -0.0000000  -0.0000000  -0.0000000  -0.0000000  -0.0000000  -0.0000000  -0.0000000  -0.0000000
 NQMom=    0.0000000   0.0000000   0.0000000   0.0000000   2.0440000   0.0000000   0.0000000   0.0000000   0.0000000   0.0000000
 NMagM=    0.0000000   2.7928460   2.7928460   2.7928460   0.4037610   2.7928460   0.0000000   2.7928460   2.7928460   0.0000000
 AtZNuc=   6.0000000   1.0000000   1.0000000   1.0000000   7.0000000   1.0000000   6.0000000   1.0000000   1.0000000   6.0000000

  Atom        11          12          13          14          15          16          17          18          19          20
 IAtWgt=           1           1          12          14          12           1          12           1          12           1
 AtmWgt=   1.0078250   1.0078250  12.0000000  14.0030740  12.0000000   1.0078250  12.0000000   1.0078250  12.0000000   1.0078250
 NucSpn=           1           1           0           2           0           1           0           1           0           1
 AtZEff=  -0.0000000  -0.0000000  -0.0000000  -0.0000000  -0.0000000  -0.0000000  -0.0000000  -0.0000000  -0.0000000  -0.0000000
 NQMom=    0.0000000   0.0000000   0.0000000   2.0440000   0.0000000   0.0000000   0.0000000   0.0000000   0.0000000   0.0000000
 NMagM=    2.7928460   2.7928460   0.0000000   0.4037610   0.0000000   2.7928460   0.0000000   2.7928460   0.0000000   2.7928460
 AtZNuc=   1.0000000   1.0000000   6.0000000   7.0000000   6.0000000   1.0000000   6.0000000   1.0000000   6.0000000   1.0000000

  Atom        21          22          23
 IAtWgt=          12           1           1
 AtmWgt=  12.0000000   1.0078250   1.0078250
 NucSpn=           0           1           1
 AtZEff=  -0.0000000  -0.0000000  -0.0000000
 NQMom=    0.0000000   0.0000000   0.0000000
 NMagM=    0.0000000   2.7928460   2.7928460
 AtZNuc=   6.0000000   1.0000000   1.0000000
 Leave Link  101 at Sun Jul 18 13:38:25 2021, MaxMem=   104857600 cpu:               0.1 elap:               0.3
 (Enter /dades/curu/g16A03_MST/g16/l103.exe)

 GradGradGradGradGradGradGradGradGradGradGradGradGradGradGradGradGradGrad
 Berny optimization.
 Initialization pass.
                           ----------------------------
                           !    Initial Parameters    !
                           ! (Angstroms and Degrees)  !
 --------------------------                            --------------------------
 ! Name  Definition              Value          Derivative Info.                !
 --------------------------------------------------------------------------------
 ! R1    R(1,2)                  1.0937         estimate D2E/DX2                !
 ! R2    R(1,3)                  1.093          estimate D2E/DX2                !
 ! R3    R(1,4)                  1.0925         estimate D2E/DX2                !
 ! R4    R(1,5)                  1.4558         estimate D2E/DX2                !
 ! R5    R(5,6)                  1.0002         estimate D2E/DX2                !
 ! R6    R(5,7)                  1.4954         estimate D2E/DX2                !
 ! R7    R(5,23)                 0.9999         estimate D2E/DX2                !
 ! R8    R(7,8)                  1.0926         estimate D2E/DX2                !
 ! R9    R(7,9)                  1.0928         estimate D2E/DX2                !
 ! R10   R(7,10)                 1.5585         estimate D2E/DX2                !
 ! R11   R(10,11)                1.0919         estimate D2E/DX2                !
 ! R12   R(10,12)                1.0912         estimate D2E/DX2                !
 ! R13   R(10,13)                1.4507         estimate D2E/DX2                !
 ! R14   R(13,14)                1.3356         estimate D2E/DX2                !
 ! R15   R(13,21)                1.4283         estimate D2E/DX2                !
 ! R16   R(14,15)                1.3602         estimate D2E/DX2                !
 ! R17   R(15,16)                1.0885         estimate D2E/DX2                !
 ! R18   R(15,17)                1.4005         estimate D2E/DX2                !
 ! R19   R(17,18)                1.0864         estimate D2E/DX2                !
 ! R20   R(17,19)                1.3905         estimate D2E/DX2                !
 ! R21   R(19,20)                1.0871         estimate D2E/DX2                !
 ! R22   R(19,21)                1.4193         estimate D2E/DX2                !
 ! R23   R(21,22)                1.086          estimate D2E/DX2                !
 ! A1    A(2,1,3)              105.8157         estimate D2E/DX2                !
 ! A2    A(2,1,4)              112.6216         estimate D2E/DX2                !
 ! A3    A(2,1,5)              108.1202         estimate D2E/DX2                !
 ! A4    A(3,1,4)              103.5878         estimate D2E/DX2                !
 ! A5    A(3,1,5)              115.1936         estimate D2E/DX2                !
 ! A6    A(4,1,5)              111.4406         estimate D2E/DX2                !
 ! A7    A(1,5,6)              107.875          estimate D2E/DX2                !
 ! A8    A(1,5,7)              116.8838         estimate D2E/DX2                !
 ! A9    A(1,5,23)             107.8784         estimate D2E/DX2                !
 ! A10   A(6,5,7)              107.9219         estimate D2E/DX2                !
 ! A11   A(6,5,23)             108.077          estimate D2E/DX2                !
 ! A12   A(7,5,23)             107.9208         estimate D2E/DX2                !
 ! A13   A(5,7,8)              113.7752         estimate D2E/DX2                !
 ! A14   A(5,7,9)              114.2832         estimate D2E/DX2                !
 ! A15   A(5,7,10)             108.2721         estimate D2E/DX2                !
 ! A16   A(8,7,9)              110.3746         estimate D2E/DX2                !
 ! A17   A(8,7,10)             103.2602         estimate D2E/DX2                !
 ! A18   A(9,7,10)             105.946          estimate D2E/DX2                !
 ! A19   A(7,10,11)            109.306          estimate D2E/DX2                !
 ! A20   A(7,10,12)            111.867          estimate D2E/DX2                !
 ! A21   A(7,10,13)            111.6067         estimate D2E/DX2                !
 ! A22   A(11,10,12)           105.1671         estimate D2E/DX2                !
 ! A23   A(11,10,13)           111.9128         estimate D2E/DX2                !
 ! A24   A(12,10,13)           106.803          estimate D2E/DX2                !
 ! A25   A(10,13,14)           116.9751         estimate D2E/DX2                !
 ! A26   A(10,13,21)           119.5397         estimate D2E/DX2                !
 ! A27   A(14,13,21)           123.0883         estimate D2E/DX2                !
 ! A28   A(13,14,15)           115.7799         estimate D2E/DX2                !
 ! A29   A(14,15,16)           115.6798         estimate D2E/DX2                !
 ! A30   A(14,15,17)           125.9142         estimate D2E/DX2                !
 ! A31   A(16,15,17)           118.2549         estimate D2E/DX2                !
 ! A32   A(15,17,18)           126.3645         estimate D2E/DX2                !
 ! A33   A(15,17,19)           117.4388         estimate D2E/DX2                !
 ! A34   A(18,17,19)           116.1954         estimate D2E/DX2                !
 ! A35   A(17,19,20)           119.178          estimate D2E/DX2                !
 ! A36   A(17,19,21)           118.3139         estimate D2E/DX2                !
 ! A37   A(20,19,21)           122.505          estimate D2E/DX2                !
 ! A38   A(13,21,19)           118.8072         estimate D2E/DX2                !
 ! A39   A(13,21,22)           118.3559         estimate D2E/DX2                !
 ! A40   A(19,21,22)           122.5005         estimate D2E/DX2                !
 ! D1    D(2,1,5,6)            -69.0061         estimate D2E/DX2                !
 ! D2    D(2,1,5,7)             52.7301         estimate D2E/DX2                !
 ! D3    D(2,1,5,23)           174.4676         estimate D2E/DX2                !
 ! D4    D(3,1,5,6)            172.9041         estimate D2E/DX2                !
 ! D5    D(3,1,5,7)            -65.3597         estimate D2E/DX2                !
 ! D6    D(3,1,5,23)            56.3778         estimate D2E/DX2                !
 ! D7    D(4,1,5,6)             55.2793         estimate D2E/DX2                !
 ! D8    D(4,1,5,7)            177.0155         estimate D2E/DX2                !
 ! D9    D(4,1,5,23)           -61.247          estimate D2E/DX2                !
 ! D10   D(1,5,7,8)             65.0771         estimate D2E/DX2                !
 ! D11   D(1,5,7,9)            -62.9565         estimate D2E/DX2                !
 ! D12   D(1,5,7,10)           179.2448         estimate D2E/DX2                !
 ! D13   D(6,5,7,8)           -173.2112         estimate D2E/DX2                !
 ! D14   D(6,5,7,9)             58.7552         estimate D2E/DX2                !
 ! D15   D(6,5,7,10)           -59.0435         estimate D2E/DX2                !
 ! D16   D(23,5,7,8)           -56.6382         estimate D2E/DX2                !
 ! D17   D(23,5,7,9)           175.3282         estimate D2E/DX2                !
 ! D18   D(23,5,7,10)           57.5295         estimate D2E/DX2                !
 ! D19   D(5,7,10,11)          176.8066         estimate D2E/DX2                !
 ! D20   D(5,7,10,12)           60.747          estimate D2E/DX2                !
 ! D21   D(5,7,10,13)          -58.8561         estimate D2E/DX2                !
 ! D22   D(8,7,10,11)          -62.2632         estimate D2E/DX2                !
 ! D23   D(8,7,10,12)         -178.3229         estimate D2E/DX2                !
 ! D24   D(8,7,10,13)           62.0741         estimate D2E/DX2                !
 ! D25   D(9,7,10,11)           53.7987         estimate D2E/DX2                !
 ! D26   D(9,7,10,12)          -62.261          estimate D2E/DX2                !
 ! D27   D(9,7,10,13)          178.1359         estimate D2E/DX2                !
 ! D28   D(7,10,13,14)         122.2589         estimate D2E/DX2                !
 ! D29   D(7,10,13,21)         -64.7473         estimate D2E/DX2                !
 ! D30   D(11,10,13,14)       -114.8795         estimate D2E/DX2                !
 ! D31   D(11,10,13,21)         58.1143         estimate D2E/DX2                !
 ! D32   D(12,10,13,14)         -0.2936         estimate D2E/DX2                !
 ! D33   D(12,10,13,21)        172.7003         estimate D2E/DX2                !
 ! D34   D(10,13,14,15)        178.2205         estimate D2E/DX2                !
 ! D35   D(21,13,14,15)          5.4972         estimate D2E/DX2                !
 ! D36   D(10,13,21,19)       -171.0325         estimate D2E/DX2                !
 ! D37   D(10,13,21,22)          2.477          estimate D2E/DX2                !
 ! D38   D(14,13,21,19)          1.5125         estimate D2E/DX2                !
 ! D39   D(14,13,21,22)        175.0221         estimate D2E/DX2                !
 ! D40   D(13,14,15,16)        175.3532         estimate D2E/DX2                !
 ! D41   D(13,14,15,17)         -9.2193         estimate D2E/DX2                !
 ! D42   D(14,15,17,18)       -175.1217         estimate D2E/DX2                !
 ! D43   D(14,15,17,19)          5.3279         estimate D2E/DX2                !
 ! D44   D(16,15,17,18)          0.1999         estimate D2E/DX2                !
 ! D45   D(16,15,17,19)       -179.3506         estimate D2E/DX2                !
 ! D46   D(15,17,19,20)       -178.2401         estimate D2E/DX2                !
 ! D47   D(15,17,19,21)          2.3738         estimate D2E/DX2                !
 ! D48   D(18,17,19,20)          2.1633         estimate D2E/DX2                !
 ! D49   D(18,17,19,21)       -177.2228         estimate D2E/DX2                !
 ! D50   D(17,19,21,13)         -5.5117         estimate D2E/DX2                !
 ! D51   D(17,19,21,22)       -178.7381         estimate D2E/DX2                !
 ! D52   D(20,19,21,13)        175.1238         estimate D2E/DX2                !
 ! D53   D(20,19,21,22)          1.8975         estimate D2E/DX2                !
 --------------------------------------------------------------------------------
 Trust Radius=3.00D-01 FncErr=1.00D-07 GrdErr=1.00D-06 EigMax=2.50D+02 EigMin=1.00D-04
 Number of steps in this run=    126 maximum allowed number of steps=    138.
 GradGradGradGradGradGradGradGradGradGradGradGradGradGradGradGradGradGrad

 Leave Link  103 at Sun Jul 18 13:38:26 2021, MaxMem=   104857600 cpu:               0.0 elap:               0.1
 (Enter /dades/curu/g16A03_MST/g16/l202.exe)
                          Input orientation:                          
 ---------------------------------------------------------------------
 Center     Atomic      Atomic             Coordinates (Angstroms)
 Number     Number       Type             X           Y           Z
 ---------------------------------------------------------------------
      1          6           0        1.781000   -2.016000    1.802000
      2          1           0        1.885000   -3.071000    1.533000
      3          1           0        1.098000   -1.992000    2.655000
      4          1           0        2.705000   -1.591000    2.201000
      5          7           0        1.327000   -1.291000    0.624000
      6          1           0        2.075000   -1.285000   -0.040000
      7          6           0        0.106000   -1.814000   -0.063000
      8          1           0       -0.801000   -1.752000    0.543000
      9          1           0        0.219000   -2.819000   -0.477000
     10          6           0       -0.209000   -0.885000   -1.274000
     11          1           0       -1.065000   -1.284000   -1.822000
     12          1           0        0.609000   -0.867000   -1.996000
     13          6           0       -0.427000    0.486000   -0.853000
     14          7           0        0.364000    1.418000   -1.391000
     15          6           0        0.114000    2.699000   -1.008000
     16          1           0        0.808000    3.448000   -1.385000
     17          6           0       -0.989000    3.133000   -0.262000
     18          1           0       -1.235000    4.162000   -0.015000
     19          6           0       -1.857000    2.161000    0.223000
     20          1           0       -2.738000    2.468000    0.781000
     21          6           0       -1.546000    0.798000   -0.022000
     22          1           0       -2.186000   -0.015000    0.308000
     23          1           0        1.146000   -0.346000    0.896000
 ---------------------------------------------------------------------
                    Distance matrix (angstroms):
                    1          2          3          4          5
     1  C    0.000000
     2  H    1.093710   0.000000
     3  H    1.093011   1.744275   0.000000
     4  H    1.092521   1.819072   1.717372   0.000000
     5  N    1.455825   2.075101   2.160741   2.115612   0.000000
     6  H    2.003437   2.387514   2.952525   2.347896   1.000218
     7  C    2.514886   2.700390   2.898840   3.454016   1.495439
     8  H    2.884701   3.151897   2.850324   3.881613   2.178868
     9  H    2.877237   2.622815   3.356485   3.854849   2.185097
    10  C    3.834193   4.128278   4.286110   4.589712   2.475184
    11  H    4.665717   4.811642   5.022287   5.521927   3.421203
    12  H    4.137462   4.351969   4.810046   4.746810   2.749491
    13  C    4.264305   4.867298   4.557650   4.842548   2.900995
    14  N    4.898520   5.569052   5.342001   5.238017   3.510880
    15  C    5.736394   6.548742   6.032521   5.951056   4.478269
    16  H    6.399921   7.223020   6.782278   6.469121   5.173351
    17  C    6.200419   7.069053   6.255404   6.482915   5.071551
    18  H    7.110937   8.027888   7.102359   7.316506   6.058661
    19  C    5.759828   6.564487   5.647482   6.229112   4.713275
    20  H    6.447485   7.253837   6.174008   6.936723   5.538859
    21  C    4.723823   5.399902   4.684140   5.359109   3.610452
    22  H    4.687550   5.235724   4.494618   5.476231   3.750893
    23  H    2.003238   2.894394   2.409502   2.384016   0.999885
                    6          7          8          9         10
     6  H    0.000000
     7  C    2.038953   0.000000
     8  H    2.971423   1.092579   0.000000
     9  H    2.447215   1.092790   1.794238   0.000000
    10  C    2.626673   1.558457   2.098486   2.135123   0.000000
    11  H    3.610419   2.178583   2.425272   2.411204   1.091898
    12  H    2.479882   2.210499   3.036091   2.503950   1.091207
    13  C    3.171343   2.489616   2.664083   3.388468   1.450657
    14  N    3.472597   3.503708   3.891848   4.336887   2.376095
    15  C    4.544755   4.610885   4.801482   5.544485   3.608343
    16  H    5.080906   5.470752   5.774605   6.359770   4.452134
    17  C    5.381088   5.070644   4.954452   6.077153   4.216262
    18  H    6.373895   6.124799   5.956099   7.145762   5.301883
    19  C    5.234951   4.442498   4.065600   5.440604   3.772934
    20  H    6.158248   5.209241   4.649410   6.186985   4.675626
    21  C    4.177422   3.090846   2.716017   4.050301   2.487481
    22  H    4.459835   2.937228   2.233969   3.776594   2.677341
    23  H    1.618906   2.038702   2.427397   2.976607   2.614469
                   11         12         13         14         15
    11  H    0.000000
    12  H    1.733909   0.000000
    13  C    2.116342   2.051915   0.000000
    14  N    3.086844   2.376400   1.335571   0.000000
    15  C    4.232839   3.733299   2.283435   1.360202   0.000000
    16  H    5.107927   4.362585   3.252951   2.077997   1.088470
    17  C    4.685004   4.643313   2.769790   2.458958   1.400529
    18  H    5.740476   5.711001   3.855915   3.461172   2.224010
    19  C    4.083787   4.491537   2.451184   2.844272   2.385298
    20  H    4.863337   5.480544   3.455286   3.929693   3.374579
    21  C    2.793937   3.363469   1.428309   2.430362   2.709538
    22  H    2.721011   3.721068   2.166334   3.382690   3.793106
    23  H    3.627105   2.987218   2.495106   2.992255   3.736611
                   16         17         18         19         20
    16  H    0.000000
    17  C    2.142327   0.000000
    18  H    2.561356   1.086447   0.000000
    19  C    3.368124   1.390479   2.108917   0.000000
    20  H    4.269200   2.142213   2.400471   1.087094   0.000000
    21  C    3.797576   2.412483   3.378353   1.419336   2.203310
    22  H    4.880846   3.415789   4.296052   2.202372   2.587223
    23  H    4.439779   4.242951   5.178914   3.969381   4.797632
                   21         22         23
    21  C    0.000000
    22  H    1.086034   0.000000
    23  H    3.065669   3.399637   0.000000
 Stoichiometry    C8H13N2(1+)
 Framework group  C1[X(C8H13N2)]
 Deg. of freedom    63
 Full point group                 C1      NOp   1
 Largest Abelian subgroup         C1      NOp   1
 Largest concise Abelian subgroup C1      NOp   1
                         Standard orientation:                         
 ---------------------------------------------------------------------
 Center     Atomic      Atomic             Coordinates (Angstroms)
 Number     Number       Type             X           Y           Z
 ---------------------------------------------------------------------
      1          6           0       -3.307260   -1.264367    0.163402
      2          1           0       -4.194358   -0.625157    0.137506
      3          1           0       -3.227149   -1.621166    1.193427
      4          1           0       -3.433043   -2.181467   -0.416864
      5          7           0       -2.173473   -0.484888   -0.312376
      6          1           0       -2.305270   -0.316149   -1.289409
      7          6           0       -1.931157    0.832027    0.353474
      8          1           0       -1.658131    0.748737    1.408105
      9          1           0       -2.739984    1.555702    0.225866
     10          6           0       -0.669976    1.481230   -0.292085
     11          1           0       -0.510451    2.470113    0.142546
     12          1           0       -0.805289    1.657383   -1.360445
     13          6           0        0.498570    0.633194   -0.151584
     14          7           0        1.118380    0.264686   -1.275766
     15          6           0        2.232428   -0.498796   -1.114085
     16          1           0        2.691281   -0.863789   -2.031145
     17          6           0        2.873117   -0.770109    0.101394
     18          1           0        3.803161   -1.316431    0.231460
     19          6           0        2.265081   -0.307936    1.263341
     20          1           0        2.752522   -0.477562    2.220108
     21          6           0        1.017474    0.359366    1.150654
     22          1           0        0.492963    0.765125    2.010722
     23          1           0       -1.350261   -1.041573   -0.201945
 ---------------------------------------------------------------------
 Rotational constants (GHZ):           2.5551930           0.7367982           0.7338058
 Leave Link  202 at Sun Jul 18 13:38:26 2021, MaxMem=   104857600 cpu:               0.1 elap:               0.1
 (Enter /dades/curu/g16A03_MST/g16/l301.exe)
 Standard basis: 6-31G(d) (6D, 7F)
 Ernie: Thresh=  0.10000D-02 Tol=  0.10000D-05 Strict=F.
 There are   176 symmetry adapted cartesian basis functions of A   symmetry.
 There are   176 symmetry adapted basis functions of A   symmetry.
   176 basis functions,   332 primitive gaussians,   176 cartesian basis functions
    37 alpha electrons       37 beta electrons
       nuclear repulsion energy       521.5222626892 Hartrees.
 IExCor=  402 DFT=T Ex+Corr=B3LYP ExCW=0 ScaHFX=  0.200000
 ScaDFX=  0.800000  0.720000  1.000000  0.810000 ScalE2=  1.000000  1.000000
 IRadAn=      5 IRanWt=     -1 IRanGd=            0 ICorTp=0 IEmpDi=  4
 NAtoms=   23 NActive=   23 NUniq=   23 SFac= 1.00D+00 NAtFMM=   60 NAOKFM=F Big=F
 Integral buffers will be    131072 words long.
 Raffenetti 2 integral format.
 Two-electron integral symmetry is turned on.
 Using the following non-standard input for PCM:
 MSTModel=DFT cav MSTCharged
 --- end of non-standard input.
 MST model for solvation energy: B3LYP parametrization.
 MST cavity parameters:
 ISph   IAn     Re0     Alpha   Atom Type   QCorr
 ------------------------------------------------
   1      6     1.50     1.50      CN+        F
   2      1     1.20     1.50      CN+        F
   3      1     1.20     1.50      CN+        F
   4      1     1.20     1.50      CN+        F
   5      7     1.50     1.15      NH+        T
   6      1     0.90     1.15      NH+        T
   7      6     1.50     1.50      CN+        F
   8      1     1.20     1.50      CN+        F
   9      1     1.20     1.50      CN+        F
  10      6     1.50     1.50      CH2        F
  11      1     1.20     1.50      CH2        F
  12      1     1.20     1.50      CH2        F
  13      6     1.50     1.50      C          F
  14      7     1.50     1.50      Nc         F
  15      6     1.50     1.50      CH         F
  16      1     1.20     1.50      CH         F
  17      6     1.50     1.50      CH         F
  18      1     1.20     1.50      CH         F
  19      6     1.50     1.50      CH         F
  20      1     1.20     1.50      CH         F
  21      6     1.50     1.50      CH         F
  22      1     1.20     1.50      CH         F
  23      1     0.90     1.15      NH+        T
 ------------------------------------------------------------------------------
 Polarizable Continuum Model (PCM)
 =================================
 Model                : PCM.
 Atomic radii         : MST.
 Polarization charges : Total charges.
 Charge compensation  : None.
 Solution method      : On-the-fly selection.
 Cavity type          : Scaled VdW (van der Waals Surface) (Alpha=1.500).
 Cavity algorithm     : GePol (No added spheres)
                        Default sphere list used, NSphG=   23.
                        Lebedev-Laikov grids with approx.  5.0 points / Ang**2.
                        Smoothing algorithm: York/Karplus (Gamma=1.0000).
                        Polarization charges: spherical gaussians, with
                                              point-specific exponents (IZeta= 3).
                        Self-potential: point-specific (ISelfS= 7).
                        Self-field    : sphere-specific E.n sum rule (ISelfD= 2).
 1st derivatives      : Analytical E(r).r(x)/FMM algorithm (CHGder, D1EAlg=3).
                        Cavity 1st derivative terms included.
 Solvent              : n-Octanol, Eps=   9.862900 Eps(inf)=   2.043470
 ------------------------------------------------------------------------------
 GePol: Number of generator spheres                  =      23
 GePol: Total number of spheres                      =      23
 GePol: Number of exposed spheres                    =      23 (100.00%)
 GePol: Number of points                             =    2328
 GePol: Average weight of points                     =       0.11
 GePol: Minimum weight of points                     =   0.62D-10
 GePol: Maximum weight of points                     =    0.20969
 GePol: Number of points with low weight             =     148
 GePol: Fraction of low-weight points (<1% of avg)   =       6.36%
 GePol: Cavity surface area                          =    246.883 Ang**2
 GePol: Cavity volume                                =    261.457 Ang**3
 Surface areas from nonelectrostatic (unscaled) cavity and vdw tensions:
 Sphere =    1 Type =  CN+ Surf =        5.238 Tension =       -0.227
 Sphere =    2 Type =  CN+ Surf =       10.062 Tension =       -0.227
 Sphere =    3 Type =  CN+ Surf =       10.104 Tension =       -0.227
 Sphere =    4 Type =  CN+ Surf =       10.111 Tension =       -0.227
 Sphere =    5 Type =  NH+ Surf =        7.912 Tension =       -0.274
 Sphere =    6 Type =  NH+ Surf =        3.844 Tension =       -0.274
 Sphere =    7 Type =  CN+ Surf =        4.025 Tension =       -0.227
 Sphere =    8 Type =  CN+ Surf =        9.266 Tension =       -0.227
 Sphere =    9 Type =  CN+ Surf =       10.060 Tension =       -0.227
 Sphere =   10 Type =  CH2 Surf =        3.485 Tension =       -0.194
 Sphere =   11 Type =  CH2 Surf =       10.013 Tension =       -0.194
 Sphere =   12 Type =  CH2 Surf =        9.565 Tension =       -0.194
 Sphere =   13 Type =  C   Surf =        5.468 Tension =       -0.205
 Sphere =   14 Type =  Nc  Surf =       12.345 Tension =       -0.161
 Sphere =   15 Type =  CH  Surf =        7.548 Tension =       -0.195
 Sphere =   16 Type =  CH  Surf =       10.189 Tension =       -0.195
 Sphere =   17 Type =  CH  Surf =        7.889 Tension =       -0.195
 Sphere =   18 Type =  CH  Surf =       10.230 Tension =       -0.195
 Sphere =   19 Type =  CH  Surf =        7.900 Tension =       -0.195
 Sphere =   20 Type =  CH  Surf =       10.250 Tension =       -0.195
 Sphere =   21 Type =  CH  Surf =        7.891 Tension =       -0.195
 Sphere =   22 Type =  CH  Surf =        9.672 Tension =       -0.195
 Sphere =   23 Type =  NH+ Surf =        3.841 Tension =       -0.274
 PCM non-electrostatic energy =        -0.0128181134 Hartrees.
 Nuclear repulsion after PCM non-electrostatic terms =      521.5094445758 Hartrees.
 Leave Link  301 at Sun Jul 18 13:38:26 2021, MaxMem=   104857600 cpu:               0.1 elap:               0.2
 (Enter /dades/curu/g16A03_MST/g16/l302.exe)
 NPDir=0 NMtPBC=     1 NCelOv=     1 NCel=       1 NClECP=     1 NCelD=      1
         NCelK=      1 NCelE2=     1 NClLst=     1 CellRange=     0.0.
 One-electron integrals computed using PRISM.
 One-electron integral symmetry used in STVInt
 NBasis=   176 RedAO= T EigKep=  9.53D-04  NBF=   176
 NBsUse=   176 1.00D-06 EigRej= -1.00D+00 NBFU=   176
 Precomputing XC quadrature grid using
 IXCGrd= 4 IRadAn=           5 IRanWt=          -1 IRanGd=           0 AccXCQ= 0.00D+00.
 Generated NRdTot=       0 NPtTot=           0 NUsed=           0 NTot=          32
 NSgBfM=   176   176   176   176   176 MxSgAt=    23 MxSgA2=    23.
 Leave Link  302 at Sun Jul 18 13:38:28 2021, MaxMem=   104857600 cpu:               3.0 elap:               1.1
 (Enter /dades/curu/g16A03_MST/g16/l303.exe)
 DipDrv:  MaxL=1.
 Leave Link  303 at Sun Jul 18 13:38:28 2021, MaxMem=   104857600 cpu:               0.1 elap:               0.1
 (Enter /dades/curu/g16A03_MST/g16/l401.exe)
 ExpMin= 1.61D-01 ExpMax= 4.17D+03 ExpMxC= 6.27D+02 IAcc=3 IRadAn=         5 AccDes= 0.00D+00
 Harris functional with IExCor=  402 and IRadAn=       5 diagonalized for initial guess.
 HarFok:  IExCor=  402 AccDes= 0.00D+00 IRadAn=         5 IDoV= 1 UseB2=F ITyADJ=14
 ICtDFT=  3500011 ScaDFX=  1.000000  1.000000  1.000000  1.000000
 FoFCou: FMM=F IPFlag=           0 FMFlag=      100000 FMFlg1=           0
         NFxFlg=           0 DoJE=T BraDBF=F KetDBF=T FulRan=T
         wScrn=  0.000000 ICntrl=       500 IOpCl=  0 I1Cent=   200000004 NGrid=           0
         NMat0=    1 NMatS0=      1 NMatT0=    0 NMatD0=    1 NMtDS0=    0 NMtDT0=    0
 Petite list used in FoFCou.
 Harris En= -421.964169016493    
 JPrj=0 DoOrth=F DoCkMO=F.
 Leave Link  401 at Sun Jul 18 13:38:32 2021, MaxMem=   104857600 cpu:              15.1 elap:               4.1
 (Enter /dades/curu/g16A03_MST/g16/l502.exe)
 Integral symmetry usage will be decided dynamically.
 Closed shell SCF:
 Using DIIS extrapolation, IDIIS=  1040.
 NGot=   104857600 LenX=   104792409 LenY=   104760992
 Requested convergence on RMS density matrix=1.00D-08 within 128 cycles.
 Requested convergence on MAX density matrix=1.00D-06.
 Requested convergence on             energy=1.00D-06.
 No special actions if energy rises.
 Fock matrices will be formed incrementally for  20 cycles.

 Cycle   1  Pass 1  IDiag  1:
 FoFJK:  IHMeth= 1 ICntrl=       0 DoSepK=F KAlg= 0 I1Cent=           0 FoldK=F
 IRaf= 920000000 NMat=       1 IRICut=       1 DoRegI=T DoRafI=F ISym2E= 0 IDoP0=0 IntGTp=1.
 FoFCou: FMM=F IPFlag=           0 FMFlag=      100000 FMFlg1=           0
         NFxFlg=           0 DoJE=F BraDBF=F KetDBF=F FulRan=T
         wScrn=  0.000000 ICntrl=         0 IOpCl=  0 I1Cent=           0 NGrid=           0
         NMat0=    1 NMatS0=      1 NMatT0=    0 NMatD0=    1 NMtDS0=    0 NMtDT0=    0
 Symmetry not used in FoFCou.
 Inv3:  Mode=1 IEnd=    16258752.
 Iteration    1 A*A^-1 deviation from unit magnitude is 4.00D-15 for    714.
 Iteration    1 A*A^-1 deviation from orthogonality  is 2.38D-15 for   2293   1240.
 Iteration    1 A^-1*A deviation from unit magnitude is 4.00D-15 for   2319.
 Iteration    1 A^-1*A deviation from orthogonality  is 1.42D-15 for   2249   1223.
 E= -421.846033512063    
 DIIS: error= 2.36D-02 at cycle   1 NSaved=   1.
 NSaved= 1 IEnMin= 1 EnMin= -421.846033512063     IErMin= 1 ErrMin= 2.36D-02
 ErrMax= 2.36D-02  0.00D+00 EMaxC= 1.00D-01 BMatC= 1.74D-01 BMatP= 1.74D-01
 IDIUse=3 WtCom= 7.64D-01 WtEn= 2.36D-01
 Coeff-Com:  0.100D+01
 Coeff-En:   0.100D+01
 Coeff:      0.100D+01
 Gap=     0.229 Goal=   None    Shift=    0.000
 GapD=    0.229 DampG=1.000 DampE=0.500 DampFc=0.5000 IDamp=-1.
 Damping current iteration by 5.00D-01
 RMSDP=4.92D-03 MaxDP=1.06D-01              OVMax= 1.48D-01

 Cycle   2  Pass 1  IDiag  1:
 RMSU=  2.39D-03    CP:  9.77D-01
 E= -421.936353631085     Delta-E=       -0.090320119022 Rises=F Damp=T
 DIIS: error= 5.67D-03 at cycle   2 NSaved=   2.
 NSaved= 2 IEnMin= 2 EnMin= -421.936353631085     IErMin= 2 ErrMin= 5.67D-03
 ErrMax= 5.67D-03  0.00D+00 EMaxC= 1.00D-01 BMatC= 1.09D-02 BMatP= 1.74D-01
 IDIUse=3 WtCom= 9.43D-01 WtEn= 5.67D-02
 Coeff-Com: -0.461D-01 0.105D+01
 Coeff-En:   0.000D+00 0.100D+01
 Coeff:     -0.435D-01 0.104D+01
 Gap=     0.229 Goal=   None    Shift=    0.000
 RMSDP=1.12D-03 MaxDP=1.87D-02 DE=-9.03D-02 OVMax= 9.60D-02

 Cycle   3  Pass 1  IDiag  1:
 RMSU=  1.11D-03    CP:  9.72D-01  1.04D+00
 E= -422.024009064595     Delta-E=       -0.087655433511 Rises=F Damp=F
 DIIS: error= 3.08D-03 at cycle   3 NSaved=   3.
 NSaved= 3 IEnMin= 3 EnMin= -422.024009064595     IErMin= 3 ErrMin= 3.08D-03
 ErrMax= 3.08D-03  0.00D+00 EMaxC= 1.00D-01 BMatC= 3.47D-03 BMatP= 1.09D-02
 IDIUse=3 WtCom= 9.69D-01 WtEn= 3.08D-02
 Coeff-Com: -0.603D-01 0.362D+00 0.699D+00
 Coeff-En:   0.000D+00 0.000D+00 0.100D+01
 Coeff:     -0.584D-01 0.351D+00 0.708D+00
 Gap=     0.227 Goal=   None    Shift=    0.000
 RMSDP=5.22D-04 MaxDP=1.29D-02 DE=-8.77D-02 OVMax= 4.70D-02

 Cycle   4  Pass 1  IDiag  1:
 RMSU=  4.44D-04    CP:  9.72D-01  1.06D+00  7.56D-01
 E= -422.025631833899     Delta-E=       -0.001622769304 Rises=F Damp=F
 DIIS: error= 2.49D-03 at cycle   4 NSaved=   4.
 NSaved= 4 IEnMin= 4 EnMin= -422.025631833899     IErMin= 4 ErrMin= 2.49D-03
 ErrMax= 2.49D-03  0.00D+00 EMaxC= 1.00D-01 BMatC= 1.73D-03 BMatP= 3.47D-03
 IDIUse=3 WtCom= 9.75D-01 WtEn= 2.49D-02
 Coeff-Com: -0.299D-01 0.115D+00 0.442D+00 0.474D+00
 Coeff-En:   0.000D+00 0.000D+00 0.365D+00 0.635D+00
 Coeff:     -0.292D-01 0.112D+00 0.440D+00 0.478D+00
 Gap=     0.225 Goal=   None    Shift=    0.000
 RMSDP=2.90D-04 MaxDP=6.72D-03 DE=-1.62D-03 OVMax= 2.15D-02

 Cycle   5  Pass 1  IDiag  1:
 RMSU=  1.12D-04    CP:  9.72D-01  1.07D+00  8.26D-01  4.27D-01
 E= -422.027472962735     Delta-E=       -0.001841128836 Rises=F Damp=F
 DIIS: error= 5.37D-04 at cycle   5 NSaved=   5.
 NSaved= 5 IEnMin= 5 EnMin= -422.027472962735     IErMin= 5 ErrMin= 5.37D-04
 ErrMax= 5.37D-04  0.00D+00 EMaxC= 1.00D-01 BMatC= 7.33D-05 BMatP= 1.73D-03
 IDIUse=3 WtCom= 9.95D-01 WtEn= 5.37D-03
 Coeff-Com: -0.887D-02 0.243D-01 0.158D+00 0.239D+00 0.588D+00
 Coeff-En:   0.000D+00 0.000D+00 0.000D+00 0.000D+00 0.100D+01
 Coeff:     -0.882D-02 0.242D-01 0.157D+00 0.238D+00 0.590D+00
 Gap=     0.225 Goal=   None    Shift=    0.000
 RMSDP=6.05D-05 MaxDP=2.23D-03 DE=-1.84D-03 OVMax= 4.56D-03

 Cycle   6  Pass 1  IDiag  1:
 RMSU=  3.46D-05    CP:  9.72D-01  1.07D+00  8.22D-01  5.04D-01  6.80D-01
 E= -422.027532970254     Delta-E=       -0.000060007519 Rises=F Damp=F
 DIIS: error= 2.32D-04 at cycle   6 NSaved=   6.
 NSaved= 6 IEnMin= 6 EnMin= -422.027532970254     IErMin= 6 ErrMin= 2.32D-04
 ErrMax= 2.32D-04  0.00D+00 EMaxC= 1.00D-01 BMatC= 1.39D-05 BMatP= 7.33D-05
 IDIUse=3 WtCom= 9.98D-01 WtEn= 2.32D-03
 Coeff-Com: -0.289D-02 0.506D-02 0.588D-01 0.106D+00 0.365D+00 0.468D+00
 Coeff-En:   0.000D+00 0.000D+00 0.000D+00 0.000D+00 0.110D+00 0.890D+00
 Coeff:     -0.289D-02 0.505D-02 0.587D-01 0.106D+00 0.365D+00 0.469D+00
 Gap=     0.225 Goal=   None    Shift=    0.000
 RMSDP=1.90D-05 MaxDP=8.04D-04 DE=-6.00D-05 OVMax= 1.22D-03

 Cycle   7  Pass 1  IDiag  1:
 RMSU=  6.27D-06    CP:  9.72D-01  1.07D+00  8.27D-01  5.00D-01  7.20D-01
                    CP:  5.25D-01
 E= -422.027544927890     Delta-E=       -0.000011957636 Rises=F Damp=F
 DIIS: error= 1.79D-05 at cycle   7 NSaved=   7.
 NSaved= 7 IEnMin= 7 EnMin= -422.027544927890     IErMin= 7 ErrMin= 1.79D-05
 ErrMax= 1.79D-05  0.00D+00 EMaxC= 1.00D-01 BMatC= 1.53D-07 BMatP= 1.39D-05
 IDIUse=1 WtCom= 1.00D+00 WtEn= 0.00D+00
 Coeff-Com: -0.784D-03 0.106D-02 0.175D-01 0.321D-01 0.120D+00 0.185D+00
 Coeff-Com:  0.645D+00
 Coeff:     -0.784D-03 0.106D-02 0.175D-01 0.321D-01 0.120D+00 0.185D+00
 Coeff:      0.645D+00
 Gap=     0.225 Goal=   None    Shift=    0.000
 RMSDP=2.92D-06 MaxDP=8.37D-05 DE=-1.20D-05 OVMax= 1.03D-04

 Cycle   8  Pass 1  IDiag  1:
 RMSU=  2.14D-06    CP:  9.72D-01  1.07D+00  8.28D-01  5.01D-01  7.21D-01
                    CP:  5.47D-01  7.46D-01
 E= -422.027545041577     Delta-E=       -0.000000113687 Rises=F Damp=F
 DIIS: error= 8.64D-06 at cycle   8 NSaved=   8.
 NSaved= 8 IEnMin= 8 EnMin= -422.027545041577     IErMin= 8 ErrMin= 8.64D-06
 ErrMax= 8.64D-06  0.00D+00 EMaxC= 1.00D-01 BMatC= 2.92D-08 BMatP= 1.53D-07
 IDIUse=1 WtCom= 1.00D+00 WtEn= 0.00D+00
 Coeff-Com: -0.435D-04-0.119D-03 0.200D-02 0.361D-02 0.173D-01 0.415D-01
 Coeff-Com:  0.337D+00 0.599D+00
 Coeff:     -0.435D-04-0.119D-03 0.200D-02 0.361D-02 0.173D-01 0.415D-01
 Coeff:      0.337D+00 0.599D+00
 Gap=     0.225 Goal=   None    Shift=    0.000
 RMSDP=9.45D-07 MaxDP=2.16D-05 DE=-1.14D-07 OVMax= 3.79D-05

 Cycle   9  Pass 1  IDiag  1:
 RMSU=  5.65D-07    CP:  9.72D-01  1.07D+00  8.28D-01  5.01D-01  7.22D-01
                    CP:  5.49D-01  7.94D-01  6.85D-01
 E= -422.027545066902     Delta-E=       -0.000000025325 Rises=F Damp=F
 DIIS: error= 1.40D-06 at cycle   9 NSaved=   9.
 NSaved= 9 IEnMin= 9 EnMin= -422.027545066902     IErMin= 9 ErrMin= 1.40D-06
 ErrMax= 1.40D-06  0.00D+00 EMaxC= 1.00D-01 BMatC= 1.32D-09 BMatP= 2.92D-08
 IDIUse=1 WtCom= 1.00D+00 WtEn= 0.00D+00
 Coeff-Com:  0.361D-04-0.127D-03-0.280D-03-0.672D-03-0.560D-03 0.617D-02
 Coeff-Com:  0.965D-01 0.247D+00 0.652D+00
 Coeff:      0.361D-04-0.127D-03-0.280D-03-0.672D-03-0.560D-03 0.617D-02
 Coeff:      0.965D-01 0.247D+00 0.652D+00
 Gap=     0.225 Goal=   None    Shift=    0.000
 RMSDP=2.46D-07 MaxDP=7.04D-06 DE=-2.53D-08 OVMax= 1.02D-05

 Cycle  10  Pass 1  IDiag  1:
 RMSU=  1.65D-07    CP:  9.72D-01  1.07D+00  8.28D-01  5.01D-01  7.22D-01
                    CP:  5.50D-01  8.05D-01  7.21D-01  7.79D-01
 E= -422.027545067980     Delta-E=       -0.000000001079 Rises=F Damp=F
 DIIS: error= 6.91D-07 at cycle  10 NSaved=  10.
 NSaved=10 IEnMin=10 EnMin= -422.027545067980     IErMin=10 ErrMin= 6.91D-07
 ErrMax= 6.91D-07  0.00D+00 EMaxC= 1.00D-01 BMatC= 1.95D-10 BMatP= 1.32D-09
 IDIUse=1 WtCom= 1.00D+00 WtEn= 0.00D+00
 Coeff-Com:  0.224D-04-0.507D-04-0.314D-03-0.703D-03-0.190D-02-0.345D-03
 Coeff-Com:  0.175D-01 0.703D-01 0.327D+00 0.588D+00
 Coeff:      0.224D-04-0.507D-04-0.314D-03-0.703D-03-0.190D-02-0.345D-03
 Coeff:      0.175D-01 0.703D-01 0.327D+00 0.588D+00
 Gap=     0.225 Goal=   None    Shift=    0.000
 RMSDP=9.65D-08 MaxDP=2.54D-06 DE=-1.08D-09 OVMax= 7.03D-06

 Cycle  11  Pass 1  IDiag  1:
 RMSU=  6.03D-08    CP:  9.72D-01  1.07D+00  8.28D-01  5.01D-01  7.22D-01
                    CP:  5.50D-01  8.06D-01  7.26D-01  8.38D-01  6.51D-01
 E= -422.027545068156     Delta-E=       -0.000000000175 Rises=F Damp=F
 DIIS: error= 3.90D-07 at cycle  11 NSaved=  11.
 NSaved=11 IEnMin=11 EnMin= -422.027545068156     IErMin=11 ErrMin= 3.90D-07
 ErrMax= 3.90D-07  0.00D+00 EMaxC= 1.00D-01 BMatC= 2.08D-11 BMatP= 1.95D-10
 IDIUse=1 WtCom= 1.00D+00 WtEn= 0.00D+00
 Coeff-Com:  0.890D-05-0.166D-04-0.136D-03-0.318D-03-0.946D-03-0.555D-03
 Coeff-Com:  0.747D-03 0.168D-01 0.117D+00 0.312D+00 0.555D+00
 Coeff:      0.890D-05-0.166D-04-0.136D-03-0.318D-03-0.946D-03-0.555D-03
 Coeff:      0.747D-03 0.168D-01 0.117D+00 0.312D+00 0.555D+00
 Gap=     0.225 Goal=   None    Shift=    0.000
 RMSDP=3.40D-08 MaxDP=8.34D-07 DE=-1.75D-10 OVMax= 2.29D-06

 Cycle  12  Pass 1  IDiag  1:
 RMSU=  2.25D-08    CP:  9.72D-01  1.07D+00  8.28D-01  5.01D-01  7.22D-01
                    CP:  5.50D-01  8.06D-01  7.29D-01  8.41D-01  7.28D-01
                    CP:  6.77D-01
 E= -422.027545068173     Delta-E=       -0.000000000018 Rises=F Damp=F
 DIIS: error= 1.02D-07 at cycle  12 NSaved=  12.
 NSaved=12 IEnMin=12 EnMin= -422.027545068173     IErMin=12 ErrMin= 1.02D-07
 ErrMax= 1.02D-07  0.00D+00 EMaxC= 1.00D-01 BMatC= 2.93D-12 BMatP= 2.08D-11
 IDIUse=1 WtCom= 1.00D+00 WtEn= 0.00D+00
 Coeff-Com:  0.138D-05-0.936D-06-0.221D-04-0.603D-04-0.205D-03-0.189D-03
 Coeff-Com: -0.282D-02-0.266D-02 0.750D-02 0.724D-01 0.305D+00 0.621D+00
 Coeff:      0.138D-05-0.936D-06-0.221D-04-0.603D-04-0.205D-03-0.189D-03
 Coeff:     -0.282D-02-0.266D-02 0.750D-02 0.724D-01 0.305D+00 0.621D+00
 Gap=     0.225 Goal=   None    Shift=    0.000
 RMSDP=1.12D-08 MaxDP=2.86D-07 DE=-1.76D-11 OVMax= 8.73D-07

 Cycle  13  Pass 1  IDiag  1:
 RMSU=  5.62D-09    CP:  9.72D-01  1.07D+00  8.28D-01  5.01D-01  7.22D-01
                    CP:  5.51D-01  8.06D-01  7.29D-01  8.46D-01  7.32D-01
                    CP:  7.66D-01  6.81D-01
 E= -422.027545068169     Delta-E=        0.000000000004 Rises=F Damp=F
 DIIS: error= 1.38D-08 at cycle  13 NSaved=  13.
 NSaved=13 IEnMin=12 EnMin= -422.027545068173     IErMin=13 ErrMin= 1.38D-08
 ErrMax= 1.38D-08  0.00D+00 EMaxC= 1.00D-01 BMatC= 1.01D-13 BMatP= 2.93D-12
 IDIUse=1 WtCom= 1.00D+00 WtEn= 0.00D+00
 Coeff-Com: -0.175D-06 0.803D-06 0.379D-05 0.480D-05 0.662D-05 0.984D-05
 Coeff-Com: -0.916D-03-0.183D-02-0.650D-02-0.227D-02 0.447D-01 0.189D+00
 Coeff-Com:  0.777D+00
 Coeff:     -0.175D-06 0.803D-06 0.379D-05 0.480D-05 0.662D-05 0.984D-05
 Coeff:     -0.916D-03-0.183D-02-0.650D-02-0.227D-02 0.447D-01 0.189D+00
 Coeff:      0.777D+00
 Gap=     0.225 Goal=   None    Shift=    0.000
 RMSDP=2.48D-09 MaxDP=6.04D-08 DE= 4.09D-12 OVMax= 1.58D-07

 Error on total polarization charges =  0.00621
 SCF Done:  E(RB3LYP) =  -422.027545068     A.U. after   13 cycles
            NFock= 13  Conv=0.25D-08     -V/T= 2.0098
 KE= 4.179260631489D+02 PE=-2.007699499465D+03 EE= 6.462364466725D+02
 Leave Link  502 at Sun Jul 18 13:40:09 2021, MaxMem=   104857600 cpu:             369.5 elap:              96.8
 (Enter /dades/curu/g16A03_MST/g16/l601.exe)
 Copying SCF densities to generalized density rwf, IOpCl= 0 IROHF=0.

 **********************************************************************

            Population analysis using the SCF density.

 **********************************************************************

 Orbital symmetries:
       Occupied  (A) (A) (A) (A) (A) (A) (A) (A) (A) (A) (A) (A)
                 (A) (A) (A) (A) (A) (A) (A) (A) (A) (A) (A) (A)
                 (A) (A) (A) (A) (A) (A) (A) (A) (A) (A) (A) (A)
                 (A)
       Virtual   (A) (A) (A) (A) (A) (A) (A) (A) (A) (A) (A) (A)
                 (A) (A) (A) (A) (A) (A) (A) (A) (A) (A) (A) (A)
                 (A) (A) (A) (A) (A) (A) (A) (A) (A) (A) (A) (A)
                 (A) (A) (A) (A) (A) (A) (A) (A) (A) (A) (A) (A)
                 (A) (A) (A) (A) (A) (A) (A) (A) (A) (A) (A) (A)
                 (A) (A) (A) (A) (A) (A) (A) (A) (A) (A) (A) (A)
                 (A) (A) (A) (A) (A) (A) (A) (A) (A) (A) (A) (A)
                 (A) (A) (A) (A) (A) (A) (A) (A) (A) (A) (A) (A)
                 (A) (A) (A) (A) (A) (A) (A) (A) (A) (A) (A) (A)
                 (A) (A) (A) (A) (A) (A) (A) (A) (A) (A) (A) (A)
                 (A) (A) (A) (A) (A) (A) (A) (A) (A) (A) (A) (A)
                 (A) (A) (A) (A) (A) (A) (A)
 The electronic state is 1-A.
 Alpha  occ. eigenvalues --  -14.48797 -14.35585 -10.28251 -10.26865 -10.25087
 Alpha  occ. eigenvalues --  -10.24454 -10.22880 -10.22353 -10.22194 -10.21709
 Alpha  occ. eigenvalues --   -1.05457  -0.96362  -0.84099  -0.82037  -0.77488
 Alpha  occ. eigenvalues --   -0.74157  -0.69685  -0.65504  -0.63854  -0.61532
 Alpha  occ. eigenvalues --   -0.55937  -0.55075  -0.53346  -0.50890  -0.48871
 Alpha  occ. eigenvalues --   -0.46785  -0.45537  -0.44583  -0.43162  -0.42646
 Alpha  occ. eigenvalues --   -0.42307  -0.39758  -0.38978  -0.37574  -0.30590
 Alpha  occ. eigenvalues --   -0.28578  -0.27267
 Alpha virt. eigenvalues --   -0.04759  -0.03924   0.03451   0.06731   0.07822
 Alpha virt. eigenvalues --    0.08978   0.09511   0.09810   0.10495   0.11376
 Alpha virt. eigenvalues --    0.13223   0.13336   0.14273   0.14978   0.16037
 Alpha virt. eigenvalues --    0.16423   0.16824   0.18907   0.20594   0.22724
 Alpha virt. eigenvalues --    0.24604   0.29008   0.31066   0.32348   0.42277
 Alpha virt. eigenvalues --    0.43442   0.46039   0.47082   0.48608   0.49802
 Alpha virt. eigenvalues --    0.50588   0.51655   0.52493   0.55052   0.56715
 Alpha virt. eigenvalues --    0.57517   0.58076   0.58924   0.59518   0.61633
 Alpha virt. eigenvalues --    0.63009   0.63660   0.67650   0.68193   0.69211
 Alpha virt. eigenvalues --    0.72708   0.74472   0.76017   0.77809   0.80329
 Alpha virt. eigenvalues --    0.81761   0.82272   0.82467   0.83966   0.85004
 Alpha virt. eigenvalues --    0.85602   0.86073   0.87391   0.89425   0.89821
 Alpha virt. eigenvalues --    0.91905   0.92755   0.93782   0.94769   0.96940
 Alpha virt. eigenvalues --    1.00028   1.01830   1.03947   1.05689   1.09081
 Alpha virt. eigenvalues --    1.14426   1.19672   1.22313   1.27327   1.29589
 Alpha virt. eigenvalues --    1.33612   1.37145   1.40322   1.42390   1.45239
 Alpha virt. eigenvalues --    1.45981   1.46656   1.51014   1.55894   1.58245
 Alpha virt. eigenvalues --    1.67541   1.70644   1.74331   1.77932   1.79818
 Alpha virt. eigenvalues --    1.83391   1.83972   1.86078   1.88512   1.89777
 Alpha virt. eigenvalues --    1.92729   1.94314   1.95265   1.97975   2.02089
 Alpha virt. eigenvalues --    2.02674   2.06087   2.11552   2.13239   2.14122
 Alpha virt. eigenvalues --    2.15791   2.18199   2.21135   2.24308   2.28508
 Alpha virt. eigenvalues --    2.32270   2.35026   2.35724   2.39532   2.42685
 Alpha virt. eigenvalues --    2.44135   2.51466   2.54774   2.55567   2.60643
 Alpha virt. eigenvalues --    2.61924   2.64826   2.66165   2.71507   2.76238
 Alpha virt. eigenvalues --    2.82517   2.85043   3.07628   3.32839   3.84727
 Alpha virt. eigenvalues --    4.03265   4.08834   4.14194   4.17326   4.20879
 Alpha virt. eigenvalues --    4.26985   4.35554   4.44634   4.59449
          Condensed to atoms (all electrons):
               1          2          3          4          5          6
     1  C    5.037587   0.385588   0.382012   0.379476   0.254501  -0.022458
     2  H    0.385588   0.475980  -0.027034  -0.018290  -0.036308  -0.002846
     3  H    0.382012  -0.027034   0.473267  -0.029285  -0.026009   0.003055
     4  H    0.379476  -0.018290  -0.029285   0.471503  -0.026900  -0.002893
     5  N    0.254501  -0.036308  -0.026009  -0.026900   6.681711   0.304618
     6  H   -0.022458  -0.002846   0.003055  -0.002893   0.304618   0.280810
     7  C   -0.037808  -0.001713  -0.001845   0.003350   0.243977  -0.022789
     8  H   -0.000443  -0.000338   0.001908  -0.000027  -0.031863   0.003180
     9  H   -0.001432   0.002949  -0.000135   0.000006  -0.028285  -0.002112
    10  C    0.004103  -0.000051   0.000023  -0.000180  -0.045553  -0.000819
    11  H   -0.000081  -0.000003   0.000002   0.000002   0.003158  -0.000012
    12  H   -0.000003   0.000000  -0.000001   0.000001  -0.003923   0.004218
    13  C    0.000123   0.000002  -0.000004   0.000014  -0.006429  -0.000871
    14  N    0.000012  -0.000001   0.000001   0.000002  -0.000294   0.000603
    15  C   -0.000001   0.000000  -0.000000   0.000000   0.000088   0.000015
    16  H   -0.000000   0.000000   0.000000  -0.000000   0.000000  -0.000002
    17  C    0.000000   0.000000  -0.000000  -0.000000   0.000009   0.000000
    18  H    0.000000   0.000000   0.000000  -0.000000   0.000000  -0.000000
    19  C   -0.000001   0.000000   0.000001  -0.000000  -0.000026  -0.000001
    20  H   -0.000000  -0.000000  -0.000000  -0.000000  -0.000000   0.000000
    21  C   -0.000036  -0.000003   0.000019   0.000003  -0.001961   0.000168
    22  H   -0.000007   0.000000  -0.000004  -0.000000   0.000094  -0.000011
    23  H   -0.022834   0.003498  -0.002799  -0.001056   0.294898  -0.011156
               7          8          9         10         11         12
     1  C   -0.037808  -0.000443  -0.001432   0.004103  -0.000081  -0.000003
     2  H   -0.001713  -0.000338   0.002949  -0.000051  -0.000003   0.000000
     3  H   -0.001845   0.001908  -0.000135   0.000023   0.000002  -0.000001
     4  H    0.003350  -0.000027   0.000006  -0.000180   0.000002   0.000001
     5  N    0.243977  -0.031863  -0.028285  -0.045553   0.003158  -0.003923
     6  H   -0.022789   0.003180  -0.002112  -0.000819  -0.000012   0.004218
     7  C    5.053281   0.379174   0.375344   0.335167  -0.030443  -0.027472
     8  H    0.379174   0.489126  -0.022943  -0.041074  -0.002292   0.004375
     9  H    0.375344  -0.022943   0.477351  -0.030759  -0.001186  -0.003338
    10  C    0.335167  -0.041074  -0.030759   5.270755   0.370729   0.351230
    11  H   -0.030443  -0.002292  -0.001186   0.370729   0.505085  -0.024701
    12  H   -0.027472   0.004375  -0.003338   0.351230  -0.024701   0.532047
    13  C   -0.046502  -0.008886   0.004667   0.339503  -0.026500  -0.039493
    14  N    0.000245   0.000026  -0.000095  -0.083079   0.001120   0.010220
    15  C   -0.000266   0.000015   0.000003   0.007230  -0.000141   0.000446
    16  H    0.000004   0.000000  -0.000000  -0.000297   0.000004  -0.000055
    17  C   -0.000010  -0.000007   0.000000   0.000855   0.000033   0.000025
    18  H   -0.000000  -0.000000  -0.000000   0.000017  -0.000000  -0.000001
    19  C    0.000335  -0.000073  -0.000000   0.004091   0.000116  -0.000121
    20  H    0.000004   0.000007  -0.000000  -0.000163  -0.000003   0.000004
    21  C   -0.001286   0.006277   0.000053  -0.091634  -0.002950   0.007307
    22  H   -0.001544   0.004178  -0.000051  -0.002936   0.000731  -0.000165
    23  H   -0.024192  -0.001948   0.003319  -0.008294   0.000258   0.000014
              13         14         15         16         17         18
     1  C    0.000123   0.000012  -0.000001  -0.000000   0.000000   0.000000
     2  H    0.000002  -0.000001   0.000000   0.000000   0.000000   0.000000
     3  H   -0.000004   0.000001  -0.000000   0.000000  -0.000000   0.000000
     4  H    0.000014   0.000002   0.000000  -0.000000  -0.000000  -0.000000
     5  N   -0.006429  -0.000294   0.000088   0.000000   0.000009   0.000000
     6  H   -0.000871   0.000603   0.000015  -0.000002   0.000000  -0.000000
     7  C   -0.046502   0.000245  -0.000266   0.000004  -0.000010  -0.000000
     8  H   -0.008886   0.000026   0.000015   0.000000  -0.000007  -0.000000
     9  H    0.004667  -0.000095   0.000003  -0.000000   0.000000  -0.000000
    10  C    0.339503  -0.083079   0.007230  -0.000297   0.000855   0.000017
    11  H   -0.026500   0.001120  -0.000141   0.000004   0.000033  -0.000000
    12  H   -0.039493   0.010220   0.000446  -0.000055   0.000025  -0.000001
    13  C    4.703373   0.467309  -0.059053   0.004954  -0.037768   0.000352
    14  N    0.467309   6.791820   0.443250  -0.052006  -0.028203   0.003421
    15  C   -0.059053   0.443250   4.814224   0.376225   0.502087  -0.032778
    16  H    0.004954  -0.052006   0.376225   0.571434  -0.059793  -0.002462
    17  C   -0.037768  -0.028203   0.502087  -0.059793   4.933027   0.360751
    18  H    0.000352   0.003421  -0.032778  -0.002462   0.360751   0.543584
    19  C   -0.021818  -0.034647  -0.030321   0.004299   0.533037  -0.042004
    20  H    0.003546  -0.000028   0.005329  -0.000175  -0.042194  -0.005894
    21  C    0.479637  -0.053862  -0.046637   0.000692  -0.033940   0.005220
    22  H   -0.042748   0.004654   0.000222   0.000022   0.004553  -0.000123
    23  H    0.017611   0.001500  -0.000125  -0.000010  -0.000149  -0.000001
              19         20         21         22         23
     1  C   -0.000001  -0.000000  -0.000036  -0.000007  -0.022834
     2  H    0.000000  -0.000000  -0.000003   0.000000   0.003498
     3  H    0.000001  -0.000000   0.000019  -0.000004  -0.002799
     4  H   -0.000000  -0.000000   0.000003  -0.000000  -0.001056
     5  N   -0.000026  -0.000000  -0.001961   0.000094   0.294898
     6  H   -0.000001   0.000000   0.000168  -0.000011  -0.011156
     7  C    0.000335   0.000004  -0.001286  -0.001544  -0.024192
     8  H   -0.000073   0.000007   0.006277   0.004178  -0.001948
     9  H   -0.000000  -0.000000   0.000053  -0.000051   0.003319
    10  C    0.004091  -0.000163  -0.091634  -0.002936  -0.008294
    11  H    0.000116  -0.000003  -0.002950   0.000731   0.000258
    12  H   -0.000121   0.000004   0.007307  -0.000165   0.000014
    13  C   -0.021818   0.003546   0.479637  -0.042748   0.017611
    14  N   -0.034647  -0.000028  -0.053862   0.004654   0.001500
    15  C   -0.030321   0.005329  -0.046637   0.000222  -0.000125
    16  H    0.004299  -0.000175   0.000692   0.000022  -0.000010
    17  C    0.533037  -0.042194  -0.033940   0.004553  -0.000149
    18  H   -0.042004  -0.005894   0.005220  -0.000123  -0.000001
    19  C    4.830005   0.364011   0.534494  -0.034408   0.000043
    20  H    0.364011   0.546196  -0.038580  -0.004019   0.000002
    21  C    0.534494  -0.038580   5.053781   0.352711   0.003964
    22  H   -0.034408  -0.004019   0.352711   0.557058  -0.000096
    23  H    0.000043   0.000002   0.003964  -0.000096   0.288957
 Mulliken charges:
               1
     1  C   -0.358299
     2  H    0.218569
     3  H    0.226828
     4  H    0.224275
     5  N   -0.575502
     6  H    0.469302
     7  C   -0.195011
     8  H    0.221627
     9  H    0.226644
    10  C   -0.378863
    11  H    0.207078
    12  H    0.189386
    13  C    0.268982
    14  N   -0.471967
    15  C    0.020189
    16  H    0.157164
    17  C   -0.132314
    18  H    0.169920
    19  C   -0.107012
    20  H    0.171958
    21  C   -0.173439
    22  H    0.161889
    23  H    0.458597
 Sum of Mulliken charges =   1.00000
 Mulliken charges with hydrogens summed into heavy atoms:
               1
     1  C    0.311372
     5  N    0.352397
     7  C    0.253261
    10  C    0.017600
    13  C    0.268982
    14  N   -0.471967
    15  C    0.177353
    17  C    0.037606
    19  C    0.064946
    21  C   -0.011551
 Electronic spatial extent (au):  <R**2>=           1735.5465
 Charge=              1.0000 electrons
 Dipole moment (field-independent basis, Debye):
    X=             -8.6150    Y=             -2.3254    Z=              1.1215  Tot=              8.9935
 Quadrupole moment (field-independent basis, Debye-Ang):
   XX=            -24.1094   YY=            -51.1028   ZZ=            -54.3287
   XY=              1.1629   XZ=              5.0927   YZ=              2.2511
 Traceless Quadrupole moment (field-independent basis, Debye-Ang):
   XX=             19.0710   YY=             -7.9225   ZZ=            -11.1484
   XY=              1.1629   XZ=              5.0927   YZ=              2.2511
 Octapole moment (field-independent basis, Debye-Ang**2):
  XXX=            -64.5565  YYY=             -2.4952  ZZZ=              6.5993  XYY=            -21.5087
  XXY=            -32.3804  XXZ=             -2.1314  XZZ=             -7.1685  YZZ=             -4.5945
  YYZ=             -0.6266  XYZ=              0.2274
 Hexadecapole moment (field-independent basis, Debye-Ang**3):
 XXXX=          -1279.0524 YYYY=           -311.2476 ZZZZ=           -311.6055 XXXY=             10.0008
 XXXZ=             23.7464 YYYX=             21.3919 YYYZ=              3.8279 ZZZX=             19.8142
 ZZZY=              7.6367 XXYY=           -273.4912 XXZZ=           -281.0167 YYZZ=           -107.9711
 XXYZ=             -1.3549 YYXZ=             -1.2401 ZZXY=             -3.1726
 N-N= 5.215094445758D+02 E-N=-2.007699501035D+03  KE= 4.179260631489D+02
 No NMR shielding tensors so no spin-rotation constants.
 Leave Link  601 at Sun Jul 18 13:40:09 2021, MaxMem=   104857600 cpu:               0.5 elap:               0.1
 (Enter /dades/curu/g16A03_MST/g16/l701.exe)
 ... and contract with generalized density number  0.
 Compute integral first derivatives.
 D1PCM: PCM CHGder 1st derivatives, ID1Alg=3 FixD1E=F DoIter=F DoCFld=F I1PDM=0.
 GePol: Maximum number of non-zero 1st derivatives   =     274
 Leave Link  701 at Sun Jul 18 13:40:12 2021, MaxMem=   104857600 cpu:               9.2 elap:               2.4
 (Enter /dades/curu/g16A03_MST/g16/l702.exe)
 L702 exits ... SP integral derivatives will be done elsewhere.
 Leave Link  702 at Sun Jul 18 13:40:12 2021, MaxMem=   104857600 cpu:               0.0 elap:               0.0
 (Enter /dades/curu/g16A03_MST/g16/l703.exe)
 Integral derivatives from FoFJK, PRISM(SPDF).
 Compute integral first derivatives, UseDBF=F ICtDFT=           0.
 Calling FoFJK, ICntrl=      2127 FMM=F ISym2X=0 I1Cent= 0 IOpClX= 0 NMat=1 NMatS=1 NMatT=0.
 FoFJK:  IHMeth= 1 ICntrl=    2127 DoSepK=F KAlg= 0 I1Cent=           0 FoldK=F
 IRaf=         0 NMat=       1 IRICut=       1 DoRegI=T DoRafI=F ISym2E= 0 IDoP0=0 IntGTp=1.
 FoFCou: FMM=F IPFlag=           0 FMFlag=      100000 FMFlg1=         800
         NFxFlg=           0 DoJE=F BraDBF=F KetDBF=F FulRan=T
         wScrn=  0.000000 ICntrl=      2127 IOpCl=  0 I1Cent=           0 NGrid=           0
         NMat0=    1 NMatS0=      1 NMatT0=    0 NMatD0=    1 NMtDS0=    0 NMtDT0=    0
 Symmetry not used in FoFCou.
 Leave Link  703 at Sun Jul 18 13:40:22 2021, MaxMem=   104857600 cpu:              41.2 elap:              10.4
 (Enter /dades/curu/g16A03_MST/g16/l716.exe)
 Dipole        =-3.38940058D+00-9.14883893D-01 4.41246338D-01
 ***** Axes restored to original set *****
 -------------------------------------------------------------------
 Center     Atomic                   Forces (Hartrees/Bohr)
 Number     Number              X              Y              Z
 -------------------------------------------------------------------
      1        6           0.005530933   -0.028023759    0.030576929
      2        1           0.006855990    0.003594641    0.000590668
      3        1          -0.009663483    0.006135481   -0.009367582
      4        1           0.003086562   -0.001653454   -0.009899316
      5        7          -0.025010091   -0.020974668    0.007330345
      6        1           0.019823400    0.004748337   -0.017569888
      7        6          -0.022831032    0.009172093   -0.035119290
      8        1           0.011754740   -0.005649093    0.013610029
      9        1           0.009236417   -0.000116879    0.013306658
     10        6           0.018699327   -0.030911794   -0.005729818
     11        1          -0.003695422   -0.003625403    0.003660438
     12        1           0.003843726   -0.003901064   -0.000177812
     13        6          -0.039338856    0.034682502    0.010457786
     14        7           0.000610226    0.024147677    0.018913263
     15        6           0.000957283    0.006725493   -0.010681654
     16        1           0.000553741   -0.002421531   -0.001441708
     17        6           0.000312550   -0.011867916    0.002185921
     18        1           0.010194954    0.002171453   -0.006543372
     19        6           0.004443250   -0.027044826    0.000114870
     20        1           0.000692100   -0.005021410   -0.000012759
     21        6           0.005849971    0.019935478   -0.010016358
     22        1          -0.001355348    0.003004322    0.002863809
     23        1          -0.000550939    0.026894318    0.002948840
 -------------------------------------------------------------------
 Cartesian Forces:  Max     0.039338856 RMS     0.014333082
 Leave Link  716 at Sun Jul 18 13:40:22 2021, MaxMem=   104857600 cpu:               0.0 elap:               0.0
 (Enter /dades/curu/g16A03_MST/g16/l103.exe)

 GradGradGradGradGradGradGradGradGradGradGradGradGradGradGradGradGradGrad
 Berny optimization.
 FormGI is forming the generalized inverse of G from B-inverse, IUseBI=4.
 Internal  Forces:  Max     0.046119520 RMS     0.008809783
 Search for a local minimum.
 Step number   1 out of a maximum of  126
 All quantities printed in internal units (Hartrees-Bohrs-Radians)
 RMS Force = .88098D-02 SwitMx=.10000D-02 MixMth= 1
 Mixed Optimization -- RFO/linear search
 Second derivative matrix not updated -- first step.
 ITU=  0
     Eigenvalues ---    0.00230   0.00429   0.00953   0.01419   0.01762
     Eigenvalues ---    0.01790   0.01881   0.02008   0.02113   0.02126
     Eigenvalues ---    0.02164   0.02307   0.03490   0.04083   0.04266
     Eigenvalues ---    0.04719   0.05029   0.05393   0.05654   0.05950
     Eigenvalues ---    0.07731   0.09114   0.09580   0.11478   0.12719
     Eigenvalues ---    0.12877   0.15892   0.15973   0.15999   0.16000
     Eigenvalues ---    0.16000   0.16000   0.16000   0.21844   0.21934
     Eigenvalues ---    0.21964   0.22069   0.22399   0.24281   0.24870
     Eigenvalues ---    0.26945   0.32861   0.34387   0.34467   0.34492
     Eigenvalues ---    0.34516   0.34523   0.34594   0.34674   0.34990
     Eigenvalues ---    0.35151   0.35227   0.35275   0.37492   0.38159
     Eigenvalues ---    0.39127   0.41384   0.44319   0.46078   0.47650
     Eigenvalues ---    0.47709   0.51530   0.56700
 RFO step:  Lambda=-3.40084168D-02 EMin= 2.30000000D-03
 Linear search not attempted -- first point.
 Maximum step size (   0.300) exceeded in Quadratic search.
    -- Step size scaled by   0.897
 Iteration  1 RMS(Cart)=  0.11951081 RMS(Int)=  0.00347987
 Iteration  2 RMS(Cart)=  0.00460325 RMS(Int)=  0.00154179
 Iteration  3 RMS(Cart)=  0.00002430 RMS(Int)=  0.00154174
 Iteration  4 RMS(Cart)=  0.00000018 RMS(Int)=  0.00154174
 ITry= 1 IFail=0 DXMaxC= 4.89D-01 DCOld= 1.00D+10 DXMaxT= 3.00D-01 DXLimC= 3.00D+00 Rises=F
 Variable       Old X    -DE/DX   Delta X   Delta X   Delta X     New X
                                 (Linear)    (Quad)   (Total)
    R1        2.06681  -0.00297   0.00000  -0.00704  -0.00704   2.05977
    R2        2.06549  -0.00115   0.00000  -0.00273  -0.00273   2.06276
    R3        2.06457  -0.00163   0.00000  -0.00386  -0.00386   2.06071
    R4        2.75111   0.02136   0.00000   0.04686   0.04686   2.79797
    R5        1.89014   0.02653   0.00000   0.04662   0.04662   1.93676
    R6        2.82597  -0.00099   0.00000  -0.00245  -0.00245   2.82352
    R7        1.88951   0.02632   0.00000   0.04621   0.04621   1.93572
    R8        2.06468  -0.00253   0.00000  -0.00599  -0.00599   2.05869
    R9        2.06507  -0.00398   0.00000  -0.00942  -0.00942   2.05565
   R10        2.94506   0.00032   0.00000   0.00094   0.00094   2.94600
   R11        2.06339   0.00239   0.00000   0.00564   0.00564   2.06903
   R12        2.06208   0.00293   0.00000   0.00690   0.00690   2.06898
   R13        2.74134   0.04612   0.00000   0.09957   0.09957   2.84092
   R14        2.52386   0.01080   0.00000   0.01591   0.01593   2.53979
   R15        2.69911  -0.01624   0.00000  -0.03317  -0.03309   2.66602
   R16        2.57041  -0.01808   0.00000  -0.02817  -0.02824   2.54217
   R17        2.05691  -0.00082   0.00000  -0.00192  -0.00192   2.05499
   R18        2.64662  -0.01177   0.00000  -0.02103  -0.02112   2.62550
   R19        2.05309  -0.00174   0.00000  -0.00404  -0.00404   2.04904
   R20        2.62763   0.00878   0.00000   0.01533   0.01532   2.64294
   R21        2.05431  -0.00198   0.00000  -0.00461  -0.00461   2.04970
   R22        2.68216  -0.02554   0.00000  -0.05066  -0.05059   2.63156
   R23        2.05231  -0.00057   0.00000  -0.00133  -0.00133   2.05098
    A1        1.84683   0.00737   0.00000   0.04063   0.04137   1.88820
    A2        1.96562  -0.00274   0.00000  -0.02192  -0.02179   1.94383
    A3        1.88705   0.00639   0.00000   0.02812   0.02856   1.91561
    A4        1.80795   0.01410   0.00000   0.06807   0.06690   1.87485
    A5        2.01051  -0.01896   0.00000  -0.08294  -0.08315   1.92736
    A6        1.94501  -0.00598   0.00000  -0.03090  -0.03141   1.91359
    A7        1.88277   0.00393   0.00000   0.01391   0.01393   1.89670
    A8        2.04001  -0.01187   0.00000  -0.03908  -0.03889   2.00112
    A9        1.88283   0.00478   0.00000   0.02200   0.02214   1.90497
   A10        1.88359   0.00380   0.00000   0.01222   0.01229   1.89588
   A11        1.88630  -0.00433   0.00000  -0.02546  -0.02561   1.86069
   A12        1.88357   0.00384   0.00000   0.01563   0.01585   1.89942
   A13        1.98575  -0.01098   0.00000  -0.07310  -0.07915   1.90660
   A14        1.99462  -0.01251   0.00000  -0.09268  -0.09663   1.89799
   A15        1.88970   0.01334   0.00000   0.06130   0.06274   1.95245
   A16        1.92640   0.00383   0.00000   0.00093  -0.00983   1.91657
   A17        1.80223   0.00667   0.00000   0.08485   0.08642   1.88866
   A18        1.84911   0.00325   0.00000   0.05019   0.05240   1.90150
   A19        1.90775  -0.00817   0.00000  -0.04473  -0.04478   1.86297
   A20        1.95245  -0.00774   0.00000  -0.03070  -0.03211   1.92034
   A21        1.94791   0.01704   0.00000   0.06214   0.06229   2.01019
   A22        1.83551   0.00441   0.00000   0.01221   0.01132   1.84684
   A23        1.95325  -0.00548   0.00000  -0.02223  -0.02128   1.93197
   A24        1.86406  -0.00092   0.00000   0.02071   0.02088   1.88495
   A25        2.04160  -0.00079   0.00000  -0.00141  -0.00176   2.03984
   A26        2.08636   0.00604   0.00000   0.02037   0.02009   2.10645
   A27        2.14830  -0.00492   0.00000  -0.01341  -0.01390   2.13440
   A28        2.02074   0.01023   0.00000   0.03650   0.03616   2.05691
   A29        2.01899   0.00295   0.00000   0.00661   0.00658   2.02557
   A30        2.19762  -0.01135   0.00000  -0.03643  -0.03708   2.16054
   A31        2.06394   0.00856   0.00000   0.03256   0.03253   2.09647
   A32        2.20548  -0.01425   0.00000  -0.06473  -0.06458   2.14090
   A33        2.04969   0.00350   0.00000   0.01384   0.01351   2.06321
   A34        2.02799   0.01076   0.00000   0.05094   0.05109   2.07908
   A35        2.08005   0.00334   0.00000   0.01759   0.01764   2.09769
   A36        2.06497   0.00285   0.00000   0.00904   0.00883   2.07380
   A37        2.13812  -0.00618   0.00000  -0.02648  -0.02642   2.11169
   A38        2.07358   0.00033   0.00000   0.00066   0.00039   2.07396
   A39        2.06570   0.00414   0.00000   0.02115   0.02091   2.08661
   A40        2.13804  -0.00424   0.00000  -0.01749  -0.01775   2.12029
    D1       -1.20438   0.00175   0.00000   0.01679   0.01667  -1.18771
    D2        0.92031   0.00166   0.00000   0.01689   0.01676   0.93707
    D3        3.04503   0.00229   0.00000   0.02793   0.02768   3.07271
    D4        3.01775  -0.00033   0.00000  -0.00305  -0.00248   3.01527
    D5       -1.14074  -0.00042   0.00000  -0.00294  -0.00239  -1.14314
    D6        0.98398   0.00021   0.00000   0.00809   0.00853   0.99251
    D7        0.96481  -0.00122   0.00000  -0.01177  -0.01207   0.95273
    D8        3.08950  -0.00131   0.00000  -0.01167  -0.01199   3.07752
    D9       -1.06896  -0.00068   0.00000  -0.00063  -0.00107  -1.07003
   D10        1.13581  -0.00842   0.00000  -0.07903  -0.07534   1.06047
   D11       -1.09880   0.00760   0.00000   0.07124   0.06772  -1.03108
   D12        3.12841   0.00204   0.00000   0.02291   0.02271  -3.13206
   D13       -3.02311  -0.00845   0.00000  -0.07806  -0.07438  -3.09749
   D14        1.02547   0.00757   0.00000   0.07221   0.06868   1.09415
   D15       -1.03050   0.00201   0.00000   0.02388   0.02367  -1.00683
   D16       -0.98852  -0.00954   0.00000  -0.09338  -0.08965  -1.07817
   D17        3.06005   0.00649   0.00000   0.05689   0.05341   3.11346
   D18        1.00408   0.00092   0.00000   0.00856   0.00840   1.01248
   D19        3.08586  -0.00275   0.00000  -0.03623  -0.03636   3.04950
   D20        1.06023   0.00143   0.00000  -0.00557  -0.00680   1.05343
   D21       -1.02723  -0.00380   0.00000  -0.05368  -0.05435  -1.08158
   D22       -1.08670  -0.00562   0.00000  -0.04700  -0.04584  -1.13254
   D23       -3.11232  -0.00143   0.00000  -0.01633  -0.01628  -3.12860
   D24        1.08340  -0.00667   0.00000  -0.06445  -0.06382   1.01957
   D25        0.93896   0.00285   0.00000   0.01099   0.01160   0.95057
   D26       -1.08666   0.00703   0.00000   0.04166   0.04116  -1.04550
   D27        3.10906   0.00180   0.00000  -0.00646  -0.00638   3.10268
   D28        2.13382  -0.00124   0.00000  -0.02380  -0.02343   2.11039
   D29       -1.13005   0.00129   0.00000   0.02392   0.02466  -1.10539
   D30       -2.00503  -0.00337   0.00000  -0.05266  -0.05273  -2.05775
   D31        1.01429  -0.00084   0.00000  -0.00495  -0.00464   1.00964
   D32       -0.00512  -0.00146   0.00000  -0.03752  -0.03837  -0.04350
   D33        3.01419   0.00107   0.00000   0.01020   0.00971   3.02390
   D34        3.11053   0.00104   0.00000   0.00759   0.00644   3.11698
   D35        0.09594  -0.00243   0.00000  -0.04458  -0.04508   0.05086
   D36       -2.98508  -0.00289   0.00000  -0.05753  -0.05828  -3.04336
   D37        0.04323  -0.00093   0.00000  -0.01719  -0.01704   0.02620
   D38        0.02640   0.00017   0.00000  -0.00567  -0.00646   0.01994
   D39        3.05471   0.00213   0.00000   0.03467   0.03478   3.08949
   D40        3.06049   0.00198   0.00000   0.03100   0.03126   3.09175
   D41       -0.16091   0.00495   0.00000   0.07411   0.07349  -0.08742
   D42       -3.05645  -0.00232   0.00000  -0.03544  -0.03507  -3.09152
   D43        0.09299  -0.00286   0.00000  -0.04328  -0.04276   0.05023
   D44        0.00349   0.00046   0.00000   0.00751   0.00756   0.01104
   D45       -3.13026  -0.00008   0.00000  -0.00034  -0.00013  -3.13039
   D46       -3.11088  -0.00025   0.00000  -0.00309  -0.00256  -3.11343
   D47        0.04143  -0.00130   0.00000  -0.01778  -0.01715   0.02428
   D48        0.03776  -0.00062   0.00000  -0.00961  -0.00945   0.02831
   D49       -3.09312  -0.00167   0.00000  -0.02431  -0.02404  -3.11716
   D50       -0.09620   0.00253   0.00000   0.03946   0.03927  -0.05693
   D51       -3.11957  -0.00011   0.00000  -0.00533  -0.00546  -3.12503
   D52        3.05649   0.00137   0.00000   0.02396   0.02427   3.08076
   D53        0.03312  -0.00126   0.00000  -0.02084  -0.02047   0.01265
         Item               Value     Threshold  Converged?
 Maximum Force            0.046120     0.000450     NO 
 RMS     Force            0.008810     0.000300     NO 
 Maximum Displacement     0.488902     0.001800     NO 
 RMS     Displacement     0.119301     0.001200     NO 
 Predicted change in Energy=-1.935673D-02
 Lowest energy point so far.  Saving SCF results.
 GradGradGradGradGradGradGradGradGradGradGradGradGradGradGradGradGradGrad

 Leave Link  103 at Sun Jul 18 13:40:22 2021, MaxMem=   104857600 cpu:               0.1 elap:               0.0
 (Enter /dades/curu/g16A03_MST/g16/l202.exe)
                          Input orientation:                          
 ---------------------------------------------------------------------
 Center     Atomic      Atomic             Coordinates (Angstroms)
 Number     Number       Type             X           Y           Z
 ---------------------------------------------------------------------
      1          6           0        1.795254   -2.207753    1.813671
      2          1           0        1.876557   -3.242994    1.482420
      3          1           0        1.045476   -2.161350    2.605625
      4          1           0        2.735933   -1.849716    2.233285
      5          7           0        1.398710   -1.347761    0.675511
      6          1           0        2.172212   -1.314963    0.003932
      7          6           0        0.164041   -1.790755   -0.039901
      8          1           0       -0.674831   -1.785998    0.655142
      9          1           0        0.322373   -2.797700   -0.419781
     10          6           0       -0.185674   -0.849115   -1.232105
     11          1           0       -1.038432   -1.299758   -1.750269
     12          1           0        0.634447   -0.842071   -1.957407
     13          6           0       -0.485071    0.575187   -0.855567
     14          7           0        0.294264    1.524512   -1.401236
     15          6           0        0.025389    2.807868   -1.100529
     16          1           0        0.702882    3.548534   -1.518822
     17          6           0       -1.067073    3.211428   -0.342918
     18          1           0       -1.291804    4.254372   -0.149311
     19          6           0       -1.904724    2.224860    0.187238
     20          1           0       -2.781343    2.504554    0.761513
     21          6           0       -1.593684    0.886726   -0.040539
     22          1           0       -2.221823    0.086479    0.337601
     23          1           0        1.260922   -0.389585    1.010450
 ---------------------------------------------------------------------
                    Distance matrix (angstroms):
                    1          2          3          4          5
     1  C    0.000000
     2  H    1.089982   0.000000
     3  H    1.091564   1.766986   0.000000
     4  H    1.090479   1.800985   1.758806   0.000000
     5  N    1.480622   2.114557   2.124157   2.113477   0.000000
     6  H    2.052882   2.447579   2.958837   2.360880   1.024890
     7  C    2.504091   2.712779   2.813019   3.432999   1.494144
     8  H    2.760686   3.052344   2.627685   3.758711   2.119443
     9  H    2.739657   2.496426   3.175043   3.709812   2.111987
    10  C    3.879010   4.165585   4.238616   4.641758   2.529410
    11  H    4.642833   4.766929   4.904980   5.515160   3.438950
    12  H    4.175354   4.374892   4.767673   4.795153   2.787844
    13  C    4.479896   5.061816   4.670232   5.078979   3.096863
    14  N    5.149602   5.792084   5.495893   5.527830   3.712496
    15  C    6.064770   6.834573   6.282459   6.336754   4.723302
    16  H    6.740446   7.517301   7.052036   6.881330   5.410450
    17  C    6.497023   7.325051   6.482554   6.834826   5.282374
[...]
 IMap=   1   2   3   4   5   6   7   8   9  10  11  12  13  14  15  16  17  18  19  20
 IMap=  21  22  23  24  25  26  27
 Actual    scratch disk usage=  1382644658 words.
 JobTyp=1 Pass  1:  I=   1 to  27 NPSUse=  4 ParTrn=T ParDer=T DoDerP=F.
 Spin components of T(2) and E(2):
     alpha-alpha T2 =       0.6943822089D-01 E2=     -0.1868493253D+00
     alpha-beta  T2 =       0.3765168596D+00 E2=     -0.1087930067D+01
     beta-beta   T2 =       0.6943822089D-01 E2=     -0.1868493253D+00
 The integrals were generated   1 times.
 ANorm=    0.1231013120D+01
 E2 =    -0.1461628718D+01 EUMP2 =    -0.42073098713650D+03
 Leave Link  906 at Sun Jul 18 14:37:49 2021, MaxMem=   262144000 cpu:             536.2 elap:             141.6
 (Enter /dades/curu/g16A03_MST/g16/l601.exe)
 Copying SCF densities to generalized density rwf, IOpCl= 0 IROHF=0.

 **********************************************************************

            Population analysis using the SCF density.

 **********************************************************************

 Orbital symmetries:
       Occupied  (A) (A) (A) (A) (A) (A) (A) (A) (A) (A) (A) (A)
                 (A) (A) (A) (A) (A) (A) (A) (A) (A) (A) (A) (A)
                 (A) (A) (A) (A) (A) (A) (A) (A) (A) (A) (A) (A)
                 (A)
       Virtual   (A) (A) (A) (A) (A) (A) (A) (A) (A) (A) (A) (A)
                 (A) (A) (A) (A) (A) (A) (A) (A) (A) (A) (A) (A)
                 (A) (A) (A) (A) (A) (A) (A) (A) (A) (A) (A) (A)
                 (A) (A) (A) (A) (A) (A) (A) (A) (A) (A) (A) (A)
                 (A) (A) (A) (A) (A) (A) (A) (A) (A) (A) (A) (A)
                 (A) (A) (A) (A) (A) (A) (A) (A) (A) (A) (A) (A)
                 (A) (A) (A) (A) (A) (A) (A) (A) (A) (A) (A) (A)
                 (A) (A) (A) (A) (A) (A) (A) (A) (A) (A) (A) (A)
                 (A) (A) (A) (A) (A) (A) (A) (A) (A) (A) (A) (A)
                 (A) (A) (A) (A) (A) (A) (A) (A) (A) (A) (A) (A)
                 (A) (A) (A) (A) (A) (A) (A) (A) (A) (A) (A) (A)
                 (A) (A) (A) (A) (A) (A) (A) (A) (A) (A) (A) (A)
                 (A) (A) (A) (A) (A) (A) (A) (A) (A) (A) (A) (A)
                 (A) (A) (A) (A) (A) (A) (A) (A) (A) (A) (A) (A)
                 (A) (A) (A) (A) (A) (A) (A) (A) (A) (A) (A) (A)
                 (A) (A) (A) (A) (A) (A) (A) (A) (A) (A) (A) (A)
                 (A) (A) (A) (A) (A) (A) (A) (A) (A) (A) (A) (A)
                 (A) (A) (A) (A) (A) (A) (A) (A) (A) (A) (A) (A)
                 (A) (A) (A) (A) (A) (A) (A) (A) (A) (A) (A) (A)
                 (A) (A) (A) (A) (A) (A) (A) (A) (A) (A) (A) (A)
                 (A) (A) (A) (A) (A) (A) (A) (A) (A) (A) (A) (A)
                 (A) (A) (A) (A) (A) (A) (A) (A) (A) (A) (A) (A)
                 (A) (A) (A) (A) (A) (A) (A) (A) (A) (A) (A) (A)
                 (A) (A) (A) (A) (A) (A) (A) (A) (A) (A) (A) (A)
                 (A) (A) (A) (A) (A) (A) (A) (A) (A) (A) (A) (A)
                 (A) (A) (A) (A) (A) (A) (A) (A) (A) (A)
 The electronic state is 1-A.
 Alpha  occ. eigenvalues --  -15.84220 -15.71578 -11.45484 -11.44797 -11.42794
 Alpha  occ. eigenvalues --  -11.41411 -11.40045 -11.39009 -11.37289 -11.36869
 Alpha  occ. eigenvalues --   -1.47161  -1.40199  -1.23011  -1.21688  -1.15800
 Alpha  occ. eigenvalues --   -1.11077  -1.04552  -0.99457  -0.95979  -0.93465
 Alpha  occ. eigenvalues --   -0.84268  -0.83501  -0.82219  -0.79361  -0.78172
 Alpha  occ. eigenvalues --   -0.75695  -0.73385  -0.72897  -0.70999  -0.70438
 Alpha  occ. eigenvalues --   -0.69205  -0.67914  -0.65846  -0.64104  -0.56196
 Alpha  occ. eigenvalues --   -0.51304  -0.47005
 Alpha virt. eigenvalues --   -0.08183  -0.06264  -0.06139  -0.05361  -0.03939
 Alpha virt. eigenvalues --   -0.03624  -0.03519  -0.03323  -0.03097  -0.02015
 Alpha virt. eigenvalues --   -0.01736  -0.01507  -0.01045  -0.00242   0.00372
 Alpha virt. eigenvalues --    0.01107   0.01798   0.02431   0.02709   0.03776
 Alpha virt. eigenvalues --    0.04129   0.04353   0.04903   0.05064   0.05488
 Alpha virt. eigenvalues --    0.05749   0.05988   0.06481   0.06873   0.07191
 Alpha virt. eigenvalues --    0.07648   0.07890   0.08065   0.08370   0.08847
 Alpha virt. eigenvalues --    0.09197   0.10114   0.10701   0.11298   0.11425
 Alpha virt. eigenvalues --    0.11811   0.12268   0.12864   0.13362   0.14183
 Alpha virt. eigenvalues --    0.15619   0.16423   0.16582   0.17422   0.18037
 Alpha virt. eigenvalues --    0.18917   0.19659   0.19935   0.20103   0.20813
 Alpha virt. eigenvalues --    0.21404   0.22002   0.22891   0.23723   0.23905
 Alpha virt. eigenvalues --    0.24558   0.25269   0.25518   0.25874   0.26878
 Alpha virt. eigenvalues --    0.27968   0.28392   0.28543   0.29028   0.29408
 Alpha virt. eigenvalues --    0.30312   0.31178   0.31756   0.32620   0.32720
 Alpha virt. eigenvalues --    0.33143   0.33513   0.33945   0.34664   0.35498
 Alpha virt. eigenvalues --    0.36018   0.36724   0.37738   0.38096   0.38505
 Alpha virt. eigenvalues --    0.38819   0.39627   0.40112   0.40549   0.41189
 Alpha virt. eigenvalues --    0.42289   0.42639   0.43617   0.44049   0.44681
 Alpha virt. eigenvalues --    0.45640   0.45892   0.46158   0.47415   0.47479
 Alpha virt. eigenvalues --    0.48154   0.49075   0.49817   0.50074   0.50866
 Alpha virt. eigenvalues --    0.51828   0.52478   0.53740   0.54215   0.54762
 Alpha virt. eigenvalues --    0.54979   0.55488   0.55894   0.57047   0.57321
 Alpha virt. eigenvalues --    0.58301   0.58434   0.58836   0.59236   0.59644
 Alpha virt. eigenvalues --    0.59786   0.60853   0.61726   0.62659   0.63650
 Alpha virt. eigenvalues --    0.64417   0.64736   0.65171   0.66675   0.67543
 Alpha virt. eigenvalues --    0.68163   0.69094   0.69678   0.70102   0.72128
 Alpha virt. eigenvalues --    0.72444   0.73561   0.74210   0.74483   0.75277
 Alpha virt. eigenvalues --    0.76371   0.77771   0.78102   0.78632   0.79084
 Alpha virt. eigenvalues --    0.79892   0.80315   0.81199   0.82695   0.83033
 Alpha virt. eigenvalues --    0.84277   0.84685   0.85999   0.87304   0.87934
 Alpha virt. eigenvalues --    0.89086   0.89628   0.90523   0.91913   0.92464
 Alpha virt. eigenvalues --    0.93226   0.94973   0.96945   0.97730   0.98109
 Alpha virt. eigenvalues --    0.99125   0.99723   1.01568   1.03699   1.04725
 Alpha virt. eigenvalues --    1.05941   1.07323   1.08959   1.10253   1.11908
 Alpha virt. eigenvalues --    1.12247   1.14075   1.15364   1.19381   1.20030
 Alpha virt. eigenvalues --    1.25295   1.25528   1.26905   1.28862   1.31664
 Alpha virt. eigenvalues --    1.33061   1.34147   1.37999   1.38175   1.39822
 Alpha virt. eigenvalues --    1.42652   1.44178   1.44717   1.46099   1.46849
 Alpha virt. eigenvalues --    1.47165   1.49045   1.50768   1.52898   1.54226
 Alpha virt. eigenvalues --    1.55278   1.56397   1.57119   1.59024   1.60010
 Alpha virt. eigenvalues --    1.62168   1.63494   1.64625   1.66526   1.67945
 Alpha virt. eigenvalues --    1.68724   1.70303   1.71049   1.71894   1.73670
 Alpha virt. eigenvalues --    1.73897   1.75320   1.76867   1.79222   1.79492
 Alpha virt. eigenvalues --    1.80923   1.81557   1.82356   1.82689   1.85303
 Alpha virt. eigenvalues --    1.85964   1.89015   1.90009   1.93053   1.93585
 Alpha virt. eigenvalues --    1.94025   1.95009   1.97575   1.98528   1.99284
 Alpha virt. eigenvalues --    1.99650   2.01398   2.02921   2.04626   2.04849
 Alpha virt. eigenvalues --    2.06561   2.08990   2.09770   2.10444   2.12745
 Alpha virt. eigenvalues --    2.13836   2.14179   2.15935   2.17643   2.18447
 Alpha virt. eigenvalues --    2.19814   2.21239   2.21993   2.25237   2.26669
 Alpha virt. eigenvalues --    2.26842   2.29144   2.30905   2.31920   2.33850
 Alpha virt. eigenvalues --    2.34947   2.37038   2.37871   2.41754   2.42918
 Alpha virt. eigenvalues --    2.43798   2.44308   2.45856   2.49686   2.53967
 Alpha virt. eigenvalues --    2.56050   2.56702   2.57692   2.58839   2.61752
 Alpha virt. eigenvalues --    2.63820   2.66272   2.67337   2.69494   2.70541
 Alpha virt. eigenvalues --    2.72634   2.73915   2.74487   2.75307   2.79327
 Alpha virt. eigenvalues --    2.79717   2.82137   2.86865   2.88063   2.89857
 Alpha virt. eigenvalues --    2.90363   2.92928   2.96843   2.97500   3.00414
 Alpha virt. eigenvalues --    3.03269   3.04785   3.05421   3.09099   3.15441
 Alpha virt. eigenvalues --    3.17350   3.26534   3.34070   3.34521   3.46262
 Alpha virt. eigenvalues --    3.50569   3.55220   3.68558   3.84388   4.40276
          Condensed to atoms (all electrons):
               1          2          3          4          5          6
     1  C    4.032066   0.348897   0.367390   0.446188   0.136565  -0.036793
     2  H    0.348897   1.067040  -0.112805  -0.216714  -0.009762  -0.020866
     3  H    0.367390  -0.112805   1.084402  -0.207739  -0.024097   0.020022
     4  H    0.446188  -0.216714  -0.207739   1.182261  -0.089093  -0.005856
     5  N    0.136565  -0.009762  -0.024097  -0.089093   7.072140   0.364061
     6  H   -0.036793  -0.020866   0.020022  -0.005856   0.364061   0.603269
     7  C   -0.012032  -0.001945  -0.040973   0.018473  -0.048373   0.005333
     8  H    0.001883  -0.020613   0.012226   0.004409  -0.076699   0.019974
     9  H   -0.006201   0.000500  -0.008030   0.001266  -0.001754  -0.054425
    10  C   -0.014474   0.019202   0.028392  -0.033480  -0.061659  -0.044127
    11  H    0.006868   0.000973  -0.000306   0.000054  -0.027014   0.004657
    12  H   -0.004262   0.000109   0.001824  -0.003091   0.051917  -0.006987
    13  C   -0.004121  -0.011424   0.006370   0.009505   0.196931  -0.000037
    14  N    0.006556   0.006886  -0.003029  -0.001612  -0.189498  -0.004247
    15  C   -0.004636   0.006061  -0.004844  -0.010064   0.004022  -0.005238
    16  H    0.000466   0.000190  -0.000579  -0.000410   0.015197   0.001894
    17  C   -0.002251  -0.000746  -0.002316   0.002878  -0.020026   0.002792
    18  H    0.000153  -0.000005  -0.000110   0.000084   0.000632  -0.000250
    19  C    0.003736   0.000363   0.001296  -0.001003   0.020324  -0.001540
    20  H   -0.000011  -0.000015  -0.000002  -0.000021  -0.000334   0.000049
    21  C   -0.017414  -0.001763  -0.003869   0.001618  -0.058563   0.000265
    22  H    0.000560   0.000074   0.000071  -0.000029   0.007158  -0.001058
    23  H   -0.029206   0.003543  -0.020285   0.019054   0.434171  -0.065491
               7          8          9         10         11         12
     1  C   -0.012032   0.001883  -0.006201  -0.014474   0.006868  -0.004262
     2  H   -0.001945  -0.020613   0.000500   0.019202   0.000973   0.000109
     3  H   -0.040973   0.012226  -0.008030   0.028392  -0.000306   0.001824
     4  H    0.018473   0.004409   0.001266  -0.033480   0.000054  -0.003091
     5  N   -0.048373  -0.076699  -0.001754  -0.061659  -0.027014   0.051917
     6  H    0.005333   0.019974  -0.054425  -0.044127   0.004657  -0.006987
     7  C    4.751809   0.146881   0.210894   0.328352   0.217465  -0.264705
     8  H    0.146881   1.453832  -0.198624  -0.168666  -0.045871   0.076940
     9  H    0.210894  -0.198624   1.339453  -0.035332  -0.047924  -0.049103
    10  C    0.328352  -0.168666  -0.035332   6.143027  -0.081643   0.277837
    11  H    0.217465  -0.045871  -0.047924  -0.081643   1.172136  -0.183345
    12  H   -0.264705   0.076940  -0.049103   0.277837  -0.183345   0.960014
    13  C   -0.284143   0.073558   0.025804  -0.423836   0.209749   0.076657
    14  N    0.144282  -0.056979   0.007194   0.023161   0.042876  -0.108035
    15  C   -0.005160  -0.016651   0.001736  -0.209991   0.026500  -0.047319
    16  H    0.008746   0.002027   0.000799   0.041669   0.001402   0.000524
    17  C    0.030689  -0.013436   0.004966   0.262084  -0.017899   0.005569
    18  H   -0.001072   0.000170  -0.000031  -0.012397  -0.000552   0.000119
    19  C   -0.053027   0.018879  -0.005994  -0.287443   0.005531   0.007483
    20  H    0.000377   0.000195   0.000170   0.039971   0.002338   0.000473
    21  C   -0.079531   0.041739   0.016825  -0.000496  -0.245503   0.149981
    22  H    0.001515   0.001688   0.000824  -0.039013  -0.046826   0.011879
    23  H   -0.092961  -0.017650   0.009179  -0.060200  -0.003194   0.012924
              13         14         15         16         17         18
     1  C   -0.004121   0.006556  -0.004636   0.000466  -0.002251   0.000153
     2  H   -0.011424   0.006886   0.006061   0.000190  -0.000746  -0.000005
     3  H    0.006370  -0.003029  -0.004844  -0.000579  -0.002316  -0.000110
     4  H    0.009505  -0.001612  -0.010064  -0.000410   0.002878   0.000084
     5  N    0.196931  -0.189498   0.004022   0.015197  -0.020026   0.000632
     6  H   -0.000037  -0.004247  -0.005238   0.001894   0.002792  -0.000250
     7  C   -0.284143   0.144282  -0.005160   0.008746   0.030689  -0.001072
     8  H    0.073558  -0.056979  -0.016651   0.002027  -0.013436   0.000170
     9  H    0.025804   0.007194   0.001736   0.000799   0.004966  -0.000031
    10  C   -0.423836   0.023161  -0.209991   0.041669   0.262084  -0.012397
    11  H    0.209749   0.042876   0.026500   0.001402  -0.017899  -0.000552
    12  H    0.076657  -0.108035  -0.047319   0.000524   0.005569   0.000119
    13  C    8.989932  -0.013748   0.398362   0.061466  -1.307925  -0.002203
    14  N   -0.013748   7.681539   0.413464  -0.202787   0.006420   0.008317
    15  C    0.398362   0.413464   6.664521  -0.029611  -1.152686   0.144612
    16  H    0.061466  -0.202787  -0.029611   1.530465   0.080170  -0.063787
    17  C   -1.307925   0.006420  -1.152686   0.080170   7.217588  -0.437021
    18  H   -0.002203   0.008317   0.144612  -0.063787  -0.437021   1.539298
    19  C    1.368685  -0.339090   0.991854   0.036729  -1.506351   0.374547
    20  H   -0.163046   0.013386  -0.141928  -0.007858   0.357465  -0.059916
    21  C   -3.737095   0.177919  -1.525675  -0.012493   1.825472  -0.079623
    22  H    0.556932  -0.018601   0.051794  -0.000718  -0.140996  -0.010486
    23  H    0.062117   0.036765  -0.013657  -0.045146  -0.032825   0.002753
              19         20         21         22         23
     1  C    0.003736  -0.000011  -0.017414   0.000560  -0.029206
     2  H    0.000363  -0.000015  -0.001763   0.000074   0.003543
     3  H    0.001296  -0.000002  -0.003869   0.000071  -0.020285
     4  H   -0.001003  -0.000021   0.001618  -0.000029   0.019054
     5  N    0.020324  -0.000334  -0.058563   0.007158   0.434171
     6  H   -0.001540   0.000049   0.000265  -0.001058  -0.065491
     7  C   -0.053027   0.000377  -0.079531   0.001515  -0.092961
     8  H    0.018879   0.000195   0.041739   0.001688  -0.017650
     9  H   -0.005994   0.000170   0.016825   0.000824   0.009179
    10  C   -0.287443   0.039971  -0.000496  -0.039013  -0.060200
    11  H    0.005531   0.002338  -0.245503  -0.046826  -0.003194
    12  H    0.007483   0.000473   0.149981   0.011879   0.012924
    13  C    1.368685  -0.163046  -3.737095   0.556932   0.062117
    14  N   -0.339090   0.013386   0.177919  -0.018601   0.036765
    15  C    0.991854  -0.141928  -1.525675   0.051794  -0.013657
    16  H    0.036729  -0.007858  -0.012493  -0.000718  -0.045146
    17  C   -1.506351   0.357465   1.825472  -0.140996  -0.032825
    18  H    0.374547  -0.059916  -0.079623  -0.010486   0.002753
    19  C    8.079107  -0.462537  -2.449102   0.351671   0.011914
    20  H   -0.462537   1.553859   0.343710  -0.088802   0.000979
    21  C   -2.449102   0.343710  11.512233  -0.970327  -0.023754
    22  H    0.351671  -0.088802  -0.970327   1.885653   0.007767
    23  H    0.011914   0.000979  -0.023754   0.007767   0.545532
 Mulliken charges:
               1
     1  C    0.780074
     2  H   -0.057181
     3  H   -0.093011
     4  H   -0.116679
     5  N   -0.696248
     6  H    0.224599
     7  C    1.019106
     8  H   -0.239210
     9  H   -0.212194
    10  C    0.309064
    11  H    0.009528
    12  H    0.032597
    13  C   -0.088490
    14  N   -0.631139
    15  C    0.464535
    16  H   -0.418355
    17  C    0.838385
    18  H   -0.403232
    19  C   -0.166030
    20  H   -0.388502
    21  C    1.135446
    22  H   -0.560733
    23  H    0.257671
 Sum of Mulliken charges =   1.00000
 Mulliken charges with hydrogens summed into heavy atoms:
               1
     1  C    0.513203
     5  N   -0.213978
     7  C    0.567702
    10  C    0.351189
    13  C   -0.088490
    14  N   -0.631139
    15  C    0.046180
    17  C    0.435153
    19  C   -0.554533
    21  C    0.574713
 Electronic spatial extent (au):  <R**2>=           1759.7140
 Charge=              1.0000 electrons
 Dipole moment (field-independent basis, Debye):
    X=             -5.8909    Y=             -0.0237    Z=              0.2622  Tot=              5.8968
 Quadrupole moment (field-independent basis, Debye-Ang):
   XX=            -18.0804   YY=            -46.8390   ZZ=            -58.5378
   XY=             -1.9313   XZ=             -3.2319   YZ=              0.4314
 Traceless Quadrupole moment (field-independent basis, Debye-Ang):
   XX=             23.0720   YY=             -5.6866   ZZ=            -17.3854
   XY=             -1.9313   XZ=             -3.2319   YZ=              0.4314
 Octapole moment (field-independent basis, Debye-Ang**2):
  XXX=            -52.4896  YYY=              4.2958  ZZZ=              3.8729  XYY=             -4.5690
  XXY=             16.3923  XXZ=             -4.6092  XZZ=            -21.3598  YZZ=             -0.2011
  YYZ=             -0.0075  XYZ=              2.3639
 Hexadecapole moment (field-independent basis, Debye-Ang**3):
 XXXX=          -1238.8542 YYYY=           -439.6833 ZZZZ=           -111.2962 XXXY=            -43.5809
 XXXZ=            -35.7742 YYYX=             -1.1064 YYYZ=              8.9328 ZZZX=             -6.3311
 ZZZY=             -3.7340 XXYY=           -300.8287 XXZZ=           -297.9226 YYZZ=           -105.8080
 XXYZ=              1.5294 YYXZ=             -2.0275 ZZXY=             -6.4538
 N-N= 5.220161818078D+02 E-N=-2.008699752855D+03  KE= 4.186965092915D+02
 Leave Link  601 at Sun Jul 18 14:37:50 2021, MaxMem=   262144000 cpu:               0.3 elap:               0.2
 (Enter /dades/curu/g16A03_MST/g16/l9999.exe)
 1\1\GINC-PIRINEUS34\SP\RMP2-FC\Aug-CC-pVDZ\C8H13N2(1+)\UBATOR02\18-Jul
 -2021\0\\#p mp2/aug-cc-pVDZ scf=tight maxdisk=180GB geom=allcheck\\SET
 _328_BBB256_conf1.geo_180_300_120 geometry\\1,1\C,0,2.2813261678,-1.84
 41410471,1.5004534139\H,0,2.2913954365,-2.9329135612,1.4864842144\H,0,
 1.754146264,-1.4855265508,2.3824706703\H,0,3.3005942481,-1.4596856452,
 1.4890413856\N,0,1.5682299247,-1.3471577399,0.2883718953\H,0,2.0888102
 116,-1.6136752347,-0.5580792884\C,0,0.1420437606,-1.8220468855,0.18927
 15584\H,0,-0.3018495901,-1.6535365007,1.1710965196\H,0,0.1620429141,-2
 .8954400403,-0.00660864\C,0,-0.6267383867,-1.0688191595,-0.8970682114\
 H,0,-1.6077754883,-1.5372724643,-0.9952167933\H,0,-0.1254527881,-1.204
 31841,-1.8634461576\C,0,-0.7991913112,0.4088277888,-0.6101119082\N,0,0
 .2675606689,1.0518644579,-0.1004247959\C,0,0.1719656072,2.3635438425,0
 .1544507433\H,0,1.0576811377,2.8356831411,0.5682786456\C,0,-0.98392575
 64,3.0994305278,-0.0890083863\H,0,-1.0119785427,4.1590088657,0.1299902
 205\C,0,-2.0925691542,2.434324199,-0.6106065809\H,0,-3.015943296,2.968
 3725756,-0.8054596957\C,0,-2.0009481471,1.0693582524,-0.8723888422\H,0
 ,-2.8444081677,0.5176818586,-1.269737447\H,0,1.5089842873,-0.298562270
 4,0.2762474798\\Version=ES64L-G16RevA.03\State=1-A\HF=-419.2693584\MP2
 =-420.7309871\RMSD=6.200e-09\PG=C01 [X(C8H13N2)]\\@


 Mondays are the potholes in the road of life.
                                -- Tom Wilson
 Job cpu time:       0 days  0 hours 28 minutes 52.5 seconds.
 Elapsed time:       0 days  0 hours  7 minutes 24.1 seconds.
 File lengths (MBytes):  RWF=  10619 Int=      0 D2E=      0 Chk=     13 Scr=      1
 Normal termination of Gaussian 16 at Sun Jul 18 14:37:51 2021.
