 Entering Gaussian System, Link 0=g16
 Input=SET_328_BBB321_conf1.geo_165_210_060_OCTANOL.dat
 Output=SET_328_BBB321_conf1.geo_165_210_060_OCTANOL.log
 Initial command:
 /dades/curu/g16A03_MST/g16/l1.exe "/tmp/ubator02/1839684/Gau-13310.inp" -scrdir="/tmp/ubator02/1839684/"
 Entering Link 1 = /dades/curu/g16A03_MST/g16/l1.exe PID=     13311.
  
 Copyright (c) 1988,1990,1992,1993,1995,1998,2003,2009,2016,
            Gaussian, Inc.  All Rights Reserved.
  
 This is part of the Gaussian(R) 16 program.  It is based on
 the Gaussian(R) 09 system (copyright 2009, Gaussian, Inc.),
 the Gaussian(R) 03 system (copyright 2003, Gaussian, Inc.),
 the Gaussian(R) 98 system (copyright 1998, Gaussian, Inc.),
 the Gaussian(R) 94 system (copyright 1995, Gaussian, Inc.),
 the Gaussian 92(TM) system (copyright 1992, Gaussian, Inc.),
 the Gaussian 90(TM) system (copyright 1990, Gaussian, Inc.),
 the Gaussian 88(TM) system (copyright 1988, Gaussian, Inc.),
 the Gaussian 86(TM) system (copyright 1986, Carnegie Mellon
 University), and the Gaussian 82(TM) system (copyright 1983,
 Carnegie Mellon University). Gaussian is a federally registered
 trademark of Gaussian, Inc.
  
 This software contains proprietary and confidential information,
 including trade secrets, belonging to Gaussian, Inc.
  
 This software is provided under written license and may be
 used, copied, transmitted, or stored only in accord with that
 written license.
  
 The following legend is applicable only to US Government
 contracts under FAR:
  
                    RESTRICTED RIGHTS LEGEND
  
 Use, reproduction and disclosure by the US Government is
 subject to restrictions as set forth in subparagraphs (a)
 and (c) of the Commercial Computer Software - Restricted
 Rights clause in FAR 52.227-19.
  
 Gaussian, Inc.
 340 Quinnipiac St., Bldg. 40, Wallingford CT 06492
  
  
 ---------------------------------------------------------------
 Warning -- This program may not be used in any manner that
 competes with the business of Gaussian, Inc. or will provide
 assistance to any competitor of Gaussian, Inc.  The licensee
 of this program is prohibited from giving any competitor of
 Gaussian, Inc. access to this program.  By using this program,
 the user acknowledges that Gaussian, Inc. is engaged in the
 business of creating and licensing software in the field of
 computational chemistry and represents and warrants to the
 licensee that it is not a competitor of Gaussian, Inc. and that
 it will not use this program in any manner prohibited above.
 ---------------------------------------------------------------
  

 Cite this work as:
 Gaussian 16, Revision A.03,
 M. J. Frisch, G. W. Trucks, H. B. Schlegel, G. E. Scuseria, 
 M. A. Robb, J. R. Cheeseman, G. Scalmani, V. Barone, 
 G. A. Petersson, H. Nakatsuji, X. Li, M. Caricato, A. V. Marenich, 
 J. Bloino, B. G. Janesko, R. Gomperts, B. Mennucci, H. P. Hratchian, 
 J. V. Ortiz, A. F. Izmaylov, J. L. Sonnenberg, D. Williams-Young, 
 F. Ding, F. Lipparini, F. Egidi, J. Goings, B. Peng, A. Petrone, 
 T. Henderson, D. Ranasinghe, V. G. Zakrzewski, J. Gao, N. Rega, 
 G. Zheng, W. Liang, M. Hada, M. Ehara, K. Toyota, R. Fukuda, 
 J. Hasegawa, M. Ishida, T. Nakajima, Y. Honda, O. Kitao, H. Nakai, 
 T. Vreven, K. Throssell, J. A. Montgomery, Jr., J. E. Peralta, 
 F. Ogliaro, M. J. Bearpark, J. J. Heyd, E. N. Brothers, K. N. Kudin, 
 V. N. Staroverov, T. A. Keith, R. Kobayashi, J. Normand, 
 K. Raghavachari, A. P. Rendell, J. C. Burant, S. S. Iyengar, 
 J. Tomasi, M. Cossi, J. M. Millam, M. Klene, C. Adamo, R. Cammi, 
 J. W. Ochterski, R. L. Martin, K. Morokuma, O. Farkas, 
 J. B. Foresman, and D. J. Fox, Gaussian, Inc., Wallingford CT, 2016.
 
 ******************************************
 Gaussian 16:  ES64L-G16RevA.03 25-Dec-2016
                18-Jul-2021 
 ******************************************
 %mem=800MB
 %nproc=4
 Will use up to    4 processors via shared memory.
 %chk=SET_328_BBB321_conf1.geo_165_210_060.chk
 ---------------------------------------------------------------
 #p b3lyp/6-31G(d) opt freq scrf=(iefpcm,read,solvent=n-octanol)
 ---------------------------------------------------------------
 1/18=20,19=15,26=3,38=1,40=2/1,3;
 2/9=110,12=2,17=6,18=5,40=1/2;
 3/5=1,6=6,7=1,11=2,25=1,30=1,70=2203,71=1,72=25,74=-5/1,2,3;
 4//1;
 5/5=2,38=5,53=25/2;
 6/7=2,8=2,9=2,10=2,28=1/1;
 7//1,2,3,16;
 1/18=20,19=15,26=3/3(2);
 2/9=110/2;
 99//99;
 2/9=110/2;
 3/5=1,6=6,7=1,11=2,25=1,30=1,70=2205,71=1,72=25,74=-5/1,2,3;
 4/5=5,16=3,69=1/1;
 5/5=2,38=5,53=25/2;
 7//1,2,3,16;
 1/18=20,19=15,26=3/3(-5);
 2/9=110/2;
 6/7=2,8=2,9=2,10=2,19=2,28=1/1;
 99/9=1/99;
 Leave Link    1 at Sun Jul 18 16:00:57 2021, MaxMem=   104857600 cpu:               0.1 elap:               0.0
 (Enter /dades/curu/g16A03_MST/g16/l101.exe)
 ---------------------------------------------
 SET_328_BBB321_conf1.geo_165_210_060 geometry
 ---------------------------------------------
 Symbolic Z-matrix:
 Charge =  1 Multiplicity = 1
 C                     1.11     -5.212     2.624 
 H                     1.201    -5.654     1.63 
 H                     0.349    -5.604     3.302 
 H                     2.067    -5.344     3.133 
 C                     0.995    -3.782     2.34 
 O                     1.94     -3.052     2.279 
 N                    -0.226    -3.391     1.957 
 H                    -0.939    -4.104     1.941 
 C                    -0.632    -2.096     1.574 
 C                    -1.698    -1.544     2.312 
 C                    -2.243    -0.329     1.887 
 C                    -1.619     0.37      0.789 
 H                    -2.171     1.236     0.432 
 H                    -3.014     0.221     2.421 
 H                    -2.253    -2.024     3.115 
 C                    -0.041    -1.445     0.491 
 H                     0.74     -1.922    -0.096 
 C                    -0.507    -0.158     0.1 
 C                     0.011     0.541    -1.06 
 N                     0.089     1.91     -1.243 
 C                     0.415    -0.181    -2.159 
 H                     0.364    -1.226    -2.442 
 S                     1.043     0.841    -3.422 
 C                     0.611     2.278    -2.438 
 N                     0.779     3.507    -2.977 
 C                     0.17      4.455    -2.3 
 N                     0.924     5.256    -1.619 
 H                     0.33      6.016    -1.307 
 H                     1.369     4.652    -0.936 
 N                     0.08      5.376    -3.13 
 H                     1.066     5.551    -3.291 
 H                    -0.312     4.857    -3.907 
 H                     1.312     3.677    -3.806 
 
 ITRead=  0  0  0  0  0  0  0  0  0  0  0  0  0  0  0  0  0  0  0  0
 ITRead=  0  0  0  0  0  0  0  0  0  0  0  0  0
 MicOpt= -1 -1 -1 -1 -1 -1 -1 -1 -1 -1 -1 -1 -1 -1 -1 -1 -1 -1 -1 -1
 MicOpt= -1 -1 -1 -1 -1 -1 -1 -1 -1 -1 -1 -1 -1
 NAtoms=     33 NQM=       33 NQMF=       0 NMMI=      0 NMMIF=      0
                NMic=       0 NMicF=      0.
                    Isotopes and Nuclear Properties:
 (Nuclear quadrupole moments (NQMom) in fm**2, nuclear magnetic moments (NMagM)
  in nuclear magnetons)

  Atom         1           2           3           4           5           6           7           8           9          10
 IAtWgt=          12           1           1           1          12          16          14           1          12          12
 AtmWgt=  12.0000000   1.0078250   1.0078250   1.0078250  12.0000000  15.9949146  14.0030740   1.0078250  12.0000000  12.0000000
 NucSpn=           0           1           1           1           0           0           2           1           0           0
 AtZEff=  -0.0000000  -0.0000000  -0.0000000  -0.0000000  -0.0000000  -0.0000000  -0.0000000  -0.0000000  -0.0000000  -0.0000000
 NQMom=    0.0000000   0.0000000   0.0000000   0.0000000   0.0000000   0.0000000   2.0440000   0.0000000   0.0000000   0.0000000
 NMagM=    0.0000000   2.7928460   2.7928460   2.7928460   0.0000000   0.0000000   0.4037610   2.7928460   0.0000000   0.0000000
 AtZNuc=   6.0000000   1.0000000   1.0000000   1.0000000   6.0000000   8.0000000   7.0000000   1.0000000   6.0000000   6.0000000

  Atom        11          12          13          14          15          16          17          18          19          20
 IAtWgt=          12          12           1           1           1          12           1          12          12          14
 AtmWgt=  12.0000000  12.0000000   1.0078250   1.0078250   1.0078250  12.0000000   1.0078250  12.0000000  12.0000000  14.0030740
 NucSpn=           0           0           1           1           1           0           1           0           0           2
 AtZEff=  -0.0000000  -0.0000000  -0.0000000  -0.0000000  -0.0000000  -0.0000000  -0.0000000  -0.0000000  -0.0000000  -0.0000000
 NQMom=    0.0000000   0.0000000   0.0000000   0.0000000   0.0000000   0.0000000   0.0000000   0.0000000   0.0000000   2.0440000
 NMagM=    0.0000000   0.0000000   2.7928460   2.7928460   2.7928460   0.0000000   2.7928460   0.0000000   0.0000000   0.4037610
 AtZNuc=   6.0000000   6.0000000   1.0000000   1.0000000   1.0000000   6.0000000   1.0000000   6.0000000   6.0000000   7.0000000

  Atom        21          22          23          24          25          26          27          28          29          30
 IAtWgt=          12           1          32          12          14          12          14           1           1          14
 AtmWgt=  12.0000000   1.0078250  31.9720718  12.0000000  14.0030740  12.0000000  14.0030740   1.0078250   1.0078250  14.0030740
 NucSpn=           0           1           0           0           2           0           2           1           1           2
 AtZEff=  -0.0000000  -0.0000000  -0.0000000  -0.0000000  -0.0000000  -0.0000000  -0.0000000  -0.0000000  -0.0000000  -0.0000000
 NQMom=    0.0000000   0.0000000   0.0000000   0.0000000   2.0440000   0.0000000   2.0440000   0.0000000   0.0000000   2.0440000
 NMagM=    0.0000000   2.7928460   0.0000000   0.0000000   0.4037610   0.0000000   0.4037610   2.7928460   2.7928460   0.4037610
 AtZNuc=   6.0000000   1.0000000  16.0000000   6.0000000   7.0000000   6.0000000   7.0000000   1.0000000   1.0000000   7.0000000

  Atom        31          32          33
 IAtWgt=           1           1           1
 AtmWgt=   1.0078250   1.0078250   1.0078250
 NucSpn=           1           1           1
 AtZEff=  -0.0000000  -0.0000000  -0.0000000
 NQMom=    0.0000000   0.0000000   0.0000000
 NMagM=    2.7928460   2.7928460   2.7928460
 AtZNuc=   1.0000000   1.0000000   1.0000000
 Leave Link  101 at Sun Jul 18 16:00:57 2021, MaxMem=   104857600 cpu:               0.1 elap:               0.1
 (Enter /dades/curu/g16A03_MST/g16/l103.exe)

 GradGradGradGradGradGradGradGradGradGradGradGradGradGradGradGradGradGrad
 Berny optimization.
 Initialization pass.
                           ----------------------------
                           !    Initial Parameters    !
                           ! (Angstroms and Degrees)  !
 --------------------------                            --------------------------
 ! Name  Definition              Value          Derivative Info.                !
 --------------------------------------------------------------------------------
 ! R1    R(1,2)                  1.0916         estimate D2E/DX2                !
 ! R2    R(1,3)                  1.092          estimate D2E/DX2                !
 ! R3    R(1,4)                  1.0919         estimate D2E/DX2                !
 ! R4    R(1,5)                  1.4625         estimate D2E/DX2                !
 ! R5    R(5,6)                  1.1957         estimate D2E/DX2                !
 ! R6    R(5,7)                  1.3381         estimate D2E/DX2                !
 ! R7    R(7,8)                  1.0085         estimate D2E/DX2                !
 ! R8    R(7,9)                  1.4102         estimate D2E/DX2                !
 ! R9    R(9,10)                 1.4092         estimate D2E/DX2                !
 ! R10   R(9,16)                 1.395          estimate D2E/DX2                !
 ! R11   R(10,11)                1.3978         estimate D2E/DX2                !
 ! R12   R(10,15)                1.0878         estimate D2E/DX2                !
 ! R13   R(11,12)                1.4435         estimate D2E/DX2                !
 ! R14   R(11,14)                1.0872         estimate D2E/DX2                !
 ! R15   R(12,13)                1.0872         estimate D2E/DX2                !
 ! R16   R(12,18)                1.4107         estimate D2E/DX2                !
 ! R17   R(16,17)                1.0872         estimate D2E/DX2                !
 ! R18   R(16,18)                1.4235         estimate D2E/DX2                !
 ! R19   R(18,19)                1.45           estimate D2E/DX2                !
 ! R20   R(19,20)                1.3834         estimate D2E/DX2                !
 ! R21   R(19,21)                1.3756         estimate D2E/DX2                !
 ! R22   R(20,24)                1.355          estimate D2E/DX2                !
 ! R23   R(21,22)                1.0838         estimate D2E/DX2                !
 ! R24   R(21,23)                1.7418         estimate D2E/DX2                !
 ! R25   R(23,24)                1.7944         estimate D2E/DX2                !
 ! R26   R(24,25)                1.3525         estimate D2E/DX2                !
 ! R27   R(25,26)                1.3145         estimate D2E/DX2                !
 ! R28   R(25,33)                1.0001         estimate D2E/DX2                !
 ! R29   R(26,27)                1.2938         estimate D2E/DX2                !
 ! R30   R(26,30)                1.2431         estimate D2E/DX2                !
 ! R31   R(27,28)                1.0138         estimate D2E/DX2                !
 ! R32   R(27,29)                1.0146         estimate D2E/DX2                !
 ! R33   R(30,31)                1.0143         estimate D2E/DX2                !
 ! R34   R(30,32)                1.0133         estimate D2E/DX2                !
 ! A1    A(2,1,3)              118.5607         estimate D2E/DX2                !
 ! A2    A(2,1,4)              107.6043         estimate D2E/DX2                !
 ! A3    A(2,1,5)              103.0405         estimate D2E/DX2                !
 ! A4    A(3,1,4)              106.1379         estimate D2E/DX2                !
 ! A5    A(3,1,5)              114.6313         estimate D2E/DX2                !
 ! A6    A(4,1,5)              106.1194         estimate D2E/DX2                !
 ! A7    A(1,5,6)              123.007          estimate D2E/DX2                !
 ! A8    A(1,5,7)              114.3977         estimate D2E/DX2                !
 ! A9    A(6,5,7)              121.8835         estimate D2E/DX2                !
 ! A10   A(5,7,8)              116.3021         estimate D2E/DX2                !
 ! A11   A(5,7,9)              127.5038         estimate D2E/DX2                !
 ! A12   A(8,7,9)              116.194          estimate D2E/DX2                !
 ! A13   A(7,9,10)             115.8039         estimate D2E/DX2                !
 ! A14   A(7,9,16)             121.161          estimate D2E/DX2                !
 ! A15   A(10,9,16)            122.9754         estimate D2E/DX2                !
 ! A16   A(9,10,11)            118.4381         estimate D2E/DX2                !
 ! A17   A(9,10,15)            126.8507         estimate D2E/DX2                !
 ! A18   A(11,10,15)           114.147          estimate D2E/DX2                !
 ! A19   A(10,11,12)           118.9241         estimate D2E/DX2                !
 ! A20   A(10,11,14)           124.5317         estimate D2E/DX2                !
 ! A21   A(12,11,14)           115.7975         estimate D2E/DX2                !
 ! A22   A(11,12,13)           114.5824         estimate D2E/DX2                !
 ! A23   A(11,12,18)           122.0755         estimate D2E/DX2                !
 ! A24   A(13,12,18)           122.5445         estimate D2E/DX2                !
 ! A25   A(9,16,17)            121.2484         estimate D2E/DX2                !
 ! A26   A(9,16,18)            119.7668         estimate D2E/DX2                !
 ! A27   A(17,16,18)           118.9152         estimate D2E/DX2                !
 ! A28   A(12,18,16)           117.5344         estimate D2E/DX2                !
 ! A29   A(12,18,19)           119.4654         estimate D2E/DX2                !
 ! A30   A(16,18,19)           122.5901         estimate D2E/DX2                !
 ! A31   A(18,19,20)           127.0869         estimate D2E/DX2                !
 ! A32   A(18,19,21)           119.4084         estimate D2E/DX2                !
 ! A33   A(20,19,21)           113.4007         estimate D2E/DX2                !
 ! A34   A(19,20,24)           114.0266         estimate D2E/DX2                !
 ! A35   A(19,21,22)           134.4939         estimate D2E/DX2                !
 ! A36   A(19,21,23)           112.1618         estimate D2E/DX2                !
 ! A37   A(22,21,23)           113.1627         estimate D2E/DX2                !
 ! A38   A(21,23,24)            89.1664         estimate D2E/DX2                !
 ! A39   A(20,24,23)           111.0316         estimate D2E/DX2                !
 ! A40   A(20,24,25)           130.2506         estimate D2E/DX2                !
 ! A41   A(23,24,25)           118.6376         estimate D2E/DX2                !
 ! A42   A(24,25,26)           113.1129         estimate D2E/DX2                !
 ! A43   A(24,25,33)           123.436          estimate D2E/DX2                !
 ! A44   A(26,25,33)           123.4511         estimate D2E/DX2                !
 ! A45   A(25,26,27)           116.5888         estimate D2E/DX2                !
 ! A46   A(25,26,30)           102.9436         estimate D2E/DX2                !
 ! A47   A(27,26,30)            86.2698         estimate D2E/DX2                !
 ! A48   A(26,27,28)           106.5379         estimate D2E/DX2                !
 ! A49   A(26,27,29)           103.9684         estimate D2E/DX2                !
 ! A50   A(28,27,29)           119.7428         estimate D2E/DX2                !
 ! A51   A(26,30,31)            99.4065         estimate D2E/DX2                !
 ! A52   A(26,30,32)            99.2371         estimate D2E/DX2                !
 ! A53   A(31,30,32)           110.0433         estimate D2E/DX2                !
 ! D1    D(2,1,5,6)            -90.838          estimate D2E/DX2                !
 ! D2    D(2,1,5,7)             79.6463         estimate D2E/DX2                !
 ! D3    D(3,1,5,6)            138.9166         estimate D2E/DX2                !
 ! D4    D(3,1,5,7)            -50.5991         estimate D2E/DX2                !
 ! D5    D(4,1,5,6)             22.122          estimate D2E/DX2                !
 ! D6    D(4,1,5,7)           -167.3937         estimate D2E/DX2                !
 ! D7    D(1,5,7,8)              2.4287         estimate D2E/DX2                !
 ! D8    D(1,5,7,9)           -177.6367         estimate D2E/DX2                !
 ! D9    D(6,5,7,8)            173.032          estimate D2E/DX2                !
 ! D10   D(6,5,7,9)             -7.0335         estimate D2E/DX2                !
 ! D11   D(5,7,9,10)          -123.0826         estimate D2E/DX2                !
 ! D12   D(5,7,9,16)            59.6475         estimate D2E/DX2                !
 ! D13   D(8,7,9,10)            56.852          estimate D2E/DX2                !
 ! D14   D(8,7,9,16)          -120.4179         estimate D2E/DX2                !
 ! D15   D(7,9,10,11)         -173.0145         estimate D2E/DX2                !
 ! D16   D(7,9,10,15)           -2.1712         estimate D2E/DX2                !
 ! D17   D(16,9,10,11)           4.2007         estimate D2E/DX2                !
 ! D18   D(16,9,10,15)         175.044          estimate D2E/DX2                !
 ! D19   D(7,9,16,17)            0.7873         estimate D2E/DX2                !
 ! D20   D(7,9,16,18)          177.7199         estimate D2E/DX2                !
 ! D21   D(10,9,16,17)        -176.2827         estimate D2E/DX2                !
 ! D22   D(10,9,16,18)           0.6499         estimate D2E/DX2                !
 ! D23   D(9,10,11,12)          -5.558          estimate D2E/DX2                !
 ! D24   D(9,10,11,14)        -175.224          estimate D2E/DX2                !
 ! D25   D(15,10,11,12)       -177.5362         estimate D2E/DX2                !
 ! D26   D(15,10,11,14)         12.7979         estimate D2E/DX2                !
 ! D27   D(10,11,12,13)        172.391          estimate D2E/DX2                !
 ! D28   D(10,11,12,18)          2.381          estimate D2E/DX2                !
 ! D29   D(14,11,12,13)        -17.0562         estimate D2E/DX2                !
 ! D30   D(14,11,12,18)        172.9337         estimate D2E/DX2                !
 ! D31   D(11,12,18,16)          2.3876         estimate D2E/DX2                !
 ! D32   D(11,12,18,19)        175.2304         estimate D2E/DX2                !
 ! D33   D(13,12,18,16)       -166.8266         estimate D2E/DX2                !
 ! D34   D(13,12,18,19)          6.0162         estimate D2E/DX2                !
 ! D35   D(9,16,18,12)          -3.8642         estimate D2E/DX2                !
 ! D36   D(9,16,18,19)        -176.4669         estimate D2E/DX2                !
 ! D37   D(17,16,18,12)        173.14           estimate D2E/DX2                !
 ! D38   D(17,16,18,19)          0.5373         estimate D2E/DX2                !
 ! D39   D(12,18,19,20)         36.5476         estimate D2E/DX2                !
 ! D40   D(12,18,19,21)       -139.4857         estimate D2E/DX2                !
 ! D41   D(16,18,19,20)       -150.9871         estimate D2E/DX2                !
 ! D42   D(16,18,19,21)         32.9796         estimate D2E/DX2                !
 ! D43   D(18,19,20,24)       -179.4648         estimate D2E/DX2                !
 ! D44   D(21,19,20,24)         -3.2298         estimate D2E/DX2                !
 ! D45   D(18,19,21,22)          6.9467         estimate D2E/DX2                !
 ! D46   D(18,19,21,23)       -178.4358         estimate D2E/DX2                !
 ! D47   D(20,19,21,22)       -169.606          estimate D2E/DX2                !
 ! D48   D(20,19,21,23)          5.0115         estimate D2E/DX2                !
 ! D49   D(19,20,24,23)          0.0125         estimate D2E/DX2                !
 ! D50   D(19,20,24,25)        176.6478         estimate D2E/DX2                !
 ! D51   D(19,21,23,24)         -4.1084         estimate D2E/DX2                !
 ! D52   D(22,21,23,24)        171.7179         estimate D2E/DX2                !
 ! D53   D(21,23,24,20)          2.3242         estimate D2E/DX2                !
 ! D54   D(21,23,24,25)       -174.7503         estimate D2E/DX2                !
 ! D55   D(20,24,25,26)        -10.3825         estimate D2E/DX2                !
 ! D56   D(20,24,25,33)        169.6266         estimate D2E/DX2                !
 ! D57   D(23,24,25,26)        166.039          estimate D2E/DX2                !
 ! D58   D(23,24,25,33)        -13.952          estimate D2E/DX2                !
 ! D59   D(24,25,26,27)        107.6605         estimate D2E/DX2                !
 ! D60   D(24,25,26,30)       -160.0249         estimate D2E/DX2                !
 ! D61   D(33,25,26,27)        -72.3485         estimate D2E/DX2                !
 ! D62   D(33,25,26,30)         19.9661         estimate D2E/DX2                !
 ! D63   D(25,26,27,28)        169.6097         estimate D2E/DX2                !
 ! D64   D(25,26,27,29)        -63.0068         estimate D2E/DX2                !
 ! D65   D(30,26,27,28)         66.9957         estimate D2E/DX2                !
 ! D66   D(30,26,27,29)       -165.6208         estimate D2E/DX2                !
 ! D67   D(25,26,30,31)        -62.4768         estimate D2E/DX2                !
 ! D68   D(25,26,30,32)         49.7892         estimate D2E/DX2                !
 ! D69   D(27,26,30,31)         53.9622         estimate D2E/DX2                !
 ! D70   D(27,26,30,32)        166.2282         estimate D2E/DX2                !
 --------------------------------------------------------------------------------
 Trust Radius=3.00D-01 FncErr=1.00D-07 GrdErr=1.00D-06 EigMax=2.50D+02 EigMin=1.00D-04
 Number of steps in this run=    167 maximum allowed number of steps=    198.
 GradGradGradGradGradGradGradGradGradGradGradGradGradGradGradGradGradGrad

 Leave Link  103 at Sun Jul 18 16:00:57 2021, MaxMem=   104857600 cpu:               0.0 elap:               0.0
 (Enter /dades/curu/g16A03_MST/g16/l202.exe)
                          Input orientation:                          
 ---------------------------------------------------------------------
 Center     Atomic      Atomic             Coordinates (Angstroms)
 Number     Number       Type             X           Y           Z
 ---------------------------------------------------------------------
      1          6           0        1.110000   -5.212000    2.624000
      2          1           0        1.201000   -5.654000    1.630000
      3          1           0        0.349000   -5.604000    3.302000
      4          1           0        2.067000   -5.344000    3.133000
      5          6           0        0.995000   -3.782000    2.340000
      6          8           0        1.940000   -3.052000    2.279000
      7          7           0       -0.226000   -3.391000    1.957000
      8          1           0       -0.939000   -4.104000    1.941000
      9          6           0       -0.632000   -2.096000    1.574000
     10          6           0       -1.698000   -1.544000    2.312000
     11          6           0       -2.243000   -0.329000    1.887000
     12          6           0       -1.619000    0.370000    0.789000
     13          1           0       -2.171000    1.236000    0.432000
     14          1           0       -3.014000    0.221000    2.421000
     15          1           0       -2.253000   -2.024000    3.115000
     16          6           0       -0.041000   -1.445000    0.491000
     17          1           0        0.740000   -1.922000   -0.096000
     18          6           0       -0.507000   -0.158000    0.100000
     19          6           0        0.011000    0.541000   -1.060000
     20          7           0        0.089000    1.910000   -1.243000
     21          6           0        0.415000   -0.181000   -2.159000
     22          1           0        0.364000   -1.226000   -2.442000
     23         16           0        1.043000    0.841000   -3.422000
     24          6           0        0.611000    2.278000   -2.438000
     25          7           0        0.779000    3.507000   -2.977000
     26          6           0        0.170000    4.455000   -2.300000
     27          7           0        0.924000    5.256000   -1.619000
     28          1           0        0.330000    6.016000   -1.307000
     29          1           0        1.369000    4.652000   -0.936000
     30          7           0        0.080000    5.376000   -3.130000
     31          1           0        1.066000    5.551000   -3.291000
     32          1           0       -0.312000    4.857000   -3.907000
     33          1           0        1.312000    3.677000   -3.806000
 ---------------------------------------------------------------------
                    Distance matrix (angstroms):
                    1          2          3          4          5
     1  C    0.000000
     2  H    1.091641   0.000000
     3  H    1.092002   1.877229   0.000000
     4  H    1.091950   1.762119   1.745762   0.000000
     5  C    1.462457   2.012690   2.159269   2.053747   0.000000
     6  O    2.339557   2.781677   3.176557   2.449226   1.195678
     7  N    2.354958   2.695260   2.652738   3.233425   1.338062
     8  H    2.427458   2.660605   2.400264   3.463308   2.000810
     9  C    3.721091   4.002798   4.031676   4.501620   2.465052
    10  C    4.629949   5.075571   4.653376   5.411956   3.501668
    11  C    5.969042   6.346874   6.045355   6.728955   4.755319
    12  C    6.478687   6.704346   6.773247   7.192408   5.145649
    13  H    7.559532   7.763871   7.834086   8.279640   6.232523
    14  H    6.823934   7.273756   6.783550   7.569196   5.665920
    15  H    4.659849   5.226111   4.429647   5.448406   3.773684
    16  C    4.479373   4.533825   5.034988   5.160042   3.154943
    17  H    4.284787   4.137562   5.025575   4.888502   3.075503
    18  C    5.876068   5.955181   6.375300   6.535990   4.517409
    19  C    6.919297   6.857859   7.543362   7.512763   5.587180
    20  N    8.168171   8.167299   8.785489   8.699562   6.786574
    21  C    6.976466   6.702839   7.696480   7.575681   5.791770
    22  H    6.489150   6.073626   7.222233   7.137139   5.458830
    23  S    8.555549   8.229987   9.339799   9.070327   7.387495
    24  C    9.053891   8.933832   9.754085   9.552532   7.726600
    25  N   10.368304  10.262868  11.073439  10.831955   9.024781
    26  C   10.889457  10.894941  11.515117  11.363824   9.489910
    27  N   11.296755  11.386871  11.936769  11.672530   9.867328
    28  H   11.921793  12.065385  12.500706  12.319918  10.475860
    29  H   10.489956  10.621969  11.143903  10.814989   9.055629
    30  N   12.094427  12.065452  12.728055  12.573454  10.706404
    31  H   12.281341  12.238729  12.977510  12.687427  10.900371
    32  H   12.085562  11.976170  12.721601  12.620683  10.740837
    33  H   10.972695  10.799536  11.729791  11.406059   9.670082
                    6          7          8          9         10
     6  O    0.000000
     7  N    2.215888   0.000000
     8  H    3.083762   1.008461   0.000000
     9  C    2.833045   1.410160   2.064219   0.000000
    10  C    3.938299   2.388350   2.695797   1.409150   0.000000
    11  C    5.006584   3.667292   3.994240   2.411551   1.397811
    12  C    5.157195   4.177295   4.669709   2.769756   2.447277
    13  H    6.220826   5.245739   5.684233   3.843814   3.389178
    14  H    5.939260   4.586369   4.820959   3.429260   2.204305
    15  H    4.397378   2.705251   2.726036   2.237746   1.087766
    16  C    3.115085   2.443419   3.158985   1.394981   2.464040
    17  H    2.890938   2.702948   3.424841   2.168308   3.447491
    18  C    4.371623   3.738944   4.375708   2.438062   2.869220
    19  C    5.270637   4.961762   5.611107   3.782218   4.317209
    20  N    6.360199   6.199986   6.882066   4.950087   5.268919
    21  C    5.501283   5.258939   5.833802   4.324202   5.129559
    22  H    5.301499   4.938272   5.402905   4.228140   5.191674
    23  S    6.961427   6.960878   7.559307   6.032546   6.788230
    24  C    7.240527   7.221783   7.893546   6.064080   6.519330
    25  N    8.484924   8.540304   9.223100   7.355007   7.721506
    26  C    8.969682   8.935244   9.616259   7.652887   7.794098
    27  N    9.233067   9.427666  10.185969   8.165065   8.280558
    28  H    9.883325   9.972687  10.703937   8.661995   8.623430
    29  H    8.367430   8.695017   9.501133   7.472590   7.638482
    30  N   10.185679  10.140586  10.799250   8.858067   8.981261
    31  H   10.285931  10.448451  11.163014   9.221065   9.453694
    32  H   10.290305  10.120444  10.718757   8.859344   9.031598
    33  H    9.094012   9.248472   9.931715   8.127181   8.587716
                   11         12         13         14         15
    11  C    0.000000
    12  C    1.443461   0.000000
    13  H    2.138091   1.087248   0.000000
    14  H    1.087243   2.152127   2.386838   0.000000
    15  H    2.093110   3.397568   4.222892   2.469976   0.000000
    16  C    2.836032   2.423451   3.424637   3.916527   3.480454
    17  H    3.920233   3.406078   4.327317   5.002025   4.390783
    18  C    2.497260   1.410691   2.195986   3.437402   3.952303
    19  C    3.810804   2.470818   2.733169   4.622811   5.397735
    20  N    4.499805   3.068858   2.892663   5.089816   6.320877
    21  C    4.843241   3.623736   3.925375   5.735507   6.191119
    22  H    5.132378   4.113255   4.554947   6.095364   6.194009
    23  S    6.352336   5.004059   5.033799   7.140329   7.861565
    24  C    5.800637   4.361983   4.130640   6.401699   7.585876
    25  N    6.892451   5.456549   5.047893   7.370417   8.769119
    26  C    6.800014   5.424912   4.827636   7.095946   8.784680
    27  N    7.315337   6.011515   5.472296   7.561790   9.246755
    28  H    7.555196   6.330018   5.668115   7.659135   9.532448
    29  H    6.769508   5.499027   5.106083   7.079117   8.608046
    30  N    7.944410   6.580669   5.907152   8.182937   9.960066
    31  H    8.505032   7.120280   6.554245   8.813753  10.461034
    32  H    8.012103   6.625242   5.949323   8.296800  10.021184
    33  H    7.816413   6.375032   6.004200   8.332691   9.649397
                   16         17         18         19         20
    16  C    0.000000
    17  H    1.087225   0.000000
    18  C    1.423519   2.169129   0.000000
    19  C    2.520417   2.743557   1.450009   0.000000
    20  N    3.778847   4.052608   2.536827   1.383378   0.000000
    21  C    2.971217   2.718947   2.440019   1.375609   2.305995
    22  H    2.968918   2.475784   2.891544   2.270864   3.368638
    23  S    4.659659   4.334542   3.975548   2.595008   2.607857
    24  C    4.781723   4.810572   3.691269   2.296966   1.354966
    25  N    6.100961   6.146196   4.955194   3.614121   2.456271
    26  C    6.530253   6.771163   5.243863   4.108805   2.756961
    27  N    7.091313   7.340100   5.857825   4.835005   3.469051
    28  H    7.683552   8.040303   6.387370   5.489845   4.113565
    29  H    6.418554   6.657230   5.265812   4.331266   3.041581
    30  N    7.723492   7.931050   6.434487   5.259932   3.946392
    31  H    8.029507   8.133882   6.823921   5.584844   4.290188
    32  H    7.689672   7.847628   6.422172   5.180501   3.992807
    33  H    6.821268   6.740926   5.768260   4.366648   3.344695
                   21         22         23         24         25
    21  C    0.000000
    22  H    1.083843   0.000000
    23  S    1.741849   2.386196   0.000000
    24  C    2.482527   3.512697   1.794394   0.000000
    25  N    3.795124   4.781186   2.715746   1.352474   0.000000
    26  C    4.644610   5.686085   3.883556   2.225501   1.314501
    27  N    5.487408   6.557992   4.770450   3.104386   2.219052
    28  H    6.255872   7.330481   5.635798   3.915452   3.047225
    29  H    5.075799   6.150524   4.561819   2.909715   2.413463
    30  N    5.651134   6.643825   4.645305   3.218451   2.001292
    31  H    5.878865   6.865955   4.711878   3.412794   2.087798
    32  H    5.381958   6.293337   4.266088   3.108236   1.969183
    33  H    4.289683   5.176737   2.874494   2.078467   1.000115
                   26         27         28         29         30
    26  C    0.000000
    27  N    1.293784   0.000000
    28  H    1.856979   1.013795   0.000000
    29  H    1.826720   1.014559   1.754326   0.000000
    30  N    1.243077   1.734894   1.948186   2.645625   0.000000
    31  H    1.728037   1.703753   2.166605   2.538904   1.014269
    32  H    1.725218   2.630939   2.918124   3.419741   1.013289
    33  H    2.043889   2.725207   3.560933   3.031629   2.204858
                   31         32         33
    31  H    0.000000
    32  H    1.661318   0.000000
    33  H    1.958984   2.009969   0.000000
 Stoichiometry    C12H14N5OS(1+)
 Framework group  C1[X(C12H14N5OS)]
 Deg. of freedom    93
 Full point group                 C1      NOp   1
 Largest Abelian subgroup         C1      NOp   1
 Largest concise Abelian subgroup C1      NOp   1
                         Standard orientation:                         
 ---------------------------------------------------------------------
 Center     Atomic      Atomic             Coordinates (Angstroms)
 Number     Number       Type             X           Y           Z
 ---------------------------------------------------------------------
      1          6           0       -6.180395   -1.200134    0.526931
      2          1           0       -5.982697   -2.062012   -0.113197
      3          1           0       -6.914556   -0.462183    0.196924
      4          1           0       -6.539348   -1.577108    1.486826
      5          6           0       -4.844046   -0.660998    0.776496
      6          8           0       -4.170889   -0.993491    1.707063
      7          7           0       -4.352144    0.081313   -0.222213
      8          1           0       -4.959106    0.222188   -1.015147
      9          6           0       -3.082660    0.691077   -0.293970
     10          6           0       -3.082604    2.086033   -0.493473
     11          6           0       -1.860849    2.725848   -0.721128
     12          6           0       -0.642070    1.958708   -0.622876
     13          1           0        0.252945    2.489163   -0.938591
     14          1           0       -1.736437    3.802026   -0.813110
     15          1           0       -3.951924    2.725712   -0.628854
     16          6           0       -1.913217   -0.066634   -0.228810
     17          1           0       -1.947143   -1.149156   -0.133655
     18          6           0       -0.648123    0.574083   -0.353014
     19          6           0        0.601504   -0.161236   -0.369286
     20          7           0        1.838000    0.285566    0.061039
     21          6           0        0.638961   -1.417174   -0.929211
     22          1           0       -0.066752   -2.021266   -1.487562
     23         16           0        2.217471   -2.143636   -0.808386
     24          6           0        2.834120   -0.621050   -0.086358
     25          7           0        4.158721   -0.512466    0.164294
     26          6           0        4.537527    0.721643    0.412075
     27          7           0        4.844575    0.998033    1.638129
     28          1           0        5.274054    1.916307    1.628083
     29          1           0        3.978439    0.852996    2.146167
     30          7           0        5.761674    0.685244    0.199049
     31          1           0        6.034316    0.017857    0.912494
     32          1           0        5.755304    0.238301   -0.710322
     33          1           0        4.785824   -1.291544    0.161261
 ---------------------------------------------------------------------
 Rotational constants (GHZ):           0.7721958           0.1374643           0.1262864
 Leave Link  202 at Sun Jul 18 16:00:58 2021, MaxMem=   104857600 cpu:               0.1 elap:               0.0
 (Enter /dades/curu/g16A03_MST/g16/l301.exe)
 Standard basis: 6-31G(d) (6D, 7F)
 Ernie: Thresh=  0.10000D-02 Tol=  0.10000D-05 Strict=F.
 There are   317 symmetry adapted cartesian basis functions of A   symmetry.
 There are   317 symmetry adapted basis functions of A   symmetry.
   317 basis functions,   612 primitive gaussians,   317 cartesian basis functions
    72 alpha electrons       72 beta electrons
       nuclear repulsion energy      1459.4401644634 Hartrees.
 IExCor=  402 DFT=T Ex+Corr=B3LYP ExCW=0 ScaHFX=  0.200000
 ScaDFX=  0.800000  0.720000  1.000000  0.810000 ScalE2=  1.000000  1.000000
 IRadAn=      5 IRanWt=     -1 IRanGd=            0 ICorTp=0 IEmpDi=  4
 NAtoms=   33 NActive=   33 NUniq=   33 SFac= 1.00D+00 NAtFMM=   60 NAOKFM=F Big=F
 Integral buffers will be    131072 words long.
 Raffenetti 2 integral format.
 Two-electron integral symmetry is turned on.
 Using the following non-standard input for PCM:
 MSTModel=DFT cav MSTCharged
 --- end of non-standard input.
 MST model for solvation energy: B3LYP parametrization.
 MST cavity parameters:
 ISph   IAn     Re0     Alpha   Atom Type   QCorr
 ------------------------------------------------
   1      6     1.50     1.50      CH3        F
   2      1     1.20     1.50      CH3        F
   3      1     1.20     1.50      CH3        F
   4      1     1.20     1.50      CH3        F
   5      6     1.50     1.50      C          F
   6      8     1.40     1.50      O          F
   7      7     1.50     1.50      NH         F
   8      1     0.90     1.50      NH         F
   9      6     1.50     1.50      C          F
  10      6     1.50     1.50      CH         F
  11      6     1.50     1.50      CH         F
  12      6     1.50     1.50      CH         F
  13      1     1.20     1.50      CH         F
  14      1     1.20     1.50      CH         F
  15      1     1.20     1.50      CH         F
  16      6     1.50     1.50      CH         F
  17      1     1.20     1.50      CH         F
  18      6     1.50     1.50      C          F
  19      6     1.50     1.50      C          F
  20      7     1.50     1.50      Nc         F
  21      6     1.50     1.50      CH         F
  22      1     1.20     1.50      CH         F
  23     16     1.75     1.50      S          F
  24      6     1.50     1.50      C          F
  25      7     1.50     1.15      NH         T
  26      6     1.50     1.15      CN+        T
  27      7     1.50     1.15      NH+        T
  28      1     0.90     1.15      NH+        T
  29      1     0.90     1.15      NH+        T
  30      7     1.50     1.15      NH+        T
  31      1     0.90     1.15      NH+        T
  32      1     0.90     1.15      NH+        T
  33      1     0.90     1.15      NH         T
 ------------------------------------------------------------------------------
 Polarizable Continuum Model (PCM)
 =================================
 Model                : PCM.
 Atomic radii         : MST.
 Polarization charges : Total charges.
 Charge compensation  : None.
 Solution method      : On-the-fly selection.
 Cavity type          : Scaled VdW (van der Waals Surface) (Alpha=1.500).
 Cavity algorithm     : GePol (No added spheres)
                        Default sphere list used, NSphG=   33.
                        Lebedev-Laikov grids with approx.  5.0 points / Ang**2.
                        Smoothing algorithm: York/Karplus (Gamma=1.0000).
                        Polarization charges: spherical gaussians, with
                                              point-specific exponents (IZeta= 3).
                        Self-potential: point-specific (ISelfS= 7).
                        Self-field    : sphere-specific E.n sum rule (ISelfD= 2).
 1st derivatives      : Analytical E(r).r(x)/FMM algorithm (CHGder, D1EAlg=3).
                        Cavity 1st derivative terms included.
 Solvent              : n-Octanol, Eps=   9.862900 Eps(inf)=   2.043470
 ------------------------------------------------------------------------------
 GePol: Number of generator spheres                  =      33
 GePol: Total number of spheres                      =      33
 GePol: Number of exposed spheres                    =      33 (100.00%)
 GePol: Number of points                             =    3018
 GePol: Average weight of points                     =       0.12
 GePol: Minimum weight of points                     =   0.61D-11
 GePol: Maximum weight of points                     =    0.22065
 GePol: Number of points with low weight             =     183
 GePol: Fraction of low-weight points (<1% of avg)   =       6.06%
 GePol: Cavity surface area                          =    352.581 Ang**2
 GePol: Cavity volume                                =    391.417 Ang**3
 Surface areas from nonelectrostatic (unscaled) cavity and vdw tensions:
 Sphere =    1 Type =  CH3 Surf =        5.211 Tension =       -0.183
 Sphere =    2 Type =  CH3 Surf =        9.977 Tension =       -0.183
 Sphere =    3 Type =  CH3 Surf =       10.180 Tension =       -0.183
 Sphere =    4 Type =  CH3 Surf =        9.922 Tension =       -0.183
 Sphere =    5 Type =  C   Surf =        6.060 Tension =       -0.205
 Sphere =    6 Type =  O   Surf =       16.145 Tension =       -0.185
 Sphere =    7 Type =  NH  Surf =        9.474 Tension =       -0.234
 Sphere =    8 Type =  NH  Surf =        3.903 Tension =       -0.234
 Sphere =    9 Type =  C   Surf =        6.062 Tension =       -0.205
 Sphere =   10 Type =  CH  Surf =        7.799 Tension =       -0.195
 Sphere =   11 Type =  CH  Surf =        7.958 Tension =       -0.195
 Sphere =   12 Type =  CH  Surf =        7.859 Tension =       -0.195
 Sphere =   13 Type =  CH  Surf =       10.199 Tension =       -0.195
 Sphere =   14 Type =  CH  Surf =       10.232 Tension =       -0.195
 Sphere =   15 Type =  CH  Surf =       10.207 Tension =       -0.195
 Sphere =   16 Type =  CH  Surf =        7.742 Tension =       -0.195
 Sphere =   17 Type =  CH  Surf =       10.114 Tension =       -0.195
 Sphere =   18 Type =  C   Surf =        6.330 Tension =       -0.205
 Sphere =   19 Type =  C   Surf =        6.112 Tension =       -0.205
 Sphere =   20 Type =  Nc  Surf =       12.828 Tension =       -0.161
 Sphere =   21 Type =  CH  Surf =        7.451 Tension =       -0.195
 Sphere =   22 Type =  CH  Surf =       10.145 Tension =       -0.195
 Sphere =   23 Type =  S   Surf =       24.391 Tension =       -0.186
 Sphere =   24 Type =  C   Surf =        5.566 Tension =       -0.205
 Sphere =   25 Type =  NH  Surf =        8.562 Tension =       -0.234
 Sphere =   26 Type =  CN+ Surf =        6.962 Tension =       -0.227
 Sphere =   27 Type =  NH+ Surf =       12.351 Tension =       -0.274
 Sphere =   28 Type =  NH+ Surf =        3.791 Tension =       -0.274
 Sphere =   29 Type =  NH+ Surf =        3.898 Tension =       -0.274
 Sphere =   30 Type =  NH+ Surf =       12.251 Tension =       -0.274
 Sphere =   31 Type =  NH+ Surf =        3.249 Tension =       -0.274
 Sphere =   32 Type =  NH+ Surf =        3.612 Tension =       -0.274
 Sphere =   33 Type =  NH  Surf =        3.821 Tension =       -0.234
 PCM non-electrostatic energy =        -0.0204319231 Hartrees.
 Nuclear repulsion after PCM non-electrostatic terms =     1459.4197325403 Hartrees.
 Leave Link  301 at Sun Jul 18 16:00:58 2021, MaxMem=   104857600 cpu:               0.2 elap:               0.1
 (Enter /dades/curu/g16A03_MST/g16/l302.exe)
 NPDir=0 NMtPBC=     1 NCelOv=     1 NCel=       1 NClECP=     1 NCelD=      1
         NCelK=      1 NCelE2=     1 NClLst=     1 CellRange=     0.0.
 One-electron integrals computed using PRISM.
 One-electron integral symmetry used in STVInt
 NBasis=   317 RedAO= T EigKep=  5.53D-04  NBF=   317
 NBsUse=   317 1.00D-06 EigRej= -1.00D+00 NBFU=   317
 Precomputing XC quadrature grid using
 IXCGrd= 4 IRadAn=           5 IRanWt=          -1 IRanGd=           0 AccXCQ= 0.00D+00.
 Generated NRdTot=       0 NPtTot=           0 NUsed=           0 NTot=          32
 NSgBfM=   312   312   312   312   312 MxSgAt=    33 MxSgA2=    33.
 Leave Link  302 at Sun Jul 18 16:00:59 2021, MaxMem=   104857600 cpu:               4.5 elap:               1.2
 (Enter /dades/curu/g16A03_MST/g16/l303.exe)
 DipDrv:  MaxL=1.
 Leave Link  303 at Sun Jul 18 16:00:59 2021, MaxMem=   104857600 cpu:               0.1 elap:               0.1
 (Enter /dades/curu/g16A03_MST/g16/l401.exe)
 ExpMin= 1.17D-01 ExpMax= 2.19D+04 ExpMxC= 3.30D+03 IAcc=3 IRadAn=         5 AccDes= 0.00D+00
 Harris functional with IExCor=  402 and IRadAn=       5 diagonalized for initial guess.
 HarFok:  IExCor=  402 AccDes= 0.00D+00 IRadAn=         5 IDoV= 1 UseB2=F ITyADJ=14
 ICtDFT=  3500011 ScaDFX=  1.000000  1.000000  1.000000  1.000000
 FoFCou: FMM=F IPFlag=           0 FMFlag=      100000 FMFlg1=           0
         NFxFlg=           0 DoJE=T BraDBF=F KetDBF=T FulRan=T
         wScrn=  0.000000 ICntrl=       500 IOpCl=  0 I1Cent=   200000004 NGrid=           0
         NMat0=    1 NMatS0=      1 NMatT0=    0 NMatD0=    1 NMtDS0=    0 NMtDT0=    0
 Petite list used in FoFCou.
 Harris En= -1212.32726042977    
 JPrj=0 DoOrth=F DoCkMO=F.
 Leave Link  401 at Sun Jul 18 16:01:06 2021, MaxMem=   104857600 cpu:              26.2 elap:               6.6
 (Enter /dades/curu/g16A03_MST/g16/l502.exe)
 Integral symmetry usage will be decided dynamically.
 Closed shell SCF:
 Using DIIS extrapolation, IDIIS=  1040.
 NGot=   104857600 LenX=   104651201 LenY=   104550271
 Requested convergence on RMS density matrix=1.00D-08 within 128 cycles.
 Requested convergence on MAX density matrix=1.00D-06.
 Requested convergence on             energy=1.00D-06.
 No special actions if energy rises.
 Fock matrices will be formed incrementally for  20 cycles.

 Cycle   1  Pass 1  IDiag  1:
 FoFJK:  IHMeth= 1 ICntrl=       0 DoSepK=F KAlg= 0 I1Cent=           0 FoldK=F
 IRaf= 710000000 NMat=       1 IRICut=       1 DoRegI=T DoRafI=F ISym2E= 0 IDoP0=0 IntGTp=1.
 FoFCou: FMM=F IPFlag=           0 FMFlag=      100000 FMFlg1=           0
         NFxFlg=           0 DoJE=F BraDBF=F KetDBF=F FulRan=T
         wScrn=  0.000000 ICntrl=         0 IOpCl=  0 I1Cent=           0 NGrid=           0
         NMat0=    1 NMatS0=      1 NMatT0=    0 NMatD0=    1 NMtDS0=    0 NMtDT0=    0
 Symmetry not used in FoFCou.
 Inv3:  Mode=1 IEnd=    27324972.
 Iteration    1 A*A^-1 deviation from unit magnitude is 5.77D-15 for   3016.
 Iteration    1 A*A^-1 deviation from orthogonality  is 1.91D-15 for   2759   1000.
 Iteration    1 A^-1*A deviation from unit magnitude is 5.55D-15 for   3016.
 Iteration    1 A^-1*A deviation from orthogonality  is 2.28D-15 for   2747   1400.
 E= -1211.95698082104    
 DIIS: error= 2.51D-02 at cycle   1 NSaved=   1.
 NSaved= 1 IEnMin= 1 EnMin= -1211.95698082104     IErMin= 1 ErrMin= 2.51D-02
 ErrMax= 2.51D-02  0.00D+00 EMaxC= 1.00D-01 BMatC= 5.24D-01 BMatP= 5.24D-01
 IDIUse=3 WtCom= 7.49D-01 WtEn= 2.51D-01
 Coeff-Com:  0.100D+01
 Coeff-En:   0.100D+01
 Coeff:      0.100D+01
 Gap=     0.068 Goal=   None    Shift=    0.000
 GapD=    0.068 DampG=0.500 DampE=0.500 DampFc=0.2500 IDamp=-1.
 Damping current iteration by 2.50D-01
 RMSDP=7.14D-03 MaxDP=3.32D-01              OVMax= 7.51D-01

 Cycle   2  Pass 1  IDiag  1:
 RMSU=  1.77D-03    CP:  9.89D-01
 E= -1212.07131064065     Delta-E=       -0.114329819610 Rises=F Damp=T
 DIIS: error= 1.18D-02 at cycle   2 NSaved=   2.
 NSaved= 2 IEnMin= 2 EnMin= -1212.07131064065     IErMin= 2 ErrMin= 1.18D-02
 ErrMax= 1.18D-02  0.00D+00 EMaxC= 1.00D-01 BMatC= 1.17D-01 BMatP= 5.24D-01
 IDIUse=3 WtCom= 8.82D-01 WtEn= 1.18D-01
 Coeff-Com: -0.324D+00 0.132D+01
 Coeff-En:   0.207D+00 0.793D+00
 Coeff:     -0.261D+00 0.126D+01
 Gap=    -0.251 Goal=   None    Shift=    0.000
 RMSDP=2.72D-03 MaxDP=1.03D-01 DE=-1.14D-01 OVMax= 7.42D-01

 Cycle   3  Pass 1  IDiag  1:
 RMSU=  2.69D-03    CP:  9.71D-01  9.23D-01
 E= -1212.15030391706     Delta-E=       -0.078993276402 Rises=F Damp=F
 DIIS: error= 3.90D-02 at cycle   3 NSaved=   3.
 NSaved= 3 IEnMin= 3 EnMin= -1212.15030391706     IErMin= 2 ErrMin= 1.18D-02
 ErrMax= 3.90D-02  0.00D+00 EMaxC= 1.00D-01 BMatC= 3.28D-01 BMatP= 1.17D-01
 IDIUse=2 WtCom= 0.00D+00 WtEn= 1.00D+00
 Coeff-En:   0.000D+00 0.411D+00 0.589D+00
 Coeff:      0.000D+00 0.411D+00 0.589D+00
 Gap=     0.046 Goal=   None    Shift=    0.000
 RMSDP=5.12D-03 MaxDP=3.44D-01 DE=-7.90D-02 OVMax= 9.00D-01

 Cycle   4  Pass 1  IDiag  1:
 RMSU=  2.19D-03    CP:  9.65D-01  2.50D+00 -3.70D-01
 E= -1210.80573414855     Delta-E=        1.344569768510 Rises=F Damp=F
 DIIS: error= 8.18D-02 at cycle   4 NSaved=   4.
 NSaved= 4 IEnMin= 3 EnMin= -1212.15030391706     IErMin= 2 ErrMin= 1.18D-02
 ErrMax= 8.18D-02  0.00D+00 EMaxC= 1.00D-01 BMatC= 1.05D+00 BMatP= 1.17D-01
 IDIUse=2 WtCom= 0.00D+00 WtEn= 1.00D+00
 EnCoef did     1 forward-backward iterations
 Coeff-En:   0.640D-01 0.000D+00 0.714D+00 0.222D+00
 Coeff:      0.640D-01 0.000D+00 0.714D+00 0.222D+00
 Gap=    -0.066 Goal=   None    Shift=    0.000
 RMSDP=4.60D-03 MaxDP=2.49D-01 DE= 1.34D+00 OVMax= 9.76D-01

 Cycle   5  Pass 1  IDiag  1:
 RMSU=  1.74D-03    CP:  9.82D-01  7.22D-01  3.47D-01  5.05D-02
 E= -1212.39886936850     Delta-E=       -1.593135219953 Rises=F Damp=F
 DIIS: error= 8.55D-03 at cycle   5 NSaved=   5.
 NSaved= 5 IEnMin= 5 EnMin= -1212.39886936850     IErMin= 5 ErrMin= 8.55D-03
 ErrMax= 8.55D-03  0.00D+00 EMaxC= 1.00D-01 BMatC= 5.54D-02 BMatP= 1.17D-01
 IDIUse=3 WtCom= 9.15D-01 WtEn= 8.55D-02
 Coeff-Com: -0.176D+00 0.448D+00 0.308D+00 0.308D-01 0.389D+00
 Coeff-En:   0.000D+00 0.000D+00 0.951D-01 0.000D+00 0.905D+00
 Coeff:     -0.161D+00 0.410D+00 0.290D+00 0.281D-01 0.433D+00
 Gap=     0.065 Goal=   None    Shift=    0.000
 RMSDP=1.08D-03 MaxDP=4.04D-02 DE=-1.59D+00 OVMax= 7.10D-02

 Cycle   6  Pass 1  IDiag  1:
 RMSU=  6.70D-04    CP:  9.79D-01  7.14D-01  5.44D-01  6.87D-02  6.27D-01
 E= -1212.42580713314     Delta-E=       -0.026937764639 Rises=F Damp=F
 DIIS: error= 7.97D-03 at cycle   6 NSaved=   6.
 NSaved= 6 IEnMin= 6 EnMin= -1212.42580713314     IErMin= 6 ErrMin= 7.97D-03
 ErrMax= 7.97D-03  0.00D+00 EMaxC= 1.00D-01 BMatC= 2.39D-02 BMatP= 5.54D-02
 IDIUse=3 WtCom= 9.20D-01 WtEn= 7.97D-02
 Coeff-Com: -0.161D+00 0.248D+00 0.454D-01-0.972D-02 0.323D+00 0.554D+00
 Coeff-En:   0.000D+00 0.000D+00 0.000D+00 0.000D+00 0.323D+00 0.677D+00
 Coeff:     -0.148D+00 0.228D+00 0.417D-01-0.895D-02 0.323D+00 0.564D+00
 Gap=     0.061 Goal=   None    Shift=    0.000
 RMSDP=5.39D-04 MaxDP=2.64D-02 DE=-2.69D-02 OVMax= 4.50D-02

 Cycle   7  Pass 1  IDiag  1:
 RMSU=  2.29D-04    CP:  9.80D-01  8.11D-01  4.77D-01  1.20D-02  8.41D-01
                    CP:  7.77D-01
 E= -1212.44754983709     Delta-E=       -0.021742703949 Rises=F Damp=F
 DIIS: error= 2.25D-03 at cycle   7 NSaved=   7.
 NSaved= 7 IEnMin= 7 EnMin= -1212.44754983709     IErMin= 7 ErrMin= 2.25D-03
 ErrMax= 2.25D-03  0.00D+00 EMaxC= 1.00D-01 BMatC= 1.16D-03 BMatP= 2.39D-02
 IDIUse=3 WtCom= 9.77D-01 WtEn= 2.25D-02
 Coeff-Com: -0.698D-01 0.962D-01-0.220D-01-0.245D-02 0.118D+00 0.305D+00
 Coeff-Com:  0.575D+00
 Coeff-En:   0.000D+00 0.000D+00 0.000D+00 0.000D+00 0.000D+00 0.000D+00
 Coeff-En:   0.100D+01
 Coeff:     -0.682D-01 0.940D-01-0.215D-01-0.239D-02 0.115D+00 0.298D+00
 Coeff:      0.585D+00
 Gap=     0.063 Goal=   None    Shift=    0.000
 RMSDP=1.36D-04 MaxDP=5.45D-03 DE=-2.17D-02 OVMax= 9.73D-03

 Cycle   8  Pass 1  IDiag  1:
 RMSU=  9.44D-05    CP:  9.80D-01  7.92D-01  4.65D-01  2.27D-02  8.62D-01
                    CP:  8.65D-01  8.02D-01
 E= -1212.44848101716     Delta-E=       -0.000931180077 Rises=F Damp=F
 DIIS: error= 5.98D-04 at cycle   8 NSaved=   8.
 NSaved= 8 IEnMin= 8 EnMin= -1212.44848101716     IErMin= 8 ErrMin= 5.98D-04
 ErrMax= 5.98D-04  0.00D+00 EMaxC= 1.00D-01 BMatC= 2.18D-04 BMatP= 1.16D-03
 IDIUse=3 WtCom= 9.94D-01 WtEn= 5.98D-03
 Coeff-Com: -0.961D-02 0.121D-01-0.300D-01 0.103D-02-0.174D-01 0.413D-01
 Coeff-Com:  0.368D+00 0.634D+00
 Coeff-En:   0.000D+00 0.000D+00 0.000D+00 0.000D+00 0.000D+00 0.000D+00
 Coeff-En:   0.000D+00 0.100D+01
 Coeff:     -0.955D-02 0.121D-01-0.298D-01 0.102D-02-0.173D-01 0.410D-01
 Coeff:      0.366D+00 0.636D+00
 Gap=     0.062 Goal=   None    Shift=    0.000
 RMSDP=8.10D-05 MaxDP=2.57D-03 DE=-9.31D-04 OVMax= 1.28D-02

 Cycle   9  Pass 1  IDiag  1:
 RMSU=  4.33D-05    CP:  9.80D-01  7.99D-01  4.54D-01  2.02D-02  8.80D-01
                    CP:  9.02D-01  9.79D-01  7.84D-01
 E= -1212.44872896830     Delta-E=       -0.000247951136 Rises=F Damp=F
 DIIS: error= 1.61D-04 at cycle   9 NSaved=   9.
 NSaved= 9 IEnMin= 9 EnMin= -1212.44872896830     IErMin= 9 ErrMin= 1.61D-04
 ErrMax= 1.61D-04  0.00D+00 EMaxC= 1.00D-01 BMatC= 1.51D-05 BMatP= 2.18D-04
 IDIUse=3 WtCom= 9.98D-01 WtEn= 1.61D-03
 Coeff-Com:  0.138D-02-0.145D-02-0.115D-01 0.501D-03-0.201D-01-0.147D-01
 Coeff-Com:  0.947D-01 0.312D+00 0.639D+00
 Coeff-En:   0.000D+00 0.000D+00 0.000D+00 0.000D+00 0.000D+00 0.000D+00
 Coeff-En:   0.000D+00 0.000D+00 0.100D+01
 Coeff:      0.138D-02-0.144D-02-0.115D-01 0.500D-03-0.201D-01-0.146D-01
 Coeff:      0.946D-01 0.311D+00 0.640D+00
 Gap=     0.063 Goal=   None    Shift=    0.000
 RMSDP=2.08D-05 MaxDP=1.04D-03 DE=-2.48D-04 OVMax= 1.25D-03

 Cycle  10  Pass 1  IDiag  1:
 RMSU=  1.50D-05    CP:  9.80D-01  7.99D-01  4.54D-01  1.92D-02  8.82D-01
                    CP:  9.10D-01  9.90D-01  8.89D-01  8.21D-01
 E= -1212.44874265567     Delta-E=       -0.000013687374 Rises=F Damp=F
 DIIS: error= 3.65D-05 at cycle  10 NSaved=  10.
 NSaved=10 IEnMin=10 EnMin= -1212.44874265567     IErMin=10 ErrMin= 3.65D-05
 ErrMax= 3.65D-05  0.00D+00 EMaxC= 1.00D-01 BMatC= 1.92D-06 BMatP= 1.51D-05
 IDIUse=1 WtCom= 1.00D+00 WtEn= 0.00D+00
 Coeff-Com:  0.184D-03 0.351D-03-0.688D-03 0.642D-04-0.324D-02-0.682D-02
 Coeff-Com: -0.376D-02 0.684D-01 0.300D+00 0.646D+00
 Coeff:      0.184D-03 0.351D-03-0.688D-03 0.642D-04-0.324D-02-0.682D-02
 Coeff:     -0.376D-02 0.684D-01 0.300D+00 0.646D+00
 Gap=     0.063 Goal=   None    Shift=    0.000
 RMSDP=1.05D-05 MaxDP=3.00D-04 DE=-1.37D-05 OVMax= 1.93D-03

 Cycle  11  Pass 1  IDiag  1:
 RMSU=  6.78D-06    CP:  9.80D-01  8.00D-01  4.53D-01  1.93D-02  8.82D-01
                    CP:  9.11D-01  9.96D-01  8.89D-01  9.73D-01  7.33D-01
 E= -1212.44874461497     Delta-E=       -0.000001959291 Rises=F Damp=F
 DIIS: error= 2.91D-05 at cycle  11 NSaved=  11.
 NSaved=11 IEnMin=11 EnMin= -1212.44874461497     IErMin=11 ErrMin= 2.91D-05
 ErrMax= 2.91D-05  0.00D+00 EMaxC= 1.00D-01 BMatC= 5.77D-07 BMatP= 1.92D-06
 IDIUse=1 WtCom= 1.00D+00 WtEn= 0.00D+00
 Coeff-Com:  0.256D-03-0.102D-03 0.675D-03-0.119D-04-0.157D-03-0.334D-02
 Coeff-Com: -0.109D-01 0.139D-01 0.931D-01 0.412D+00 0.494D+00
 Coeff:      0.256D-03-0.102D-03 0.675D-03-0.119D-04-0.157D-03-0.334D-02
 Coeff:     -0.109D-01 0.139D-01 0.931D-01 0.412D+00 0.494D+00
 Gap=     0.063 Goal=   None    Shift=    0.000
 RMSDP=2.72D-06 MaxDP=1.10D-04 DE=-1.96D-06 OVMax= 2.18D-04

 Cycle  12  Pass 1  IDiag  1:
 RMSU=  1.88D-06    CP:  9.80D-01  8.00D-01  4.53D-01  1.94D-02  8.81D-01
                    CP:  9.11D-01  9.96D-01  8.97D-01  9.88D-01  8.20D-01
                    CP:  8.51D-01
 E= -1212.44874513000     Delta-E=       -0.000000515038 Rises=F Damp=F
 DIIS: error= 1.28D-05 at cycle  12 NSaved=  12.
 NSaved=12 IEnMin=12 EnMin= -1212.44874513000     IErMin=12 ErrMin= 1.28D-05
 ErrMax= 1.28D-05  0.00D+00 EMaxC= 1.00D-01 BMatC= 8.64D-08 BMatP= 5.77D-07
 IDIUse=1 WtCom= 1.00D+00 WtEn= 0.00D+00
 Coeff-Com:  0.225D-03-0.303D-03 0.590D-03 0.611D-06 0.575D-03-0.796D-03
 Coeff-Com: -0.434D-02-0.139D-02-0.141D-01 0.158D+00 0.239D+00 0.623D+00
 Coeff:      0.225D-03-0.303D-03 0.590D-03 0.611D-06 0.575D-03-0.796D-03
 Coeff:     -0.434D-02-0.139D-02-0.141D-01 0.158D+00 0.239D+00 0.623D+00
 Gap=     0.063 Goal=   None    Shift=    0.000
 RMSDP=1.42D-06 MaxDP=4.92D-05 DE=-5.15D-07 OVMax= 2.24D-04

 Cycle  13  Pass 1  IDiag  1:
 RMSU=  8.66D-07    CP:  9.80D-01  8.00D-01  4.53D-01  1.94D-02  8.81D-01
                    CP:  9.11D-01  9.97D-01  9.02D-01  1.00D+00  8.54D-01
                    CP:  9.49D-01  8.58D-01
 E= -1212.44874519704     Delta-E=       -0.000000067035 Rises=F Damp=F
 DIIS: error= 6.18D-06 at cycle  13 NSaved=  13.
 NSaved=13 IEnMin=13 EnMin= -1212.44874519704     IErMin=13 ErrMin= 6.18D-06
 ErrMax= 6.18D-06  0.00D+00 EMaxC= 1.00D-01 BMatC= 2.52D-08 BMatP= 8.64D-08
 IDIUse=1 WtCom= 1.00D+00 WtEn= 0.00D+00
 Coeff-Com:  0.761D-04-0.122D-03 0.258D-03-0.532D-05 0.383D-03 0.194D-03
 Coeff-Com:  0.381D-03-0.143D-02-0.290D-01 0.249D-01 0.442D-02 0.352D+00
 Coeff-Com:  0.648D+00
 Coeff:      0.761D-04-0.122D-03 0.258D-03-0.532D-05 0.383D-03 0.194D-03
 Coeff:      0.381D-03-0.143D-02-0.290D-01 0.249D-01 0.442D-02 0.352D+00
 Coeff:      0.648D+00
 Gap=     0.063 Goal=   None    Shift=    0.000
 RMSDP=7.43D-07 MaxDP=3.58D-05 DE=-6.70D-08 OVMax= 6.20D-05

 Cycle  14  Pass 1  IDiag  1:
 RMSU=  3.33D-07    CP:  9.80D-01  8.00D-01  4.53D-01  1.93D-02  8.81D-01
                    CP:  9.11D-01  9.97D-01  9.03D-01  1.00D+00  8.79D-01
                    CP:  9.78D-01  1.02D+00  8.51D-01
 E= -1212.44874522339     Delta-E=       -0.000000026348 Rises=F Damp=F
 DIIS: error= 3.13D-06 at cycle  14 NSaved=  14.
 NSaved=14 IEnMin=14 EnMin= -1212.44874522339     IErMin=14 ErrMin= 3.13D-06
 ErrMax= 3.13D-06  0.00D+00 EMaxC= 1.00D-01 BMatC= 3.74D-09 BMatP= 2.52D-08
 IDIUse=1 WtCom= 1.00D+00 WtEn= 0.00D+00
 Coeff-Com:  0.698D-05-0.816D-05 0.336D-04-0.311D-05 0.707D-04 0.259D-03
 Coeff-Com:  0.152D-02 0.334D-03-0.144D-01-0.157D-01-0.597D-01 0.695D-01
 Coeff-Com:  0.343D+00 0.675D+00
 Coeff:      0.698D-05-0.816D-05 0.336D-04-0.311D-05 0.707D-04 0.259D-03
 Coeff:      0.152D-02 0.334D-03-0.144D-01-0.157D-01-0.597D-01 0.695D-01
 Coeff:      0.343D+00 0.675D+00
 Gap=     0.063 Goal=   None    Shift=    0.000
 RMSDP=3.30D-07 MaxDP=1.18D-05 DE=-2.63D-08 OVMax= 2.92D-05

 Cycle  15  Pass 1  IDiag  1:
 RMSU=  1.34D-07    CP:  9.80D-01  8.00D-01  4.53D-01  1.94D-02  8.81D-01
                    CP:  9.10D-01  9.97D-01  9.03D-01  1.00D+00  8.86D-01
                    CP:  9.97D-01  1.07D+00  9.85D-01  7.77D-01
 E= -1212.44874522692     Delta-E=       -0.000000003537 Rises=F Damp=F
 DIIS: error= 1.14D-06 at cycle  15 NSaved=  15.
 NSaved=15 IEnMin=15 EnMin= -1212.44874522692     IErMin=15 ErrMin= 1.14D-06
 ErrMax= 1.14D-06  0.00D+00 EMaxC= 1.00D-01 BMatC= 4.07D-10 BMatP= 3.74D-09
 IDIUse=1 WtCom= 1.00D+00 WtEn= 0.00D+00
 Coeff-Com:  0.161D-04-0.266D-04-0.153D-04 0.981D-06-0.259D-04 0.809D-04
 Coeff-Com:  0.847D-03 0.511D-03-0.472D-02-0.108D-01-0.345D-01-0.321D-03
 Coeff-Com:  0.109D+00 0.394D+00 0.546D+00
 Coeff:      0.161D-04-0.266D-04-0.153D-04 0.981D-06-0.259D-04 0.809D-04
 Coeff:      0.847D-03 0.511D-03-0.472D-02-0.108D-01-0.345D-01-0.321D-03
 Coeff:      0.109D+00 0.394D+00 0.546D+00
 Gap=     0.063 Goal=   None    Shift=    0.000
 RMSDP=9.73D-08 MaxDP=3.28D-06 DE=-3.54D-09 OVMax= 8.09D-06

 Cycle  16  Pass 1  IDiag  1:
 RMSU=  4.91D-08    CP:  9.80D-01  8.00D-01  4.53D-01  1.93D-02  8.81D-01
                    CP:  9.10D-01  9.97D-01  9.03D-01  1.01D+00  8.87D-01
                    CP:  9.99D-01  1.09D+00  1.00D+00  9.05D-01  6.54D-01
 E= -1212.44874522733     Delta-E=       -0.000000000406 Rises=F Damp=F
 DIIS: error= 2.63D-07 at cycle  16 NSaved=  16.
 NSaved=16 IEnMin=16 EnMin= -1212.44874522733     IErMin=16 ErrMin= 2.63D-07
 ErrMax= 2.63D-07  0.00D+00 EMaxC= 1.00D-01 BMatC= 4.18D-11 BMatP= 4.07D-10
 IDIUse=1 WtCom= 1.00D+00 WtEn= 0.00D+00
 Coeff-Com:  0.395D-05-0.607D-05-0.826D-05 0.123D-06-0.147D-04 0.204D-04
 Coeff-Com:  0.272D-03 0.255D-03-0.816D-03-0.374D-02-0.110D-01-0.616D-02
 Coeff-Com:  0.156D-01 0.116D+00 0.288D+00 0.602D+00
 Coeff:      0.395D-05-0.607D-05-0.826D-05 0.123D-06-0.147D-04 0.204D-04
 Coeff:      0.272D-03 0.255D-03-0.816D-03-0.374D-02-0.110D-01-0.616D-02
 Coeff:      0.156D-01 0.116D+00 0.288D+00 0.602D+00
 Gap=     0.063 Goal=   None    Shift=    0.000
 RMSDP=2.55D-08 MaxDP=1.04D-06 DE=-4.06D-10 OVMax= 2.35D-06

 Cycle  17  Pass 1  IDiag  1:
 RMSU=  1.44D-08    CP:  9.80D-01  8.00D-01  4.53D-01  1.93D-02  8.81D-01
                    CP:  9.10D-01  9.97D-01  9.03D-01  1.01D+00  8.87D-01
                    CP:  1.00D+00  1.09D+00  1.01D+00  9.11D-01  7.35D-01
                    CP:  8.66D-01
 E= -1212.44874522736     Delta-E=       -0.000000000032 Rises=F Damp=F
 DIIS: error= 6.23D-08 at cycle  17 NSaved=  17.
 NSaved=17 IEnMin=17 EnMin= -1212.44874522736     IErMin=17 ErrMin= 6.23D-08
 ErrMax= 6.23D-08  0.00D+00 EMaxC= 1.00D-01 BMatC= 3.74D-12 BMatP= 4.18D-11
 IDIUse=1 WtCom= 1.00D+00 WtEn= 0.00D+00
 Coeff-Com: -0.203D-06 0.531D-06-0.291D-05-0.456D-07-0.498D-05 0.118D-05
 Coeff-Com:  0.494D-04 0.996D-04 0.178D-03-0.629D-03-0.157D-02-0.261D-02
 Coeff-Com: -0.631D-02 0.105D-01 0.975D-01 0.326D+00 0.576D+00
 Coeff:     -0.203D-06 0.531D-06-0.291D-05-0.456D-07-0.498D-05 0.118D-05
 Coeff:      0.494D-04 0.996D-04 0.178D-03-0.629D-03-0.157D-02-0.261D-02
 Coeff:     -0.631D-02 0.105D-01 0.975D-01 0.326D+00 0.576D+00
 Gap=     0.063 Goal=   None    Shift=    0.000
 RMSDP=9.21D-09 MaxDP=2.72D-07 DE=-3.21D-11 OVMax= 1.03D-06

 Error on total polarization charges =  0.01528
 SCF Done:  E(RB3LYP) =  -1212.44874523     A.U. after   17 cycles
            NFock= 17  Conv=0.92D-08     -V/T= 2.0060
 KE= 1.205252867822D+03 PE=-5.740749569872D+03 EE= 1.863628224282D+03
 Leave Link  502 at Sun Jul 18 16:05:10 2021, MaxMem=   104857600 cpu:             948.8 elap:             244.6
 (Enter /dades/curu/g16A03_MST/g16/l601.exe)
 Copying SCF densities to generalized density rwf, IOpCl= 0 IROHF=0.

 **********************************************************************

            Population analysis using the SCF density.

 **********************************************************************

 Orbital symmetries:
       Occupied  (A) (A) (A) (A) (A) (A) (A) (A) (A) (A) (A) (A)
                 (A) (A) (A) (A) (A) (A) (A) (A) (A) (A) (A) (A)
                 (A) (A) (A) (A) (A) (A) (A) (A) (A) (A) (A) (A)
                 (A) (A) (A) (A) (A) (A) (A) (A) (A) (A) (A) (A)
                 (A) (A) (A) (A) (A) (A) (A) (A) (A) (A) (A) (A)
                 (A) (A) (A) (A) (A) (A) (A) (A) (A) (A) (A) (A)
       Virtual   (A) (A) (A) (A) (A) (A) (A) (A) (A) (A) (A) (A)
                 (A) (A) (A) (A) (A) (A) (A) (A) (A) (A) (A) (A)
                 (A) (A) (A) (A) (A) (A) (A) (A) (A) (A) (A) (A)
                 (A) (A) (A) (A) (A) (A) (A) (A) (A) (A) (A) (A)
                 (A) (A) (A) (A) (A) (A) (A) (A) (A) (A) (A) (A)
                 (A) (A) (A) (A) (A) (A) (A) (A) (A) (A) (A) (A)
                 (A) (A) (A) (A) (A) (A) (A) (A) (A) (A) (A) (A)
                 (A) (A) (A) (A) (A) (A) (A) (A) (A) (A) (A) (A)
                 (A) (A) (A) (A) (A) (A) (A) (A) (A) (A) (A) (A)
                 (A) (A) (A) (A) (A) (A) (A) (A) (A) (A) (A) (A)
                 (A) (A) (A) (A) (A) (A) (A) (A) (A) (A) (A) (A)
                 (A) (A) (A) (A) (A) (A) (A) (A) (A) (A) (A) (A)
                 (A) (A) (A) (A) (A) (A) (A) (A) (A) (A) (A) (A)
                 (A) (A) (A) (A) (A) (A) (A) (A) (A) (A) (A) (A)
                 (A) (A) (A) (A) (A) (A) (A) (A) (A) (A) (A) (A)
                 (A) (A) (A) (A) (A) (A) (A) (A) (A) (A) (A) (A)
                 (A) (A) (A) (A) (A) (A) (A) (A) (A) (A) (A) (A)
                 (A) (A) (A) (A) (A) (A) (A) (A) (A) (A) (A) (A)
                 (A) (A) (A) (A) (A) (A) (A) (A) (A) (A) (A) (A)
                 (A) (A) (A) (A) (A) (A) (A) (A) (A) (A) (A) (A)
                 (A) (A) (A) (A) (A)
 The electronic state is 1-A.
 Alpha  occ. eigenvalues --  -88.94232 -19.11252 -14.44666 -14.39422 -14.37346
 Alpha  occ. eigenvalues --  -14.37174 -14.36546 -10.33833 -10.33018 -10.28557
 Alpha  occ. eigenvalues --  -10.26284 -10.24903 -10.24474 -10.22745 -10.21526
 Alpha  occ. eigenvalues --  -10.21128 -10.21103 -10.21058 -10.18874  -8.00364
 Alpha  occ. eigenvalues --   -5.96751  -5.96395  -5.96077  -1.16837  -1.05550
 Alpha  occ. eigenvalues --   -1.02841  -0.96753  -0.94689  -0.91570  -0.86497
 Alpha  occ. eigenvalues --   -0.82320  -0.80199  -0.77282  -0.74710  -0.73234
 Alpha  occ. eigenvalues --   -0.70062  -0.66811  -0.64434  -0.63492  -0.62794
 Alpha  occ. eigenvalues --   -0.61581  -0.58609  -0.58238  -0.55801  -0.54497
 Alpha  occ. eigenvalues --   -0.53979  -0.50341  -0.48837  -0.48383  -0.47353
 Alpha  occ. eigenvalues --   -0.46699  -0.45928  -0.45138  -0.44487  -0.42828
 Alpha  occ. eigenvalues --   -0.41387  -0.40417  -0.39924  -0.39210  -0.38143
 Alpha  occ. eigenvalues --   -0.37227  -0.36670  -0.36334  -0.35286  -0.32446
 Alpha  occ. eigenvalues --   -0.31263  -0.30505  -0.29056  -0.27773  -0.25668
 Alpha  occ. eigenvalues --   -0.24565  -0.23463
 Alpha virt. eigenvalues --   -0.17180  -0.05847  -0.03121  -0.02573  -0.01392
 Alpha virt. eigenvalues --    0.03176   0.04357   0.06791   0.07505   0.08627
 Alpha virt. eigenvalues --    0.09505   0.10091   0.10855   0.11787   0.12614
 Alpha virt. eigenvalues --    0.13073   0.13882   0.14366   0.15291   0.15863
 Alpha virt. eigenvalues --    0.16445   0.17393   0.18274   0.18478   0.20165
 Alpha virt. eigenvalues --    0.22848   0.23192   0.25149   0.25708   0.26786
 Alpha virt. eigenvalues --    0.28161   0.28499   0.29085   0.31780   0.32512
 Alpha virt. eigenvalues --    0.33230   0.34158   0.35314   0.36625   0.37980
 Alpha virt. eigenvalues --    0.39713   0.40243   0.41846   0.43272   0.47875
 Alpha virt. eigenvalues --    0.48849   0.49852   0.49959   0.51115   0.52218
 Alpha virt. eigenvalues --    0.52764   0.52992   0.54305   0.55032   0.55237
 Alpha virt. eigenvalues --    0.55944   0.56439   0.57155   0.57556   0.57985
 Alpha virt. eigenvalues --    0.58731   0.59570   0.60118   0.61493   0.63320
 Alpha virt. eigenvalues --    0.64251   0.65043   0.66943   0.68339   0.69354
 Alpha virt. eigenvalues --    0.69610   0.70858   0.71594   0.73434   0.73985
 Alpha virt. eigenvalues --    0.74912   0.75336   0.76853   0.77226   0.78550
 Alpha virt. eigenvalues --    0.79349   0.80360   0.81134   0.81249   0.81728
 Alpha virt. eigenvalues --    0.82414   0.82946   0.83680   0.84287   0.85457
 Alpha virt. eigenvalues --    0.85895   0.86251   0.86830   0.87235   0.88209
 Alpha virt. eigenvalues --    0.88560   0.89466   0.90549   0.91412   0.91896
 Alpha virt. eigenvalues --    0.92826   0.93013   0.93774   0.95425   0.96072
 Alpha virt. eigenvalues --    0.96395   0.97834   0.98644   0.99128   1.00933
 Alpha virt. eigenvalues --    1.02039   1.03902   1.05303   1.06350   1.09517
 Alpha virt. eigenvalues --    1.10570   1.11446   1.12934   1.14278   1.15828
 Alpha virt. eigenvalues --    1.18172   1.20818   1.22059   1.24106   1.26756
 Alpha virt. eigenvalues --    1.29237   1.29797   1.30830   1.33654   1.34820
 Alpha virt. eigenvalues --    1.35616   1.38949   1.39128   1.40307   1.42587
 Alpha virt. eigenvalues --    1.44820   1.44946   1.49357   1.50225   1.50427
 Alpha virt. eigenvalues --    1.51825   1.54008   1.57456   1.59462   1.64173
 Alpha virt. eigenvalues --    1.66806   1.67399   1.68118   1.72398   1.73487
 Alpha virt. eigenvalues --    1.74465   1.77600   1.78087   1.79917   1.80776
 Alpha virt. eigenvalues --    1.81514   1.82734   1.84648   1.86150   1.86309
 Alpha virt. eigenvalues --    1.88170   1.88839   1.89912   1.91131   1.92185
 Alpha virt. eigenvalues --    1.93299   1.95603   1.97960   1.98955   2.02864
 Alpha virt. eigenvalues --    2.04559   2.06133   2.07839   2.09338   2.12700
 Alpha virt. eigenvalues --    2.13010   2.13722   2.14601   2.15659   2.16507
 Alpha virt. eigenvalues --    2.17765   2.20169   2.21460   2.23140   2.25180
 Alpha virt. eigenvalues --    2.25655   2.27129   2.27829   2.29173   2.33265
 Alpha virt. eigenvalues --    2.33799   2.36714   2.38196   2.40409   2.42591
 Alpha virt. eigenvalues --    2.45028   2.46905   2.48288   2.50253   2.50523
 Alpha virt. eigenvalues --    2.54571   2.55719   2.58258   2.58680   2.61467
 Alpha virt. eigenvalues --    2.64391   2.66847   2.68015   2.69300   2.70823
 Alpha virt. eigenvalues --    2.71748   2.73015   2.75174   2.78053   2.79201
 Alpha virt. eigenvalues --    2.83370   2.84726   2.92396   2.96187   2.96894
 Alpha virt. eigenvalues --    3.02384   3.03663   3.11452   3.19152   3.24559
 Alpha virt. eigenvalues --    3.37184   3.80824   3.86553   3.91061   3.99411
 Alpha virt. eigenvalues --    4.04343   4.05894   4.08184   4.09516   4.11878
 Alpha virt. eigenvalues --    4.13720   4.17765   4.22334   4.27715   4.30407
 Alpha virt. eigenvalues --    4.34420   4.43626   4.49113   4.53041   4.73003
          Condensed to atoms (all electrons):
               1          2          3          4          5          6
     1  C    5.371744   0.360751   0.342233   0.353417   0.348810  -0.095702
     2  H    0.360751   0.508851  -0.015481  -0.019481  -0.027579  -0.000749
     3  H    0.342233  -0.015481   0.531249  -0.025648  -0.016479   0.003259
     4  H    0.353417  -0.019481  -0.025648   0.525141  -0.025451   0.004629
     5  C    0.348810  -0.027579  -0.016479  -0.025451   4.295396   0.654108
     6  O   -0.095702  -0.000749   0.003259   0.004629   0.654108   8.059256
     7  N   -0.145891  -0.000214   0.003867   0.006690   0.243674  -0.120118
     8  H    0.001807   0.000330   0.001178  -0.000136  -0.021356   0.003818
     9  C    0.007274  -0.000088  -0.000348  -0.000126  -0.015117   0.006113
    10  C   -0.000459  -0.000005   0.000052   0.000006   0.001118  -0.000506
    11  C    0.000002   0.000000   0.000000  -0.000000   0.000050  -0.000003
    12  C    0.000001  -0.000000  -0.000000  -0.000000   0.000005   0.000004
    13  H    0.000000  -0.000000  -0.000000  -0.000000  -0.000000   0.000000
    14  H   -0.000000   0.000000  -0.000000   0.000000  -0.000000   0.000000
    15  H   -0.000042   0.000000   0.000010   0.000000   0.000227  -0.000005
    16  C    0.000347  -0.000007  -0.000015   0.000001  -0.001909   0.004279
    17  H   -0.000080  -0.000022  -0.000000   0.000006   0.002599   0.002079
    18  C    0.000002  -0.000001   0.000000  -0.000000   0.000116   0.000051
    19  C   -0.000000   0.000000   0.000000   0.000000  -0.000010  -0.000009
    20  N    0.000000   0.000000  -0.000000  -0.000000   0.000000  -0.000000
    21  C    0.000000  -0.000000  -0.000000  -0.000000  -0.000000   0.000002
    22  H   -0.000000   0.000000   0.000000   0.000000  -0.000001  -0.000000
    23  S    0.000000  -0.000000  -0.000000  -0.000000   0.000000   0.000000
    24  C   -0.000000   0.000000   0.000000   0.000000  -0.000000  -0.000000
    25  N   -0.000000   0.000000   0.000000   0.000000  -0.000000  -0.000000
    26  C   -0.000000   0.000000   0.000000   0.000000  -0.000000  -0.000000
    27  N    0.000000  -0.000000  -0.000000  -0.000000  -0.000000   0.000000
    28  H    0.000000  -0.000000  -0.000000  -0.000000  -0.000000   0.000000
    29  H    0.000000  -0.000000  -0.000000   0.000000   0.000000   0.000000
    30  N   -0.000000   0.000000   0.000000   0.000000  -0.000000  -0.000000
    31  H   -0.000000   0.000000   0.000000   0.000000  -0.000000  -0.000000
    32  H   -0.000000   0.000000   0.000000   0.000000   0.000000  -0.000000
    33  H   -0.000000   0.000000   0.000000   0.000000  -0.000000  -0.000000
               7          8          9         10         11         12
     1  C   -0.145891   0.001807   0.007274  -0.000459   0.000002   0.000001
     2  H   -0.000214   0.000330  -0.000088  -0.000005   0.000000  -0.000000
     3  H    0.003867   0.001178  -0.000348   0.000052   0.000000  -0.000000
     4  H    0.006690  -0.000136  -0.000126   0.000006  -0.000000  -0.000000
     5  C    0.243674  -0.021356  -0.015117   0.001118   0.000050   0.000005
     6  O   -0.120118   0.003818   0.006113  -0.000506  -0.000003   0.000004
     7  N    7.298660   0.300766   0.196206  -0.059132   0.005673   0.000729
     8  H    0.300766   0.374030  -0.022180  -0.003396  -0.000065   0.000032
     9  C    0.196206  -0.022180   4.611941   0.522250  -0.014671  -0.039493
    10  C   -0.059132  -0.003396   0.522250   4.987935   0.503669  -0.041143
    11  C    0.005673  -0.000065  -0.014671   0.503669   4.931443   0.489589
    12  C    0.000729   0.000032  -0.039493  -0.041143   0.489589   5.050240
    13  H    0.000004  -0.000000   0.000360   0.005300  -0.043122   0.361396
    14  H   -0.000132  -0.000002   0.003102  -0.032817   0.357287  -0.037164
    15  H   -0.003736   0.001809  -0.039765   0.360237  -0.041637   0.004822
    16  C   -0.046152   0.003049   0.531901  -0.059964  -0.039262  -0.064636
    17  H   -0.006541   0.000049  -0.031114   0.005191  -0.000193   0.006173
    18  C    0.003020  -0.000035  -0.004858  -0.033843  -0.008452   0.494784
    19  C   -0.000143   0.000004   0.005121   0.000552   0.006032  -0.053849
    20  N    0.000000  -0.000000  -0.000058  -0.000009   0.000312  -0.002388
    21  C   -0.000006  -0.000000   0.000514   0.000001  -0.000179   0.007508
    22  H   -0.000003  -0.000000   0.000058   0.000002  -0.000006  -0.000111
    23  S   -0.000000   0.000000  -0.000001  -0.000001   0.000012   0.000032
    24  C   -0.000000   0.000000   0.000000   0.000000  -0.000004  -0.000252
    25  N   -0.000000  -0.000000  -0.000000   0.000000  -0.000000  -0.000009
    26  C    0.000000  -0.000000  -0.000000  -0.000000   0.000000   0.000010
    27  N   -0.000000   0.000000   0.000000   0.000000  -0.000000  -0.000001
    28  H   -0.000000   0.000000   0.000000   0.000000   0.000000  -0.000000
    29  H   -0.000000   0.000000   0.000000   0.000000   0.000000   0.000000
    30  N    0.000000  -0.000000   0.000000  -0.000000   0.000000   0.000000
    31  H    0.000000  -0.000000  -0.000000  -0.000000   0.000000   0.000000
    32  H    0.000000   0.000000  -0.000000  -0.000000   0.000000  -0.000000
    33  H   -0.000000  -0.000000  -0.000000   0.000000  -0.000000  -0.000000
              13         14         15         16         17         18
     1  C    0.000000  -0.000000  -0.000042   0.000347  -0.000080   0.000002
     2  H   -0.000000   0.000000   0.000000  -0.000007  -0.000022  -0.000001
     3  H   -0.000000  -0.000000   0.000010  -0.000015  -0.000000   0.000000
     4  H   -0.000000   0.000000   0.000000   0.000001   0.000006  -0.000000
     5  C   -0.000000  -0.000000   0.000227  -0.001909   0.002599   0.000116
     6  O    0.000000   0.000000  -0.000005   0.004279   0.002079   0.000051
     7  N    0.000004  -0.000132  -0.003736  -0.046152  -0.006541   0.003020
     8  H   -0.000000  -0.000002   0.001809   0.003049   0.000049  -0.000035
     9  C    0.000360   0.003102  -0.039765   0.531901  -0.031114  -0.004858
    10  C    0.005300  -0.032817   0.360237  -0.059964   0.005191  -0.033843
    11  C   -0.043122   0.357287  -0.041637  -0.039262  -0.000193  -0.008452
    12  C    0.361396  -0.037164   0.004822  -0.064636   0.006173   0.494784
    13  H    0.573137  -0.004721  -0.000205   0.004832  -0.000129  -0.043504
    14  H   -0.004721   0.557898  -0.004597   0.000868   0.000012   0.003114
    15  H   -0.000205  -0.004597   0.559130   0.003918  -0.000094   0.000404
    16  C    0.004832   0.000868   0.003918   5.029277   0.347384   0.503042
    17  H   -0.000129   0.000012  -0.000094   0.347384   0.556480  -0.041567
    18  C   -0.043504   0.003114   0.000404   0.503042  -0.041567   4.806403
    19  C   -0.008654  -0.000177   0.000008  -0.039300  -0.009537   0.348267
    20  N    0.004935  -0.000001  -0.000000   0.002861  -0.000042  -0.058810
    21  C    0.000328   0.000002  -0.000000  -0.015705   0.008160  -0.062383
    22  H   -0.000012   0.000000  -0.000000   0.002184   0.001610  -0.005147
    23  S    0.000023  -0.000000   0.000000   0.000361  -0.000174   0.004684
    24  C   -0.000123  -0.000000  -0.000000   0.000027  -0.000018   0.007498
    25  N   -0.000006   0.000000  -0.000000   0.000001   0.000000  -0.000111
    26  C    0.000024  -0.000000  -0.000000  -0.000000  -0.000000  -0.000020
    27  N   -0.000000   0.000000   0.000000   0.000000   0.000000   0.000002
    28  H    0.000000   0.000000   0.000000   0.000000   0.000000  -0.000000
    29  H    0.000001   0.000000  -0.000000  -0.000000   0.000000  -0.000006
    30  N    0.000000  -0.000000  -0.000000  -0.000000   0.000000  -0.000000
    31  H    0.000000  -0.000000  -0.000000  -0.000000  -0.000000   0.000000
    32  H   -0.000000   0.000000  -0.000000  -0.000000  -0.000000   0.000000
    33  H   -0.000000  -0.000000   0.000000  -0.000000  -0.000000   0.000002
              19         20         21         22         23         24
     1  C   -0.000000   0.000000   0.000000  -0.000000   0.000000  -0.000000
     2  H    0.000000   0.000000  -0.000000   0.000000  -0.000000   0.000000
     3  H    0.000000  -0.000000  -0.000000   0.000000  -0.000000   0.000000
     4  H    0.000000  -0.000000  -0.000000   0.000000  -0.000000   0.000000
     5  C   -0.000010   0.000000  -0.000000  -0.000001   0.000000  -0.000000
     6  O   -0.000009  -0.000000   0.000002  -0.000000   0.000000  -0.000000
     7  N   -0.000143   0.000000  -0.000006  -0.000003  -0.000000  -0.000000
     8  H    0.000004  -0.000000  -0.000000  -0.000000   0.000000   0.000000
     9  C    0.005121  -0.000058   0.000514   0.000058  -0.000001   0.000000
    10  C    0.000552  -0.000009   0.000001   0.000002  -0.000001   0.000000
    11  C    0.006032   0.000312  -0.000179  -0.000006   0.000012  -0.000004
[...]
 Alpha virt. eigenvalues --    4.01779   4.11855   4.17302   4.21552   4.95813
          Condensed to atoms (all electrons):
               1          2          3          4          5          6
     1  C    4.861231   0.311854   0.180691   0.386579  -0.098547  -0.087867
     2  H    0.311854   0.704102  -0.055638  -0.040914   0.002070   0.002149
     3  H    0.180691  -0.055638   1.070614  -0.104337   0.240415  -0.000648
     4  H    0.386579  -0.040914  -0.104337   0.756429  -0.089705   0.018830
     5  C   -0.098547   0.002070   0.240415  -0.089705   5.792612   0.140772
     6  O   -0.087867   0.002149  -0.000648   0.018830   0.140772   8.806840
     7  N    0.012883   0.028146  -0.164758   0.068533   0.109275  -0.111246
     8  H   -0.074890  -0.001689   0.003860  -0.006012  -0.089454  -0.011333
     9  C   -0.015706  -0.020701  -0.038230  -0.013831  -0.622243   0.162274
    10  C   -0.107963   0.008135  -0.037242  -0.005839  -0.679671   0.106211
    11  C   -0.015466   0.000662  -0.000354  -0.000907  -0.016987   0.000871
    12  C    0.005684   0.000357  -0.005678   0.000435   0.129788  -0.012656
    13  H    0.000623  -0.000019   0.000027   0.000040  -0.002809  -0.000324
    14  H   -0.000883  -0.000049   0.000007  -0.000006   0.004941  -0.000572
    15  H    0.010257   0.000654  -0.000865   0.000383   0.003505   0.005392
    16  C    0.060915   0.000407   0.044017   0.012603   0.246574   0.034529
    17  H    0.001395  -0.000804  -0.000149   0.000334   0.100709  -0.053732
    18  C   -0.027824  -0.003870   0.011814  -0.000801   0.351483  -0.129295
    19  C    0.040586   0.001712   0.000258   0.002706   0.000108   0.010205
    20  N    0.001128   0.000025  -0.000002   0.000117   0.021516  -0.000453
    21  C   -0.018857  -0.000731  -0.000075  -0.001361  -0.017983   0.005660
    22  H   -0.003175   0.000080   0.000131  -0.000338   0.020411  -0.008815
    23  S   -0.000172  -0.000020   0.000045  -0.000055   0.000994   0.001881
    24  C    0.001334   0.000104   0.000033   0.000108   0.008645  -0.000836
    25  N    0.000006   0.000001   0.000001  -0.000001  -0.000057   0.000013
    26  C   -0.000001   0.000001   0.000001   0.000000  -0.000149  -0.000031
    27  N   -0.000007  -0.000001  -0.000001  -0.000000   0.000001   0.000003
    28  H   -0.000002  -0.000000  -0.000000   0.000000   0.000013  -0.000002
    29  H    0.000047   0.000006   0.000001  -0.000004  -0.000200   0.000076
    30  N    0.000000  -0.000000   0.000000  -0.000000   0.000000   0.000000
    31  H    0.000000   0.000000   0.000000   0.000000   0.000001   0.000000
    32  H   -0.000000  -0.000000  -0.000000  -0.000000  -0.000005   0.000000
    33  H    0.000012   0.000000   0.000001   0.000001   0.000107   0.000005
               7          8          9         10         11         12
     1  C    0.012883  -0.074890  -0.015706  -0.107963  -0.015466   0.005684
     2  H    0.028146  -0.001689  -0.020701   0.008135   0.000662   0.000357
     3  H   -0.164758   0.003860  -0.038230  -0.037242  -0.000354  -0.005678
     4  H    0.068533  -0.006012  -0.013831  -0.005839  -0.000907   0.000435
     5  C    0.109275  -0.089454  -0.622243  -0.679671  -0.016987   0.129788
     6  O   -0.111246  -0.011333   0.162274   0.106211   0.000871  -0.012656
     7  N    8.088021   0.248008  -1.248196   1.146267  -0.595584   0.388704
     8  H    0.248008   1.009420   0.118152  -0.116809   0.043793   0.040781
     9  C   -1.248196   0.118152  22.189038 -10.353524   6.069517  -5.044516
    10  C    1.146267  -0.116809 -10.353524  21.410852  -6.974989   3.992070
    11  C   -0.595584   0.043793   6.069517  -6.974989  18.266058  -6.991721
    12  C    0.388704   0.040781  -5.044516   3.992070  -6.991721  23.277369
    13  H    0.004201  -0.003693   0.055151  -0.205740   0.495201  -1.577971
    14  H    0.001084   0.006960  -0.544335   0.659573  -1.384054   1.173580
    15  H   -0.233548   0.003470   1.870286  -2.226413   0.634099  -0.548797
    16  C    0.596646  -0.121886  -8.539521   4.854847  -5.844156  -0.403364
    17  H   -0.160781   0.001996   0.401003  -0.250846   0.119651  -0.160619
    18  C   -0.528094  -0.000628   2.420467  -6.489634   2.659373  -7.400014
    19  C    0.001472  -0.008253  -0.978581   0.573508  -0.905233  -1.137105
    20  N   -0.002416   0.001915  -0.000173  -0.034236   0.003097   0.312787
    21  C   -0.010765   0.006650   0.708986  -0.340464   0.267301  -1.119174
    22  H   -0.003703   0.001732  -0.050762  -0.045450   0.027401   0.125014
    23  S    0.002013  -0.000389  -0.045295   0.027998  -0.033634   0.045781
    24  C   -0.010881   0.000789   0.167799  -0.084936   0.224363  -0.058023
    25  N    0.000314  -0.000057  -0.013955   0.009606  -0.032800  -0.006164
    26  C   -0.000014  -0.000060   0.000484  -0.005329   0.024108  -0.086940
    27  N    0.000022   0.000046   0.000696   0.004788  -0.012204   0.035057
    28  H    0.000024  -0.000000   0.000340   0.000077   0.010198   0.007704
    29  H   -0.000200   0.000025  -0.008939   0.010441  -0.038744  -0.017887
    30  N   -0.000002  -0.000001  -0.000131   0.000269  -0.002371  -0.002423
    31  H   -0.000001  -0.000001  -0.000069  -0.000023  -0.000136  -0.000733
    32  H   -0.000001   0.000000   0.000065   0.000004  -0.000039   0.000437
    33  H    0.000012  -0.000004  -0.000677   0.000348   0.000004  -0.001973
              13         14         15         16         17         18
     1  C    0.000623  -0.000883   0.010257   0.060915   0.001395  -0.027824
     2  H   -0.000019  -0.000049   0.000654   0.000407  -0.000804  -0.003870
     3  H    0.000027   0.000007  -0.000865   0.044017  -0.000149   0.011814
     4  H    0.000040  -0.000006   0.000383   0.012603   0.000334  -0.000801
     5  C   -0.002809   0.004941   0.003505   0.246574   0.100709   0.351483
     6  O   -0.000324  -0.000572   0.005392   0.034529  -0.053732  -0.129295
     7  N    0.004201   0.001084  -0.233548   0.596646  -0.160781  -0.528094
     8  H   -0.003693   0.006960   0.003470  -0.121886   0.001996  -0.000628
     9  C    0.055151  -0.544335   1.870286  -8.539521   0.401003   2.420467
    10  C   -0.205740   0.659573  -2.226413   4.854847  -0.250846  -6.489634
    11  C    0.495201  -1.384054   0.634099  -5.844156   0.119651   2.659373
    12  C   -1.577971   1.173580  -0.548797  -0.403364  -0.160619  -7.400014
    13  H    2.265564  -0.113899  -0.003623  -0.327915  -0.004412   1.023934
    14  H   -0.113899   1.801664  -0.098711   0.166109   0.009617  -0.161196
    15  H   -0.003623  -0.098711   2.252356   0.002891  -0.027415   0.058261
    16  C   -0.327915   0.166109   0.002891  26.843857  -2.068362 -10.011568
    17  H   -0.004412   0.009617  -0.027415  -2.068362   2.577665   1.178409
    18  C    1.023934  -0.161196   0.058261 -10.011568   1.178409  27.133105
    19  C    0.259589  -0.027540   0.027858   1.722638  -0.195609  -9.168996
    20  N   -0.157074   0.009407  -0.000924  -0.159882   0.010520   0.413299
    21  C    0.027195   0.005981  -0.008926  -2.378776   0.289118   3.489184
    22  H    0.006797  -0.000120  -0.000050   0.131813  -0.092600  -0.310364
    23  S    0.003029  -0.001240   0.000776   0.102233   0.000980  -0.396163
    24  C   -0.091178   0.006883  -0.001872  -0.169255  -0.005618   0.433072
    25  N    0.008328  -0.001435   0.000319   0.084189   0.001133  -0.243811
    26  C    0.011154   0.001349  -0.000079  -0.026704  -0.000560   0.011219
    27  N   -0.006100  -0.000177  -0.000033  -0.002363  -0.000200   0.007596
    28  H   -0.000731   0.000038  -0.000019  -0.002589   0.000032  -0.014277
    29  H   -0.019804   0.001873   0.000264   0.037810  -0.001121   0.047337
    30  N    0.001946  -0.000155   0.000014   0.002949   0.000106   0.002030
    31  H    0.000064   0.000005   0.000002   0.000233  -0.000017  -0.000196
    32  H   -0.000305   0.000004  -0.000001  -0.000164   0.000048   0.000827
    33  H   -0.000743   0.000000   0.000017   0.000270  -0.000581   0.001076
              19         20         21         22         23         24
     1  C    0.040586   0.001128  -0.018857  -0.003175  -0.000172   0.001334
     2  H    0.001712   0.000025  -0.000731   0.000080  -0.000020   0.000104
     3  H    0.000258  -0.000002  -0.000075   0.000131   0.000045   0.000033
     4  H    0.002706   0.000117  -0.001361  -0.000338  -0.000055   0.000108
     5  C    0.000108   0.021516  -0.017983   0.020411   0.000994   0.008645
     6  O    0.010205  -0.000453   0.005660  -0.008815   0.001881  -0.000836
     7  N    0.001472  -0.002416  -0.010765  -0.003703   0.002013  -0.010881
     8  H   -0.008253   0.001915   0.006650   0.001732  -0.000389   0.000789
     9  C   -0.978581  -0.000173   0.708986  -0.050762  -0.045295   0.167799
    10  C    0.573508  -0.034236  -0.340464  -0.045450   0.027998  -0.084936
    11  C   -0.905233   0.003097   0.267301   0.027401  -0.033634   0.224363
    12  C   -1.137105   0.312787  -1.119174   0.125014   0.045781  -0.058023
    13  H    0.259589  -0.157074   0.027195   0.006797   0.003029  -0.091178
    14  H   -0.027540   0.009407   0.005981  -0.000120  -0.001240   0.006883
    15  H    0.027858  -0.000924  -0.008926  -0.000050   0.000776  -0.001872
    16  C    1.722638  -0.159882  -2.378776   0.131813   0.102233  -0.169255
    17  H   -0.195609   0.010520   0.289118  -0.092600   0.000980  -0.005618
    18  C   -9.168996   0.413299   3.489184  -0.310364  -0.396163   0.433072
    19  C   27.775728  -1.646840  -9.349842   0.989123   0.157177  -2.126601
    20  N   -1.646840   8.180967   0.733961   0.007778  -0.215826   0.405308
    21  C   -9.349842   0.733961  14.724017  -0.555733   0.103442  -0.859629
    22  H    0.989123   0.007778  -0.555733   1.647678  -0.263193  -0.026635
    23  S    0.157177  -0.215826   0.103442  -0.263193  15.931772   0.281283
    24  C   -2.126601   0.405308  -0.859629  -0.026635   0.281283   8.456831
    25  N    0.721013  -0.185837  -0.076541  -0.015328  -0.132436  -0.386672
    26  C    0.205151   0.069195  -0.149286  -0.007911  -0.074790  -0.600103
    27  N   -0.141953  -0.020928   0.075198   0.002946  -0.008116   0.064864
    28  H    0.014037  -0.000633   0.000543   0.000054  -0.000918  -0.004365
    29  H   -0.057442  -0.010137  -0.044592  -0.003277   0.001390   0.011358
    30  N    0.016350   0.000567  -0.002571  -0.000249   0.006093   0.045777
    31  H    0.004507   0.002753  -0.003810  -0.000169  -0.000375  -0.017720
    32  H   -0.001410   0.000725   0.001566   0.000085  -0.002689  -0.027196
    33  H   -0.067584  -0.011200  -0.003748   0.000628   0.021418  -0.117182
              25         26         27         28         29         30
     1  C    0.000006  -0.000001  -0.000007  -0.000002   0.000047   0.000000
     2  H    0.000001   0.000001  -0.000001  -0.000000   0.000006  -0.000000
     3  H    0.000001   0.000001  -0.000001  -0.000000   0.000001   0.000000
     4  H   -0.000001   0.000000  -0.000000   0.000000  -0.000004  -0.000000
     5  C   -0.000057  -0.000149   0.000001   0.000013  -0.000200   0.000000
     6  O    0.000013  -0.000031   0.000003  -0.000002   0.000076   0.000000
     7  N    0.000314  -0.000014   0.000022   0.000024  -0.000200  -0.000002
     8  H   -0.000057  -0.000060   0.000046  -0.000000   0.000025  -0.000001
     9  C   -0.013955   0.000484   0.000696   0.000340  -0.008939  -0.000131
    10  C    0.009606  -0.005329   0.004788   0.000077   0.010441   0.000269
    11  C   -0.032800   0.024108  -0.012204   0.010198  -0.038744  -0.002371
    12  C   -0.006164  -0.086940   0.035057   0.007704  -0.017887  -0.002423
    13  H    0.008328   0.011154  -0.006100  -0.000731  -0.019804   0.001946
    14  H   -0.001435   0.001349  -0.000177   0.000038   0.001873  -0.000155
    15  H    0.000319  -0.000079  -0.000033  -0.000019   0.000264   0.000014
    16  C    0.084189  -0.026704  -0.002363  -0.002589   0.037810   0.002949
    17  H    0.001133  -0.000560  -0.000200   0.000032  -0.001121   0.000106
    18  C   -0.243811   0.011219   0.007596  -0.014277   0.047337   0.002030
    19  C    0.721013   0.205151  -0.141953   0.014037  -0.057442   0.016350
    20  N   -0.185837   0.069195  -0.020928  -0.000633  -0.010137   0.000567
    21  C   -0.076541  -0.149286   0.075198   0.000543  -0.044592  -0.002571
    22  H   -0.015328  -0.007911   0.002946   0.000054  -0.003277  -0.000249
    23  S   -0.132436  -0.074790  -0.008116  -0.000918   0.001390   0.006093
    24  C   -0.386672  -0.600103   0.064864  -0.004365   0.011358   0.045777
    25  N    7.465102   0.232451  -0.042420   0.015218  -0.037965  -0.104967
    26  C    0.232451   5.319773   0.138932  -0.120514  -0.120698   0.097576
    27  N   -0.042420   0.138932   6.298637   0.440640   0.414929  -0.107873
    28  H    0.015218  -0.120514   0.440640   0.859357  -0.198571  -0.004340
    29  H   -0.037965  -0.120698   0.414929  -0.198571   0.896681   0.016006
    30  N   -0.104967   0.097576  -0.107873  -0.004340   0.016006   6.397677
    31  H   -0.021354  -0.067250  -0.016365  -0.008604   0.001527   0.457585
    32  H    0.018242  -0.082103   0.005299   0.002344   0.000934   0.453470
    33  H    0.437647  -0.093501   0.010778  -0.000556   0.001230  -0.007005
              31         32         33
     1  C    0.000000  -0.000000   0.000012
     2  H    0.000000  -0.000000   0.000000
     3  H    0.000000  -0.000000   0.000001
     4  H    0.000000  -0.000000   0.000001
     5  C    0.000001  -0.000005   0.000107
     6  O    0.000000   0.000000   0.000005
     7  N   -0.000001  -0.000001   0.000012
     8  H   -0.000001   0.000000  -0.000004
     9  C   -0.000069   0.000065  -0.000677
    10  C   -0.000023   0.000004   0.000348
    11  C   -0.000136  -0.000039   0.000004
    12  C   -0.000733   0.000437  -0.001973
    13  H    0.000064  -0.000305  -0.000743
    14  H    0.000005   0.000004   0.000000
    15  H    0.000002  -0.000001   0.000017
    16  C    0.000233  -0.000164   0.000270
    17  H   -0.000017   0.000048  -0.000581
    18  C   -0.000196   0.000827   0.001076
    19  C    0.004507  -0.001410  -0.067584
    20  N    0.002753   0.000725  -0.011200
    21  C   -0.003810   0.001566  -0.003748
    22  H   -0.000169   0.000085   0.000628
    23  S   -0.000375  -0.002689   0.021418
    24  C   -0.017720  -0.027196  -0.117182
    25  N   -0.021354   0.018242   0.437647
    26  C   -0.067250  -0.082103  -0.093501
    27  N   -0.016365   0.005299   0.010778
    28  H   -0.008604   0.002344  -0.000556
    29  H    0.001527   0.000934   0.001230
    30  N    0.457585   0.453470  -0.007005
    31  H    0.784959  -0.145093   0.002844
    32  H   -0.145093   0.779352  -0.004654
    33  H    0.002844  -0.004654   0.846453
 Mulliken charges:
               1
     1  C    0.576135
     2  H    0.063972
     3  H   -0.143939
     4  H    0.017013
     5  C    0.443869
     6  O   -0.877902
     7  N   -0.625436
     8  H   -0.052440
     9  C   -0.624873
    10  C    1.154115
    11  C    0.003682
    12  C    1.040212
    13  H   -0.646501
    14  H   -0.514702
    15  H   -0.719529
    16  C    1.110972
    17  H   -0.669289
    18  C    1.644244
    19  C   -0.710739
    20  N   -0.728504
    21  C    0.504061
    22  H   -0.573799
    23  S    0.487005
    24  C    0.480151
    25  N   -0.691782
    26  C    1.324628
    27  N   -0.141692
    28  H    0.005501
    29  H    0.117645
    30  N   -0.266330
    31  H    0.027437
    32  H    0.000259
    33  H   -0.013444
 Sum of Mulliken charges =   1.00000
 Mulliken charges with hydrogens summed into heavy atoms:
               1
     1  C    0.513181
     5  C    0.443869
     6  O   -0.877902
     7  N   -0.677877
     9  C   -0.624873
    10  C    0.434586
    11  C   -0.511020
    12  C    0.393710
    16  C    0.441684
    18  C    1.644244
    19  C   -0.710739
    20  N   -0.728504
    21  C   -0.069738
    23  S    0.487005
    24  C    0.480151
    25  N   -0.705227
    26  C    1.324628
    27  N   -0.018546
    30  N   -0.238633
 Electronic spatial extent (au):  <R**2>=           8081.4023
 Charge=              1.0000 electrons
 Dipole moment (field-independent basis, Debye):
    X=             16.4385    Y=              4.3026    Z=              0.3218  Tot=             16.9952
 Quadrupole moment (field-independent basis, Debye-Ang):
   XX=             44.0545   YY=            -95.4941   ZZ=           -124.2845
   XY=             -1.5070   XZ=              3.6887   YZ=              1.2298
 Traceless Quadrupole moment (field-independent basis, Debye-Ang):
   XX=            102.6292   YY=            -36.9194   ZZ=            -65.7098
   XY=             -1.5070   XZ=              3.6887   YZ=              1.2298
 Octapole moment (field-independent basis, Debye-Ang**2):
  XXX=            497.7310  YYY=             44.3606  ZZZ=              3.4686  XYY=             79.1090
  XXY=            109.9453  XXZ=             27.4695  XZZ=              1.0543  YZZ=             -8.3662
  YYZ=             -2.1179  XYZ=              2.5743
 Hexadecapole moment (field-independent basis, Debye-Ang**3):
 XXXX=          -2540.2340 YYYY=          -1547.8220 ZZZZ=           -159.7139 XXXY=            273.2128
 XXXZ=            115.2698 YYYX=             56.9274 YYYZ=              5.2924 ZZZX=             -0.4636
 ZZZY=              1.9872 XXYY=          -1355.7077 XXZZ=          -1541.7088 YYZZ=           -345.6505
 XXYZ=             23.6929 YYXZ=             17.9473 ZZXY=             34.4212
 N-N= 1.456793744516D+03 E-N=-5.734426545763D+03  KE= 1.206010286532D+03
 Leave Link  601 at Sun Jul 18 21:12:03 2021, MaxMem=   262144000 cpu:               0.8 elap:               0.7
 (Enter /dades/curu/g16A03_MST/g16/l9999.exe)
 1\1\GINC-PIRINEUS39\SP\RMP2-FC\Aug-CC-pVDZ\C12H14N5O1S1(1+)\UBATOR02\1
 8-Jul-2021\0\\#p mp2/aug-cc-pVDZ scf=tight maxdisk=180GB geom=allcheck
 \\SET_328_BBB321_conf1.geo_165_210_060 geometry\\1,1\C,0,0.7292412217,
 -5.442578334,2.493668474\H,0,0.1449455862,-6.1959174466,1.9565642799\H
 ,0,0.3295495108,-5.352151224,3.5056706956\H,0,1.7599788643,-5.79779689
 54,2.5439539024\C,0,0.699678859,-4.143046285,1.7098152786\O,0,1.365695
 6837,-3.9883362321,0.6908147129\N,0,-0.1450010396,-3.1887488903,2.2268
 837009\H,0,-0.6404643471,-3.4444984884,3.0687975651\C,0,-0.4485959949,
 -1.9073802406,1.7269206928\C,0,-1.3922909715,-1.1465833329,2.437522241
 2\C,0,-1.7311867273,0.1277063731,1.9974580181\C,0,-1.1443352385,0.6619
 460489,0.8521880286\H,0,-1.4161175783,1.6498203426,0.5062256455\H,0,-2
 .4608833668,0.7079879731,2.5518076627\H,0,-1.8539746978,-1.5559090725,
 3.3306786512\C,0,0.1470948975,-1.3724983552,0.5798988667\H,0,0.8832173
 838,-1.9654972019,0.0573240822\C,0,-0.203091911,-0.0878694352,0.136441
 5073\C,0,0.4141319218,0.4681127734,-1.0813752386\N,0,0.2322885403,1.81
 17404655,-1.3901927581\C,0,1.177684566,-0.2177905878,-1.9854349218\H,0
 ,1.4544993032,-1.2605227884,-1.987294309\S,0,1.7021182985,0.8172465283
 ,-3.2750422877\C,0,0.842494625,2.1330052185,-2.4923237793\N,0,0.849417
 8894,3.3999878741,-3.0606247378\C,0,0.1487659917,4.4918447389,-2.63004
 12539\N,0,-0.5796889371,4.4364654022,-1.5275395872\H,0,-1.1091830426,5
 .2471511986,-1.2269362613\H,0,-0.6061437685,3.5716324988,-0.9916741013
 \N,0,0.2299512742,5.6010169548,-3.3583572637\H,0,-0.2550797492,6.44076
 78572,-3.0622343048\H,0,0.7799776938,5.6310661661,-4.2098869882\H,0,1.
 4053052596,3.5456263963,-3.899676213\\Version=ES64L-G16RevA.03\State=1
 -A\HF=-1207.1605634\MP2=-1209.9768038\RMSD=6.885e-09\PG=C01 [X(C12H14N
 5O1S1)]\\@


 It is also a good rule not to put too much confidence in
 experimental results until they have been confirmed by
 Theory.
                             -- Sir Arthur Eddington
 Job cpu time:       0 days  3 hours  5 minutes 18.9 seconds.
 Elapsed time:       0 days  1 hours  3 minutes 42.8 seconds.
 File lengths (MBytes):  RWF=  87295 Int=      0 D2E=      0 Chk=     27 Scr=      1
 Normal termination of Gaussian 16 at Sun Jul 18 21:12:05 2021.
