 Entering Gaussian System, Link 0=g16
 Input=SET_328_BBB29_conf1.geo_285_180_300_OCTANOL.dat
 Output=SET_328_BBB29_conf1.geo_285_180_300_OCTANOL.log
 Initial command:
 /dades/curu/g16A03_MST/g16/l1.exe "/tmp/ubator02/1839611/Gau-84464.inp" -scrdir="/tmp/ubator02/1839611/"
 Entering Link 1 = /dades/curu/g16A03_MST/g16/l1.exe PID=     84465.
  
 Copyright (c) 1988,1990,1992,1993,1995,1998,2003,2009,2016,
            Gaussian, Inc.  All Rights Reserved.
  
 This is part of the Gaussian(R) 16 program.  It is based on
 the Gaussian(R) 09 system (copyright 2009, Gaussian, Inc.),
 the Gaussian(R) 03 system (copyright 2003, Gaussian, Inc.),
 the Gaussian(R) 98 system (copyright 1998, Gaussian, Inc.),
 the Gaussian(R) 94 system (copyright 1995, Gaussian, Inc.),
 the Gaussian 92(TM) system (copyright 1992, Gaussian, Inc.),
 the Gaussian 90(TM) system (copyright 1990, Gaussian, Inc.),
 the Gaussian 88(TM) system (copyright 1988, Gaussian, Inc.),
 the Gaussian 86(TM) system (copyright 1986, Carnegie Mellon
 University), and the Gaussian 82(TM) system (copyright 1983,
 Carnegie Mellon University). Gaussian is a federally registered
 trademark of Gaussian, Inc.
  
 This software contains proprietary and confidential information,
 including trade secrets, belonging to Gaussian, Inc.
  
 This software is provided under written license and may be
 used, copied, transmitted, or stored only in accord with that
 written license.
  
 The following legend is applicable only to US Government
 contracts under FAR:
  
                    RESTRICTED RIGHTS LEGEND
  
 Use, reproduction and disclosure by the US Government is
 subject to restrictions as set forth in subparagraphs (a)
 and (c) of the Commercial Computer Software - Restricted
 Rights clause in FAR 52.227-19.
  
 Gaussian, Inc.
 340 Quinnipiac St., Bldg. 40, Wallingford CT 06492
  
  
 ---------------------------------------------------------------
 Warning -- This program may not be used in any manner that
 competes with the business of Gaussian, Inc. or will provide
 assistance to any competitor of Gaussian, Inc.  The licensee
 of this program is prohibited from giving any competitor of
 Gaussian, Inc. access to this program.  By using this program,
 the user acknowledges that Gaussian, Inc. is engaged in the
 business of creating and licensing software in the field of
 computational chemistry and represents and warrants to the
 licensee that it is not a competitor of Gaussian, Inc. and that
 it will not use this program in any manner prohibited above.
 ---------------------------------------------------------------
  

 Cite this work as:
 Gaussian 16, Revision A.03,
 M. J. Frisch, G. W. Trucks, H. B. Schlegel, G. E. Scuseria, 
 M. A. Robb, J. R. Cheeseman, G. Scalmani, V. Barone, 
 G. A. Petersson, H. Nakatsuji, X. Li, M. Caricato, A. V. Marenich, 
 J. Bloino, B. G. Janesko, R. Gomperts, B. Mennucci, H. P. Hratchian, 
 J. V. Ortiz, A. F. Izmaylov, J. L. Sonnenberg, D. Williams-Young, 
 F. Ding, F. Lipparini, F. Egidi, J. Goings, B. Peng, A. Petrone, 
 T. Henderson, D. Ranasinghe, V. G. Zakrzewski, J. Gao, N. Rega, 
 G. Zheng, W. Liang, M. Hada, M. Ehara, K. Toyota, R. Fukuda, 
 J. Hasegawa, M. Ishida, T. Nakajima, Y. Honda, O. Kitao, H. Nakai, 
 T. Vreven, K. Throssell, J. A. Montgomery, Jr., J. E. Peralta, 
 F. Ogliaro, M. J. Bearpark, J. J. Heyd, E. N. Brothers, K. N. Kudin, 
 V. N. Staroverov, T. A. Keith, R. Kobayashi, J. Normand, 
 K. Raghavachari, A. P. Rendell, J. C. Burant, S. S. Iyengar, 
 J. Tomasi, M. Cossi, J. M. Millam, M. Klene, C. Adamo, R. Cammi, 
 J. W. Ochterski, R. L. Martin, K. Morokuma, O. Farkas, 
 J. B. Foresman, and D. J. Fox, Gaussian, Inc., Wallingford CT, 2016.
 
 ******************************************
 Gaussian 16:  ES64L-G16RevA.03 25-Dec-2016
                18-Jul-2021 
 ******************************************
 %mem=800MB
 %nproc=4
 Will use up to    4 processors via shared memory.
 %chk=SET_328_BBB29_conf1.geo_285_180_300.chk
 ---------------------------------------------------------------
 #p b3lyp/6-31G(d) opt freq scrf=(iefpcm,read,solvent=n-octanol)
 ---------------------------------------------------------------
 1/18=20,19=15,26=3,38=1,40=2/1,3;
 2/9=110,12=2,17=6,18=5,40=1/2;
 3/5=1,6=6,7=1,11=2,25=1,30=1,70=2203,71=1,72=25,74=-5/1,2,3;
 4//1;
 5/5=2,38=5,53=25/2;
 6/7=2,8=2,9=2,10=2,28=1/1;
 7//1,2,3,16;
 1/18=20,19=15,26=3/3(2);
 2/9=110/2;
 99//99;
 2/9=110/2;
 3/5=1,6=6,7=1,11=2,25=1,30=1,70=2205,71=1,72=25,74=-5/1,2,3;
 4/5=5,16=3,69=1/1;
 5/5=2,38=5,53=25/2;
 7//1,2,3,16;
 1/18=20,19=15,26=3/3(-5);
 2/9=110/2;
 6/7=2,8=2,9=2,10=2,19=2,28=1/1;
 99/9=1/99;
 Leave Link    1 at Sun Jul 18 13:58:38 2021, MaxMem=   104857600 cpu:               0.0 elap:               0.0
 (Enter /dades/curu/g16A03_MST/g16/l101.exe)
 --------------------------------------------
 SET_328_BBB29_conf1.geo_285_180_300 geometry
 --------------------------------------------
 Symbolic Z-matrix:
 Charge =  1 Multiplicity = 1
 N                     1.452     1.741    -3.621 
 H                     0.862     2.459    -3.992 
 H                     2.271     1.656    -4.189 
 C                     0.729     0.471    -3.615 
 H                     1.55     -0.206    -3.369 
 H                     0.198     0.256    -4.546 
 C                    -0.059     0.179    -2.366 
 H                    -0.581    -0.75     -2.606 
 H                    -0.708     1.053    -2.279 
 C                     0.745     0.114    -1.05 
 H                     1.179     1.113    -0.964 
 H                     1.54     -0.635    -1.034 
 N                    -0.074    -0.116     0.115 
 C                    -0.403     0.853     1.017 
 C                    -1.245     1.892     0.625 
 H                    -1.729     1.904    -0.349 
 C                    -1.446     2.938     1.519 
 Cl                   -2.684     4.062     1.293 
 C                    -0.813     2.986     2.744 
 H                    -1.043     3.759     3.474 
 C                     0.143     2.044     3.073 
 H                     0.733     2.188     3.976 
 C                     0.304     0.97      2.244 
 S                     1.414    -0.32      2.772 
 C                     0.618    -1.627     1.766 
 C                    -0.101    -1.37      0.606 
 C                    -0.794    -2.403    -0.023 
 H                    -1.226    -2.166    -0.992 
 C                    -0.782    -3.646     0.524 
 H                    -1.398    -4.379     0.01 
 C                    -0.057    -3.896     1.712 
 H                    -0.021    -4.931     2.041 
 C                     0.579    -2.881     2.368 
 H                     1.009    -3.069     3.348 
 H                     1.718     1.978    -2.686 
 
 ITRead=  0  0  0  0  0  0  0  0  0  0  0  0  0  0  0  0  0  0  0  0
 ITRead=  0  0  0  0  0  0  0  0  0  0  0  0  0  0  0
 MicOpt= -1 -1 -1 -1 -1 -1 -1 -1 -1 -1 -1 -1 -1 -1 -1 -1 -1 -1 -1 -1
 MicOpt= -1 -1 -1 -1 -1 -1 -1 -1 -1 -1 -1 -1 -1 -1 -1
 NAtoms=     35 NQM=       35 NQMF=       0 NMMI=      0 NMMIF=      0
                NMic=       0 NMicF=      0.
                    Isotopes and Nuclear Properties:
 (Nuclear quadrupole moments (NQMom) in fm**2, nuclear magnetic moments (NMagM)
  in nuclear magnetons)

  Atom         1           2           3           4           5           6           7           8           9          10
 IAtWgt=          14           1           1          12           1           1          12           1           1          12
 AtmWgt=  14.0030740   1.0078250   1.0078250  12.0000000   1.0078250   1.0078250  12.0000000   1.0078250   1.0078250  12.0000000
 NucSpn=           2           1           1           0           1           1           0           1           1           0
 AtZEff=  -0.0000000  -0.0000000  -0.0000000  -0.0000000  -0.0000000  -0.0000000  -0.0000000  -0.0000000  -0.0000000  -0.0000000
 NQMom=    2.0440000   0.0000000   0.0000000   0.0000000   0.0000000   0.0000000   0.0000000   0.0000000   0.0000000   0.0000000
 NMagM=    0.4037610   2.7928460   2.7928460   0.0000000   2.7928460   2.7928460   0.0000000   2.7928460   2.7928460   0.0000000
 AtZNuc=   7.0000000   1.0000000   1.0000000   6.0000000   1.0000000   1.0000000   6.0000000   1.0000000   1.0000000   6.0000000

  Atom        11          12          13          14          15          16          17          18          19          20
 IAtWgt=           1           1          14          12          12           1          12          35          12           1
 AtmWgt=   1.0078250   1.0078250  14.0030740  12.0000000  12.0000000   1.0078250  12.0000000  34.9688527  12.0000000   1.0078250
 NucSpn=           1           1           2           0           0           1           0           3           0           1
 AtZEff=  -0.0000000  -0.0000000  -0.0000000  -0.0000000  -0.0000000  -0.0000000  -0.0000000  -0.0000000  -0.0000000  -0.0000000
 NQMom=    0.0000000   0.0000000   2.0440000   0.0000000   0.0000000   0.0000000   0.0000000  -8.1650000   0.0000000   0.0000000
 NMagM=    2.7928460   2.7928460   0.4037610   0.0000000   0.0000000   2.7928460   0.0000000   0.8218740   0.0000000   2.7928460
 AtZNuc=   1.0000000   1.0000000   7.0000000   6.0000000   6.0000000   1.0000000   6.0000000  17.0000000   6.0000000   1.0000000

  Atom        21          22          23          24          25          26          27          28          29          30
 IAtWgt=          12           1          12          32          12          12          12           1          12           1
 AtmWgt=  12.0000000   1.0078250  12.0000000  31.9720718  12.0000000  12.0000000  12.0000000   1.0078250  12.0000000   1.0078250
 NucSpn=           0           1           0           0           0           0           0           1           0           1
 AtZEff=  -0.0000000  -0.0000000  -0.0000000  -0.0000000  -0.0000000  -0.0000000  -0.0000000  -0.0000000  -0.0000000  -0.0000000
 NQMom=    0.0000000   0.0000000   0.0000000   0.0000000   0.0000000   0.0000000   0.0000000   0.0000000   0.0000000   0.0000000
 NMagM=    0.0000000   2.7928460   0.0000000   0.0000000   0.0000000   0.0000000   0.0000000   2.7928460   0.0000000   2.7928460
 AtZNuc=   6.0000000   1.0000000   6.0000000  16.0000000   6.0000000   6.0000000   6.0000000   1.0000000   6.0000000   1.0000000

  Atom        31          32          33          34          35
 IAtWgt=          12           1          12           1           1
 AtmWgt=  12.0000000   1.0078250  12.0000000   1.0078250   1.0078250
 NucSpn=           0           1           0           1           1
 AtZEff=  -0.0000000  -0.0000000  -0.0000000  -0.0000000  -0.0000000
 NQMom=    0.0000000   0.0000000   0.0000000   0.0000000   0.0000000
 NMagM=    0.0000000   2.7928460   0.0000000   2.7928460   2.7928460
 AtZNuc=   6.0000000   1.0000000   6.0000000   1.0000000   1.0000000
 Leave Link  101 at Sun Jul 18 13:58:38 2021, MaxMem=   104857600 cpu:               0.1 elap:               0.1
 (Enter /dades/curu/g16A03_MST/g16/l103.exe)

 GradGradGradGradGradGradGradGradGradGradGradGradGradGradGradGradGradGrad
 Berny optimization.
 Initialization pass.
                           ----------------------------
                           !    Initial Parameters    !
                           ! (Angstroms and Degrees)  !
 --------------------------                            --------------------------
 ! Name  Definition              Value          Derivative Info.                !
 --------------------------------------------------------------------------------
 ! R1    R(1,2)                  1.0006         estimate D2E/DX2                !
 ! R2    R(1,3)                  1.0003         estimate D2E/DX2                !
 ! R3    R(1,4)                  1.4614         estimate D2E/DX2                !
 ! R4    R(1,35)                 1.0006         estimate D2E/DX2                !
 ! R5    R(4,5)                  1.0922         estimate D2E/DX2                !
 ! R6    R(4,6)                  1.0931         estimate D2E/DX2                !
 ! R7    R(4,7)                  1.5054         estimate D2E/DX2                !
 ! R8    R(7,8)                  1.0923         estimate D2E/DX2                !
 ! R9    R(7,9)                  1.0921         estimate D2E/DX2                !
 ! R10   R(7,10)                 1.5435         estimate D2E/DX2                !
 ! R11   R(10,11)                1.0926         estimate D2E/DX2                !
 ! R12   R(10,12)                1.0924         estimate D2E/DX2                !
 ! R13   R(10,13)                1.4425         estimate D2E/DX2                !
 ! R14   R(13,14)                1.3641         estimate D2E/DX2                !
 ! R15   R(13,26)                1.347          estimate D2E/DX2                !
 ! R16   R(14,15)                1.3936         estimate D2E/DX2                !
 ! R17   R(14,23)                1.4209         estimate D2E/DX2                !
 ! R18   R(15,16)                1.0877         estimate D2E/DX2                !
 ! R19   R(15,17)                1.3906         estimate D2E/DX2                !
 ! R20   R(17,18)                1.6873         estimate D2E/DX2                !
 ! R21   R(17,19)                1.3797         estimate D2E/DX2                !
 ! R22   R(19,20)                1.0878         estimate D2E/DX2                !
 ! R23   R(19,21)                1.3819         estimate D2E/DX2                !
 ! R24   R(21,22)                1.0882         estimate D2E/DX2                !
 ! R25   R(21,23)                1.3662         estimate D2E/DX2                !
 ! R26   R(23,24)                1.7818         estimate D2E/DX2                !
 ! R27   R(24,25)                1.8314         estimate D2E/DX2                !
 ! R28   R(25,26)                1.3887         estimate D2E/DX2                !
 ! R29   R(25,33)                1.3916         estimate D2E/DX2                !
 ! R30   R(26,27)                1.3939         estimate D2E/DX2                !
 ! R31   R(27,28)                1.0871         estimate D2E/DX2                !
 ! R32   R(27,29)                1.3581         estimate D2E/DX2                !
 ! R33   R(29,30)                1.0867         estimate D2E/DX2                !
 ! R34   R(29,31)                1.414          estimate D2E/DX2                !
 ! R35   R(31,32)                1.0866         estimate D2E/DX2                !
 ! R36   R(31,33)                1.3657         estimate D2E/DX2                !
 ! R37   R(33,34)                1.0866         estimate D2E/DX2                !
 ! A1    A(2,1,3)              109.4631         estimate D2E/DX2                !
 ! A2    A(2,1,4)              109.4744         estimate D2E/DX2                !
 ! A3    A(2,1,35)             109.4666         estimate D2E/DX2                !
 ! A4    A(3,1,4)              109.4844         estimate D2E/DX2                !
 ! A5    A(3,1,35)             109.4557         estimate D2E/DX2                !
 ! A6    A(4,1,35)             109.4832         estimate D2E/DX2                !
 ! A7    A(1,4,5)               99.6546         estimate D2E/DX2                !
 ! A8    A(1,4,6)              114.0634         estimate D2E/DX2                !
 ! A9    A(1,4,7)              115.5273         estimate D2E/DX2                !
 ! A10   A(5,4,6)              115.7889         estimate D2E/DX2                !
 ! A11   A(5,4,7)               94.9549         estimate D2E/DX2                !
 ! A12   A(6,4,7)              114.4691         estimate D2E/DX2                !
 ! A13   A(4,7,8)              103.4634         estimate D2E/DX2                !
 ! A14   A(4,7,9)              102.8228         estimate D2E/DX2                !
 ! A15   A(4,7,10)             116.2885         estimate D2E/DX2                !
 ! A16   A(8,7,9)              114.4666         estimate D2E/DX2                !
 ! A17   A(8,7,10)             113.6056         estimate D2E/DX2                !
 ! A18   A(9,7,10)             105.9816         estimate D2E/DX2                !
 ! A19   A(7,10,11)            103.6217         estimate D2E/DX2                !
 ! A20   A(7,10,12)            114.8627         estimate D2E/DX2                !
 ! A21   A(7,10,13)            113.5495         estimate D2E/DX2                !
 ! A22   A(11,10,12)           109.6753         estimate D2E/DX2                !
 ! A23   A(11,10,13)           107.9231         estimate D2E/DX2                !
 ! A24   A(12,10,13)           106.9803         estimate D2E/DX2                !
 ! A25   A(10,13,14)           123.8964         estimate D2E/DX2                !
 ! A26   A(10,13,26)           117.0141         estimate D2E/DX2                !
 ! A27   A(14,13,26)           114.5478         estimate D2E/DX2                !
 ! A28   A(13,14,15)           119.2961         estimate D2E/DX2                !
 ! A29   A(13,14,23)           120.6288         estimate D2E/DX2                !
 ! A30   A(15,14,23)           118.8241         estimate D2E/DX2                !
 ! A31   A(14,15,16)           121.935          estimate D2E/DX2                !
 ! A32   A(14,15,17)           117.8587         estimate D2E/DX2                !
 ! A33   A(16,15,17)           120.2036         estimate D2E/DX2                !
 ! A34   A(15,17,18)           121.4001         estimate D2E/DX2                !
 ! A35   A(15,17,19)           122.0496         estimate D2E/DX2                !
 ! A36   A(18,17,19)           115.6174         estimate D2E/DX2                !
 ! A37   A(17,19,20)           121.57           estimate D2E/DX2                !
 ! A38   A(17,19,21)           120.3361         estimate D2E/DX2                !
 ! A39   A(20,19,21)           118.0935         estimate D2E/DX2                !
 ! A40   A(19,21,22)           118.8446         estimate D2E/DX2                !
 ! A41   A(19,21,23)           118.2249         estimate D2E/DX2                !
 ! A42   A(22,21,23)           122.9305         estimate D2E/DX2                !
 ! A43   A(14,23,21)           122.0088         estimate D2E/DX2                !
 ! A44   A(14,23,24)           120.4123         estimate D2E/DX2                !
 ! A45   A(21,23,24)           117.5625         estimate D2E/DX2                !
 ! A46   A(23,24,25)            94.769          estimate D2E/DX2                !
 ! A47   A(24,25,26)           123.4904         estimate D2E/DX2                !
 ! A48   A(24,25,33)           114.6875         estimate D2E/DX2                !
 ! A49   A(26,25,33)           120.9044         estimate D2E/DX2                !
 ! A50   A(13,26,25)           117.8001         estimate D2E/DX2                !
 ! A51   A(13,26,27)           122.3715         estimate D2E/DX2                !
 ! A52   A(25,26,27)           119.8134         estimate D2E/DX2                !
 ! A53   A(26,27,28)           115.9913         estimate D2E/DX2                !
 ! A54   A(26,27,29)           119.4812         estimate D2E/DX2                !
 ! A55   A(28,27,29)           124.1992         estimate D2E/DX2                !
 ! A56   A(27,29,30)           114.9507         estimate D2E/DX2                !
 ! A57   A(27,29,31)           120.314          estimate D2E/DX2                !
 ! A58   A(30,29,31)           124.664          estimate D2E/DX2                !
 ! A59   A(29,31,32)           116.0886         estimate D2E/DX2                !
 ! A60   A(29,31,33)           120.7266         estimate D2E/DX2                !
 ! A61   A(32,31,33)           123.1646         estimate D2E/DX2                !
 ! A62   A(25,33,31)           118.3595         estimate D2E/DX2                !
 ! A63   A(25,33,34)           122.3441         estimate D2E/DX2                !
 ! A64   A(31,33,34)           119.271          estimate D2E/DX2                !
 ! D1    D(2,1,4,5)            170.0986         estimate D2E/DX2                !
 ! D2    D(2,1,4,6)             46.0927         estimate D2E/DX2                !
 ! D3    D(2,1,4,7)            -89.6288         estimate D2E/DX2                !
 ! D4    D(3,1,4,5)             50.0985         estimate D2E/DX2                !
 ! D5    D(3,1,4,6)            -73.9073         estimate D2E/DX2                !
 ! D6    D(3,1,4,7)            150.3711         estimate D2E/DX2                !
 ! D7    D(35,1,4,5)           -69.8979         estimate D2E/DX2                !
 ! D8    D(35,1,4,6)           166.0963         estimate D2E/DX2                !
 ! D9    D(35,1,4,7)            30.3747         estimate D2E/DX2                !
 ! D10   D(1,4,7,8)            175.0465         estimate D2E/DX2                !
 ! D11   D(1,4,7,9)             55.6238         estimate D2E/DX2                !
 ! D12   D(1,4,7,10)           -59.6776         estimate D2E/DX2                !
 ! D13   D(5,4,7,8)            -81.777          estimate D2E/DX2                !
 ! D14   D(5,4,7,9)            158.8003         estimate D2E/DX2                !
 ! D15   D(5,4,7,10)            43.4988         estimate D2E/DX2                !
 ! D16   D(6,4,7,8)             39.5038         estimate D2E/DX2                !
 ! D17   D(6,4,7,9)            -79.9189         estimate D2E/DX2                !
 ! D18   D(6,4,7,10)           164.7797         estimate D2E/DX2                !
 ! D19   D(4,7,10,11)           60.8618         estimate D2E/DX2                !
 ! D20   D(4,7,10,12)          -58.7497         estimate D2E/DX2                !
 ! D21   D(4,7,10,13)          177.6716         estimate D2E/DX2                !
 ! D22   D(8,7,10,11)         -179.1866         estimate D2E/DX2                !
 ! D23   D(8,7,10,12)           61.2019         estimate D2E/DX2                !
 ! D24   D(8,7,10,13)          -62.3769         estimate D2E/DX2                !
 ! D25   D(9,7,10,11)          -52.6517         estimate D2E/DX2                !
 ! D26   D(9,7,10,12)         -172.2632         estimate D2E/DX2                !
 ! D27   D(9,7,10,13)           64.158          estimate D2E/DX2                !
 ! D28   D(7,10,13,14)        -104.1022         estimate D2E/DX2                !
 ! D29   D(7,10,13,26)         101.1603         estimate D2E/DX2                !
 ! D30   D(11,10,13,14)         10.164          estimate D2E/DX2                !
 ! D31   D(11,10,13,26)       -144.5735         estimate D2E/DX2                !
 ! D32   D(12,10,13,14)        128.1175         estimate D2E/DX2                !
 ! D33   D(12,10,13,26)        -26.62           estimate D2E/DX2                !
 ! D34   D(10,13,14,15)         67.5957         estimate D2E/DX2                !
 ! D35   D(10,13,14,23)        -99.4796         estimate D2E/DX2                !
 ! D36   D(26,13,14,15)       -137.1117         estimate D2E/DX2                !
 ! D37   D(26,13,14,23)         55.813          estimate D2E/DX2                !
 ! D38   D(10,13,26,25)        104.5746         estimate D2E/DX2                !
 ! D39   D(10,13,26,27)        -74.0164         estimate D2E/DX2                !
 ! D40   D(14,13,26,25)        -52.506          estimate D2E/DX2                !
 ! D41   D(14,13,26,27)        128.903          estimate D2E/DX2                !
 ! D42   D(13,14,15,16)          6.191          estimate D2E/DX2                !
 ! D43   D(13,14,15,17)       -173.2158         estimate D2E/DX2                !
 ! D44   D(23,14,15,16)        173.5005         estimate D2E/DX2                !
 ! D45   D(23,14,15,17)         -5.9062         estimate D2E/DX2                !
 ! D46   D(13,14,23,21)        169.7398         estimate D2E/DX2                !
 ! D47   D(13,14,23,24)        -11.7707         estimate D2E/DX2                !
 ! D48   D(15,14,23,21)          2.6044         estimate D2E/DX2                !
 ! D49   D(15,14,23,24)       -178.906          estimate D2E/DX2                !
 ! D50   D(14,15,17,18)       -166.6192         estimate D2E/DX2                !
 ! D51   D(14,15,17,19)          1.841          estimate D2E/DX2                !
 ! D52   D(16,15,17,18)         13.9634         estimate D2E/DX2                !
 ! D53   D(16,15,17,19)       -177.5765         estimate D2E/DX2                !
 ! D54   D(15,17,19,20)       -174.3855         estimate D2E/DX2                !
 ! D55   D(15,17,19,21)          5.8568         estimate D2E/DX2                !
 ! D56   D(18,17,19,20)         -5.3013         estimate D2E/DX2                !
 ! D57   D(18,17,19,21)        174.941          estimate D2E/DX2                !
 ! D58   D(17,19,21,22)        170.869          estimate D2E/DX2                !
 ! D59   D(17,19,21,23)         -9.1032         estimate D2E/DX2                !
 ! D60   D(20,19,21,22)         -8.8969         estimate D2E/DX2                !
 ! D61   D(20,19,21,23)        171.1308         estimate D2E/DX2                !
 ! D62   D(19,21,23,14)          4.948          estimate D2E/DX2                !
 ! D63   D(19,21,23,24)       -173.5826         estimate D2E/DX2                !
 ! D64   D(22,21,23,14)       -175.023          estimate D2E/DX2                !
 ! D65   D(22,21,23,24)          6.4463         estimate D2E/DX2                !
 ! D66   D(14,23,24,25)        -22.939          estimate D2E/DX2                !
 ! D67   D(21,23,24,25)        155.6162         estimate D2E/DX2                !
 ! D68   D(23,24,25,26)         25.5388         estimate D2E/DX2                !
 ! D69   D(23,24,25,33)       -143.5588         estimate D2E/DX2                !
 ! D70   D(24,25,26,13)          8.1646         estimate D2E/DX2                !
 ! D71   D(24,25,26,27)       -173.207          estimate D2E/DX2                !
 ! D72   D(33,25,26,13)        176.611          estimate D2E/DX2                !
 ! D73   D(33,25,26,27)         -4.7606         estimate D2E/DX2                !
 ! D74   D(24,25,33,31)        176.8034         estimate D2E/DX2                !
 ! D75   D(24,25,33,34)         -1.3474         estimate D2E/DX2                !
 ! D76   D(26,25,33,31)          7.3967         estimate D2E/DX2                !
 ! D77   D(26,25,33,34)       -170.7541         estimate D2E/DX2                !
 ! D78   D(13,26,27,28)          6.3184         estimate D2E/DX2                !
 ! D79   D(13,26,27,29)       -179.985          estimate D2E/DX2                !
 ! D80   D(25,26,27,28)       -172.245          estimate D2E/DX2                !
 ! D81   D(25,26,27,29)          1.4515         estimate D2E/DX2                !
 ! D82   D(26,27,29,30)        176.1779         estimate D2E/DX2                !
 ! D83   D(26,27,29,31)         -0.8919         estimate D2E/DX2                !
 ! D84   D(28,27,29,30)        -10.675          estimate D2E/DX2                !
 ! D85   D(28,27,29,31)        172.2551         estimate D2E/DX2                !
 ! D86   D(27,29,31,32)       -174.7358         estimate D2E/DX2                !
 ! D87   D(27,29,31,33)          3.6843         estimate D2E/DX2                !
 ! D88   D(30,29,31,32)          8.4945         estimate D2E/DX2                !
 ! D89   D(30,29,31,33)       -173.0854         estimate D2E/DX2                !
 ! D90   D(29,31,33,25)         -6.8106         estimate D2E/DX2                !
 ! D91   D(29,31,33,34)        171.3985         estimate D2E/DX2                !
 ! D92   D(32,31,33,25)        171.4943         estimate D2E/DX2                !
 ! D93   D(32,31,33,34)        -10.2966         estimate D2E/DX2                !
 --------------------------------------------------------------------------------
 Trust Radius=3.00D-01 FncErr=1.00D-07 GrdErr=1.00D-06 EigMax=2.50D+02 EigMin=1.00D-04
 Number of steps in this run=    204 maximum allowed number of steps=    210.
 GradGradGradGradGradGradGradGradGradGradGradGradGradGradGradGradGradGrad

 Leave Link  103 at Sun Jul 18 13:58:38 2021, MaxMem=   104857600 cpu:               0.0 elap:               0.0
 (Enter /dades/curu/g16A03_MST/g16/l202.exe)
                          Input orientation:                          
 ---------------------------------------------------------------------
 Center     Atomic      Atomic             Coordinates (Angstroms)
 Number     Number       Type             X           Y           Z
 ---------------------------------------------------------------------
      1          7           0        1.452000    1.741000   -3.621000
      2          1           0        0.862000    2.459000   -3.992000
      3          1           0        2.271000    1.656000   -4.189000
      4          6           0        0.729000    0.471000   -3.615000
      5          1           0        1.550000   -0.206000   -3.369000
      6          1           0        0.198000    0.256000   -4.546000
      7          6           0       -0.059000    0.179000   -2.366000
      8          1           0       -0.581000   -0.750000   -2.606000
      9          1           0       -0.708000    1.053000   -2.279000
     10          6           0        0.745000    0.114000   -1.050000
     11          1           0        1.179000    1.113000   -0.964000
     12          1           0        1.540000   -0.635000   -1.034000
     13          7           0       -0.074000   -0.116000    0.115000
     14          6           0       -0.403000    0.853000    1.017000
     15          6           0       -1.245000    1.892000    0.625000
     16          1           0       -1.729000    1.904000   -0.349000
     17          6           0       -1.446000    2.938000    1.519000
     18         17           0       -2.684000    4.062000    1.293000
     19          6           0       -0.813000    2.986000    2.744000
     20          1           0       -1.043000    3.759000    3.474000
     21          6           0        0.143000    2.044000    3.073000
     22          1           0        0.733000    2.188000    3.976000
     23          6           0        0.304000    0.970000    2.244000
     24         16           0        1.414000   -0.320000    2.772000
     25          6           0        0.618000   -1.627000    1.766000
     26          6           0       -0.101000   -1.370000    0.606000
     27          6           0       -0.794000   -2.403000   -0.023000
     28          1           0       -1.226000   -2.166000   -0.992000
     29          6           0       -0.782000   -3.646000    0.524000
     30          1           0       -1.398000   -4.379000    0.010000
     31          6           0       -0.057000   -3.896000    1.712000
     32          1           0       -0.021000   -4.931000    2.041000
     33          6           0        0.579000   -2.881000    2.368000
     34          1           0        1.009000   -3.069000    3.348000
     35          1           0        1.718000    1.978000   -2.686000
 ---------------------------------------------------------------------
                    Distance matrix (angstroms):
                    1          2          3          4          5
     1  N    0.000000
     2  H    1.000632   0.000000
     3  H    1.000305   1.633677   0.000000
     4  C    1.461391   2.027797   2.027675   0.000000
     5  H    1.965685   2.822002   2.158538   1.092193   0.000000
     6  H    2.152525   2.366648   2.526812   1.093136   1.851129
     7  C    2.509580   2.947968   3.306623   1.505393   1.934713
     8  H    3.371705   3.781657   4.053225   2.055486   2.327932
     9  H    2.634371   2.715899   3.589728   2.046604   2.805663
    10  C    3.123623   3.764051   3.815725   2.589774   2.475517
    11  H    2.743823   3.328812   3.447889   2.764501   2.767928
    12  H    3.513643   4.333853   3.966997   2.922759   2.374103
    13  N    4.442389   4.937020   5.211854   3.860347   3.844962
    14  C    5.073521   5.410133   5.907412   4.783594   4.916573
    15  C    5.032408   5.106626   5.965949   4.888100   5.307133
    16  H    4.566324   4.504748   5.550415   4.331513   4.931971
    17  C    6.020865   5.993949   6.931153   6.097103   6.538600
    18  Cl   6.829417   6.563151   7.771305   6.973687   7.607682
    19  C    6.869751   6.961110   7.703664   7.009984   7.289815
    20  H    7.786936   7.814101   8.609691   8.012793   8.322952
    21  C    6.827512   7.113607   7.577306   6.895438   6.967174
    22  H    7.644029   7.973651   8.325605   7.782762   7.768381
    23  C    6.025825   6.435540   6.761891   5.895550   5.868668
    24  S    6.717114   7.333433   7.286600   6.472146   6.143564
    25  C    6.407710   7.064665   6.998037   5.776598   5.408890
    26  C    5.473359   6.060546   6.146144   4.679212   4.458848
    27  C    5.929828   6.491097   6.574592   4.845809   4.638627
    28  H    5.417377   5.894944   6.087487   4.201895   4.147036
    29  C    7.154827   7.769686   7.722978   6.030268   5.694495
    30  H    7.665576   8.239044   8.216714   6.417730   6.125543
    31  C    7.905298   8.588725   8.430071   6.932922   6.481906
    32  H    8.873757   9.580651   9.351724   7.857127   7.352671
    33  C    7.615322   8.309349   8.151164   6.859642   6.404033
    34  H    8.479346   9.189994   8.984689   7.816225   7.321717
    35  H    1.000575   1.633932   1.633555   2.027859   2.294465
                    6          7          8          9         10
     6  H    0.000000
     7  C    2.196447   0.000000
     8  H    2.320017   1.092303   0.000000
     9  H    2.568138   1.092083   1.836809   0.000000
    10  C    3.541382   1.543534   2.219439   2.122115   0.000000
    11  H    3.811500   2.090599   3.043770   2.300781   1.092590
    12  H    3.863805   2.234641   2.642546   3.074552   1.092374
    13  N    4.683726   2.498522   2.839515   2.738568   1.442528
    14  C    5.627129   3.466598   3.965781   3.316118   2.477199
    15  C    5.612307   3.645140   4.226159   3.070099   3.150716
    16  H    4.903472   3.135732   3.668197   2.343404   3.133078
    17  C    6.832283   4.962769   5.600464   4.303798   4.401729
    18  Cl   7.542246   5.946141   6.540654   5.071276   5.730130
    19  C    7.849785   5.878764   6.529473   5.383126   5.007013
    20  H    8.839202   6.920279   7.583596   6.366449   6.078614
    21  C    7.826182   5.753412   6.370373   5.509100   4.591997
    22  H    8.754618   6.699575   7.326743   6.518415   5.437122
    23  C    6.828260   4.691434   5.221506   4.635576   3.431859
    24  S    7.440669   5.368219   5.752200   5.648063   3.904305
    25  C    6.600260   4.559977   4.617479   5.030179   3.313166
    26  C    5.410765   3.351708   3.306319   3.816098   2.379140
    27  C    5.339651   3.563229   3.074031   4.128059   3.123866
    28  H    4.530428   2.957835   2.241891   3.505232   3.014400
    29  C    6.472318   4.848242   4.268971   5.472009   4.352793
    30  H    6.692352   5.311653   4.547591   5.934833   5.089509
    31  C    7.514432   5.765042   5.368148   6.390969   4.934769
    32  H    8.386984   6.747977   6.276063   7.412329   5.965992
    33  C    7.601929   5.672865   5.534206   6.223129   4.547560
    34  H    8.603986   6.658823   6.584526   7.183460   5.435401
    35  H    2.955551   2.548829   3.568443   2.628070   2.664155
                   11         12         13         14         15
    11  H    0.000000
    12  H    1.786260   0.000000
    13  N    2.060265   2.048062   0.000000
    14  C    2.548467   3.193117   1.364114   0.000000
    15  C    3.001256   4.110260   2.379791   1.393610   0.000000
    16  H    3.075771   4.195487   2.652305   2.174588   1.087693
    17  C    4.048029   5.310399   3.630498   2.384760   1.390594
    18  Cl   5.358490   6.731932   5.065123   3.946748   2.688093
    19  C    4.607109   5.737729   4.132816   2.774945   2.423555
    20  H    5.624451   6.804498   5.218953   3.858923   3.412227
    21  C    4.270530   5.098637   3.669122   2.437977   2.818218
    22  H    5.075248   5.806951   4.568040   3.439244   3.902474
    23  C    3.328264   3.853441   2.419694   1.420939   2.422942
    24  S    4.008293   3.821091   3.052115   2.785219   4.070975
    25  C    3.908353   3.110329   2.342602   2.784572   4.141982
    26  C    3.204464   2.433661   1.346969   2.280757   3.456840
    27  C    4.140105   3.097661   2.401627   3.440351   4.366959
    28  H    4.066528   3.161721   2.599048   3.718571   4.368342
    29  C    5.357961   4.109157   3.623458   4.541772   5.558238
    30  H    6.144239   4.872301   4.465106   5.420138   6.302942
    31  C    5.811949   4.552477   4.103547   4.812041   6.007816
    32  H    6.855652   5.508898   5.186185   5.886353   7.075066
    33  C    5.235863   4.188274   3.625968   4.090511   5.398755
    34  H    6.009274   5.040659   4.510586   4.775918   6.091532
    35  H    2.001007   3.096540   3.929593   4.413216   4.444039
                   16         17         18         19         20
    16  H    0.000000
    17  C    2.153757   0.000000
    18  Cl   2.874918   1.687334   0.000000
    19  C    3.402415   1.379717   2.600734   0.000000
    20  H    4.304294   2.158350   2.746170   1.087809   0.000000
    21  C    3.903084   2.395636   3.902903   1.381861   2.123352
    22  H    4.984749   3.368589   4.731411   2.131841   2.423679
    23  C    3.424776   2.731510   4.403749   2.358378   3.332541
    24  S    4.956336   4.512668   6.179237   3.986220   4.813304
    25  C    4.738100   5.016007   6.594820   4.927881   5.889413
    26  C    3.779085   4.604504   6.053964   4.904358   5.951422
    27  C    4.419361   5.597245   6.862957   6.057885   7.089517
    28  H    4.151067   5.692481   6.792273   6.377411   7.421878
    29  C    5.697494   6.691784   7.976354   6.993768   7.975252
    30  H    6.301947   7.471136   8.634255   7.877830   8.851687
    31  C    6.378347   6.976398   8.390855   6.999892   7.916809
    32  H    7.439529   8.014005   9.408779   7.987513   8.866458
    33  C    5.967007   6.219501   7.746486   6.041583   6.924140
    34  H    6.774598   6.742130   8.289296   6.351970   7.130790
    35  H    4.165196   5.349254   6.289126   6.075107   6.981453
                   21         22         23         24         25
    21  C    0.000000
    22  H    1.088230   0.000000
    23  C    1.366250   2.160414   0.000000
    24  S    2.700840   2.864165   1.781848   0.000000
    25  C    3.925572   4.410391   2.659227   1.831366   0.000000
    26  C    4.219126   4.971098   2.884904   2.844166   1.388744
    27  C    5.498999   6.277022   4.209753   4.126279   2.407580
    28  H    6.010198   6.890285   4.758896   4.954292   3.361164
    29  C    6.303104   6.946012   5.044329   4.575827   2.752985
    30  H    7.280905   7.962148   6.041470   5.657868   3.836834
    31  C    6.097206   6.539484   4.908289   4.009391   2.367890
    32  H    7.052839   7.415720   5.913428   4.884149   3.376442
    33  C    4.994271   5.320164   3.862797   2.723814   1.391561
    34  H    5.193106   5.301567   4.246100   2.837746   2.175998
    35  H    5.970851   6.737698   5.226888   5.929838   5.833209
                   26         27         28         29         30
    26  C    0.000000
    27  C    1.393908   0.000000
    28  H    2.110177   1.087085   0.000000
    29  C    2.377112   1.358088   2.164669   0.000000
    30  H    3.330391   2.066514   2.435356   1.086711   0.000000
    31  C    2.757870   2.404671   3.416296   1.414026   2.219994
    32  H    3.840097   3.353865   4.277422   2.128764   2.515113
    33  C    2.418711   2.798302   3.880573   2.416171   3.422382
    34  H    3.411344   3.880465   4.964497   3.393462   4.318795
    35  H    5.035388   5.709192   5.358125   6.941432   7.575574
                   31         32         33         34         35
    31  C    0.000000
    32  H    1.086629   0.000000
    33  C    1.365671   2.160886   0.000000
    34  H    2.120561   2.497237   1.086574   0.000000
    35  H    7.549629   8.550025   7.102825   7.898357   0.000000
 Stoichiometry    C15H16ClN2S(1+)
 Framework group  C1[X(C15H16ClN2S)]
 Deg. of freedom    99
 Full point group                 C1      NOp   1
 Largest Abelian subgroup         C1      NOp   1
 Largest concise Abelian subgroup C1      NOp   1
                         Standard orientation:                         
 ---------------------------------------------------------------------
 Center     Atomic      Atomic             Coordinates (Angstroms)
 Number     Number       Type             X           Y           Z
 ---------------------------------------------------------------------
      1          7           0        0.686123    4.506319   -1.300278
      2          1           0        1.528595    4.854767   -0.887858
      3          1           0        0.345793    5.165842   -1.970960
      4          6           0       -0.319730    4.306783   -0.259072
      5          1           0       -1.194642    4.114724   -0.883993
      6          1           0       -0.409000    5.142105    0.440368
      7          6           0       -0.321966    2.947987    0.388907
      8          1           0       -1.069423    3.044505    1.179551
      9          1           0        0.704937    2.848536    0.746991
     10          6           0       -0.564095    1.744694   -0.547018
     11          1           0        0.269623    1.794732   -1.251407
     12          1           0       -1.509498    1.770950   -1.093650
     13          7           0       -0.501405    0.469908    0.125201
     14          6           0        0.556305   -0.386736    0.034554
     15          6           0        1.777772   -0.024210    0.599127
     16          1           0        1.890368    0.877706    1.196576
     17          6           0        2.871861   -0.850440    0.366605
     18         17           0        4.295569   -0.695912    1.258947
     19          6           0        2.783593   -1.976652   -0.425527
     20          1           0        3.618403   -2.666199   -0.530150
     21          6           0        1.619497   -2.254590   -1.116304
     22          1           0        1.622704   -3.060337   -1.847746
     23          6           0        0.512753   -1.499964   -0.847428
     24         16           0       -1.020807   -1.982635   -1.615678
     25          6           0       -2.081120   -1.194011   -0.347724
     26          6           0       -1.673683   -0.118776    0.431042
     27          6           0       -2.486680    0.332144    1.469640
     28          1           0       -2.173669    1.253683    1.953938
     29          6           0       -3.657476   -0.306036    1.727253
     30          1           0       -4.201169    0.064933    2.591961
     31          6           0       -4.058838   -1.407626    0.936761
     32          1           0       -5.046244   -1.810665    1.144972
     33          6           0       -3.245531   -1.893963   -0.046633
     34          1           0       -3.510655   -2.822731   -0.544371
     35          1           0        0.873116    3.634893   -1.755030
 ---------------------------------------------------------------------
 Rotational constants (GHZ):           0.3387120           0.2522424           0.1753625
 Leave Link  202 at Sun Jul 18 13:58:38 2021, MaxMem=   104857600 cpu:               0.0 elap:               0.0
 (Enter /dades/curu/g16A03_MST/g16/l301.exe)
 Standard basis: 6-31G(d) (6D, 7F)
 Ernie: Thresh=  0.10000D-02 Tol=  0.10000D-05 Strict=F.
 There are   325 symmetry adapted cartesian basis functions of A   symmetry.
 There are   325 symmetry adapted basis functions of A   symmetry.
   325 basis functions,   644 primitive gaussians,   325 cartesian basis functions
    76 alpha electrons       76 beta electrons
       nuclear repulsion energy      1661.5012201686 Hartrees.
 IExCor=  402 DFT=T Ex+Corr=B3LYP ExCW=0 ScaHFX=  0.200000
 ScaDFX=  0.800000  0.720000  1.000000  0.810000 ScalE2=  1.000000  1.000000
 IRadAn=      5 IRanWt=     -1 IRanGd=            0 ICorTp=0 IEmpDi=  4
 NAtoms=   35 NActive=   35 NUniq=   35 SFac= 1.00D+00 NAtFMM=   60 NAOKFM=F Big=F
 Integral buffers will be    131072 words long.
 Raffenetti 2 integral format.
 Two-electron integral symmetry is turned on.
 Using the following non-standard input for PCM:
 MSTModel=DFT cav MSTCharged
 --- end of non-standard input.
 MST model for solvation energy: B3LYP parametrization.
 MST cavity parameters:
 ISph   IAn     Re0     Alpha   Atom Type   QCorr
 ------------------------------------------------
   1      7     1.50     1.15      NH+        T
   2      1     0.90     1.15      NH+        T
   3      1     0.90     1.15      NH+        T
   4      6     1.50     1.50      CN+        F
   5      1     1.20     1.50      CN+        F
   6      1     1.20     1.50      CN+        F
   7      6     1.50     1.50      CH2        F
   8      1     1.20     1.50      CH2        F
   9      1     1.20     1.50      CH2        F
  10      6     1.50     1.50      CH2        F
  11      1     1.20     1.50      CH2        F
  12      1     1.20     1.50      CH2        F
  13      7     1.50     1.50      Nc         F
  14      6     1.50     1.50      C          F
  15      6     1.50     1.50      CH         F
  16      1     1.20     1.50      CH         F
  17      6     1.50     1.50      C          F
  18     17     1.80     1.50      Cl         F
  19      6     1.50     1.50      CH         F
  20      1     1.20     1.50      CH         F
  21      6     1.50     1.50      CH         F
  22      1     1.20     1.50      CH         F
  23      6     1.50     1.50      C          F
  24     16     1.75     1.50      S          F
  25      6     1.50     1.50      C          F
  26      6     1.50     1.50      C          F
  27      6     1.50     1.50      CH         F
  28      1     1.20     1.50      CH         F
  29      6     1.50     1.50      CH         F
  30      1     1.20     1.50      CH         F
  31      6     1.50     1.50      CH         F
  32      1     1.20     1.50      CH         F
  33      6     1.50     1.50      CH         F
  34      1     1.20     1.50      CH         F
  35      1     0.90     1.15      NH+        T
 ------------------------------------------------------------------------------
 Polarizable Continuum Model (PCM)
 =================================
 Model                : PCM.
 Atomic radii         : MST.
 Polarization charges : Total charges.
 Charge compensation  : None.
 Solution method      : On-the-fly selection.
 Cavity type          : Scaled VdW (van der Waals Surface) (Alpha=1.500).
 Cavity algorithm     : GePol (No added spheres)
                        Default sphere list used, NSphG=   35.
                        Lebedev-Laikov grids with approx.  5.0 points / Ang**2.
                        Smoothing algorithm: York/Karplus (Gamma=1.0000).
                        Polarization charges: spherical gaussians, with
                                              point-specific exponents (IZeta= 3).
                        Self-potential: point-specific (ISelfS= 7).
                        Self-field    : sphere-specific E.n sum rule (ISelfD= 2).
 1st derivatives      : Analytical E(r).r(x)/FMM algorithm (CHGder, D1EAlg=3).
                        Cavity 1st derivative terms included.
 Solvent              : n-Octanol, Eps=   9.862900 Eps(inf)=   2.043470
 ------------------------------------------------------------------------------
 GePol: Number of generator spheres                  =      35
 GePol: Total number of spheres                      =      35
 GePol: Number of exposed spheres                    =      35 (100.00%)
 GePol: Number of points                             =    3256
 GePol: Average weight of points                     =       0.11
 GePol: Minimum weight of points                     =   0.24D-11
 GePol: Maximum weight of points                     =    0.22065
 GePol: Number of points with low weight             =     180
 GePol: Fraction of low-weight points (<1% of avg)   =       5.53%
 GePol: Cavity surface area                          =    373.807 Ang**2
 GePol: Cavity volume                                =    451.144 Ang**3
 Surface areas from nonelectrostatic (unscaled) cavity and vdw tensions:
 Sphere =    1 Type =  NH+ Surf =       12.386 Tension =       -0.274
 Sphere =    2 Type =  NH+ Surf =        3.861 Tension =       -0.274
 Sphere =    3 Type =  NH+ Surf =        3.857 Tension =       -0.274
 Sphere =    4 Type =  CN+ Surf =        4.060 Tension =       -0.227
 Sphere =    5 Type =  CN+ Surf =        8.981 Tension =       -0.227
 Sphere =    6 Type =  CN+ Surf =       10.181 Tension =       -0.227
 Sphere =    7 Type =  CH2 Surf =        3.612 Tension =       -0.194
 Sphere =    8 Type =  CH2 Surf =        9.381 Tension =       -0.194
 Sphere =    9 Type =  CH2 Surf =        9.545 Tension =       -0.194
 Sphere =   10 Type =  CH2 Surf =        3.587 Tension =       -0.194
 Sphere =   11 Type =  CH2 Surf =        9.334 Tension =       -0.194
 Sphere =   12 Type =  CH2 Surf =        9.709 Tension =       -0.194
 Sphere =   13 Type =  Nc  Surf =        4.984 Tension =       -0.161
 Sphere =   14 Type =  C   Surf =        5.471 Tension =       -0.205
 Sphere =   15 Type =  CH  Surf =        7.460 Tension =       -0.195
 Sphere =   16 Type =  CH  Surf =        9.896 Tension =       -0.195
 Sphere =   17 Type =  C   Surf =        5.089 Tension =       -0.205
 Sphere =   18 Type =  Cl  Surf =       31.895 Tension =       -0.163
 Sphere =   19 Type =  CH  Surf =        7.244 Tension =       -0.195
 Sphere =   20 Type =  CH  Surf =        9.919 Tension =       -0.195
 Sphere =   21 Type =  CH  Surf =        7.460 Tension =       -0.195
 Sphere =   22 Type =  CH  Surf =       10.175 Tension =       -0.195
 Sphere =   23 Type =  C   Surf =        5.616 Tension =       -0.205
 Sphere =   24 Type =  S   Surf =       23.814 Tension =       -0.186
 Sphere =   25 Type =  C   Surf =        5.756 Tension =       -0.205
 Sphere =   26 Type =  C   Surf =        5.055 Tension =       -0.205
 Sphere =   27 Type =  CH  Surf =        7.553 Tension =       -0.195
 Sphere =   28 Type =  CH  Surf =        9.582 Tension =       -0.195
 Sphere =   29 Type =  CH  Surf =        7.734 Tension =       -0.195
 Sphere =   30 Type =  CH  Surf =       10.204 Tension =       -0.195
 Sphere =   31 Type =  CH  Surf =        7.741 Tension =       -0.195
 Sphere =   32 Type =  CH  Surf =       10.225 Tension =       -0.195
 Sphere =   33 Type =  CH  Surf =        7.479 Tension =       -0.195
 Sphere =   34 Type =  CH  Surf =       10.119 Tension =       -0.195
 Sphere =   35 Type =  NH+ Surf =        3.599 Tension =       -0.274
 PCM non-electrostatic energy =        -0.0192961275 Hartrees.
 Nuclear repulsion after PCM non-electrostatic terms =     1661.4819240411 Hartrees.
 Leave Link  301 at Sun Jul 18 13:58:38 2021, MaxMem=   104857600 cpu:               0.2 elap:               0.1
 (Enter /dades/curu/g16A03_MST/g16/l302.exe)
 NPDir=0 NMtPBC=     1 NCelOv=     1 NCel=       1 NClECP=     1 NCelD=      1
         NCelK=      1 NCelE2=     1 NClLst=     1 CellRange=     0.0.
 One-electron integrals computed using PRISM.
 One-electron integral symmetry used in STVInt
 NBasis=   325 RedAO= T EigKep=  4.27D-04  NBF=   325
 NBsUse=   325 1.00D-06 EigRej= -1.00D+00 NBFU=   325
 Precomputing XC quadrature grid using
 IXCGrd= 4 IRadAn=           5 IRanWt=          -1 IRanGd=           0 AccXCQ= 0.00D+00.
 Generated NRdTot=       0 NPtTot=           0 NUsed=           0 NTot=          32
 NSgBfM=   323   323   323   323   323 MxSgAt=    35 MxSgA2=    35.
 Leave Link  302 at Sun Jul 18 13:58:39 2021, MaxMem=   104857600 cpu:               4.5 elap:               1.2
 (Enter /dades/curu/g16A03_MST/g16/l303.exe)
 DipDrv:  MaxL=1.
 Leave Link  303 at Sun Jul 18 13:58:39 2021, MaxMem=   104857600 cpu:               0.1 elap:               0.1
 (Enter /dades/curu/g16A03_MST/g16/l401.exe)
 ExpMin= 1.17D-01 ExpMax= 2.52D+04 ExpMxC= 3.78D+03 IAcc=3 IRadAn=         5 AccDes= 0.00D+00
 Harris functional with IExCor=  402 and IRadAn=       5 diagonalized for initial guess.
 HarFok:  IExCor=  402 AccDes= 0.00D+00 IRadAn=         5 IDoV= 1 UseB2=F ITyADJ=14
 ICtDFT=  3500011 ScaDFX=  1.000000  1.000000  1.000000  1.000000
 FoFCou: FMM=F IPFlag=           0 FMFlag=      100000 FMFlg1=           0
         NFxFlg=           0 DoJE=T BraDBF=F KetDBF=T FulRan=T
         wScrn=  0.000000 ICntrl=       500 IOpCl=  0 I1Cent=   200000004 NGrid=           0
         NMat0=    1 NMatS0=      1 NMatT0=    0 NMatD0=    1 NMtDS0=    0 NMtDT0=    0
 Petite list used in FoFCou.
 Harris En= -1548.75846159527    
 JPrj=0 DoOrth=F DoCkMO=F.
 Leave Link  401 at Sun Jul 18 13:58:48 2021, MaxMem=   104857600 cpu:              33.6 elap:               8.5
 (Enter /dades/curu/g16A03_MST/g16/l502.exe)
 Integral symmetry usage will be decided dynamically.
 Closed shell SCF:
 Using DIIS extrapolation, IDIIS=  1040.
 NGot=   104857600 LenX=   104640758 LenY=   104534692
 Requested convergence on RMS density matrix=1.00D-08 within 128 cycles.
 Requested convergence on MAX density matrix=1.00D-06.
 Requested convergence on             energy=1.00D-06.
 No special actions if energy rises.
 Fock matrices will be formed incrementally for  20 cycles.

 Cycle   1  Pass 1  IDiag  1:
 FoFJK:  IHMeth= 1 ICntrl=       0 DoSepK=F KAlg= 0 I1Cent=           0 FoldK=F
 IRaf= 820000000 NMat=       1 IRICut=       1 DoRegI=T DoRafI=F ISym2E= 0 IDoP0=0 IntGTp=1.
 FoFCou: FMM=F IPFlag=           0 FMFlag=      100000 FMFlg1=           0
         NFxFlg=           0 DoJE=F BraDBF=F KetDBF=F FulRan=T
         wScrn=  0.000000 ICntrl=         0 IOpCl=  0 I1Cent=           0 NGrid=           0
         NMat0=    1 NMatS0=      1 NMatT0=    0 NMatD0=    1 NMtDS0=    0 NMtDT0=    0
 Symmetry not used in FoFCou.
 Inv3:  Mode=1 IEnd=    31804608.
 Iteration    1 A*A^-1 deviation from unit magnitude is 6.33D-15 for   3247.
 Iteration    1 A*A^-1 deviation from orthogonality  is 2.44D-15 for   1816   1770.
 Iteration    1 A^-1*A deviation from unit magnitude is 6.11D-15 for   3247.
 Iteration    1 A^-1*A deviation from orthogonality  is 1.91D-15 for   2806   1844.
 E= -1548.49353904740    
 DIIS: error= 2.91D-02 at cycle   1 NSaved=   1.
 NSaved= 1 IEnMin= 1 EnMin= -1548.49353904740     IErMin= 1 ErrMin= 2.91D-02
 ErrMax= 2.91D-02  0.00D+00 EMaxC= 1.00D-01 BMatC= 4.19D-01 BMatP= 4.19D-01
 IDIUse=3 WtCom= 7.09D-01 WtEn= 2.91D-01
 Coeff-Com:  0.100D+01
 Coeff-En:   0.100D+01
 Coeff:      0.100D+01
 Gap=     0.315 Goal=   None    Shift=    0.000
 GapD=    0.315 DampG=1.000 DampE=0.500 DampFc=0.5000 IDamp=-1.
 Damping current iteration by 5.00D-01
 RMSDP=5.10D-03 MaxDP=1.87D-01              OVMax= 2.25D-01

 Cycle   2  Pass 1  IDiag  1:
 RMSU=  2.52D-03    CP:  9.83D-01
 E= -1548.68329260627     Delta-E=       -0.189753558873 Rises=F Damp=T
 DIIS: error= 9.20D-03 at cycle   2 NSaved=   2.
 NSaved= 2 IEnMin= 2 EnMin= -1548.68329260627     IErMin= 2 ErrMin= 9.20D-03
 ErrMax= 9.20D-03  0.00D+00 EMaxC= 1.00D-01 BMatC= 2.74D-02 BMatP= 4.19D-01
 IDIUse=3 WtCom= 9.08D-01 WtEn= 9.20D-02
 Coeff-Com:  0.632D-01 0.937D+00
 Coeff-En:   0.142D+00 0.858D+00
 Coeff:      0.705D-01 0.930D+00
 Gap=     0.236 Goal=   None    Shift=    0.000
 RMSDP=1.37D-03 MaxDP=8.25D-02 DE=-1.90D-01 OVMax= 1.45D-01

 Cycle   3  Pass 1  IDiag  1:
 RMSU=  1.28D-03    CP:  9.75D-01  8.19D-01
 E= -1548.92377417725     Delta-E=       -0.240481570978 Rises=F Damp=F
 DIIS: error= 2.92D-03 at cycle   3 NSaved=   3.
 NSaved= 3 IEnMin= 3 EnMin= -1548.92377417725     IErMin= 3 ErrMin= 2.92D-03
 ErrMax= 2.92D-03  0.00D+00 EMaxC= 1.00D-01 BMatC= 8.87D-03 BMatP= 2.74D-02
 IDIUse=3 WtCom= 9.71D-01 WtEn= 2.92D-02
 Coeff-Com: -0.253D-01 0.327D+00 0.699D+00
 Coeff-En:   0.000D+00 0.000D+00 0.100D+01
 Coeff:     -0.246D-01 0.317D+00 0.708D+00
 Gap=     0.186 Goal=   None    Shift=    0.000
 RMSDP=6.45D-04 MaxDP=4.35D-02 DE=-2.40D-01 OVMax= 5.42D-02

 Cycle   4  Pass 1  IDiag  1:
 RMSU=  5.40D-04    CP:  9.77D-01  8.92D-01  7.68D-01
 E= -1548.92846017857     Delta-E=       -0.004686001324 Rises=F Damp=F
 DIIS: error= 2.47D-03 at cycle   4 NSaved=   4.
 NSaved= 4 IEnMin= 4 EnMin= -1548.92846017857     IErMin= 4 ErrMin= 2.47D-03
 ErrMax= 2.47D-03  0.00D+00 EMaxC= 1.00D-01 BMatC= 4.87D-03 BMatP= 8.87D-03
 IDIUse=3 WtCom= 9.75D-01 WtEn= 2.47D-02
 Coeff-Com: -0.205D-01 0.980D-01 0.450D+00 0.472D+00
 Coeff-En:   0.000D+00 0.000D+00 0.362D+00 0.638D+00
 Coeff:     -0.200D-01 0.955D-01 0.448D+00 0.476D+00
 Gap=     0.179 Goal=   None    Shift=    0.000
 RMSDP=3.44D-04 MaxDP=9.53D-03 DE=-4.69D-03 OVMax= 2.41D-02

 Cycle   5  Pass 1  IDiag  1:
 RMSU=  1.80D-04    CP:  9.76D-01  8.92D-01  8.29D-01  4.78D-01
 E= -1548.93346389705     Delta-E=       -0.005003718479 Rises=F Damp=F
 DIIS: error= 6.64D-04 at cycle   5 NSaved=   5.
 NSaved= 5 IEnMin= 5 EnMin= -1548.93346389705     IErMin= 5 ErrMin= 6.64D-04
 ErrMax= 6.64D-04  0.00D+00 EMaxC= 1.00D-01 BMatC= 4.30D-04 BMatP= 4.87D-03
 IDIUse=3 WtCom= 9.93D-01 WtEn= 6.64D-03
 Coeff-Com: -0.865D-02 0.243D-01 0.192D+00 0.285D+00 0.507D+00
 Coeff-En:   0.000D+00 0.000D+00 0.000D+00 0.300D-01 0.970D+00
 Coeff:     -0.859D-02 0.241D-01 0.191D+00 0.283D+00 0.510D+00
 Gap=     0.178 Goal=   None    Shift=    0.000
 RMSDP=9.62D-05 MaxDP=6.35D-03 DE=-5.00D-03 OVMax= 6.60D-03

 Cycle   6  Pass 1  IDiag  1:
 RMSU=  4.34D-05    CP:  9.76D-01  8.85D-01  8.47D-01  5.40D-01  5.93D-01
 E= -1548.93391536095     Delta-E=       -0.000451463901 Rises=F Damp=F
 DIIS: error= 1.38D-04 at cycle   6 NSaved=   6.
 NSaved= 6 IEnMin= 6 EnMin= -1548.93391536095     IErMin= 6 ErrMin= 1.38D-04
 ErrMax= 1.38D-04  0.00D+00 EMaxC= 1.00D-01 BMatC= 2.53D-05 BMatP= 4.30D-04
 IDIUse=3 WtCom= 9.99D-01 WtEn= 1.38D-03
 Coeff-Com: -0.268D-02 0.363D-02 0.615D-01 0.107D+00 0.264D+00 0.566D+00
 Coeff-En:   0.000D+00 0.000D+00 0.000D+00 0.000D+00 0.000D+00 0.100D+01
 Coeff:     -0.267D-02 0.362D-02 0.614D-01 0.107D+00 0.264D+00 0.567D+00
 Gap=     0.178 Goal=   None    Shift=    0.000
 RMSDP=2.00D-05 MaxDP=7.28D-04 DE=-4.51D-04 OVMax= 1.48D-03

 Cycle   7  Pass 1  IDiag  1:
 RMSU=  1.35D-05    CP:  9.76D-01  8.86D-01  8.47D-01  5.43D-01  6.34D-01
                    CP:  7.16D-01
 E= -1548.93393851098     Delta-E=       -0.000023150032 Rises=F Damp=F
 DIIS: error= 4.92D-05 at cycle   7 NSaved=   7.
 NSaved= 7 IEnMin= 7 EnMin= -1548.93393851098     IErMin= 7 ErrMin= 4.92D-05
 ErrMax= 4.92D-05  0.00D+00 EMaxC= 1.00D-01 BMatC= 2.32D-06 BMatP= 2.53D-05
 IDIUse=1 WtCom= 1.00D+00 WtEn= 0.00D+00
 Coeff-Com: -0.881D-03 0.414D-03 0.213D-01 0.390D-01 0.109D+00 0.309D+00
 Coeff-Com:  0.522D+00
 Coeff:     -0.881D-03 0.414D-03 0.213D-01 0.390D-01 0.109D+00 0.309D+00
 Coeff:      0.522D+00
 Gap=     0.178 Goal=   None    Shift=    0.000
 RMSDP=7.40D-06 MaxDP=3.17D-04 DE=-2.32D-05 OVMax= 5.46D-04

 Cycle   8  Pass 1  IDiag  1:
 RMSU=  4.60D-06    CP:  9.76D-01  8.86D-01  8.47D-01  5.46D-01  6.36D-01
                    CP:  7.48D-01  6.01D-01
 E= -1548.93394078428     Delta-E=       -0.000002273292 Rises=F Damp=F
 DIIS: error= 1.41D-05 at cycle   8 NSaved=   8.
 NSaved= 8 IEnMin= 8 EnMin= -1548.93394078428     IErMin= 8 ErrMin= 1.41D-05
 ErrMax= 1.41D-05  0.00D+00 EMaxC= 1.00D-01 BMatC= 2.94D-07 BMatP= 2.32D-06
 IDIUse=1 WtCom= 1.00D+00 WtEn= 0.00D+00
 Coeff-Com: -0.331D-04-0.450D-03 0.215D-02 0.384D-02 0.174D-01 0.788D-01
 Coeff-Com:  0.289D+00 0.610D+00
 Coeff:     -0.331D-04-0.450D-03 0.215D-02 0.384D-02 0.174D-01 0.788D-01
 Coeff:      0.289D+00 0.610D+00
 Gap=     0.178 Goal=   None    Shift=    0.000
 RMSDP=2.52D-06 MaxDP=7.14D-05 DE=-2.27D-06 OVMax= 1.82D-04

 Cycle   9  Pass 1  IDiag  1:
 RMSU=  1.79D-06    CP:  9.76D-01  8.86D-01  8.48D-01  5.46D-01  6.38D-01
                    CP:  7.51D-01  6.92D-01  7.47D-01
 E= -1548.93394108259     Delta-E=       -0.000000298314 Rises=F Damp=F
 DIIS: error= 5.86D-06 at cycle   9 NSaved=   9.
 NSaved= 9 IEnMin= 9 EnMin= -1548.93394108259     IErMin= 9 ErrMin= 5.86D-06
 ErrMax= 5.86D-06  0.00D+00 EMaxC= 1.00D-01 BMatC= 3.19D-08 BMatP= 2.94D-07
 IDIUse=1 WtCom= 1.00D+00 WtEn= 0.00D+00
 Coeff-Com:  0.111D-03-0.323D-03-0.156D-02-0.324D-02-0.454D-02 0.223D-02
 Coeff-Com:  0.881D-01 0.318D+00 0.601D+00
 Coeff:      0.111D-03-0.323D-03-0.156D-02-0.324D-02-0.454D-02 0.223D-02
 Coeff:      0.881D-01 0.318D+00 0.601D+00
 Gap=     0.178 Goal=   None    Shift=    0.000
 RMSDP=8.52D-07 MaxDP=5.07D-05 DE=-2.98D-07 OVMax= 4.87D-05

 Cycle  10  Pass 1  IDiag  1:
 RMSU=  4.35D-07    CP:  9.76D-01  8.86D-01  8.48D-01  5.46D-01  6.38D-01
                    CP:  7.59D-01  7.02D-01  8.17D-01  7.43D-01
 E= -1548.93394111632     Delta-E=       -0.000000033732 Rises=F Damp=F
 DIIS: error= 1.26D-06 at cycle  10 NSaved=  10.
 NSaved=10 IEnMin=10 EnMin= -1548.93394111632     IErMin=10 ErrMin= 1.26D-06
 ErrMax= 1.26D-06  0.00D+00 EMaxC= 1.00D-01 BMatC= 1.58D-09 BMatP= 3.19D-08
 IDIUse=1 WtCom= 1.00D+00 WtEn= 0.00D+00
 Coeff-Com:  0.499D-04-0.106D-03-0.760D-03-0.166D-02-0.283D-02-0.396D-02
 Coeff-Com:  0.198D-01 0.980D-01 0.257D+00 0.635D+00
 Coeff:      0.499D-04-0.106D-03-0.760D-03-0.166D-02-0.283D-02-0.396D-02
 Coeff:      0.198D-01 0.980D-01 0.257D+00 0.635D+00
 Gap=     0.178 Goal=   None    Shift=    0.000
 RMSDP=1.94D-07 MaxDP=9.36D-06 DE=-3.37D-08 OVMax= 1.35D-05

 Cycle  11  Pass 1  IDiag  1:
 RMSU=  1.48D-07    CP:  9.76D-01  8.86D-01  8.48D-01  5.46D-01  6.38D-01
                    CP:  7.59D-01  7.05D-01  8.26D-01  7.76D-01  8.12D-01
 E= -1548.93394111775     Delta-E=       -0.000000001431 Rises=F Damp=F
 DIIS: error= 5.16D-07 at cycle  11 NSaved=  11.
 NSaved=11 IEnMin=11 EnMin= -1548.93394111775     IErMin=11 ErrMin= 5.16D-07
 ErrMax= 5.16D-07  0.00D+00 EMaxC= 1.00D-01 BMatC= 3.21D-10 BMatP= 1.58D-09
 IDIUse=1 WtCom= 1.00D+00 WtEn= 0.00D+00
 Coeff-Com:  0.127D-04-0.151D-04-0.199D-03-0.487D-03-0.884D-03-0.246D-02
 Coeff-Com: -0.873D-03 0.114D-01 0.612D-01 0.350D+00 0.582D+00
 Coeff:      0.127D-04-0.151D-04-0.199D-03-0.487D-03-0.884D-03-0.246D-02
 Coeff:     -0.873D-03 0.114D-01 0.612D-01 0.350D+00 0.582D+00
 Gap=     0.178 Goal=   None    Shift=    0.000
 RMSDP=8.22D-08 MaxDP=2.70D-06 DE=-1.43D-09 OVMax= 7.59D-06

 Cycle  12  Pass 1  IDiag  1:
 RMSU=  5.40D-08    CP:  9.76D-01  8.86D-01  8.48D-01  5.46D-01  6.38D-01
                    CP:  7.59D-01  7.06D-01  8.30D-01  7.85D-01  8.84D-01
                    CP:  7.15D-01
 E= -1548.93394111809     Delta-E=       -0.000000000333 Rises=F Damp=F
 DIIS: error= 1.78D-07 at cycle  12 NSaved=  12.
 NSaved=12 IEnMin=12 EnMin= -1548.93394111809     IErMin=12 ErrMin= 1.78D-07
 ErrMax= 1.78D-07  0.00D+00 EMaxC= 1.00D-01 BMatC= 3.17D-11 BMatP= 3.21D-10
 IDIUse=1 WtCom= 1.00D+00 WtEn= 0.00D+00
 Coeff-Com:  0.101D-05 0.425D-05-0.136D-04-0.623D-04-0.105D-03-0.802D-03
 Coeff-Com: -0.279D-02-0.539D-02 0.245D-02 0.111D+00 0.302D+00 0.594D+00
 Coeff:      0.101D-05 0.425D-05-0.136D-04-0.623D-04-0.105D-03-0.802D-03
 Coeff:     -0.279D-02-0.539D-02 0.245D-02 0.111D+00 0.302D+00 0.594D+00
 Gap=     0.178 Goal=   None    Shift=    0.000
 RMSDP=2.79D-08 MaxDP=1.59D-06 DE=-3.33D-10 OVMax= 2.18D-06

 Cycle  13  Pass 1  IDiag  1:
 RMSU=  1.83D-08    CP:  9.76D-01  8.86D-01  8.48D-01  5.46D-01  6.38D-01
                    CP:  7.59D-01  7.06D-01  8.30D-01  7.88D-01  8.98D-01
                    CP:  7.93D-01  7.24D-01
 E= -1548.93394111816     Delta-E=       -0.000000000069 Rises=F Damp=F
 DIIS: error= 4.66D-08 at cycle  13 NSaved=  13.
 NSaved=13 IEnMin=13 EnMin= -1548.93394111816     IErMin=13 ErrMin= 4.66D-08
 ErrMax= 4.66D-08  0.00D+00 EMaxC= 1.00D-01 BMatC= 2.86D-12 BMatP= 3.17D-11
 IDIUse=1 WtCom= 1.00D+00 WtEn= 0.00D+00
 Coeff-Com: -0.943D-06 0.332D-05 0.171D-04 0.293D-04 0.613D-04-0.523D-04
 Coeff-Com: -0.113D-02-0.371D-02-0.634D-02 0.546D-02 0.595D-01 0.270D+00
 Coeff-Com:  0.676D+00
 Coeff:     -0.943D-06 0.332D-05 0.171D-04 0.293D-04 0.613D-04-0.523D-04
 Coeff:     -0.113D-02-0.371D-02-0.634D-02 0.546D-02 0.595D-01 0.270D+00
 Coeff:      0.676D+00
 Gap=     0.178 Goal=   None    Shift=    0.000
 RMSDP=8.78D-09 MaxDP=2.52D-07 DE=-6.87D-11 OVMax= 8.41D-07

 Error on total polarization charges =  0.00814
 SCF Done:  E(RB3LYP) =  -1548.93394112     A.U. after   13 cycles
            NFock= 13  Conv=0.88D-08     -V/T= 2.0055
 KE= 1.540535954568D+03 PE=-6.945023030991D+03 EE= 2.194071211264D+03
 Leave Link  502 at Sun Jul 18 14:03:09 2021, MaxMem=   104857600 cpu:            1013.9 elap:             261.2
 (Enter /dades/curu/g16A03_MST/g16/l601.exe)
 Copying SCF densities to generalized density rwf, IOpCl= 0 IROHF=0.

 **********************************************************************

            Population analysis using the SCF density.

 **********************************************************************

 Orbital symmetries:
       Occupied  (A) (A) (A) (A) (A) (A) (A) (A) (A) (A) (A) (A)
                 (A) (A) (A) (A) (A) (A) (A) (A) (A) (A) (A) (A)
                 (A) (A) (A) (A) (A) (A) (A) (A) (A) (A) (A) (A)
                 (A) (A) (A) (A) (A) (A) (A) (A) (A) (A) (A) (A)
                 (A) (A) (A) (A) (A) (A) (A) (A) (A) (A) (A) (A)
                 (A) (A) (A) (A) (A) (A) (A) (A) (A) (A) (A) (A)
                 (A) (A) (A) (A)
       Virtual   (A) (A) (A) (A) (A) (A) (A) (A) (A) (A) (A) (A)
                 (A) (A) (A) (A) (A) (A) (A) (A) (A) (A) (A) (A)
                 (A) (A) (A) (A) (A) (A) (A) (A) (A) (A) (A) (A)
                 (A) (A) (A) (A) (A) (A) (A) (A) (A) (A) (A) (A)
                 (A) (A) (A) (A) (A) (A) (A) (A) (A) (A) (A) (A)
                 (A) (A) (A) (A) (A) (A) (A) (A) (A) (A) (A) (A)
                 (A) (A) (A) (A) (A) (A) (A) (A) (A) (A) (A) (A)
                 (A) (A) (A) (A) (A) (A) (A) (A) (A) (A) (A) (A)
                 (A) (A) (A) (A) (A) (A) (A) (A) (A) (A) (A) (A)
                 (A) (A) (A) (A) (A) (A) (A) (A) (A) (A) (A) (A)
                 (A) (A) (A) (A) (A) (A) (A) (A) (A) (A) (A) (A)
                 (A) (A) (A) (A) (A) (A) (A) (A) (A) (A) (A) (A)
                 (A) (A) (A) (A) (A) (A) (A) (A) (A) (A) (A) (A)
                 (A) (A) (A) (A) (A) (A) (A) (A) (A) (A) (A) (A)
                 (A) (A) (A) (A) (A) (A) (A) (A) (A) (A) (A) (A)
                 (A) (A) (A) (A) (A) (A) (A) (A) (A) (A) (A) (A)
                 (A) (A) (A) (A) (A) (A) (A) (A) (A) (A) (A) (A)
                 (A) (A) (A) (A) (A) (A) (A) (A) (A) (A) (A) (A)
                 (A) (A) (A) (A) (A) (A) (A) (A) (A) (A) (A) (A)
                 (A) (A) (A) (A) (A) (A) (A) (A) (A) (A) (A) (A)
                 (A) (A) (A) (A) (A) (A) (A) (A) (A)
 The electronic state is 1-A.
 Alpha  occ. eigenvalues -- -101.55982 -88.90900 -14.46769 -14.35961 -10.26978
 Alpha  occ. eigenvalues --  -10.25710 -10.25313 -10.25065 -10.23946 -10.23571
 Alpha  occ. eigenvalues --  -10.23415 -10.22306 -10.21520 -10.21144 -10.20857
 Alpha  occ. eigenvalues --  -10.20591 -10.20272 -10.20157 -10.20030  -9.47763
 Alpha  occ. eigenvalues --   -7.96923  -7.24133  -7.23190  -7.23147  -5.93412
 Alpha  occ. eigenvalues --   -5.93077  -5.92431  -1.03877  -1.00566  -0.91718
 Alpha  occ. eigenvalues --   -0.87658  -0.86655  -0.83068  -0.80752  -0.78435
 Alpha  occ. eigenvalues --   -0.76232  -0.75469  -0.72914  -0.68511  -0.65604
 Alpha  occ. eigenvalues --   -0.64586  -0.63105  -0.61919  -0.61682  -0.60602
 Alpha  occ. eigenvalues --   -0.57526  -0.55688  -0.53319  -0.53107  -0.50518
 Alpha  occ. eigenvalues --   -0.50066  -0.49091  -0.48423  -0.47560  -0.46626
 Alpha  occ. eigenvalues --   -0.45376  -0.44473  -0.44205  -0.43622  -0.41755
 Alpha  occ. eigenvalues --   -0.41162  -0.39903  -0.39409  -0.39241  -0.37266
 Alpha  occ. eigenvalues --   -0.36551  -0.36232  -0.35618  -0.34684  -0.32470
 Alpha  occ. eigenvalues --   -0.30749  -0.29598  -0.27185  -0.25817  -0.24315
 Alpha  occ. eigenvalues --   -0.21036
 Alpha virt. eigenvalues --   -0.03232  -0.02749  -0.01984  -0.01175   0.00115
 Alpha virt. eigenvalues --    0.02574   0.04104   0.06494   0.07365   0.08399
 Alpha virt. eigenvalues --    0.08968   0.09576   0.10456   0.11483   0.11752
 Alpha virt. eigenvalues --    0.12331   0.12388   0.13257   0.14464   0.15152
 Alpha virt. eigenvalues --    0.15178   0.15753   0.17266   0.17854   0.19375
 Alpha virt. eigenvalues --    0.20293   0.21056   0.23321   0.24301   0.24751
 Alpha virt. eigenvalues --    0.25916   0.26402   0.27067   0.27712   0.30395
 Alpha virt. eigenvalues --    0.30812   0.31284   0.32050   0.35098   0.36146
 Alpha virt. eigenvalues --    0.37229   0.38075   0.38749   0.40053   0.41818
 Alpha virt. eigenvalues --    0.42663   0.44215   0.45817   0.48065   0.48722
 Alpha virt. eigenvalues --    0.49706   0.50051   0.50575   0.51179   0.51661
 Alpha virt. eigenvalues --    0.52518   0.53470   0.54249   0.55465   0.56396
 Alpha virt. eigenvalues --    0.56681   0.57020   0.57334   0.57810   0.58832
 Alpha virt. eigenvalues --    0.59276   0.59401   0.59881   0.60904   0.61067
 Alpha virt. eigenvalues --    0.62233   0.63081   0.63962   0.64397   0.65721
 Alpha virt. eigenvalues --    0.66982   0.67775   0.68247   0.69039   0.70247
 Alpha virt. eigenvalues --    0.70955   0.72674   0.74260   0.75926   0.77535
 Alpha virt. eigenvalues --    0.78867   0.79252   0.80527   0.81233   0.82405
 Alpha virt. eigenvalues --    0.82706   0.82894   0.83187   0.83847   0.84010
 Alpha virt. eigenvalues --    0.84334   0.84751   0.85302   0.85879   0.87048
 Alpha virt. eigenvalues --    0.87839   0.89072   0.89629   0.89971   0.90820
 Alpha virt. eigenvalues --    0.91910   0.92717   0.93825   0.94667   0.95121
 Alpha virt. eigenvalues --    0.95562   0.96365   0.98667   0.99184   1.00279
 Alpha virt. eigenvalues --    1.00998   1.01852   1.02753   1.03989   1.04332
 Alpha virt. eigenvalues --    1.07138   1.08755   1.09511   1.10933   1.12052
 Alpha virt. eigenvalues --    1.12951   1.14698   1.17791   1.20114   1.21322
 Alpha virt. eigenvalues --    1.22491   1.22834   1.26183   1.27447   1.29692
 Alpha virt. eigenvalues --    1.31880   1.32535   1.34892   1.35538   1.36970
 Alpha virt. eigenvalues --    1.38565   1.40626   1.41856   1.45353   1.46837
 Alpha virt. eigenvalues --    1.48239   1.50580   1.51965   1.53746   1.54726
 Alpha virt. eigenvalues --    1.55835   1.58609   1.59475   1.63122   1.65270
 Alpha virt. eigenvalues --    1.67991   1.69982   1.75228   1.76769   1.78488
 Alpha virt. eigenvalues --    1.79239   1.80469   1.81813   1.83930   1.84778
 Alpha virt. eigenvalues --    1.87721   1.88657   1.90450   1.91866   1.93057
 Alpha virt. eigenvalues --    1.93991   1.94684   1.96394   1.98552   1.99218
 Alpha virt. eigenvalues --    2.00309   2.01941   2.06270   2.07357   2.07958
 Alpha virt. eigenvalues --    2.08780   2.10567   2.10849   2.11879   2.13770
 Alpha virt. eigenvalues --    2.14101   2.14871   2.16973   2.17142   2.18678
 Alpha virt. eigenvalues --    2.22493   2.23158   2.26262   2.26913   2.29571
 Alpha virt. eigenvalues --    2.30838   2.30956   2.32291   2.34385   2.37867
 Alpha virt. eigenvalues --    2.38704   2.39905   2.44890   2.46150   2.50333
 Alpha virt. eigenvalues --    2.53401   2.53950   2.57157   2.58078   2.61013
 Alpha virt. eigenvalues --    2.61997   2.62986   2.65933   2.67869   2.70236
 Alpha virt. eigenvalues --    2.71360   2.72657   2.74240   2.74549   2.75790
 Alpha virt. eigenvalues --    2.77466   2.81504   2.82741   2.86465   2.92454
 Alpha virt. eigenvalues --    3.01933   3.10325   3.21376   3.35564   3.40194
 Alpha virt. eigenvalues --    3.76063   3.94771   4.06201   4.08359   4.09114
 Alpha virt. eigenvalues --    4.10352   4.11885   4.14211   4.18511   4.25251
 Alpha virt. eigenvalues --    4.29542   4.33056   4.34403   4.35956   4.39571
 Alpha virt. eigenvalues --    4.43496   4.49324   4.68414   4.74003
          Condensed to atoms (all electrons):
               1          2          3          4          5          6
     1  N    6.683639   0.301162   0.309653   0.231893  -0.055549  -0.030776
     2  H    0.301162   0.271785  -0.010490  -0.019655   0.005124  -0.003172
     3  H    0.309653  -0.010490   0.262717  -0.019246  -0.006544  -0.000500
     4  C    0.231893  -0.019655  -0.019246   5.075752   0.388164   0.385172
     5  H   -0.055549   0.005124  -0.006544   0.388164   0.554652  -0.017444
     6  H   -0.030776  -0.003172  -0.000500   0.385172  -0.017444   0.463159
     7  C   -0.040950  -0.001932   0.003436   0.321039  -0.074449  -0.022723
     8  H    0.004052  -0.000061  -0.000111  -0.034830  -0.002238  -0.004321
     9  H   -0.005065   0.002909  -0.000088  -0.057415   0.010085  -0.001752
    10  C   -0.004623  -0.000077  -0.000013  -0.034067  -0.008973   0.002950
    11  H    0.001654   0.000067  -0.000061  -0.002158  -0.000208  -0.000117
    12  H   -0.000157   0.000023  -0.000004  -0.000533   0.009095  -0.000075
    13  N    0.000077  -0.000001   0.000001   0.004705  -0.000041  -0.000073
    14  C   -0.000006  -0.000000   0.000000   0.000060  -0.000001   0.000000
    15  C   -0.000006  -0.000001   0.000000  -0.000007   0.000001   0.000001
    16  H    0.000001   0.000004  -0.000000   0.000029   0.000005  -0.000003
    17  C   -0.000000   0.000000   0.000000   0.000001   0.000000  -0.000000
    18  Cl   0.000000   0.000000  -0.000000  -0.000000  -0.000000   0.000000
    19  C    0.000000  -0.000000  -0.000000  -0.000000  -0.000000  -0.000000
    20  H    0.000000   0.000000  -0.000000  -0.000000   0.000000  -0.000000
    21  C    0.000000  -0.000000  -0.000000  -0.000000  -0.000000   0.000000
    22  H   -0.000000   0.000000   0.000000   0.000000   0.000000  -0.000000
    23  C   -0.000000   0.000000   0.000000   0.000012   0.000001  -0.000000
    24  S    0.000001  -0.000000  -0.000000  -0.000003  -0.000001  -0.000000
    25  C   -0.000000   0.000000   0.000000   0.000015   0.000000  -0.000000
    26  C   -0.000001   0.000000   0.000000   0.000026   0.000005  -0.000001
    27  C   -0.000001  -0.000000   0.000000  -0.000049  -0.000009   0.000004
    28  H    0.000001   0.000000  -0.000000   0.000103   0.000044  -0.000014
    29  C    0.000000   0.000000   0.000000   0.000001   0.000000  -0.000000
    30  H    0.000000  -0.000000  -0.000000  -0.000000  -0.000000   0.000000
    31  C    0.000000  -0.000000  -0.000000  -0.000000   0.000000  -0.000000
    32  H    0.000000   0.000000  -0.000000  -0.000000   0.000000  -0.000000
    33  C   -0.000000  -0.000000  -0.000000  -0.000000  -0.000000   0.000000
    34  H   -0.000000  -0.000000   0.000000   0.000000   0.000000  -0.000000
    35  H    0.299384  -0.009047  -0.010186  -0.024168  -0.000769   0.002930
               7          8          9         10         11         12
     1  N   -0.040950   0.004052  -0.005065  -0.004623   0.001654  -0.000157
     2  H   -0.001932  -0.000061   0.002909  -0.000077   0.000067   0.000023
     3  H    0.003436  -0.000111  -0.000088  -0.000013  -0.000061  -0.000004
     4  C    0.321039  -0.034830  -0.057415  -0.034067  -0.002158  -0.000533
     5  H   -0.074449  -0.002238   0.010085  -0.008973  -0.000208   0.009095
     6  H   -0.022723  -0.004321  -0.001752   0.002950  -0.000117  -0.000075
     7  C    5.168803   0.375413   0.368888   0.373809  -0.061626  -0.050102
     8  H    0.375413   0.511390  -0.018169  -0.030873   0.005061  -0.002104
     9  H    0.368888  -0.018169   0.570740  -0.042686  -0.004736   0.004953
    10  C    0.373809  -0.030873  -0.042686   4.946279   0.359151   0.367015
    11  H   -0.061626   0.005061  -0.004736   0.359151   0.581533  -0.018676
    12  H   -0.050102  -0.002104   0.004953   0.367015  -0.018676   0.543644
    13  N   -0.058595  -0.001215  -0.000962   0.309551  -0.037890  -0.048679
    14  C   -0.002586   0.000103  -0.000156  -0.039041   0.004717   0.003420
    15  C   -0.000997   0.000008   0.001166  -0.004435   0.002756   0.000101
    16  H   -0.000108   0.000068   0.004632   0.000198   0.000654   0.000032
    17  C    0.000003  -0.000000   0.000136  -0.000295  -0.000035   0.000018
    18  Cl   0.000000  -0.000000  -0.000015   0.000000   0.000003  -0.000000
    19  C    0.000001   0.000000   0.000000   0.000041  -0.000033  -0.000001
    20  H    0.000000  -0.000000  -0.000000   0.000000  -0.000000   0.000000
    21  C    0.000009  -0.000000  -0.000002   0.000012  -0.000285  -0.000011
    22  H   -0.000000   0.000000   0.000000  -0.000001   0.000004   0.000000
    23  C   -0.000241  -0.000004   0.000044  -0.001968   0.002572   0.000722
    24  S    0.000067   0.000001  -0.000001   0.004493  -0.000401  -0.000803
    25  C   -0.000174   0.000029  -0.000010  -0.004187   0.000397   0.003909
    26  C   -0.003345   0.000754   0.000111  -0.039610   0.003350   0.007421
    27  C   -0.000920   0.000022   0.000050  -0.001538  -0.000001   0.000670
    28  H    0.000579   0.004528   0.000137  -0.000050  -0.000006   0.000638
    29  C   -0.000012   0.000105   0.000000  -0.000319   0.000012   0.000033
    30  H    0.000001  -0.000011  -0.000000   0.000004  -0.000000  -0.000003
    31  C   -0.000000   0.000001   0.000000   0.000066  -0.000001  -0.000049
    32  H    0.000000   0.000000  -0.000000   0.000000   0.000000  -0.000000
    33  C    0.000012  -0.000002  -0.000000  -0.000040  -0.000003  -0.000349
    34  H   -0.000000  -0.000000   0.000000  -0.000001  -0.000000   0.000006
    35  H   -0.006063   0.000235  -0.000088   0.006181   0.011158   0.000011
              13         14         15         16         17         18
     1  N    0.000077  -0.000006  -0.000006   0.000001  -0.000000   0.000000
     2  H   -0.000001  -0.000000  -0.000001   0.000004   0.000000   0.000000
     3  H    0.000001   0.000000   0.000000  -0.000000   0.000000  -0.000000
     4  C    0.004705   0.000060  -0.000007   0.000029   0.000001  -0.000000
     5  H   -0.000041  -0.000001   0.000001   0.000005   0.000000  -0.000000
     6  H   -0.000073   0.000000   0.000001  -0.000003  -0.000000   0.000000
     7  C   -0.058595  -0.002586  -0.000997  -0.000108   0.000003   0.000000
     8  H   -0.001215   0.000103   0.000008   0.000068  -0.000000  -0.000000
     9  H   -0.000962  -0.000156   0.001166   0.004632   0.000136  -0.000015
    10  C    0.309551  -0.039041  -0.004435   0.000198  -0.000295   0.000000
    11  H   -0.037890   0.004717   0.002756   0.000654  -0.000035   0.000003
    12  H   -0.048679   0.003420   0.000101   0.000032   0.000018  -0.000000
    13  N    7.080008   0.316360  -0.071834  -0.004308   0.006108  -0.000168
    14  C    0.316360   4.646208   0.515038  -0.032777  -0.009564   0.004409
    15  C   -0.071834   0.515038   5.121209   0.350681   0.467284  -0.070395
    16  H   -0.004308  -0.032777   0.350681   0.545998  -0.041983   0.000020
    17  C    0.006108  -0.009564   0.467284  -0.041983   5.000252   0.226079
    18  Cl  -0.000168   0.004409  -0.070395   0.000020   0.226079  16.934352
    19  C    0.000628  -0.034668  -0.040317   0.004188   0.537840  -0.084425
    20  H    0.000001   0.000527   0.004631  -0.000148  -0.045905  -0.002522
    21  C    0.006235  -0.007668  -0.044474   0.000339  -0.019407   0.006924
    22  H   -0.000143   0.003061   0.000552   0.000017   0.004847  -0.000225
    23  C   -0.086905   0.482358  -0.071437   0.005499  -0.037026   0.000654
    24  S    0.000579  -0.055553   0.006136  -0.000198   0.000575   0.000013
    25  C   -0.100365  -0.014045   0.001037   0.000005   0.000043   0.000000
    26  C    0.282966  -0.021598   0.004474   0.000260  -0.000281   0.000003
    27  C   -0.076128   0.002835  -0.000207  -0.000006  -0.000008   0.000000
    28  H   -0.006365   0.000259   0.000037   0.000034   0.000002  -0.000000
    29  C    0.008310  -0.000192  -0.000008   0.000002   0.000000  -0.000000
    30  H   -0.000214  -0.000001  -0.000000  -0.000000  -0.000000  -0.000000
    31  C    0.000459  -0.000034  -0.000001   0.000000   0.000000  -0.000000
    32  H    0.000002   0.000001  -0.000000  -0.000000  -0.000000   0.000000
    33  C    0.007976   0.000652   0.000010  -0.000000  -0.000001   0.000000
    34  H   -0.000176  -0.000002  -0.000000   0.000000   0.000000  -0.000000
    35  H   -0.000254  -0.000007   0.000016   0.000015   0.000001  -0.000000
[...]
    22  H   -0.000008   0.000073   0.000000   0.000124   0.000070  -0.000007
    23  C    0.000682  -0.004764  -0.000091  -0.007610   0.006448  -0.003946
    24  S   -0.000009   0.000376  -0.000006   0.000747   0.000934  -0.000198
    25  C    0.000326   0.000343  -0.000241  -0.017241  -0.002057   0.000104
    26  C   -0.019808   0.005138  -0.001487  -0.020574   0.033057   0.005359
    27  C    0.006489  -0.002333  -0.001354  -0.131447  -0.036565   0.000150
    28  H   -0.006892  -0.003925  -0.000133   0.005904  -0.013784   0.010626
    29  C   -0.002103  -0.000155   0.000468   0.059147  -0.010957   0.011561
    30  H    0.000040   0.000129  -0.000005   0.001308   0.000462   0.000455
    31  C    0.000392  -0.000619   0.000093  -0.002457  -0.005012   0.000618
    32  H    0.000009  -0.000020  -0.000001  -0.000591  -0.000127  -0.000028
    33  C    0.000147   0.000461  -0.000125  -0.008847  -0.000676  -0.000113
    34  H    0.000007   0.000010  -0.000002   0.000129   0.000140   0.000008
    35  H    0.373577  -0.055527  -0.055468   0.019364  -0.041307   0.021872
               7          8          9         10         11         12
     1  N    0.014687  -0.017081   0.013081   0.097342   0.050880  -0.030645
     2  H   -0.010084   0.008254  -0.014875  -0.022362  -0.008657   0.003022
     3  H    0.050478   0.004307  -0.001429  -0.010974   0.001391  -0.003411
     4  C   -0.107061   0.317021  -0.435658  -0.304048  -0.094167  -0.020583
     5  H    0.014880  -0.056967   0.060149  -0.009421   0.010456  -0.020773
     6  H    0.115458  -0.082766  -0.011080   0.083201  -0.000797   0.014905
     7  C    6.211772  -0.037459   0.195540  -0.339883  -0.167719  -0.253526
     8  H   -0.037459   1.601810  -0.434333  -0.173181   0.070708  -0.028133
     9  H    0.195540  -0.434333   1.862814   0.072958  -0.031488   0.062346
    10  C   -0.339883  -0.173181   0.072958   7.256286   0.053404   0.328000
    11  H   -0.167719   0.070708  -0.031488   0.053404   2.523965  -0.876928
    12  H   -0.253526  -0.028133   0.062346   0.328000  -0.876928   2.392352
    13  N    0.316693   0.062631  -0.120289  -0.144931  -0.301005  -0.385433
    14  C    0.095262   0.164222  -0.122522  -1.158949   0.470288  -0.079904
    15  C   -0.184780   0.024344   0.063830   0.450971   0.066480  -0.029895
    16  H    0.019646   0.023045  -0.154695  -0.299188  -0.261528   0.036764
    17  C    0.064873   0.002904  -0.073127  -0.220252  -0.105958   0.030894
    18  Cl   0.003552   0.001920  -0.004353   0.018301  -0.004936   0.001437
    19  C    0.035738   0.008427  -0.031592   0.002198  -0.025554  -0.003964
    20  H   -0.000185   0.000070  -0.000241   0.001749   0.001655  -0.000242
    21  C   -0.001111  -0.004788   0.009531   0.138436   0.008248   0.002674
    22  H    0.001821   0.000184   0.000284   0.000001  -0.000832   0.001000
    23  C   -0.147694  -0.040673   0.053603   0.272567   0.046431  -0.059873
    24  S    0.002987   0.000172   0.002799  -0.082717   0.016969   0.004724
    25  C   -0.061318   0.029054  -0.025470   0.059169   0.029173  -0.016122
    26  C    0.288530  -0.215963   0.251560  -1.402937  -0.067868   0.396098
    27  C   -0.142523   0.024967   0.004719   0.701618  -0.118718   0.013408
    28  H   -0.055828  -0.137555   0.043054  -0.225016   0.026200  -0.187816
    29  C   -0.142079   0.028538  -0.023873  -0.351723  -0.027377   0.088040
    30  H    0.009211   0.000213   0.000676   0.024870   0.001898   0.002147
    31  C   -0.013644  -0.004665   0.001322   0.141591  -0.011084   0.018989
    32  H   -0.000011  -0.000747   0.000366   0.004719  -0.000049   0.000127
    33  C    0.053239  -0.020711   0.011879  -0.027775   0.024405  -0.055180
    34  H    0.002251   0.000231   0.000084   0.001367   0.000657   0.000011
    35  H   -0.056179  -0.004301   0.005852   0.029184   0.000954   0.005775
              13         14         15         16         17         18
     1  N   -0.020209  -0.030387   0.009665  -0.007022   0.009032  -0.000663
     2  H   -0.000712   0.002208  -0.002652   0.000973   0.005965  -0.000636
     3  H    0.004766   0.000671  -0.000519   0.001732   0.000025  -0.000147
     4  C    0.057402   0.204725  -0.106196   0.076401  -0.030899  -0.002024
     5  H    0.001107   0.010154   0.002161  -0.002522  -0.007191  -0.000171
     6  H   -0.019705   0.000089  -0.005607  -0.005260   0.001552   0.000367
     7  C    0.316693   0.095262  -0.184780   0.019646   0.064873   0.003552
     8  H    0.062631   0.164222   0.024344   0.023045   0.002904   0.001920
     9  H   -0.120289  -0.122522   0.063830  -0.154695  -0.073127  -0.004353
    10  C   -0.144931  -1.158949   0.450971  -0.299188  -0.220252   0.018301
    11  H   -0.301005   0.470288   0.066480  -0.261528  -0.105958  -0.004936
    12  H   -0.385433  -0.079904  -0.029895   0.036764   0.030894   0.001437
    13  N   11.198549  -1.754578   0.431506  -0.013965  -0.190783  -0.001269
    14  C   -1.754578  29.330778  -7.039788   0.396547   0.997661  -0.122258
    15  C    0.431506  -7.039788  19.789937  -1.916613  -2.863911   0.055549
    16  H   -0.013965   0.396547  -1.916613   3.554374   0.429138  -0.051982
    17  C   -0.190783   0.997661  -2.863911   0.429138  14.999097  -0.289390
    18  Cl  -0.001269  -0.122258   0.055549  -0.051982  -0.289390  17.655515
    19  C    0.179140  -4.130305   0.008754   0.290245  -4.325689   0.250997
    20  H    0.004118  -0.029281   0.292554  -0.013404   1.368053  -0.091506
    21  C    0.393708  -1.979995  -3.953511   0.007587   1.171111  -0.107697
    22  H   -0.025395   0.273877   0.123907   0.001446  -0.708687   0.007946
    23  C   -0.132661  -4.324115  -0.127774  -0.103254  -3.911340   0.063939
    24  S   -0.467414   0.207424  -0.532366  -0.007132   0.313344  -0.011640
    25  C   -0.470732  -0.260933   0.825614   0.027869   0.062838  -0.003428
    26  C   -1.131554  -4.718029  -1.285323  -0.280225   0.202205   0.002793
    27  C    0.589679  -0.699163   0.696038   0.074225  -0.154472   0.002163
    28  H   -0.003953  -0.263100   0.092035   0.001117   0.003971  -0.000097
    29  C   -0.353554   0.142052  -0.243510   0.008409   0.035404  -0.000326
    30  H   -0.009825   0.045885  -0.015472  -0.000139   0.000979  -0.000023
    31  C    0.390334   0.163899   0.142901   0.015228  -0.037272   0.000382
    32  H   -0.003243  -0.021669   0.007376   0.000116  -0.000820   0.000015
    33  C   -0.011175   0.640711  -0.429554  -0.037209   0.106680  -0.001525
    34  H   -0.005706  -0.031824  -0.028779   0.000211   0.006015  -0.000169
    35  H   -0.006549  -0.015505   0.005052   0.000863  -0.001592   0.000496
              19         20         21         22         23         24
     1  N    0.003637  -0.000032  -0.001821  -0.000008   0.000682  -0.000009
     2  H    0.002393  -0.000083  -0.000459   0.000073  -0.004764   0.000376
     3  H   -0.000167  -0.000009   0.000105   0.000000  -0.000091  -0.000006
     4  C   -0.035170  -0.000153   0.025048   0.000124  -0.007610   0.000747
     5  H   -0.003454  -0.000012   0.004857   0.000070   0.006448   0.000934
     6  H    0.000167   0.000008   0.000123  -0.000007  -0.003946  -0.000198
     7  C    0.035738  -0.000185  -0.001111   0.001821  -0.147694   0.002987
     8  H    0.008427   0.000070  -0.004788   0.000184  -0.040673   0.000172
     9  H   -0.031592  -0.000241   0.009531   0.000284   0.053603   0.002799
    10  C    0.002198   0.001749   0.138436   0.000001   0.272567  -0.082717
    11  H   -0.025554   0.001655   0.008248  -0.000832   0.046431   0.016969
    12  H   -0.003964  -0.000242   0.002674   0.001000  -0.059873   0.004724
    13  N    0.179140   0.004118   0.393708  -0.025395  -0.132661  -0.467414
    14  C   -4.130305  -0.029281  -1.979995   0.273877  -4.324115   0.207424
    15  C    0.008754   0.292554  -3.953511   0.123907  -0.127774  -0.532366
    16  H    0.290245  -0.013404   0.007587   0.001446  -0.103254  -0.007132
    17  C   -4.325689   1.368053   1.171111  -0.708687  -3.911340   0.313344
    18  Cl   0.250997  -0.091506  -0.107697   0.007946   0.063939  -0.011640
    19  C   16.706119  -1.452024  -3.315134   0.239595   0.966778  -0.279441
    20  H   -1.452024   1.805980   0.123257  -0.116337  -0.472672   0.019920
    21  C   -3.315134   0.123257  21.182661  -1.764866  -6.729654   0.085242
    22  H    0.239595  -0.116337  -1.764866   1.891672   1.658424  -0.055452
    23  C    0.966778  -0.472672  -6.729654   1.658424  19.105984   0.008622
    24  S   -0.279441   0.019920   0.085242  -0.055452   0.008622  16.664410
    25  C    0.239820   0.009554  -1.151549   0.046409   0.074248   0.131882
    26  C   -0.178988  -0.010639   1.620540  -0.030963  -0.588955   0.318564
    27  C    0.118358   0.004394  -0.377029  -0.023863   0.526351  -0.529062
    28  H    0.016592   0.000216  -0.044610  -0.000287   0.039235  -0.001131
    29  C   -0.063953  -0.001374   0.150917   0.009456   0.004976   0.399252
    30  H   -0.001861  -0.000044   0.007122   0.000175  -0.009188  -0.003538
    31  C    0.051300   0.001089  -0.146153  -0.004395   0.023503  -0.351896
    32  H    0.001192   0.000030  -0.006960   0.000087   0.016026   0.018243
    33  C   -0.070262  -0.002981  -0.245261   0.034191  -0.461587  -0.102931
    34  H    0.000003   0.000173   0.055696  -0.001465   0.025161  -0.029279
    35  H    0.001184   0.000066  -0.001373  -0.000069   0.004387  -0.000791
              25         26         27         28         29         30
     1  N    0.000326  -0.019808   0.006489  -0.006892  -0.002103   0.000040
     2  H    0.000343   0.005138  -0.002333  -0.003925  -0.000155   0.000129
     3  H   -0.000241  -0.001487  -0.001354  -0.000133   0.000468  -0.000005
     4  C   -0.017241  -0.020574  -0.131447   0.005904   0.059147   0.001308
     5  H   -0.002057   0.033057  -0.036565  -0.013784  -0.010957   0.000462
     6  H    0.000104   0.005359   0.000150   0.010626   0.011561   0.000455
     7  C   -0.061318   0.288530  -0.142523  -0.055828  -0.142079   0.009211
     8  H    0.029054  -0.215963   0.024967  -0.137555   0.028538   0.000213
     9  H   -0.025470   0.251560   0.004719   0.043054  -0.023873   0.000676
    10  C    0.059169  -1.402937   0.701618  -0.225016  -0.351723   0.024870
    11  H    0.029173  -0.067868  -0.118718   0.026200  -0.027377   0.001898
    12  H   -0.016122   0.396098   0.013408  -0.187816   0.088040   0.002147
    13  N   -0.470732  -1.131554   0.589679  -0.003953  -0.353554  -0.009825
    14  C   -0.260933  -4.718029  -0.699163  -0.263100   0.142052   0.045885
    15  C    0.825614  -1.285323   0.696038   0.092035  -0.243510  -0.015472
    16  H    0.027869  -0.280225   0.074225   0.001117   0.008409  -0.000139
    17  C    0.062838   0.202205  -0.154472   0.003971   0.035404   0.000979
    18  Cl  -0.003428   0.002793   0.002163  -0.000097  -0.000326  -0.000023
    19  C    0.239820  -0.178988   0.118358   0.016592  -0.063953  -0.001861
    20  H    0.009554  -0.010639   0.004394   0.000216  -0.001374  -0.000044
    21  C   -1.151549   1.620540  -0.377029  -0.044610   0.150917   0.007122
    22  H    0.046409  -0.030963  -0.023863  -0.000287   0.009456   0.000175
    23  C    0.074248  -0.588955   0.526351   0.039235   0.004976  -0.009188
    24  S    0.131882   0.318564  -0.529062  -0.001131   0.399252  -0.003538
    25  C   14.973932  -3.271894  -1.216095   0.133750  -0.621318  -0.207068
    26  C   -3.271894  23.533542  -5.854700   0.769878   0.453826   0.239733
    27  C   -1.216095  -5.854700  16.980409  -1.525056  -4.399409   0.565201
    28  H    0.133750   0.769878  -1.525056   3.515975  -0.145147  -0.151959
    29  C   -0.621318   0.453826  -4.399409  -0.145147  13.222549  -1.001409
    30  H   -0.207068   0.239733   0.565201  -0.151959  -1.001409   1.789561
    31  C   -0.536398  -1.889843   2.002841  -0.187197  -2.849661   0.392531
    32  H    0.047479  -0.207454   0.100801  -0.010696   0.468055  -0.052635
    33  C   -3.933346  -1.057789  -2.519045   0.197227   1.176618  -0.108311
    34  H    0.799975   0.210181  -0.002276  -0.003120  -0.197981  -0.005272
    35  H    0.000325  -0.003431   0.012382   0.006199  -0.000358  -0.000275
              31         32         33         34         35
     1  N    0.000392   0.000009   0.000147   0.000007   0.373577
     2  H   -0.000619  -0.000020   0.000461   0.000010  -0.055527
     3  H    0.000093  -0.000001  -0.000125  -0.000002  -0.055468
     4  C   -0.002457  -0.000591  -0.008847   0.000129   0.019364
     5  H   -0.005012  -0.000127  -0.000676   0.000140  -0.041307
     6  H    0.000618  -0.000028  -0.000113   0.000008   0.021872
     7  C   -0.013644  -0.000011   0.053239   0.002251  -0.056179
     8  H   -0.004665  -0.000747  -0.020711   0.000231  -0.004301
     9  H    0.001322   0.000366   0.011879   0.000084   0.005852
    10  C    0.141591   0.004719  -0.027775   0.001367   0.029184
    11  H   -0.011084  -0.000049   0.024405   0.000657   0.000954
    12  H    0.018989   0.000127  -0.055180   0.000011   0.005775
    13  N    0.390334  -0.003243  -0.011175  -0.005706  -0.006549
    14  C    0.163899  -0.021669   0.640711  -0.031824  -0.015505
    15  C    0.142901   0.007376  -0.429554  -0.028779   0.005052
    16  H    0.015228   0.000116  -0.037209   0.000211   0.000863
    17  C   -0.037272  -0.000820   0.106680   0.006015  -0.001592
    18  Cl   0.000382   0.000015  -0.001525  -0.000169   0.000496
    19  C    0.051300   0.001192  -0.070262   0.000003   0.001184
    20  H    0.001089   0.000030  -0.002981   0.000173   0.000066
    21  C   -0.146153  -0.006960  -0.245261   0.055696  -0.001373
    22  H   -0.004395   0.000087   0.034191  -0.001465  -0.000069
    23  C    0.023503   0.016026  -0.461587   0.025161   0.004387
    24  S   -0.351896   0.018243  -0.102931  -0.029279  -0.000791
    25  C   -0.536398   0.047479  -3.933346   0.799975   0.000325
    26  C   -1.889843  -0.207454  -1.057789   0.210181  -0.003431
    27  C    2.002841   0.100801  -2.519045  -0.002276   0.012382
    28  H   -0.187197  -0.010696   0.197227  -0.003120   0.006199
    29  C   -2.849661   0.468055   1.176618  -0.197981  -0.000358
    30  H    0.392531  -0.052635  -0.108311  -0.005272  -0.000275
    31  C   10.038672  -0.633679  -1.385247   0.068357   0.000911
    32  H   -0.633679   1.649716   0.133868  -0.077034   0.000039
    33  C   -1.385247   0.133868  14.728338  -0.994753  -0.000017
    34  H    0.068357  -0.077034  -0.994753   1.716146  -0.000012
    35  H    0.000911   0.000039  -0.000017  -0.000012   0.528782
 Mulliken charges:
               1
     1  N   -0.457683
     2  H    0.254302
     3  H    0.164026
     4  C    1.155801
     5  H   -0.121810
     6  H   -0.113108
     7  C    0.224468
     8  H   -0.113697
     9  H   -0.231423
    10  C    1.035425
    11  H   -0.299500
    12  H   -0.350286
    13  N   -1.054992
    14  C   -0.364144
    15  C    1.677577
    16  H   -0.811798
    17  C   -0.890359
    18  Cl  -0.371134
    19  C    0.794921
    20  H   -0.441667
    21  C    0.845109
    22  H   -0.558114
    23  C    0.228485
    24  S    0.258394
    25  C    0.303349
    26  C   -0.092578
    27  C    1.308918
    28  H   -0.894675
    29  C    0.176997
    30  H   -0.515574
    31  C    0.604271
    32  H   -0.432502
    33  C    0.366656
    34  H   -0.509140
    35  H    0.225486
 Sum of Mulliken charges =   1.00000
 Mulliken charges with hydrogens summed into heavy atoms:
               1
     1  N    0.186132
     4  C    0.920883
     7  C   -0.120652
    10  C    0.385640
    13  N   -1.054992
    14  C   -0.364144
    15  C    0.865779
    17  C   -0.890359
    18  Cl  -0.371134
    19  C    0.353253
    21  C    0.286995
    23  C    0.228485
    24  S    0.258394
    25  C    0.303349
    26  C   -0.092578
    27  C    0.414243
    29  C   -0.338577
    31  C    0.171769
    33  C   -0.142484
 Electronic spatial extent (au):  <R**2>=           6610.2419
 Charge=              1.0000 electrons
 Dipole moment (field-independent basis, Debye):
    X=              3.3211    Y=             19.2553    Z=             -1.7687  Tot=             19.6195
 Quadrupole moment (field-independent basis, Debye-Ang):
   XX=           -105.6935   YY=            -19.8123   ZZ=           -127.3997
   XY=             23.9807   XZ=             -7.6272   YZ=            -11.9310
 Traceless Quadrupole moment (field-independent basis, Debye-Ang):
   XX=            -21.3917   YY=             64.4895   ZZ=            -43.0979
   XY=             23.9807   XZ=             -7.6272   YZ=            -11.9310
 Octapole moment (field-independent basis, Debye-Ang**2):
  XXX=            -48.6365  YYY=            445.2857  ZZZ=            -11.1557  XYY=            146.4532
  XXY=             47.2720  XXZ=             11.7657  XZZ=             20.6221  YZZ=             43.7773
  YYZ=            -50.2229  XYZ=            -22.2330
 Hexadecapole moment (field-independent basis, Debye-Ang**3):
 XXXX=          -4636.6938 YYYY=          -1174.8901 ZZZZ=           -328.6086 XXXY=            183.3890
 XXXZ=           -108.2550 YYYX=            570.9652 YYYZ=           -278.7486 ZZZX=              0.3783
 ZZZY=            -47.2899 XXYY=          -1065.4084 XXZZ=           -942.2057 YYZZ=           -561.8535
 XXYZ=            -38.1338 YYXZ=            -90.9981 ZZXY=             41.6629
 N-N= 1.642465236774D+03 E-N=-6.905665984551D+03  KE= 1.542414544583D+03
 Leave Link  601 at Sun Jul 18 18:22:38 2021, MaxMem=   262144000 cpu:               0.5 elap:               0.5
 (Enter /dades/curu/g16A03_MST/g16/l9999.exe)
 1\1\GINC-PIRINEUS28\SP\RMP2-FC\Aug-CC-pVDZ\C15H16Cl1N2S1(1+)\UBATOR02\
 18-Jul-2021\0\\#p mp2/aug-cc-pVDZ scf=tight maxdisk=180GB geom=allchec
 k\\SET_328_BBB29_conf1.geo_285_180_300 geometry\\1,1\N,0,0.9557261391,
 1.4970909255,-3.9182653318\H,0,0.4463736911,2.3608837334,-3.6892155368
 \H,0,1.10094275,1.5053579083,-4.9372219084\C,0,0.2060955144,0.26093827
 63,-3.4900914107\H,0,0.8730191037,-0.5814370457,-3.6822200552\H,0,-0.6
 471738682,0.1798452833,-4.1615978424\C,0,-0.2662356585,0.2952028247,-2
 .0425322918\H,0,-0.8902690377,-0.5901671237,-1.9087388583\H,0,-0.92954
 36956,1.1507468433,-1.8907891134\C,0,0.8695695844,0.2777488903,-0.9970
 627094\H,0,1.3857787141,1.2396075946,-0.9717079244\H,0,1.6113602883,-0
 .4743594231,-1.2786630819\N,0,0.4611706293,-0.0163988562,0.3754341411\
 C,0,-0.0240565676,1.0351817514,1.1787358243\C,0,-0.3937995722,2.266946
 3909,0.6166749655\H,0,-0.3318882902,2.4339650225,-0.4475381853\C,0,-0.
 8512022637,3.3030575851,1.4276412902\Cl,0,-1.2823284952,4.8288314172,0
 .6699433005\C,0,-0.9916070493,3.1569105346,2.7998293961\H,0,-1.3616917
 346,3.9682161307,3.4126061127\C,0,-0.6363258874,1.9304135729,3.3605344
 53\H,0,-0.7246257932,1.7835981007,4.4312471464\C,0,-0.1349306264,0.893
 1906949,2.5778488711\S,0,0.5005203624,-0.551193437,3.3885949014\C,0,0.
 225658208,-1.7489752152,2.1055308134\C,0,0.2976300181,-1.3735404263,0.
 7502114468\C,0,0.2243555536,-2.3927825503,-0.2110303427\H,0,0.27337865
 64,-2.1526055105,-1.2634571684\C,0,0.0879647867,-3.7305884612,0.160046
 1412\H,0,0.0461011176,-4.4897677453,-0.6135624249\C,0,-0.0105449091,-4
 .084308592,1.5014975012\H,0,-0.1294270411,-5.1200650301,1.7957836468\C
 ,0,0.0480297122,-3.0828465608,2.4709852389\H,0,-0.0186768419,-3.331825
 5296,3.5249416557\H,0,1.8906525025,1.5741280263,-3.4983926604\\Version
 =ES64L-G16RevA.03\State=1-A\HF=-1543.1122646\MP2=-1545.8167647\RMSD=4.
 351e-09\PG=C01 [X(C15H16Cl1N2S1)]\\@


 WE THE UNWILLING
 LED BY THE UNQUALIFIED
 HAVE BEEN DOING THE UNBELIEVABLE SO LONG WITH SO LITTLE
 THAT WE NOW ATTEMPT THE IMPOSSIBLE WITH NOTHING.

                                    -- ANONYMOUS
 Job cpu time:       0 days  4 hours 22 minutes 50.2 seconds.
 Elapsed time:       0 days  1 hours 31 minutes 26.0 seconds.
 File lengths (MBytes):  RWF= 105263 Int=      0 D2E=      0 Chk=     29 Scr=      1
 Normal termination of Gaussian 16 at Sun Jul 18 18:22:40 2021.
