 Entering Gaussian System, Link 0=g16
 Input=SET_328_BBB292_conf1.geo_105_165_120_OCTANOL.dat
 Output=SET_328_BBB292_conf1.geo_105_165_120_OCTANOL.log
 Initial command:
 /dades/curu/g16A03_MST/g16/l1.exe "/tmp/ubator02/1839587/Gau-185296.inp" -scrdir="/tmp/ubator02/1839587/"
 Entering Link 1 = /dades/curu/g16A03_MST/g16/l1.exe PID=    185306.
  
 Copyright (c) 1988,1990,1992,1993,1995,1998,2003,2009,2016,
            Gaussian, Inc.  All Rights Reserved.
  
 This is part of the Gaussian(R) 16 program.  It is based on
 the Gaussian(R) 09 system (copyright 2009, Gaussian, Inc.),
 the Gaussian(R) 03 system (copyright 2003, Gaussian, Inc.),
 the Gaussian(R) 98 system (copyright 1998, Gaussian, Inc.),
 the Gaussian(R) 94 system (copyright 1995, Gaussian, Inc.),
 the Gaussian 92(TM) system (copyright 1992, Gaussian, Inc.),
 the Gaussian 90(TM) system (copyright 1990, Gaussian, Inc.),
 the Gaussian 88(TM) system (copyright 1988, Gaussian, Inc.),
 the Gaussian 86(TM) system (copyright 1986, Carnegie Mellon
 University), and the Gaussian 82(TM) system (copyright 1983,
 Carnegie Mellon University). Gaussian is a federally registered
 trademark of Gaussian, Inc.
  
 This software contains proprietary and confidential information,
 including trade secrets, belonging to Gaussian, Inc.
  
 This software is provided under written license and may be
 used, copied, transmitted, or stored only in accord with that
 written license.
  
 The following legend is applicable only to US Government
 contracts under FAR:
  
                    RESTRICTED RIGHTS LEGEND
  
 Use, reproduction and disclosure by the US Government is
 subject to restrictions as set forth in subparagraphs (a)
 and (c) of the Commercial Computer Software - Restricted
 Rights clause in FAR 52.227-19.
  
 Gaussian, Inc.
 340 Quinnipiac St., Bldg. 40, Wallingford CT 06492
  
  
 ---------------------------------------------------------------
 Warning -- This program may not be used in any manner that
 competes with the business of Gaussian, Inc. or will provide
 assistance to any competitor of Gaussian, Inc.  The licensee
 of this program is prohibited from giving any competitor of
 Gaussian, Inc. access to this program.  By using this program,
 the user acknowledges that Gaussian, Inc. is engaged in the
 business of creating and licensing software in the field of
 computational chemistry and represents and warrants to the
 licensee that it is not a competitor of Gaussian, Inc. and that
 it will not use this program in any manner prohibited above.
 ---------------------------------------------------------------
  

 Cite this work as:
 Gaussian 16, Revision A.03,
 M. J. Frisch, G. W. Trucks, H. B. Schlegel, G. E. Scuseria, 
 M. A. Robb, J. R. Cheeseman, G. Scalmani, V. Barone, 
 G. A. Petersson, H. Nakatsuji, X. Li, M. Caricato, A. V. Marenich, 
 J. Bloino, B. G. Janesko, R. Gomperts, B. Mennucci, H. P. Hratchian, 
 J. V. Ortiz, A. F. Izmaylov, J. L. Sonnenberg, D. Williams-Young, 
 F. Ding, F. Lipparini, F. Egidi, J. Goings, B. Peng, A. Petrone, 
 T. Henderson, D. Ranasinghe, V. G. Zakrzewski, J. Gao, N. Rega, 
 G. Zheng, W. Liang, M. Hada, M. Ehara, K. Toyota, R. Fukuda, 
 J. Hasegawa, M. Ishida, T. Nakajima, Y. Honda, O. Kitao, H. Nakai, 
 T. Vreven, K. Throssell, J. A. Montgomery, Jr., J. E. Peralta, 
 F. Ogliaro, M. J. Bearpark, J. J. Heyd, E. N. Brothers, K. N. Kudin, 
 V. N. Staroverov, T. A. Keith, R. Kobayashi, J. Normand, 
 K. Raghavachari, A. P. Rendell, J. C. Burant, S. S. Iyengar, 
 J. Tomasi, M. Cossi, J. M. Millam, M. Klene, C. Adamo, R. Cammi, 
 J. W. Ochterski, R. L. Martin, K. Morokuma, O. Farkas, 
 J. B. Foresman, and D. J. Fox, Gaussian, Inc., Wallingford CT, 2016.
 
 ******************************************
 Gaussian 16:  ES64L-G16RevA.03 25-Dec-2016
                18-Jul-2021 
 ******************************************
 %mem=800MB
 %nproc=4
 Will use up to    4 processors via shared memory.
 %chk=SET_328_BBB292_conf1.geo_105_165_120.chk
 ---------------------------------------------------------------
 #p b3lyp/6-31G(d) opt freq scrf=(iefpcm,read,solvent=n-octanol)
 ---------------------------------------------------------------
 1/18=20,19=15,26=3,38=1,40=2/1,3;
 2/9=110,12=2,17=6,18=5,40=1/2;
 3/5=1,6=6,7=1,11=2,25=1,30=1,70=2203,71=1,72=25,74=-5/1,2,3;
 4//1;
 5/5=2,38=5,53=25/2;
 6/7=2,8=2,9=2,10=2,28=1/1;
 7//1,2,3,16;
 1/18=20,19=15,26=3/3(2);
 2/9=110/2;
 99//99;
 2/9=110/2;
 3/5=1,6=6,7=1,11=2,25=1,30=1,70=2205,71=1,72=25,74=-5/1,2,3;
 4/5=5,16=3,69=1/1;
 5/5=2,38=5,53=25/2;
 7//1,2,3,16;
 1/18=20,19=15,26=3/3(-5);
 2/9=110/2;
 6/7=2,8=2,9=2,10=2,19=2,28=1/1;
 99/9=1/99;
 Leave Link    1 at Sun Jul 18 13:47:46 2021, MaxMem=   104857600 cpu:               0.1 elap:               0.1
 (Enter /dades/curu/g16A03_MST/g16/l101.exe)
 ---------------------------------------------
 SET_328_BBB292_conf1.geo_105_165_120 geometry
 ---------------------------------------------
 Symbolic Z-matrix:
 Charge =  1 Multiplicity = 1
 N                    -2.126    -0.393    -1.152 
 H                    -2.989    -0.626    -0.705 
 H                    -1.408    -1.012    -0.834 
 C                    -1.76      0.994    -0.821 
 C                    -2.424     2.066    -1.667 
 O                    -3.174     1.598    -2.594 
 H                    -2.979     0.673    -2.358 
 O                    -1.967     3.195    -1.868 
 H                    -1.989     1.29      0.206 
 C                    -0.261     1.052    -0.919 
 H                    -0.001     2.105    -0.79 
 H                    -0.036     0.756    -1.946 
 C                     0.542     0.231     0.128 
 C                     1.131    -0.936    -0.285 
 H                     0.835    -1.345    -1.248 
 C                     1.903    -1.606     0.666 
 O                     2.541    -2.731     0.255 
 H                     2.159    -2.977    -0.606 
 C                     1.964    -1.148     2.019 
 O                     2.677    -1.843     2.996 
 H                     3.329    -2.3       2.434 
 C                     1.401     0.039     2.388 
 H                     1.508     0.355     3.422 
 C                     0.703     0.745     1.396 
 H                     0.357     1.765     1.539 
 H                    -2.229    -0.483    -2.143 
 
 ITRead=  0  0  0  0  0  0  0  0  0  0  0  0  0  0  0  0  0  0  0  0
 ITRead=  0  0  0  0  0  0
 MicOpt= -1 -1 -1 -1 -1 -1 -1 -1 -1 -1 -1 -1 -1 -1 -1 -1 -1 -1 -1 -1
 MicOpt= -1 -1 -1 -1 -1 -1
 NAtoms=     26 NQM=       26 NQMF=       0 NMMI=      0 NMMIF=      0
                NMic=       0 NMicF=      0.
                    Isotopes and Nuclear Properties:
 (Nuclear quadrupole moments (NQMom) in fm**2, nuclear magnetic moments (NMagM)
  in nuclear magnetons)

  Atom         1           2           3           4           5           6           7           8           9          10
 IAtWgt=          14           1           1          12          12          16           1          16           1          12
 AtmWgt=  14.0030740   1.0078250   1.0078250  12.0000000  12.0000000  15.9949146   1.0078250  15.9949146   1.0078250  12.0000000
 NucSpn=           2           1           1           0           0           0           1           0           1           0
 AtZEff=  -0.0000000  -0.0000000  -0.0000000  -0.0000000  -0.0000000  -0.0000000  -0.0000000  -0.0000000  -0.0000000  -0.0000000
 NQMom=    2.0440000   0.0000000   0.0000000   0.0000000   0.0000000   0.0000000   0.0000000   0.0000000   0.0000000   0.0000000
 NMagM=    0.4037610   2.7928460   2.7928460   0.0000000   0.0000000   0.0000000   2.7928460   0.0000000   2.7928460   0.0000000
 AtZNuc=   7.0000000   1.0000000   1.0000000   6.0000000   6.0000000   8.0000000   1.0000000   8.0000000   1.0000000   6.0000000

  Atom        11          12          13          14          15          16          17          18          19          20
 IAtWgt=           1           1          12          12           1          12          16           1          12          16
 AtmWgt=   1.0078250   1.0078250  12.0000000  12.0000000   1.0078250  12.0000000  15.9949146   1.0078250  12.0000000  15.9949146
 NucSpn=           1           1           0           0           1           0           0           1           0           0
 AtZEff=  -0.0000000  -0.0000000  -0.0000000  -0.0000000  -0.0000000  -0.0000000  -0.0000000  -0.0000000  -0.0000000  -0.0000000
 NQMom=    0.0000000   0.0000000   0.0000000   0.0000000   0.0000000   0.0000000   0.0000000   0.0000000   0.0000000   0.0000000
 NMagM=    2.7928460   2.7928460   0.0000000   0.0000000   2.7928460   0.0000000   0.0000000   2.7928460   0.0000000   0.0000000
 AtZNuc=   1.0000000   1.0000000   6.0000000   6.0000000   1.0000000   6.0000000   8.0000000   1.0000000   6.0000000   8.0000000

  Atom        21          22          23          24          25          26
 IAtWgt=           1          12           1          12           1           1
 AtmWgt=   1.0078250  12.0000000   1.0078250  12.0000000   1.0078250   1.0078250
 NucSpn=           1           0           1           0           1           1
 AtZEff=  -0.0000000  -0.0000000  -0.0000000  -0.0000000  -0.0000000  -0.0000000
 NQMom=    0.0000000   0.0000000   0.0000000   0.0000000   0.0000000   0.0000000
 NMagM=    2.7928460   0.0000000   2.7928460   0.0000000   2.7928460   2.7928460
 AtZNuc=   1.0000000   6.0000000   1.0000000   6.0000000   1.0000000   1.0000000
 Leave Link  101 at Sun Jul 18 13:47:46 2021, MaxMem=   104857600 cpu:               0.1 elap:               0.2
 (Enter /dades/curu/g16A03_MST/g16/l103.exe)

 GradGradGradGradGradGradGradGradGradGradGradGradGradGradGradGradGradGrad
 Berny optimization.
 Initialization pass.
                           ----------------------------
                           !    Initial Parameters    !
                           ! (Angstroms and Degrees)  !
 --------------------------                            --------------------------
 ! Name  Definition              Value          Derivative Info.                !
 --------------------------------------------------------------------------------
 ! R1    R(1,2)                  0.9994         estimate D2E/DX2                !
 ! R2    R(1,3)                  0.9999         estimate D2E/DX2                !
 ! R3    R(1,4)                  1.4722         estimate D2E/DX2                !
 ! R4    R(1,26)                 1.0004         estimate D2E/DX2                !
 ! R5    R(4,5)                  1.5185         estimate D2E/DX2                !
 ! R6    R(4,9)                  1.0931         estimate D2E/DX2                !
 ! R7    R(4,10)                 1.5033         estimate D2E/DX2                !
 ! R8    R(5,6)                  1.281          estimate D2E/DX2                !
 ! R9    R(5,8)                  1.2345         estimate D2E/DX2                !
 ! R10   R(6,7)                  0.9743         estimate D2E/DX2                !
 ! R11   R(10,11)                1.0923         estimate D2E/DX2                !
 ! R12   R(10,12)                1.0922         estimate D2E/DX2                !
 ! R13   R(10,13)                1.554          estimate D2E/DX2                !
 ! R14   R(13,14)                1.3709         estimate D2E/DX2                !
 ! R15   R(13,24)                1.3777         estimate D2E/DX2                !
 ! R16   R(14,15)                1.0873         estimate D2E/DX2                !
 ! R17   R(14,16)                1.3962         estimate D2E/DX2                !
 ! R18   R(16,17)                1.3571         estimate D2E/DX2                !
 ! R19   R(16,19)                1.4297         estimate D2E/DX2                !
 ! R20   R(17,18)                0.9735         estimate D2E/DX2                !
 ! R21   R(19,20)                1.395          estimate D2E/DX2                !
 ! R22   R(19,22)                1.3646         estimate D2E/DX2                !
 ! R23   R(20,21)                0.9746         estimate D2E/DX2                !
 ! R24   R(22,23)                1.0865         estimate D2E/DX2                !
 ! R25   R(22,24)                1.4035         estimate D2E/DX2                !
 ! R26   R(24,25)                1.0865         estimate D2E/DX2                !
 ! A1    A(2,1,3)              109.4802         estimate D2E/DX2                !
 ! A2    A(2,1,4)              109.4971         estimate D2E/DX2                !
 ! A3    A(2,1,26)             109.4616         estimate D2E/DX2                !
 ! A4    A(3,1,4)              109.4642         estimate D2E/DX2                !
 ! A5    A(3,1,26)             109.4681         estimate D2E/DX2                !
 ! A6    A(4,1,26)             109.456          estimate D2E/DX2                !
 ! A7    A(1,4,5)              115.5403         estimate D2E/DX2                !
 ! A8    A(1,4,9)              114.475          estimate D2E/DX2                !
 ! A9    A(1,4,10)             105.6399         estimate D2E/DX2                !
 ! A10   A(5,4,9)              103.9264         estimate D2E/DX2                !
 ! A11   A(5,4,10)             111.8677         estimate D2E/DX2                !
 ! A12   A(9,4,10)             105.0524         estimate D2E/DX2                !
 ! A13   A(4,5,6)              113.6586         estimate D2E/DX2                !
 ! A14   A(4,5,8)              125.0639         estimate D2E/DX2                !
 ! A15   A(6,5,8)              115.662          estimate D2E/DX2                !
 ! A16   A(5,6,7)               93.1176         estimate D2E/DX2                !
 ! A17   A(4,10,11)            105.4768         estimate D2E/DX2                !
 ! A18   A(4,10,12)            104.8476         estimate D2E/DX2                !
 ! A19   A(4,10,13)            116.8033         estimate D2E/DX2                !
 ! A20   A(11,10,12)           108.8611         estimate D2E/DX2                !
 ! A21   A(11,10,13)           107.8628         estimate D2E/DX2                !
 ! A22   A(12,10,13)           112.5738         estimate D2E/DX2                !
 ! A23   A(10,13,14)           117.9537         estimate D2E/DX2                !
 ! A24   A(10,13,24)           118.9063         estimate D2E/DX2                !
 ! A25   A(14,13,24)           123.0024         estimate D2E/DX2                !
 ! A26   A(13,14,15)           118.0382         estimate D2E/DX2                !
 ! A27   A(13,14,16)           116.1595         estimate D2E/DX2                !
 ! A28   A(15,14,16)           124.9797         estimate D2E/DX2                !
 ! A29   A(14,16,17)           116.8393         estimate D2E/DX2                !
 ! A30   A(14,16,19)           120.9616         estimate D2E/DX2                !
 ! A31   A(17,16,19)           122.1486         estimate D2E/DX2                !
 ! A32   A(16,17,18)           107.0292         estimate D2E/DX2                !
 ! A33   A(16,19,20)           121.6683         estimate D2E/DX2                !
 ! A34   A(16,19,22)           121.128          estimate D2E/DX2                !
 ! A35   A(20,19,22)           117.0567         estimate D2E/DX2                !
 ! A36   A(19,20,21)            99.8863         estimate D2E/DX2                !
 ! A37   A(19,22,23)           118.0155         estimate D2E/DX2                !
 ! A38   A(19,22,24)           116.8487         estimate D2E/DX2                !
 ! A39   A(23,22,24)           125.124          estimate D2E/DX2                !
 ! A40   A(13,24,22)           121.3994         estimate D2E/DX2                !
 ! A41   A(13,24,25)           115.7324         estimate D2E/DX2                !
 ! A42   A(22,24,25)           122.5194         estimate D2E/DX2                !
 ! D1    D(2,1,4,5)            -82.724          estimate D2E/DX2                !
 ! D2    D(2,1,4,9)             37.9791         estimate D2E/DX2                !
 ! D3    D(2,1,4,10)           153.0506         estimate D2E/DX2                !
 ! D4    D(3,1,4,5)            157.2534         estimate D2E/DX2                !
 ! D5    D(3,1,4,9)            -82.0436         estimate D2E/DX2                !
 ! D6    D(3,1,4,10)            33.028          estimate D2E/DX2                !
 ! D7    D(26,1,4,5)            37.2707         estimate D2E/DX2                !
 ! D8    D(26,1,4,9)           157.9738         estimate D2E/DX2                !
 ! D9    D(26,1,4,10)          -86.9546         estimate D2E/DX2                !
 ! D10   D(1,4,5,6)             -2.7447         estimate D2E/DX2                !
 ! D11   D(1,4,5,8)           -155.0117         estimate D2E/DX2                !
 ! D12   D(9,4,5,6)           -129.0123         estimate D2E/DX2                !
 ! D13   D(9,4,5,8)             78.7207         estimate D2E/DX2                !
 ! D14   D(10,4,5,6)           118.168          estimate D2E/DX2                !
 ! D15   D(10,4,5,8)           -34.099          estimate D2E/DX2                !
 ! D16   D(1,4,10,11)          173.4879         estimate D2E/DX2                !
 ! D17   D(1,4,10,12)           58.6262         estimate D2E/DX2                !
 ! D18   D(1,4,10,13)          -66.7448         estimate D2E/DX2                !
 ! D19   D(5,4,10,11)           46.9899         estimate D2E/DX2                !
 ! D20   D(5,4,10,12)          -67.8718         estimate D2E/DX2                !
 ! D21   D(5,4,10,13)          166.7572         estimate D2E/DX2                !
 ! D22   D(9,4,10,11)          -65.1262         estimate D2E/DX2                !
 ! D23   D(9,4,10,12)         -179.9879         estimate D2E/DX2                !
 ! D24   D(9,4,10,13)           54.6411         estimate D2E/DX2                !
 ! D25   D(4,5,6,7)             -0.8414         estimate D2E/DX2                !
 ! D26   D(8,5,6,7)            154.1612         estimate D2E/DX2                !
 ! D27   D(4,10,13,14)         104.9827         estimate D2E/DX2                !
 ! D28   D(4,10,13,24)         -79.1527         estimate D2E/DX2                !
 ! D29   D(11,10,13,14)       -136.5324         estimate D2E/DX2                !
 ! D30   D(11,10,13,24)         39.3323         estimate D2E/DX2                !
 ! D31   D(12,10,13,14)        -16.4127         estimate D2E/DX2                !
 ! D32   D(12,10,13,24)        159.4519         estimate D2E/DX2                !
 ! D33   D(10,13,14,15)        -13.2238         estimate D2E/DX2                !
 ! D34   D(10,13,14,16)        176.6369         estimate D2E/DX2                !
 ! D35   D(24,13,14,15)        171.0932         estimate D2E/DX2                !
 ! D36   D(24,13,14,16)          0.9539         estimate D2E/DX2                !
 ! D37   D(10,13,24,22)        179.0268         estimate D2E/DX2                !
 ! D38   D(10,13,24,25)         -7.5902         estimate D2E/DX2                !
 ! D39   D(14,13,24,22)         -5.3294         estimate D2E/DX2                !
 ! D40   D(14,13,24,25)        168.0537         estimate D2E/DX2                !
 ! D41   D(13,14,16,17)       -177.1386         estimate D2E/DX2                !
 ! D42   D(13,14,16,19)          5.3906         estimate D2E/DX2                !
 ! D43   D(15,14,16,17)         13.4922         estimate D2E/DX2                !
 ! D44   D(15,14,16,19)       -163.9787         estimate D2E/DX2                !
 ! D45   D(14,16,17,18)        -13.279          estimate D2E/DX2                !
 ! D46   D(19,16,17,18)        164.1594         estimate D2E/DX2                !
 ! D47   D(14,16,19,20)        176.7814         estimate D2E/DX2                !
 ! D48   D(14,16,19,22)         -7.7563         estimate D2E/DX2                !
 ! D49   D(17,16,19,20)         -0.5531         estimate D2E/DX2                !
 ! D50   D(17,16,19,22)        174.9092         estimate D2E/DX2                !
 ! D51   D(16,19,20,21)         25.3815         estimate D2E/DX2                !
 ! D52   D(22,19,20,21)       -150.2571         estimate D2E/DX2                !
 ! D53   D(16,19,22,23)       -177.8501         estimate D2E/DX2                !
 ! D54   D(16,19,22,24)          3.3372         estimate D2E/DX2                !
 ! D55   D(20,19,22,23)         -2.1864         estimate D2E/DX2                !
 ! D56   D(20,19,22,24)        179.0009         estimate D2E/DX2                !
 ! D57   D(19,22,24,13)          2.9785         estimate D2E/DX2                !
 ! D58   D(19,22,24,25)       -169.9501         estimate D2E/DX2                !
 ! D59   D(23,22,24,13)       -175.7399         estimate D2E/DX2                !
 ! D60   D(23,22,24,25)         11.3315         estimate D2E/DX2                !
 --------------------------------------------------------------------------------
 Trust Radius=3.00D-01 FncErr=1.00D-07 GrdErr=1.00D-06 EigMax=2.50D+02 EigMin=1.00D-04
 Number of steps in this run=    138 maximum allowed number of steps=    156.
 GradGradGradGradGradGradGradGradGradGradGradGradGradGradGradGradGradGrad

 Leave Link  103 at Sun Jul 18 13:47:47 2021, MaxMem=   104857600 cpu:               0.1 elap:               0.5
 (Enter /dades/curu/g16A03_MST/g16/l202.exe)
                          Input orientation:                          
 ---------------------------------------------------------------------
 Center     Atomic      Atomic             Coordinates (Angstroms)
 Number     Number       Type             X           Y           Z
 ---------------------------------------------------------------------
      1          7           0       -2.126000   -0.393000   -1.152000
      2          1           0       -2.989000   -0.626000   -0.705000
      3          1           0       -1.408000   -1.012000   -0.834000
      4          6           0       -1.760000    0.994000   -0.821000
      5          6           0       -2.424000    2.066000   -1.667000
      6          8           0       -3.174000    1.598000   -2.594000
      7          1           0       -2.979000    0.673000   -2.358000
      8          8           0       -1.967000    3.195000   -1.868000
      9          1           0       -1.989000    1.290000    0.206000
     10          6           0       -0.261000    1.052000   -0.919000
     11          1           0       -0.001000    2.105000   -0.790000
     12          1           0       -0.036000    0.756000   -1.946000
     13          6           0        0.542000    0.231000    0.128000
     14          6           0        1.131000   -0.936000   -0.285000
     15          1           0        0.835000   -1.345000   -1.248000
     16          6           0        1.903000   -1.606000    0.666000
     17          8           0        2.541000   -2.731000    0.255000
     18          1           0        2.159000   -2.977000   -0.606000
     19          6           0        1.964000   -1.148000    2.019000
     20          8           0        2.677000   -1.843000    2.996000
     21          1           0        3.329000   -2.300000    2.434000
     22          6           0        1.401000    0.039000    2.388000
     23          1           0        1.508000    0.355000    3.422000
     24          6           0        0.703000    0.745000    1.396000
     25          1           0        0.357000    1.765000    1.539000
     26          1           0       -2.229000   -0.483000   -2.143000
 ---------------------------------------------------------------------
                    Distance matrix (angstroms):
                    1          2          3          4          5
     1  N    0.000000
     2  H    0.999433   0.000000
     3  H    0.999904   1.632543   0.000000
     4  C    1.472171   2.036737   2.036691   0.000000
     5  C    2.529962   2.914024   3.346674   1.518485   0.000000
     6  O    2.672405   2.923820   3.609495   2.346858   1.280958
     7  H    1.821648   2.102358   2.762217   1.987806   1.651047
     8  O    3.662196   4.122753   4.368122   2.446111   1.234460
     9  H    2.166892   2.345416   2.591981   1.093063   2.073531
    10  C    2.370768   3.209901   2.362822   1.503319   2.503252
    11  H    3.299496   4.048917   3.420128   2.080712   2.577126
    12  H    2.513710   3.488583   2.498950   2.072304   2.737971
    13  C    3.024235   3.727774   2.504594   2.604222   3.922551
    14  C    3.413882   4.152939   2.598788   3.517112   4.853860
    15  H    3.111759   3.928713   2.305067   3.519556   4.736197
    16  C    4.583594   5.174138   3.683145   4.731674   6.135911
    17  O    5.406180   5.994458   4.442464   5.790682   7.166346
    18  H    5.033527   5.660292   4.078811   5.583335   6.896482
    19  C    5.230045   5.676695   4.419105   5.149946   6.570459
    20  O    6.509778   6.876194   5.660979   6.504231   7.940028
    21  H    6.800961   7.250705   5.897282   6.880653   8.305249
    22  C    5.015770   5.411190   4.401859   4.604522   5.931474
    23  H    5.889562   6.182030   5.337160   5.393625   6.654778
    24  C    3.973737   4.463710   3.537834   3.323170   4.572214
    25  H    4.250145   4.684883   4.056856   3.262779   4.254762
    26  H    1.000395   1.632756   1.633206   2.036952   2.600385
                    6          7          8          9         10
     6  O    0.000000
     7  H    0.974344   0.000000
     8  O    2.129398   2.761291   0.000000
     9  H    3.055992   2.816893   2.816200   0.000000
    10  C    3.404308   3.098691   2.898877   2.075633   0.000000
    11  H    3.685023   3.657558   2.493058   2.368203   1.092268
    12  H    3.312991   2.972858   3.111843   2.954737   1.092232
    13  C    4.804855   4.332782   4.366279   2.744727   1.554046
    14  C    5.503241   4.876301   5.400801   3.864008   2.508339
    15  H    5.152188   4.455448   5.370959   4.127023   2.656137
    16  C    6.831482   6.178377   6.666908   4.872995   3.776253
    17  O    7.714808   6.991808   7.742523   6.057371   4.851862
    18  H    7.302305   6.541487   7.530611   6.006042   4.710330
    19  C    7.430971   6.848899   7.030162   4.985682   4.292140
    20  O    8.793337   8.184492   8.402778   6.274659   5.686835
    21  H    9.097483   8.461256   8.760699   6.792143   5.946984
    22  C    6.941284   6.489289   6.278320   4.221164   3.837273
    23  H    7.723887   7.324117   6.937242   4.842096   4.739140
    24  C    5.628396   5.258785   4.876997   2.993324   2.526414
    25  H    5.438524   5.244804   4.365034   2.739750   2.632880
    26  H    2.329589   1.394654   3.697560   2.952783   2.779825
                   11         12         13         14         15
    11  H    0.000000
    12  H    1.776897   0.000000
    13  C    2.156258   2.216119   0.000000
    14  C    3.283920   2.642664   1.370904   0.000000
    15  H    3.579268   2.379085   2.112582   1.087321   0.000000
    16  C    4.417768   4.020113   2.348688   1.396168   2.207293
    17  O    5.562435   4.862561   3.575692   2.345576   2.662788
    18  H    5.525050   4.533091   3.666703   2.307706   2.197399
    19  C    4.725856   4.831815   2.738541   2.459115   3.462187
    20  O    6.090335   6.207941   4.133416   3.738680   4.653225
    21  H    6.394302   6.312429   4.414857   3.752954   4.548537
    22  C    4.041490   4.621971   2.425355   2.858051   3.931451
    23  H    4.804219   5.600014   3.434963   3.943432   5.015160
    24  C    2.669047   3.422748   1.377658   2.415514   3.372871
    25  H    2.380757   3.649350   2.092439   3.349844   4.203326
    26  H    3.673192   2.526495   3.653174   3.866132   3.306382
                   16         17         18         19         20
    16  C    0.000000
    17  O    1.357052   0.000000
    18  H    1.887634   0.973530   0.000000
    19  C    1.429718   2.439368   3.205291   0.000000
    20  O    2.466606   2.884462   3.811651   1.394963   0.000000
    21  H    2.375065   2.356851   3.326985   1.833727   0.974575
    22  C    2.433786   3.677253   4.316811   1.364587   2.353670
    23  H    3.405449   4.540966   5.267904   2.106028   2.525716
    24  C    2.738631   4.094228   4.470036   2.358325   3.626902
    25  H    3.809972   5.160671   5.507703   3.361312   4.530222
    26  H    5.121038   5.792824   5.276073   5.945226   7.233793
                   21         22         23         24         25
    21  H    0.000000
    22  C    3.031538   0.000000
    23  H    3.367671   1.086490   0.000000
    24  C    4.152751   1.403461   2.214679   0.000000
    25  H    5.114493   2.188564   2.618891   1.086538   0.000000
    26  H    7.425751   5.829180   6.755489   4.757008   5.029714
                   26
    26  H    0.000000
 Stoichiometry    C9H12NO4(1+)
 Framework group  C1[X(C9H12NO4)]
 Deg. of freedom    72
 Full point group                 C1      NOp   1
 Largest Abelian subgroup         C1      NOp   1
 Largest concise Abelian subgroup C1      NOp   1
                         Standard orientation:                         
 ---------------------------------------------------------------------
 Center     Atomic      Atomic             Coordinates (Angstroms)
 Number     Number       Type             X           Y           Z
 ---------------------------------------------------------------------
      1          7           0        1.845061    1.202353    1.089047
      2          1           0        2.086904    1.160312    2.057867
      3          1           0        0.875758    1.429881    0.996898
      4          6           0        2.104289   -0.103550    0.460792
      5          6           0        3.540548   -0.351563    0.034828
      6          8           0        4.316556    0.647254    0.237388
      7          1           0        3.599286    1.199338    0.598042
      8          8           0        3.891393   -1.128721   -0.857822
      9          1           0        1.864112   -0.964455    1.090032
     10          6           0        1.152970   -0.190848   -0.699958
     11          1           0        1.426895   -1.103854   -1.233284
     12          1           0        1.395901    0.670336   -1.326310
     13          6           0       -0.361264   -0.273277   -0.360313
     14          6           0       -1.125579    0.847943   -0.555421
     15          1           0       -0.613835    1.792297   -0.724469
     16          6           0       -2.492832    0.711605   -0.307800
     17          8           0       -3.271149    1.795705   -0.553851
     18          1           0       -2.673569    2.555746   -0.667856
     19          6           0       -3.025257   -0.500388    0.232284
     20          8           0       -4.378050   -0.629714    0.547163
     21          1           0       -4.755266    0.032652   -0.060107
     22          6           0       -2.245618   -1.611099    0.375752
     23          1           0       -2.710922   -2.515261    0.758432
     24          6           0       -0.889755   -1.481848    0.037175
     25          1           0       -0.222391   -2.336013   -0.037606
     26          1           0        2.396701    1.904503    0.637973
 ---------------------------------------------------------------------
 Rotational constants (GHZ):           1.7775244           0.2983400           0.2743864
 Leave Link  202 at Sun Jul 18 13:47:47 2021, MaxMem=   104857600 cpu:               0.1 elap:               0.1
 (Enter /dades/curu/g16A03_MST/g16/l301.exe)
 Standard basis: 6-31G(d) (6D, 7F)
 Ernie: Thresh=  0.10000D-02 Tol=  0.10000D-05 Strict=F.
 There are   234 symmetry adapted cartesian basis functions of A   symmetry.
 There are   234 symmetry adapted basis functions of A   symmetry.
   234 basis functions,   440 primitive gaussians,   234 cartesian basis functions
    52 alpha electrons       52 beta electrons
       nuclear repulsion energy       895.8886480929 Hartrees.
 IExCor=  402 DFT=T Ex+Corr=B3LYP ExCW=0 ScaHFX=  0.200000
 ScaDFX=  0.800000  0.720000  1.000000  0.810000 ScalE2=  1.000000  1.000000
 IRadAn=      5 IRanWt=     -1 IRanGd=            0 ICorTp=0 IEmpDi=  4
 NAtoms=   26 NActive=   26 NUniq=   26 SFac= 1.00D+00 NAtFMM=   60 NAOKFM=F Big=F
 Integral buffers will be    131072 words long.
 Raffenetti 2 integral format.
 Two-electron integral symmetry is turned on.
 Using the following non-standard input for PCM:
 MSTModel=DFT cav MSTCharged
 --- end of non-standard input.
 MST model for solvation energy: B3LYP parametrization.
 MST cavity parameters:
 ISph   IAn     Re0     Alpha   Atom Type   QCorr
 ------------------------------------------------
   1      7     1.50     1.15      NH+        T
   2      1     0.90     1.15      NH+        T
   3      1     0.90     1.15      NH+        T
   4      6     1.50     1.50      CN+        F
   5      6     1.50     1.50      C          F
   6      8     1.40     1.50      OH         F
   7      1     0.90     1.50      OH         F
   8      8     1.40     1.50      O          F
   9      1     1.20     1.50      CN+        F
  10      6     1.50     1.50      CH2        F
  11      1     1.20     1.50      CH2        F
  12      1     1.20     1.50      CH2        F
  13      6     1.50     1.50      C          F
  14      6     1.50     1.50      CH         F
  15      1     1.20     1.50      CH         F
  16      6     1.50     1.50      C          F
  17      8     1.40     1.50      OH         F
  18      1     0.90     1.50      OH         F
  19      6     1.50     1.50      C          F
  20      8     1.40     1.50      OH         F
  21      1     0.90     1.50      OH         F
  22      6     1.50     1.50      CH         F
  23      1     1.20     1.50      CH         F
  24      6     1.50     1.50      CH         F
  25      1     1.20     1.50      CH         F
  26      1     0.90     1.15      NH+        T
 ------------------------------------------------------------------------------
 Polarizable Continuum Model (PCM)
 =================================
 Model                : PCM.
 Atomic radii         : MST.
 Polarization charges : Total charges.
 Charge compensation  : None.
 Solution method      : On-the-fly selection.
 Cavity type          : Scaled VdW (van der Waals Surface) (Alpha=1.500).
 Cavity algorithm     : GePol (No added spheres)
                        Default sphere list used, NSphG=   26.
                        Lebedev-Laikov grids with approx.  5.0 points / Ang**2.
                        Smoothing algorithm: York/Karplus (Gamma=1.0000).
                        Polarization charges: spherical gaussians, with
                                              point-specific exponents (IZeta= 3).
                        Self-potential: point-specific (ISelfS= 7).
                        Self-field    : sphere-specific E.n sum rule (ISelfD= 2).
 1st derivatives      : Analytical E(r).r(x)/FMM algorithm (CHGder, D1EAlg=3).
                        Cavity 1st derivative terms included.
 Solvent              : n-Octanol, Eps=   9.862900 Eps(inf)=   2.043470
 ------------------------------------------------------------------------------
 GePol: Number of generator spheres                  =      26
 GePol: Total number of spheres                      =      26
 GePol: Number of exposed spheres                    =      26 (100.00%)
 GePol: Number of points                             =    2218
 GePol: Average weight of points                     =       0.12
 GePol: Minimum weight of points                     =   0.15D-09
 GePol: Maximum weight of points                     =    0.21373
 GePol: Number of points with low weight             =     131
 GePol: Fraction of low-weight points (<1% of avg)   =       5.91%
 GePol: Cavity surface area                          =    264.209 Ang**2
 GePol: Cavity volume                                =    289.700 Ang**3
 Surface areas from nonelectrostatic (unscaled) cavity and vdw tensions:
 Sphere =    1 Type =  NH+ Surf =       11.287 Tension =       -0.274
 Sphere =    2 Type =  NH+ Surf =        3.854 Tension =       -0.274
 Sphere =    3 Type =  NH+ Surf =        3.826 Tension =       -0.274
 Sphere =    4 Type =  CN+ Surf =        2.736 Tension =       -0.227
 Sphere =    5 Type =  C   Surf =        6.967 Tension =       -0.205
 Sphere =    6 Type =  OH  Surf =       14.257 Tension =       -0.238
 Sphere =    7 Type =  OH  Surf =        2.138 Tension =       -0.238
 Sphere =    8 Type =  O   Surf =       16.111 Tension =       -0.185
 Sphere =    9 Type =  CN+ Surf =        9.795 Tension =       -0.227
 Sphere =   10 Type =  CH2 Surf =        3.341 Tension =       -0.194
 Sphere =   11 Type =  CH2 Surf =        9.353 Tension =       -0.194
 Sphere =   12 Type =  CH2 Surf =        9.694 Tension =       -0.194
 Sphere =   13 Type =  C   Surf =        6.070 Tension =       -0.205
 Sphere =   14 Type =  CH  Surf =        7.600 Tension =       -0.195
 Sphere =   15 Type =  CH  Surf =       10.094 Tension =       -0.195
 Sphere =   16 Type =  C   Surf =        6.755 Tension =       -0.205
 Sphere =   17 Type =  OH  Surf =       14.362 Tension =       -0.238
 Sphere =   18 Type =  OH  Surf =        4.378 Tension =       -0.238
 Sphere =   19 Type =  C   Surf =        6.702 Tension =       -0.205
 Sphere =   20 Type =  OH  Surf =       14.620 Tension =       -0.238
 Sphere =   21 Type =  OH  Surf =        4.330 Tension =       -0.238
 Sphere =   22 Type =  CH  Surf =        7.769 Tension =       -0.195
 Sphere =   23 Type =  CH  Surf =       10.219 Tension =       -0.195
 Sphere =   24 Type =  CH  Surf =        7.645 Tension =       -0.195
 Sphere =   25 Type =  CH  Surf =       10.051 Tension =       -0.195
 Sphere =   26 Type =  NH+ Surf =        3.417 Tension =       -0.274
 PCM non-electrostatic energy =        -0.0169611337 Hartrees.
 Nuclear repulsion after PCM non-electrostatic terms =      895.8716869593 Hartrees.
 Leave Link  301 at Sun Jul 18 13:47:47 2021, MaxMem=   104857600 cpu:               0.1 elap:               0.2
 (Enter /dades/curu/g16A03_MST/g16/l302.exe)
 NPDir=0 NMtPBC=     1 NCelOv=     1 NCel=       1 NClECP=     1 NCelD=      1
         NCelK=      1 NCelE2=     1 NClLst=     1 CellRange=     0.0.
 One-electron integrals computed using PRISM.
 One-electron integral symmetry used in STVInt
 NBasis=   234 RedAO= T EigKep=  4.51D-04  NBF=   234
 NBsUse=   234 1.00D-06 EigRej= -1.00D+00 NBFU=   234
 Precomputing XC quadrature grid using
 IXCGrd= 4 IRadAn=           5 IRanWt=          -1 IRanGd=           0 AccXCQ= 0.00D+00.
 Generated NRdTot=       0 NPtTot=           0 NUsed=           0 NTot=          32
 NSgBfM=   232   232   232   232   232 MxSgAt=    26 MxSgA2=    26.
 Leave Link  302 at Sun Jul 18 13:47:48 2021, MaxMem=   104857600 cpu:               2.5 elap:               0.9
 (Enter /dades/curu/g16A03_MST/g16/l303.exe)
 DipDrv:  MaxL=1.
 Leave Link  303 at Sun Jul 18 13:47:48 2021, MaxMem=   104857600 cpu:               0.1 elap:               0.1
 (Enter /dades/curu/g16A03_MST/g16/l401.exe)
 ExpMin= 1.61D-01 ExpMax= 5.48D+03 ExpMxC= 8.25D+02 IAcc=3 IRadAn=         5 AccDes= 0.00D+00
 Harris functional with IExCor=  402 and IRadAn=       5 diagonalized for initial guess.
 HarFok:  IExCor=  402 AccDes= 0.00D+00 IRadAn=         5 IDoV= 1 UseB2=F ITyADJ=14
 ICtDFT=  3500011 ScaDFX=  1.000000  1.000000  1.000000  1.000000
 FoFCou: FMM=F IPFlag=           0 FMFlag=      100000 FMFlg1=           0
         NFxFlg=           0 DoJE=T BraDBF=F KetDBF=T FulRan=T
         wScrn=  0.000000 ICntrl=       500 IOpCl=  0 I1Cent=   200000004 NGrid=           0
         NMat0=    1 NMatS0=      1 NMatT0=    0 NMatD0=    1 NMtDS0=    0 NMtDT0=    0
 Petite list used in FoFCou.
 Harris En= -705.581424116173    
 JPrj=0 DoOrth=F DoCkMO=F.
 Leave Link  401 at Sun Jul 18 13:47:54 2021, MaxMem=   104857600 cpu:              18.0 elap:               5.2
 (Enter /dades/curu/g16A03_MST/g16/l502.exe)
 Integral symmetry usage will be decided dynamically.
 Closed shell SCF:
 Using DIIS extrapolation, IDIIS=  1040.
 NGot=   104857600 LenX=   104743988 LenY=   104688791
 Requested convergence on RMS density matrix=1.00D-08 within 128 cycles.
 Requested convergence on MAX density matrix=1.00D-06.
 Requested convergence on             energy=1.00D-06.
 No special actions if energy rises.
 Fock matrices will be formed incrementally for  20 cycles.

 Cycle   1  Pass 1  IDiag  1:
 FoFJK:  IHMeth= 1 ICntrl=       0 DoSepK=F KAlg= 0 I1Cent=           0 FoldK=F
 IRaf= 850000000 NMat=       1 IRICut=       1 DoRegI=T DoRafI=F ISym2E= 0 IDoP0=0 IntGTp=1.
 FoFCou: FMM=F IPFlag=           0 FMFlag=      100000 FMFlg1=           0
         NFxFlg=           0 DoJE=F BraDBF=F KetDBF=F FulRan=T
         wScrn=  0.000000 ICntrl=         0 IOpCl=  0 I1Cent=           0 NGrid=           0
         NMat0=    1 NMatS0=      1 NMatT0=    0 NMatD0=    1 NMtDS0=    0 NMtDT0=    0
 Symmetry not used in FoFCou.
 Inv3:  Mode=1 IEnd=    14758572.
 Iteration    1 A*A^-1 deviation from unit magnitude is 8.88D-15 for   2201.
 Iteration    1 A*A^-1 deviation from orthogonality  is 2.56D-15 for   2213    697.
 Iteration    1 A^-1*A deviation from unit magnitude is 9.10D-15 for   2201.
 Iteration    1 A^-1*A deviation from orthogonality  is 1.83D-15 for   1359    104.
 E= -705.274279016645    
 DIIS: error= 2.94D-02 at cycle   1 NSaved=   1.
 NSaved= 1 IEnMin= 1 EnMin= -705.274279016645     IErMin= 1 ErrMin= 2.94D-02
 ErrMax= 2.94D-02  0.00D+00 EMaxC= 1.00D-01 BMatC= 3.86D-01 BMatP= 3.86D-01
 IDIUse=3 WtCom= 7.06D-01 WtEn= 2.94D-01
 Coeff-Com:  0.100D+01
 Coeff-En:   0.100D+01
 Coeff:      0.100D+01
 Gap=     0.208 Goal=   None    Shift=    0.000
 GapD=    0.208 DampG=1.000 DampE=0.500 DampFc=0.5000 IDamp=-1.
 Damping current iteration by 5.00D-01
 RMSDP=6.29D-03 MaxDP=2.43D-01              OVMax= 2.96D-01

 Cycle   2  Pass 1  IDiag  1:
 RMSU=  3.13D-03    CP:  9.88D-01
 E= -705.370698139674     Delta-E=       -0.096419123029 Rises=F Damp=T
 DIIS: error= 1.31D-02 at cycle   2 NSaved=   2.
 NSaved= 2 IEnMin= 2 EnMin= -705.370698139674     IErMin= 2 ErrMin= 1.31D-02
 ErrMax= 1.31D-02  0.00D+00 EMaxC= 1.00D-01 BMatC= 5.83D-02 BMatP= 3.86D-01
 IDIUse=3 WtCom= 8.69D-01 WtEn= 1.31D-01
 Coeff-Com:  0.203D+00 0.797D+00
 Coeff-En:   0.325D+00 0.675D+00
 Coeff:      0.219D+00 0.781D+00
 Gap=     0.155 Goal=   None    Shift=    0.000
 RMSDP=1.96D-03 MaxDP=6.85D-02 DE=-9.64D-02 OVMax= 2.61D-01

 Cycle   3  Pass 1  IDiag  1:
 RMSU=  1.74D-03    CP:  9.79D-01  7.17D-01
 E= -705.560174211771     Delta-E=       -0.189476072098 Rises=F Damp=F
 DIIS: error= 1.57D-02 at cycle   3 NSaved=   3.
 NSaved= 3 IEnMin= 3 EnMin= -705.560174211771     IErMin= 2 ErrMin= 1.31D-02
 ErrMax= 1.57D-02  0.00D+00 EMaxC= 1.00D-01 BMatC= 5.71D-02 BMatP= 5.83D-02
 IDIUse=3 WtCom= 8.43D-01 WtEn= 1.57D-01
 Coeff-Com:  0.598D-01 0.489D+00 0.451D+00
 Coeff-En:   0.000D+00 0.000D+00 0.100D+01
 Coeff:      0.504D-01 0.412D+00 0.538D+00
 Gap=     0.176 Goal=   None    Shift=    0.000
 RMSDP=1.24D-03 MaxDP=5.89D-02 DE=-1.89D-01 OVMax= 1.28D-01

 Cycle   4  Pass 1  IDiag  1:
 RMSU=  7.83D-04    CP:  9.83D-01  8.12D-01  4.80D-01
 E= -705.596356741682     Delta-E=       -0.036182529911 Rises=F Damp=F
 DIIS: error= 7.84D-03 at cycle   4 NSaved=   4.
 NSaved= 4 IEnMin= 4 EnMin= -705.596356741682     IErMin= 4 ErrMin= 7.84D-03
 ErrMax= 7.84D-03  0.00D+00 EMaxC= 1.00D-01 BMatC= 1.40D-02 BMatP= 5.71D-02
 IDIUse=3 WtCom= 9.22D-01 WtEn= 7.84D-02
 Coeff-Com:  0.121D-01 0.109D+00 0.337D+00 0.542D+00
 Coeff-En:   0.000D+00 0.000D+00 0.220D+00 0.780D+00
 Coeff:      0.112D-01 0.100D+00 0.328D+00 0.561D+00
 Gap=     0.176 Goal=   None    Shift=    0.000
 RMSDP=4.84D-04 MaxDP=2.14D-02 DE=-3.62D-02 OVMax= 4.29D-02

 Cycle   5  Pass 1  IDiag  1:
 RMSU=  2.35D-04    CP:  9.83D-01  7.64D-01  6.31D-01  6.21D-01
 E= -705.606038517223     Delta-E=       -0.009681775541 Rises=F Damp=F
 DIIS: error= 1.92D-03 at cycle   5 NSaved=   5.
 NSaved= 5 IEnMin= 5 EnMin= -705.606038517223     IErMin= 5 ErrMin= 1.92D-03
 ErrMax= 1.92D-03  0.00D+00 EMaxC= 1.00D-01 BMatC= 1.04D-03 BMatP= 1.40D-02
 IDIUse=3 WtCom= 9.81D-01 WtEn= 1.92D-02
 Coeff-Com:  0.140D-02 0.647D-02 0.138D+00 0.342D+00 0.512D+00
 Coeff-En:   0.000D+00 0.000D+00 0.000D+00 0.273D-01 0.973D+00
 Coeff:      0.138D-02 0.635D-02 0.136D+00 0.336D+00 0.521D+00
 Gap=     0.176 Goal=   None    Shift=    0.000
 RMSDP=1.42D-04 MaxDP=5.26D-03 DE=-9.68D-03 OVMax= 8.27D-03

 Cycle   6  Pass 1  IDiag  1:
 RMSU=  6.39D-05    CP:  9.83D-01  7.72D-01  6.30D-01  6.77D-01  5.08D-01
 E= -705.606892310239     Delta-E=       -0.000853793016 Rises=F Damp=F
 DIIS: error= 1.92D-04 at cycle   6 NSaved=   6.
 NSaved= 6 IEnMin= 6 EnMin= -705.606892310239     IErMin= 6 ErrMin= 1.92D-04
 ErrMax= 1.92D-04  0.00D+00 EMaxC= 1.00D-01 BMatC= 2.64D-05 BMatP= 1.04D-03
 IDIUse=3 WtCom= 9.98D-01 WtEn= 1.92D-03
 Coeff-Com:  0.191D-04-0.305D-02 0.359D-01 0.100D+00 0.225D+00 0.642D+00
 Coeff-En:   0.000D+00 0.000D+00 0.000D+00 0.000D+00 0.000D+00 0.100D+01
 Coeff:      0.190D-04-0.304D-02 0.358D-01 0.100D+00 0.225D+00 0.642D+00
 Gap=     0.177 Goal=   None    Shift=    0.000
 RMSDP=2.88D-05 MaxDP=8.68D-04 DE=-8.54D-04 OVMax= 2.56D-03

 Cycle   7  Pass 1  IDiag  1:
 RMSU=  1.86D-05    CP:  9.83D-01  7.73D-01  6.30D-01  6.74D-01  5.64D-01
                    CP:  7.29D-01
 E= -705.606913195924     Delta-E=       -0.000020885685 Rises=F Damp=F
 DIIS: error= 8.75D-05 at cycle   7 NSaved=   7.
 NSaved= 7 IEnMin= 7 EnMin= -705.606913195924     IErMin= 7 ErrMin= 8.75D-05
 ErrMax= 8.75D-05  0.00D+00 EMaxC= 1.00D-01 BMatC= 4.54D-06 BMatP= 2.64D-05
 IDIUse=1 WtCom= 1.00D+00 WtEn= 0.00D+00
 Coeff-Com: -0.322D-04-0.206D-02 0.116D-01 0.334D-01 0.974D-01 0.382D+00
 Coeff-Com:  0.478D+00
 Coeff:     -0.322D-04-0.206D-02 0.116D-01 0.334D-01 0.974D-01 0.382D+00
 Coeff:      0.478D+00
 Gap=     0.177 Goal=   None    Shift=    0.000
 RMSDP=1.09D-05 MaxDP=3.68D-04 DE=-2.09D-05 OVMax= 8.79D-04

 Cycle   8  Pass 1  IDiag  1:
 RMSU=  5.11D-06    CP:  9.83D-01  7.72D-01  6.31D-01  6.77D-01  5.61D-01
                    CP:  7.58D-01  5.43D-01
 E= -705.606917462947     Delta-E=       -0.000004267022 Rises=F Damp=F
 DIIS: error= 2.53D-05 at cycle   8 NSaved=   8.
 NSaved= 8 IEnMin= 8 EnMin= -705.606917462947     IErMin= 8 ErrMin= 2.53D-05
 ErrMax= 2.53D-05  0.00D+00 EMaxC= 1.00D-01 BMatC= 2.13D-07 BMatP= 4.54D-06
 IDIUse=1 WtCom= 1.00D+00 WtEn= 0.00D+00
 Coeff-Com:  0.310D-04-0.672D-03 0.191D-02 0.499D-02 0.237D-01 0.111D+00
 Coeff-Com:  0.212D+00 0.648D+00
 Coeff:      0.310D-04-0.672D-03 0.191D-02 0.499D-02 0.237D-01 0.111D+00
 Coeff:      0.212D+00 0.648D+00
 Gap=     0.177 Goal=   None    Shift=    0.000
 RMSDP=2.74D-06 MaxDP=6.73D-05 DE=-4.27D-06 OVMax= 2.13D-04

 Cycle   9  Pass 1  IDiag  1:
 RMSU=  1.61D-06    CP:  9.83D-01  7.72D-01  6.31D-01  6.76D-01  5.65D-01
                    CP:  7.63D-01  5.88D-01  6.84D-01
 E= -705.606917643104     Delta-E=       -0.000000180157 Rises=F Damp=F
 DIIS: error= 6.84D-06 at cycle   9 NSaved=   9.
 NSaved= 9 IEnMin= 9 EnMin= -705.606917643104     IErMin= 9 ErrMin= 6.84D-06
 ErrMax= 6.84D-06  0.00D+00 EMaxC= 1.00D-01 BMatC= 2.53D-08 BMatP= 2.13D-07
 IDIUse=1 WtCom= 1.00D+00 WtEn= 0.00D+00
 Coeff-Com:  0.278D-04-0.148D-03-0.121D-03-0.823D-03 0.246D-02 0.171D-01
 Coeff-Com:  0.547D-01 0.320D+00 0.607D+00
 Coeff:      0.278D-04-0.148D-03-0.121D-03-0.823D-03 0.246D-02 0.171D-01
 Coeff:      0.547D-01 0.320D+00 0.607D+00
 Gap=     0.177 Goal=   None    Shift=    0.000
 RMSDP=7.77D-07 MaxDP=1.94D-05 DE=-1.80D-07 OVMax= 4.27D-05

 Cycle  10  Pass 1  IDiag  1:
 RMSU=  4.66D-07    CP:  9.83D-01  7.72D-01  6.31D-01  6.76D-01  5.65D-01
                    CP:  7.65D-01  5.87D-01  7.62D-01  7.25D-01
 E= -705.606917665047     Delta-E=       -0.000000021943 Rises=F Damp=F
 DIIS: error= 1.12D-06 at cycle  10 NSaved=  10.
 NSaved=10 IEnMin=10 EnMin= -705.606917665047     IErMin=10 ErrMin= 1.12D-06
 ErrMax= 1.12D-06  0.00D+00 EMaxC= 1.00D-01 BMatC= 1.47D-09 BMatP= 2.53D-08
 IDIUse=1 WtCom= 1.00D+00 WtEn= 0.00D+00
 Coeff-Com:  0.120D-04-0.326D-04-0.164D-03-0.672D-03-0.272D-03 0.107D-02
 Coeff-Com:  0.118D-01 0.109D+00 0.281D+00 0.599D+00
 Coeff:      0.120D-04-0.326D-04-0.164D-03-0.672D-03-0.272D-03 0.107D-02
 Coeff:      0.118D-01 0.109D+00 0.281D+00 0.599D+00
 Gap=     0.177 Goal=   None    Shift=    0.000
 RMSDP=2.21D-07 MaxDP=7.40D-06 DE=-2.19D-08 OVMax= 2.03D-05

 Cycle  11  Pass 1  IDiag  1:
 RMSU=  1.43D-07    CP:  9.83D-01  7.72D-01  6.31D-01  6.76D-01  5.65D-01
                    CP:  7.65D-01  5.89D-01  7.67D-01  7.76D-01  7.16D-01
 E= -705.606917666338     Delta-E=       -0.000000001291 Rises=F Damp=F
 DIIS: error= 3.78D-07 at cycle  11 NSaved=  11.
 NSaved=11 IEnMin=11 EnMin= -705.606917666338     IErMin=11 ErrMin= 3.78D-07
 ErrMax= 3.78D-07  0.00D+00 EMaxC= 1.00D-01 BMatC= 1.54D-10 BMatP= 1.47D-09
 IDIUse=1 WtCom= 1.00D+00 WtEn= 0.00D+00
 Coeff-Com:  0.288D-05-0.182D-06-0.665D-04-0.234D-03-0.401D-03-0.127D-02
 Coeff-Com: -0.267D-03 0.192D-01 0.664D-01 0.286D+00 0.630D+00
 Coeff:      0.288D-05-0.182D-06-0.665D-04-0.234D-03-0.401D-03-0.127D-02
 Coeff:     -0.267D-03 0.192D-01 0.664D-01 0.286D+00 0.630D+00
 Gap=     0.177 Goal=   None    Shift=    0.000
 RMSDP=7.55D-08 MaxDP=2.07D-06 DE=-1.29D-09 OVMax= 6.24D-06

 Cycle  12  Pass 1  IDiag  1:
 RMSU=  5.10D-08    CP:  9.83D-01  7.72D-01  6.31D-01  6.76D-01  5.65D-01
                    CP:  7.65D-01  5.89D-01  7.69D-01  7.80D-01  7.91D-01
                    CP:  7.27D-01
 E= -705.606917666491     Delta-E=       -0.000000000152 Rises=F Damp=F
 DIIS: error= 1.79D-07 at cycle  12 NSaved=  12.
 NSaved=12 IEnMin=12 EnMin= -705.606917666491     IErMin=12 ErrMin= 1.79D-07
 ErrMax= 1.79D-07  0.00D+00 EMaxC= 1.00D-01 BMatC= 1.99D-11 BMatP= 1.54D-10
 IDIUse=1 WtCom= 1.00D+00 WtEn= 0.00D+00
 Coeff-Com:  0.130D-06 0.282D-05-0.171D-04-0.460D-04-0.184D-03-0.794D-03
 Coeff-Com: -0.160D-02-0.182D-02 0.231D-02 0.877D-01 0.326D+00 0.588D+00
 Coeff:      0.130D-06 0.282D-05-0.171D-04-0.460D-04-0.184D-03-0.794D-03
 Coeff:     -0.160D-02-0.182D-02 0.231D-02 0.877D-01 0.326D+00 0.588D+00
 Gap=     0.177 Goal=   None    Shift=    0.000
 RMSDP=2.80D-08 MaxDP=7.19D-07 DE=-1.52D-10 OVMax= 2.45D-06

 Cycle  13  Pass 1  IDiag  1:
 RMSU=  1.85D-08    CP:  9.83D-01  7.72D-01  6.31D-01  6.76D-01  5.65D-01
                    CP:  7.65D-01  5.89D-01  7.69D-01  7.83D-01  7.94D-01
                    CP:  8.08D-01  7.32D-01
 E= -705.606917666506     Delta-E=       -0.000000000016 Rises=F Damp=F
 DIIS: error= 6.30D-08 at cycle  13 NSaved=  13.
 NSaved=13 IEnMin=13 EnMin= -705.606917666506     IErMin=13 ErrMin= 6.30D-08
 ErrMax= 6.30D-08  0.00D+00 EMaxC= 1.00D-01 BMatC= 2.63D-12 BMatP= 1.99D-11
 IDIUse=1 WtCom= 1.00D+00 WtEn= 0.00D+00
 Coeff-Com: -0.288D-06 0.125D-05 0.737D-06 0.935D-05-0.359D-04-0.207D-03
 Coeff-Com: -0.779D-03-0.325D-02-0.824D-02 0.729D-02 0.819D-01 0.312D+00
 Coeff-Com:  0.611D+00
 Coeff:     -0.288D-06 0.125D-05 0.737D-06 0.935D-05-0.359D-04-0.207D-03
 Coeff:     -0.779D-03-0.325D-02-0.824D-02 0.729D-02 0.819D-01 0.312D+00
 Coeff:      0.611D+00
 Gap=     0.177 Goal=   None    Shift=    0.000
 RMSDP=9.82D-09 MaxDP=3.09D-07 DE=-1.56D-11 OVMax= 7.75D-07

 Error on total polarization charges =  0.00778
 SCF Done:  E(RB3LYP) =  -705.606917667     A.U. after   13 cycles
            NFock= 13  Conv=0.98D-08     -V/T= 2.0083
 KE= 6.998250387796D+02 PE=-3.421956524817D+03 EE= 1.120652881411D+03
 Leave Link  502 at Sun Jul 18 13:49:49 2021, MaxMem=   104857600 cpu:             444.3 elap:             115.2
 (Enter /dades/curu/g16A03_MST/g16/l601.exe)
 Copying SCF densities to generalized density rwf, IOpCl= 0 IROHF=0.

 **********************************************************************

            Population analysis using the SCF density.

 **********************************************************************

 Orbital symmetries:
       Occupied  (A) (A) (A) (A) (A) (A) (A) (A) (A) (A) (A) (A)
                 (A) (A) (A) (A) (A) (A) (A) (A) (A) (A) (A) (A)
                 (A) (A) (A) (A) (A) (A) (A) (A) (A) (A) (A) (A)
                 (A) (A) (A) (A) (A) (A) (A) (A) (A) (A) (A) (A)
                 (A) (A) (A) (A)
       Virtual   (A) (A) (A) (A) (A) (A) (A) (A) (A) (A) (A) (A)
                 (A) (A) (A) (A) (A) (A) (A) (A) (A) (A) (A) (A)
                 (A) (A) (A) (A) (A) (A) (A) (A) (A) (A) (A) (A)
                 (A) (A) (A) (A) (A) (A) (A) (A) (A) (A) (A) (A)
                 (A) (A) (A) (A) (A) (A) (A) (A) (A) (A) (A) (A)
                 (A) (A) (A) (A) (A) (A) (A) (A) (A) (A) (A) (A)
                 (A) (A) (A) (A) (A) (A) (A) (A) (A) (A) (A) (A)
                 (A) (A) (A) (A) (A) (A) (A) (A) (A) (A) (A) (A)
                 (A) (A) (A) (A) (A) (A) (A) (A) (A) (A) (A) (A)
                 (A) (A) (A) (A) (A) (A) (A) (A) (A) (A) (A) (A)
                 (A) (A) (A) (A) (A) (A) (A) (A) (A) (A) (A) (A)
                 (A) (A) (A) (A) (A) (A) (A) (A) (A) (A) (A) (A)
                 (A) (A) (A) (A) (A) (A) (A) (A) (A) (A) (A) (A)
                 (A) (A) (A) (A) (A) (A) (A) (A) (A) (A) (A) (A)
                 (A) (A) (A) (A) (A) (A) (A) (A) (A) (A) (A) (A)
                 (A) (A)
 The electronic state is 1-A.
 Alpha  occ. eigenvalues --  -19.24991 -19.20176 -19.18917 -19.16814 -14.50125
 Alpha  occ. eigenvalues --  -10.36632 -10.30680 -10.27800 -10.26807 -10.23632
 Alpha  occ. eigenvalues --  -10.22166 -10.21559 -10.21143 -10.20831  -1.19347
 Alpha  occ. eigenvalues --   -1.09086  -1.07483  -1.06093  -1.04677  -0.88728
 Alpha  occ. eigenvalues --   -0.84418  -0.78339  -0.76084  -0.70850  -0.68321
 Alpha  occ. eigenvalues --   -0.66437  -0.64044  -0.63388  -0.60705  -0.59336
 Alpha  occ. eigenvalues --   -0.56794  -0.55820  -0.54303  -0.51109  -0.50231
 Alpha  occ. eigenvalues --   -0.48691  -0.47211  -0.46541  -0.45524  -0.43815
 Alpha  occ. eigenvalues --   -0.43254  -0.42647  -0.42250  -0.39894  -0.38865
 Alpha  occ. eigenvalues --   -0.36827  -0.36205  -0.34561  -0.34343  -0.30919
 Alpha  occ. eigenvalues --   -0.26805  -0.23177
 Alpha virt. eigenvalues --   -0.05493  -0.03043  -0.01317   0.01034   0.04745
 Alpha virt. eigenvalues --    0.05895   0.06928   0.07107   0.09087   0.10609
 Alpha virt. eigenvalues --    0.10944   0.11968   0.12887   0.14674   0.16171
 Alpha virt. eigenvalues --    0.17028   0.17667   0.19497   0.20689   0.21709
 Alpha virt. eigenvalues --    0.22857   0.24631   0.30688   0.31599   0.33150
 Alpha virt. eigenvalues --    0.33668   0.34915   0.36320   0.46236   0.47590
 Alpha virt. eigenvalues --    0.47825   0.49600   0.50852   0.51575   0.52187
 Alpha virt. eigenvalues --    0.53790   0.55146   0.56317   0.56819   0.58224
 Alpha virt. eigenvalues --    0.58698   0.58922   0.60185   0.62312   0.63054
 Alpha virt. eigenvalues --    0.63799   0.64337   0.65899   0.68350   0.69549
 Alpha virt. eigenvalues --    0.70628   0.71953   0.73212   0.74561   0.76458
 Alpha virt. eigenvalues --    0.77470   0.79280   0.79796   0.80567   0.82138
 Alpha virt. eigenvalues --    0.82874   0.84752   0.85164   0.86075   0.87379
 Alpha virt. eigenvalues --    0.87802   0.88963   0.90959   0.91532   0.92997
 Alpha virt. eigenvalues --    0.93287   0.95477   0.97668   0.98520   1.00414
 Alpha virt. eigenvalues --    1.00839   1.02274   1.02740   1.05241   1.07568
 Alpha virt. eigenvalues --    1.08462   1.10263   1.13088   1.14260   1.16724
 Alpha virt. eigenvalues --    1.18086   1.23467   1.24581   1.26761   1.28134
 Alpha virt. eigenvalues --    1.31738   1.33518   1.34215   1.37299   1.40880
 Alpha virt. eigenvalues --    1.41956   1.42436   1.44807   1.47819   1.50807
 Alpha virt. eigenvalues --    1.52421   1.57053   1.59621   1.63253   1.63723
 Alpha virt. eigenvalues --    1.67022   1.68314   1.71156   1.72308   1.74040
 Alpha virt. eigenvalues --    1.75314   1.76982   1.78203   1.79438   1.81653
 Alpha virt. eigenvalues --    1.82549   1.83711   1.85470   1.87131   1.87388
 Alpha virt. eigenvalues --    1.90064   1.92358   1.93017   1.97160   1.98591
 Alpha virt. eigenvalues --    1.99625   2.00537   2.05577   2.07291   2.07604
 Alpha virt. eigenvalues --    2.10808   2.11318   2.16039   2.21632   2.23717
 Alpha virt. eigenvalues --    2.25937   2.26957   2.29105   2.31019   2.31672
 Alpha virt. eigenvalues --    2.33976   2.35090   2.38599   2.41227   2.41456
 Alpha virt. eigenvalues --    2.43954   2.47066   2.47782   2.51415   2.53619
 Alpha virt. eigenvalues --    2.55161   2.56018   2.60752   2.64101   2.65690
 Alpha virt. eigenvalues --    2.70014   2.72214   2.73828   2.78507   2.83795
 Alpha virt. eigenvalues --    2.85703   2.85991   2.90765   2.96480   2.98664
 Alpha virt. eigenvalues --    3.01642   3.17949   3.40129   3.76348   3.82226
 Alpha virt. eigenvalues --    3.93948   3.99895   4.02360   4.08760   4.13217
 Alpha virt. eigenvalues --    4.16181   4.21695   4.32264   4.35951   4.51697
 Alpha virt. eigenvalues --    4.52892   4.82755
          Condensed to atoms (all electrons):
               1          2          3          4          5          6
     1  N    6.846341   0.293987   0.274930   0.176884  -0.019170  -0.015136
     2  H    0.293987   0.241604  -0.007289  -0.015534  -0.000462   0.000826
     3  H    0.274930  -0.007289   0.262016  -0.024379   0.002469   0.000135
     4  C    0.176884  -0.015534  -0.024379   5.476688   0.257988  -0.085441
     5  C   -0.019170  -0.000462   0.002469   0.257988   4.399932   0.320723
     6  O   -0.015136   0.000826   0.000135  -0.085441   0.320723   8.129476
     7  H    0.016068  -0.000989   0.001318  -0.007337  -0.040375   0.218632
     8  O    0.001841  -0.000002  -0.000023  -0.083113   0.565436  -0.109719
     9  H   -0.025764  -0.003384  -0.000577   0.349284  -0.022468   0.001934
    10  C   -0.074798   0.004693  -0.005960   0.315703  -0.035891  -0.003493
    11  H    0.005366  -0.000145   0.000522  -0.042103  -0.003847   0.000493
    12  H   -0.005345   0.000052  -0.000547  -0.055250  -0.002984   0.001416
    13  C   -0.006937  -0.000183   0.015787  -0.041211   0.004563  -0.000080
    14  C   -0.001890  -0.000021   0.016359  -0.004503  -0.000158  -0.000001
    15  H    0.000340   0.000022   0.002137   0.000065  -0.000030  -0.000000
    16  C   -0.000063   0.000001  -0.000330  -0.000055   0.000002   0.000000
    17  O    0.000000  -0.000000  -0.000018   0.000000  -0.000000   0.000000
    18  H   -0.000001   0.000000  -0.000012   0.000000   0.000000  -0.000000
    19  C    0.000011   0.000000  -0.000005  -0.000008  -0.000000   0.000000
    20  O   -0.000000  -0.000000   0.000000   0.000000   0.000000  -0.000000
    21  H    0.000000   0.000000  -0.000000   0.000000  -0.000000   0.000000
    22  C    0.000014  -0.000001  -0.000203   0.000073   0.000002  -0.000000
    23  H    0.000000   0.000000  -0.000001  -0.000000  -0.000000   0.000000
    24  C    0.000098  -0.000030   0.000250  -0.004655   0.000191   0.000000
    25  H    0.000062  -0.000000   0.000045  -0.000298  -0.000115   0.000000
    26  H    0.276221  -0.009800  -0.006667  -0.021612  -0.006466   0.006276
               7          8          9         10         11         12
     1  N    0.016068   0.001841  -0.025764  -0.074798   0.005366  -0.005345
     2  H   -0.000989  -0.000002  -0.003384   0.004693  -0.000145   0.000052
     3  H    0.001318  -0.000023  -0.000577  -0.005960   0.000522  -0.000547
     4  C   -0.007337  -0.083113   0.349284   0.315703  -0.042103  -0.055250
     5  C   -0.040375   0.565436  -0.022468  -0.035891  -0.003847  -0.002984
     6  O    0.218632  -0.109719   0.001934  -0.003493   0.000493   0.001416
     7  H    0.374890   0.007726   0.000563  -0.000337  -0.000210  -0.000359
     8  O    0.007726   8.062569   0.001038   0.000104   0.012750   0.000145
     9  H    0.000563   0.001038   0.469405  -0.037677  -0.001096   0.006450
    10  C   -0.000337   0.000104  -0.037677   5.290655   0.361849   0.370232
    11  H   -0.000210   0.012750  -0.001096   0.361849   0.486521  -0.016360
    12  H   -0.000359   0.000145   0.006450   0.370232  -0.016360   0.543491
    13  C   -0.000006   0.000480  -0.004589   0.300700  -0.023778  -0.035524
    14  C    0.000002  -0.000005   0.000167  -0.038928   0.001920  -0.001546
    15  H   -0.000008   0.000000   0.000029  -0.009494   0.000028   0.005010
    16  C   -0.000000   0.000000   0.000007   0.005468  -0.000143   0.000331
    17  O    0.000000   0.000000   0.000000  -0.000103   0.000001  -0.000000
    18  H    0.000000  -0.000000   0.000000  -0.000031   0.000000   0.000008
    19  C   -0.000000   0.000000  -0.000013   0.000715   0.000019  -0.000007
    20  O    0.000000   0.000000  -0.000000   0.000000  -0.000000  -0.000000
    21  H   -0.000000   0.000000   0.000000   0.000001  -0.000000   0.000000
    22  C    0.000000  -0.000000  -0.000153   0.005565   0.000036  -0.000111
    23  H   -0.000000  -0.000000   0.000006  -0.000128  -0.000006   0.000002
    24  C    0.000000  -0.000007   0.005198  -0.045392  -0.003469   0.002683
    25  H    0.000000   0.000006   0.001836  -0.009929   0.005097   0.000081
    26  H    0.014070  -0.000172   0.003643  -0.001111  -0.000089   0.004101
              13         14         15         16         17         18
     1  N   -0.006937  -0.001890   0.000340  -0.000063   0.000000  -0.000001
     2  H   -0.000183  -0.000021   0.000022   0.000001  -0.000000   0.000000
     3  H    0.015787   0.016359   0.002137  -0.000330  -0.000018  -0.000012
     4  C   -0.041211  -0.004503   0.000065  -0.000055   0.000000   0.000000
     5  C    0.004563  -0.000158  -0.000030   0.000002  -0.000000   0.000000
     6  O   -0.000080  -0.000001  -0.000000   0.000000   0.000000  -0.000000
     7  H   -0.000006   0.000002  -0.000008  -0.000000   0.000000   0.000000
     8  O    0.000480  -0.000005   0.000000   0.000000   0.000000  -0.000000
     9  H   -0.004589   0.000167   0.000029   0.000007   0.000000   0.000000
    10  C    0.300700  -0.038928  -0.009494   0.005468  -0.000103  -0.000031
    11  H   -0.023778   0.001920   0.000028  -0.000143   0.000001   0.000000
    12  H   -0.035524  -0.001546   0.005010   0.000331  -0.000000   0.000008
    13  C    4.742689   0.452233  -0.037413  -0.003280   0.005981   0.001212
    14  C    0.452233   5.270545   0.347754   0.430136  -0.062370  -0.002923
    15  H   -0.037413   0.347754   0.556445  -0.033457  -0.005260   0.005922
    16  C   -0.003280   0.430136  -0.033457   4.770212   0.268718  -0.031516
    17  O    0.005981  -0.062370  -0.005260   0.268718   8.235552   0.254619
    18  H    0.001212  -0.002923   0.005922  -0.031516   0.254619   0.318469
    19  C   -0.030582  -0.031757   0.002470   0.428338  -0.048803   0.004143
    20  O   -0.000134   0.005287  -0.000023  -0.055001  -0.003664  -0.000041
    21  H   -0.000101   0.001009  -0.000003  -0.011170   0.011685  -0.000460
    22  C   -0.022720  -0.046670   0.000333  -0.040122   0.002918  -0.000082
    23  H    0.003424   0.000135   0.000014   0.006941  -0.000043   0.000005
    24  C    0.567726  -0.056198   0.005787  -0.048486   0.000546  -0.000026
    25  H   -0.046529   0.006956  -0.000220   0.000383   0.000002  -0.000001
    26  H   -0.000312   0.000100   0.000104   0.000002  -0.000000   0.000000
              19         20         21         22         23         24
     1  N    0.000011  -0.000000   0.000000   0.000014   0.000000   0.000098
     2  H    0.000000  -0.000000   0.000000  -0.000001   0.000000  -0.000030
     3  H   -0.000005   0.000000  -0.000000  -0.000203  -0.000001   0.000250
     4  C   -0.000008   0.000000   0.000000   0.000073  -0.000000  -0.004655
     5  C   -0.000000   0.000000  -0.000000   0.000002  -0.000000   0.000191
     6  O    0.000000  -0.000000   0.000000  -0.000000   0.000000   0.000000
     7  H   -0.000000   0.000000  -0.000000   0.000000  -0.000000   0.000000
     8  O    0.000000   0.000000   0.000000  -0.000000  -0.000000  -0.000007
     9  H   -0.000013  -0.000000   0.000000  -0.000153   0.000006   0.005198
    10  C    0.000715   0.000000   0.000001   0.005565  -0.000128  -0.045392
    11  H    0.000019  -0.000000  -0.000000   0.000036  -0.000006  -0.003469
    12  H   -0.000007  -0.000000   0.000000  -0.000111   0.000002   0.002683
    13  C   -0.030582  -0.000134  -0.000101  -0.022720   0.003424   0.567726
    14  C   -0.031757   0.005287   0.001009  -0.046670   0.000135  -0.056198
    15  H    0.002470  -0.000023  -0.000003   0.000333   0.000014   0.005787
    16  C    0.428338  -0.055001  -0.011170  -0.040122   0.006941  -0.048486
    17  O   -0.048803  -0.003664   0.011685   0.002918  -0.000043   0.000546
    18  H    0.004143  -0.000041  -0.000460  -0.000082   0.000005  -0.000026
    19  C    4.626409   0.276000  -0.034683   0.558961  -0.033948  -0.026674
    20  O    0.276000   8.244810   0.247408  -0.059868  -0.001435   0.004229
    21  H   -0.034683   0.247408   0.343924   0.004513  -0.000264  -0.000194
    22  C    0.558961  -0.059868   0.004513   4.959669   0.348209   0.496745
    23  H   -0.033948  -0.001435  -0.000264   0.348209   0.547303  -0.034694
    24  C   -0.026674   0.004229  -0.000194   0.496745  -0.034694   4.996567
    25  H    0.003983  -0.000059   0.000006  -0.035815  -0.003999   0.355869
    26  H   -0.000000   0.000000  -0.000000  -0.000001   0.000000   0.000005
              25         26
     1  N    0.000062   0.276221
     2  H   -0.000000  -0.009800
     3  H    0.000045  -0.006667
     4  C   -0.000298  -0.021612
     5  C   -0.000115  -0.006466
     6  O    0.000000   0.006276
     7  H    0.000000   0.014070
     8  O    0.000006  -0.000172
     9  H    0.001836   0.003643
    10  C   -0.009929  -0.001111
    11  H    0.005097  -0.000089
    12  H    0.000081   0.004101
    13  C   -0.046529  -0.000312
    14  C    0.006956   0.000100
    15  H   -0.000220   0.000104
    16  C    0.000383   0.000002
    17  O    0.000002  -0.000000
    18  H   -0.000001   0.000000
    19  C    0.003983  -0.000000
    20  O   -0.000059   0.000000
    21  H    0.000006  -0.000000
    22  C   -0.035815  -0.000001
    23  H   -0.003999   0.000000
    24  C    0.355869   0.000005
    25  H    0.572789   0.000001
    26  H    0.000001   0.264163
 Mulliken charges:
               1
     1  N   -0.743058
     2  H    0.496654
     3  H    0.470041
     4  C   -0.191185
     5  C    0.580658
     6  O   -0.466039
     7  H    0.416353
     8  O   -0.459053
     9  H    0.256163
    10  C   -0.392412
    11  H    0.216647
    12  H    0.184033
    13  C    0.158583
    14  C   -0.285634
    15  H    0.159448
    16  C    0.313086
    17  O   -0.659760
    18  H    0.450715
    19  C    0.305430
    20  O   -0.657510
    21  H    0.438330
    22  C   -0.171292
    23  H    0.168478
    24  C   -0.216067
    25  H    0.149847
    26  H    0.477546
 Sum of Mulliken charges =   1.00000
 Mulliken charges with hydrogens summed into heavy atoms:
               1
     1  N    0.701183
     4  C    0.064978
     5  C    0.580658
     6  O   -0.049687
     8  O   -0.459053
    10  C    0.008267
    13  C    0.158583
    14  C   -0.126186
    16  C    0.313086
    17  O   -0.209045
    19  C    0.305430
    20  O   -0.219181
    22  C   -0.002814
    24  C   -0.066220
 Electronic spatial extent (au):  <R**2>=           3770.9955
 Charge=              1.0000 electrons
 Dipole moment (field-independent basis, Debye):
    X=              5.7650    Y=              9.5851    Z=              5.9708  Tot=             12.6791
 Quadrupole moment (field-independent basis, Debye-Ang):
   XX=            -80.9148   YY=            -59.7474   ZZ=            -72.8645
   XY=             13.2252   XZ=             22.3622   YZ=              2.7670
 Traceless Quadrupole moment (field-independent basis, Debye-Ang):
   XX=             -9.7392   YY=             11.4282   ZZ=             -1.6889
   XY=             13.2252   XZ=             22.3622   YZ=              2.7670
 Octapole moment (field-independent basis, Debye-Ang**2):
  XXX=            -38.1122  YYY=             49.5810  ZZZ=             22.9867  XYY=              9.7518
  XXY=             67.9733  XXZ=             32.7586  XZZ=             26.1092  YZZ=             18.0745
  YYZ=             11.3568  XYZ=              7.8122
 Hexadecapole moment (field-independent basis, Debye-Ang**3):
 XXXX=          -4056.4631 YYYY=           -472.1365 ZZZZ=           -204.2622 XXXY=             77.0774
 XXXZ=            266.2095 YYYX=             16.8842 YYYZ=             -6.3440 ZZZX=             47.0956
 ZZZY=             25.0129 XXYY=           -680.0680 XXZZ=           -651.6954 YYZZ=           -122.8059
 XXYZ=              4.9313 YYXZ=             37.9323 ZZXY=             22.5009
 N-N= 8.958716869593D+02 E-N=-3.421956527251D+03  KE= 6.998250387796D+02
 No NMR shielding tensors so no spin-rotation constants.
 Leave Link  601 at Sun Jul 18 13:49:50 2021, MaxMem=   104857600 cpu:               0.4 elap:               0.2
 (Enter /dades/curu/g16A03_MST/g16/l701.exe)
 ... and contract with generalized density number  0.
 Compute integral first derivatives.
 D1PCM: PCM CHGder 1st derivatives, ID1Alg=3 FixD1E=F DoIter=F DoCFld=F I1PDM=0.
 GePol: Maximum number of non-zero 1st derivatives   =     239
 Leave Link  701 at Sun Jul 18 13:49:53 2021, MaxMem=   104857600 cpu:               9.9 elap:               2.9
 (Enter /dades/curu/g16A03_MST/g16/l702.exe)
 L702 exits ... SP integral derivatives will be done elsewhere.
 Leave Link  702 at Sun Jul 18 13:49:53 2021, MaxMem=   104857600 cpu:               0.1 elap:               0.0
 (Enter /dades/curu/g16A03_MST/g16/l703.exe)
 Integral derivatives from FoFJK, PRISM(SPDF).
 Compute integral first derivatives, UseDBF=F ICtDFT=           0.
 Calling FoFJK, ICntrl=      2127 FMM=F ISym2X=0 I1Cent= 0 IOpClX= 0 NMat=1 NMatS=1 NMatT=0.
 FoFJK:  IHMeth= 1 ICntrl=    2127 DoSepK=F KAlg= 0 I1Cent=           0 FoldK=F
 IRaf=         0 NMat=       1 IRICut=       1 DoRegI=T DoRafI=F ISym2E= 0 IDoP0=0 IntGTp=1.
 FoFCou: FMM=F IPFlag=           0 FMFlag=      100000 FMFlg1=         800
         NFxFlg=           0 DoJE=F BraDBF=F KetDBF=F FulRan=T
         wScrn=  0.000000 ICntrl=      2127 IOpCl=  0 I1Cent=           0 NGrid=           0
         NMat0=    1 NMatS0=      1 NMatT0=    0 NMatD0=    1 NMtDS0=    0 NMtDT0=    0
 Symmetry not used in FoFCou.
 Leave Link  703 at Sun Jul 18 13:50:10 2021, MaxMem=   104857600 cpu:              67.0 elap:              17.1
 (Enter /dades/curu/g16A03_MST/g16/l716.exe)
 Dipole        = 2.26814016D+00 3.77107919D+00 2.34909490D+00
 ***** Axes restored to original set *****
 -------------------------------------------------------------------
 Center     Atomic                   Forces (Hartrees/Bohr)
 Number     Number              X              Y              Z
 -------------------------------------------------------------------
      1        7          -0.014148169    0.028395641    0.019378348
      2        1          -0.024698578   -0.017870169    0.009735143
      3        1           0.012904825   -0.022223627    0.008898555
      4        6           0.016847996    0.031939635    0.046359000
      5        6           0.077815003    0.073632665   -0.034707070
      6        8          -0.041486806   -0.048210609   -0.016528437
      7        1          -0.047669837   -0.000627295   -0.042403536
      8        8          -0.010851304   -0.015566100    0.046239734
      9        1          -0.008180250   -0.017154563    0.003959413
     10        6           0.025385042    0.011690301    0.005115899
     11        1           0.001662115    0.000030039   -0.005370334
     12        1           0.011864336    0.001534128    0.000305630
     13        6          -0.027598612    0.030173631   -0.033130777
     14        6          -0.004258739   -0.006484567    0.021006573
     15        1           0.016213468   -0.003404229   -0.001258821
     16        6          -0.010168171   -0.003583689   -0.008225391
     17        8           0.006121577   -0.010581850    0.014695299
     18        1           0.006210724   -0.002426338    0.002081969
     19        6           0.022287060   -0.025364629   -0.002019773
     20        8          -0.002173947    0.001989421   -0.032363124
     21        1           0.005471825   -0.010238907    0.013400726
     22        6          -0.017328332    0.015967534   -0.012098435
     23        1          -0.000300664    0.004062626   -0.003865656
     24        6           0.001622940    0.015037186    0.016099332
     25        1          -0.003404956   -0.002344851    0.008873421
     26        1           0.007861452   -0.028371385   -0.024177686
 -------------------------------------------------------------------
 Cartesian Forces:  Max     0.077815003 RMS     0.022914318
 Leave Link  716 at Sun Jul 18 13:50:11 2021, MaxMem=   104857600 cpu:               0.1 elap:               0.1
 (Enter /dades/curu/g16A03_MST/g16/l103.exe)

 GradGradGradGradGradGradGradGradGradGradGradGradGradGradGradGradGradGrad
 Berny optimization.
 FormGI is forming the generalized inverse of G from B-inverse, IUseBI=4.
 GSVD:  received Info=                   1 from GESDD.
 Internal  Forces:  Max     0.112650462 RMS     0.021839276
 Search for a local minimum.
 Step number   1 out of a maximum of  138
 All quantities printed in internal units (Hartrees-Bohrs-Radians)
 RMS Force = .21839D-01 SwitMx=.10000D-02 MixMth= 1
 Mixed Optimization -- RFO/linear search
 Second derivative matrix not updated -- first step.
 ITU=  0
     Eigenvalues ---    0.00230   0.00521   0.00722   0.00737   0.01584
     Eigenvalues ---    0.01758   0.01803   0.01905   0.02036   0.02063
     Eigenvalues ---    0.02204   0.02260   0.02276   0.02329   0.02370
     Eigenvalues ---    0.02420   0.03266   0.03838   0.04047   0.04940
     Eigenvalues ---    0.05558   0.05966   0.06044   0.06048   0.09741
     Eigenvalues ---    0.13165   0.15716   0.15899   0.15996   0.16000
     Eigenvalues ---    0.16000   0.16000   0.16000   0.16000   0.16000
     Eigenvalues ---    0.16087   0.18686   0.22118   0.22366   0.23475
     Eigenvalues ---    0.23713   0.24543   0.24925   0.24937   0.24978
     Eigenvalues ---    0.25000   0.27310   0.30513   0.32032   0.34461
     Eigenvalues ---    0.34552   0.34556   0.35124   0.35216   0.35221
     Eigenvalues ---    0.35482   0.39388   0.42647   0.45729   0.46466
     Eigenvalues ---    0.47195   0.47619   0.47705   0.47788   0.49593
     Eigenvalues ---    0.51543   0.52453   0.52499   0.52662   0.53548
     Eigenvalues ---    0.72772   0.89253
 RFO step:  Lambda=-1.52941192D-01 EMin= 2.30000000D-03
 Linear search not attempted -- first point.
 Maximum step size (   0.300) exceeded in Quadratic search.
    -- Step size scaled by   0.521
 Iteration  1 RMS(Cart)=  0.08905425 RMS(Int)=  0.00844151
 Iteration  2 RMS(Cart)=  0.01358152 RMS(Int)=  0.00060348
 Iteration  3 RMS(Cart)=  0.00028468 RMS(Int)=  0.00057808
 Iteration  4 RMS(Cart)=  0.00000025 RMS(Int)=  0.00057808
 ITry= 1 IFail=0 DXMaxC= 5.87D-01 DCOld= 1.00D+10 DXMaxT= 3.00D-01 DXLimC= 3.00D+00 Rises=F
 Variable       Old X    -DE/DX   Delta X   Delta X   Delta X     New X
                                 (Linear)    (Quad)   (Total)
    R1        1.88866   0.02986   0.00000   0.02466   0.02466   1.91332
    R2        1.88955   0.02584   0.00000   0.02137   0.02137   1.91091
    R3        2.78200   0.03905   0.00000   0.04007   0.04007   2.82207
    R4        1.89047   0.02568   0.00000   0.02127   0.02127   1.91174
    R5        2.86952   0.04266   0.00000   0.04852   0.04852   2.91805
    R6        2.06559   0.00080   0.00000   0.00083   0.00083   2.06642
    R7        2.84086   0.03320   0.00000   0.03655   0.03655   2.87742
    R8        2.42066   0.11265   0.00000   0.06665   0.06665   2.48731
    R9        2.33279  -0.02575   0.00000  -0.01283  -0.01283   2.31996
   R10        1.84124  -0.01924   0.00000  -0.01479  -0.01479   1.82646
   R11        2.06409  -0.00021   0.00000  -0.00022  -0.00022   2.06387
   R12        2.06402   0.00175   0.00000   0.00183   0.00183   2.06585
   R13        2.93672  -0.01654   0.00000  -0.02023  -0.02023   2.91649
   R14        2.59063   0.03704   0.00000   0.02974   0.02975   2.62039
   R15        2.60340   0.01350   0.00000   0.01156   0.01159   2.61498
   R16        2.05474  -0.00200   0.00000  -0.00207  -0.00207   2.05267
   R17        2.63838   0.00621   0.00000   0.00506   0.00504   2.64342
   R18        2.56446   0.01152   0.00000   0.00872   0.00872   2.57318
   R19        2.70178  -0.02504   0.00000  -0.02396  -0.02397   2.67780
   R20        1.83971  -0.00364   0.00000  -0.00279  -0.00279   1.83691
   R21        2.63610  -0.00748   0.00000  -0.00631  -0.00631   2.62979
   R22        2.57870   0.02937   0.00000   0.02220   0.02219   2.60089
   R23        1.84168   0.00074   0.00000   0.00057   0.00057   1.84225
   R24        2.05317  -0.00254   0.00000  -0.00262  -0.00262   2.05055
   R25        2.65216  -0.00566   0.00000  -0.00469  -0.00467   2.64748
   R26        2.05326   0.00004   0.00000   0.00004   0.00004   2.05330
    A1        1.91079  -0.01004   0.00000  -0.01952  -0.01946   1.89133
    A2        1.91108   0.01059   0.00000   0.01860   0.01813   1.92921
    A3        1.91047  -0.01198   0.00000  -0.01522  -0.01612   1.89434
    A4        1.91051   0.00043   0.00000  -0.00166  -0.00163   1.90888
    A5        1.91058  -0.01760   0.00000  -0.03123  -0.03123   1.87935
    A6        1.91037   0.02860   0.00000   0.04903   0.04854   1.95891
    A7        2.01656   0.02710   0.00000   0.04827   0.04871   2.06527
    A8        1.99797  -0.02269   0.00000  -0.04469  -0.04457   1.95340
    A9        1.84376   0.01131   0.00000   0.02029   0.02053   1.86429
   A10        1.81386  -0.00033   0.00000  -0.00311  -0.00272   1.81114
   A11        1.95246  -0.02721   0.00000  -0.03953  -0.04021   1.91225
   A12        1.83351   0.00849   0.00000   0.01302   0.01307   1.84658
   A13        1.98372   0.08245   0.00000   0.11577   0.11384   2.09755
   A14        2.18278  -0.06205   0.00000  -0.07372  -0.07635   2.10643
   A15        2.01868  -0.00379   0.00000   0.00681   0.00533   2.02402
   A16        1.62521   0.11037   0.00000   0.18376   0.18376   1.80897
   A17        1.84092  -0.00051   0.00000  -0.00159  -0.00159   1.83933
   A18        1.82994   0.01461   0.00000   0.02684   0.02684   1.85677
   A19        2.03860  -0.00821   0.00000  -0.01043  -0.01040   2.02820
   A20        1.89999  -0.00452   0.00000  -0.00907  -0.00911   1.89087
   A21        1.88256   0.00505   0.00000   0.00696   0.00695   1.88951
   A22        1.96478  -0.00627   0.00000  -0.01263  -0.01258   1.95221
   A23        2.05868   0.01554   0.00000   0.01937   0.01936   2.07804
   A24        2.07531  -0.00077   0.00000  -0.00176  -0.00178   2.07353
   A25        2.14680  -0.01471   0.00000  -0.01746  -0.01743   2.12936
   A26        2.06016   0.00432   0.00000   0.00968   0.00970   2.06986
   A27        2.02737   0.01538   0.00000   0.02202   0.02197   2.04934
   A28        2.18131  -0.01886   0.00000  -0.02935  -0.02942   2.15189
   A29        2.03923   0.03571   0.00000   0.04715   0.04717   2.08641
   A30        2.11118  -0.00637   0.00000  -0.00995  -0.01000   2.10118
   A31        2.13190  -0.02924   0.00000  -0.03690  -0.03690   2.09500
   A32        1.86801   0.01034   0.00000   0.01722   0.01722   1.88523
   A33        2.12351  -0.01114   0.00000  -0.01319  -0.01320   2.11032
   A34        2.11408  -0.00073   0.00000  -0.00315  -0.00316   2.11092
   A35        2.04302   0.01200   0.00000   0.01678   0.01679   2.05981
   A36        1.74334   0.03208   0.00000   0.05341   0.05341   1.79675
   A37        2.05976  -0.00362   0.00000  -0.00335  -0.00336   2.05640
   A38        2.03939   0.01595   0.00000   0.02119   0.02121   2.06060
   A39        2.18383  -0.01233   0.00000  -0.01784  -0.01785   2.16598
   A40        2.11882  -0.00924   0.00000  -0.01174  -0.01169   2.10713
   A41        2.01991   0.01212   0.00000   0.01846   0.01844   2.03835
   A42        2.13837  -0.00274   0.00000  -0.00628  -0.00631   2.13206
    D1       -1.44381  -0.00500   0.00000  -0.00049  -0.00026  -1.44407
    D2        0.66286  -0.00217   0.00000  -0.00242  -0.00272   0.66014
[...]
 Alpha  occ. eigenvalues --   -0.72436  -0.72108  -0.70420  -0.67637  -0.67003
 Alpha  occ. eigenvalues --   -0.65128  -0.63109  -0.62706  -0.61665  -0.59692
 Alpha  occ. eigenvalues --   -0.46494  -0.42897
 Alpha virt. eigenvalues --   -0.12642  -0.08726  -0.07669  -0.06403  -0.05187
 Alpha virt. eigenvalues --   -0.04036  -0.03882  -0.03280  -0.02872  -0.02206
 Alpha virt. eigenvalues --   -0.01850  -0.01607  -0.01138  -0.00232   0.00065
 Alpha virt. eigenvalues --    0.00471   0.00800   0.01540   0.02210   0.02504
 Alpha virt. eigenvalues --    0.02635   0.02960   0.03458   0.04185   0.04540
 Alpha virt. eigenvalues --    0.04642   0.05009   0.05609   0.05954   0.06158
 Alpha virt. eigenvalues --    0.06472   0.07138   0.07200   0.07574   0.08204
 Alpha virt. eigenvalues --    0.08500   0.08929   0.09421   0.09835   0.10180
 Alpha virt. eigenvalues --    0.10602   0.11522   0.11873   0.12370   0.12808
 Alpha virt. eigenvalues --    0.13489   0.14067   0.14562   0.15423   0.15490
 Alpha virt. eigenvalues --    0.16163   0.16409   0.16939   0.17467   0.17882
 Alpha virt. eigenvalues --    0.18350   0.18980   0.19323   0.19827   0.20250
 Alpha virt. eigenvalues --    0.21083   0.21354   0.21663   0.21935   0.22129
 Alpha virt. eigenvalues --    0.22653   0.22914   0.23268   0.23567   0.24374
 Alpha virt. eigenvalues --    0.25100   0.25372   0.25897   0.26327   0.26467
 Alpha virt. eigenvalues --    0.27334   0.27425   0.28443   0.28687   0.29173
 Alpha virt. eigenvalues --    0.29706   0.29765   0.30556   0.31158   0.31905
 Alpha virt. eigenvalues --    0.32178   0.32545   0.33260   0.33274   0.33490
 Alpha virt. eigenvalues --    0.34057   0.34656   0.35592   0.35877   0.36649
 Alpha virt. eigenvalues --    0.37405   0.37931   0.38659   0.38987   0.39324
 Alpha virt. eigenvalues --    0.40118   0.40942   0.42003   0.42178   0.42883
 Alpha virt. eigenvalues --    0.43617   0.44077   0.44110   0.45548   0.45709
 Alpha virt. eigenvalues --    0.46609   0.47091   0.47993   0.48144   0.48634
 Alpha virt. eigenvalues --    0.49091   0.49433   0.50129   0.52028   0.52380
 Alpha virt. eigenvalues --    0.52980   0.53225   0.54291   0.54906   0.55572
 Alpha virt. eigenvalues --    0.55796   0.56091   0.56765   0.57172   0.57943
 Alpha virt. eigenvalues --    0.58455   0.58554   0.59096   0.59961   0.60881
 Alpha virt. eigenvalues --    0.61178   0.61544   0.61881   0.63584   0.63670
 Alpha virt. eigenvalues --    0.64064   0.64837   0.65243   0.65836   0.66831
 Alpha virt. eigenvalues --    0.67642   0.68138   0.69051   0.69570   0.70836
 Alpha virt. eigenvalues --    0.71276   0.72319   0.73164   0.73263   0.74000
 Alpha virt. eigenvalues --    0.75319   0.75792   0.76572   0.77457   0.77974
 Alpha virt. eigenvalues --    0.78619   0.79701   0.80307   0.81308   0.82200
 Alpha virt. eigenvalues --    0.82764   0.83740   0.84475   0.84820   0.85155
 Alpha virt. eigenvalues --    0.86794   0.87474   0.88275   0.88963   0.89526
 Alpha virt. eigenvalues --    0.90064   0.90977   0.91402   0.92202   0.92449
 Alpha virt. eigenvalues --    0.93629   0.94133   0.95532   0.96552   0.96968
 Alpha virt. eigenvalues --    0.98627   0.99535   1.00215   1.01503   1.01633
 Alpha virt. eigenvalues --    1.02475   1.04260   1.04954   1.06230   1.06419
 Alpha virt. eigenvalues --    1.08547   1.11580   1.12040   1.12793   1.14608
 Alpha virt. eigenvalues --    1.15136   1.15840   1.16722   1.17430   1.17975
 Alpha virt. eigenvalues --    1.19528   1.20598   1.21675   1.24341   1.26232
 Alpha virt. eigenvalues --    1.27245   1.28025   1.30188   1.31055   1.33446
 Alpha virt. eigenvalues --    1.34661   1.34936   1.36181   1.36762   1.37932
 Alpha virt. eigenvalues --    1.38773   1.41713   1.42679   1.43993   1.45121
 Alpha virt. eigenvalues --    1.46619   1.48140   1.48789   1.48986   1.50249
 Alpha virt. eigenvalues --    1.51010   1.52450   1.53143   1.54781   1.56138
 Alpha virt. eigenvalues --    1.57757   1.58451   1.58874   1.60072   1.60984
 Alpha virt. eigenvalues --    1.61579   1.62929   1.63451   1.63766   1.64046
 Alpha virt. eigenvalues --    1.64326   1.66223   1.68491   1.69530   1.69988
 Alpha virt. eigenvalues --    1.71303   1.72568   1.73631   1.74967   1.75292
 Alpha virt. eigenvalues --    1.76743   1.77163   1.78596   1.80138   1.81637
 Alpha virt. eigenvalues --    1.82981   1.84307   1.84509   1.85517   1.86842
 Alpha virt. eigenvalues --    1.87488   1.89590   1.90992   1.91533   1.93532
 Alpha virt. eigenvalues --    1.94587   1.95251   1.95938   1.96951   1.98761
 Alpha virt. eigenvalues --    2.00857   2.02812   2.03811   2.04944   2.06132
 Alpha virt. eigenvalues --    2.06734   2.06969   2.08243   2.08753   2.10707
 Alpha virt. eigenvalues --    2.11484   2.11698   2.12623   2.14200   2.14731
 Alpha virt. eigenvalues --    2.15625   2.17422   2.18560   2.18941   2.20323
 Alpha virt. eigenvalues --    2.20766   2.21717   2.23076   2.24169   2.24660
 Alpha virt. eigenvalues --    2.26085   2.28423   2.30483   2.31378   2.32280
 Alpha virt. eigenvalues --    2.33842   2.34891   2.35535   2.37529   2.39856
 Alpha virt. eigenvalues --    2.40983   2.42308   2.44427   2.46268   2.47612
 Alpha virt. eigenvalues --    2.48287   2.49162   2.51275   2.52778   2.53258
 Alpha virt. eigenvalues --    2.54253   2.58150   2.60301   2.61450   2.67192
 Alpha virt. eigenvalues --    2.68656   2.70637   2.73554   2.75016   2.76676
 Alpha virt. eigenvalues --    2.79276   2.82109   2.82719   2.86094   2.86700
 Alpha virt. eigenvalues --    2.88566   2.88998   2.95316   2.99915   3.02362
 Alpha virt. eigenvalues --    3.02948   3.05538   3.08599   3.13306   3.15975
 Alpha virt. eigenvalues --    3.19025   3.20174   3.26973   3.29962   3.34630
 Alpha virt. eigenvalues --    3.38810   3.40955   3.46447   3.52199   3.55136
 Alpha virt. eigenvalues --    3.56315   3.58785   3.61932   3.64212   3.64814
 Alpha virt. eigenvalues --    3.66852   3.67623   3.68254   3.69683   3.71657
 Alpha virt. eigenvalues --    3.72992   3.78507   3.79896   3.81230   3.87180
 Alpha virt. eigenvalues --    3.91137   3.98318   4.02644   4.05753   4.21831
 Alpha virt. eigenvalues --    4.27880   4.32248   4.79869
          Condensed to atoms (all electrons):
               1          2          3          4          5          6
     1  N    6.963489   0.357694   0.404467  -0.751934   0.020350  -0.008420
     2  H    0.357694   0.611133  -0.048153   0.057465  -0.010689  -0.008674
     3  H    0.404467  -0.048153   0.539216  -0.096441   0.007037  -0.001342
     4  C   -0.751934   0.057465  -0.096441   7.183390  -0.324807   0.035429
     5  C    0.020350  -0.010689   0.007037  -0.324807   4.972747  -0.147018
     6  O   -0.008420  -0.008674  -0.001342   0.035429  -0.147018   8.597568
     7  H    0.039560   0.001828   0.000144  -0.005057  -0.045321   0.290608
     8  O    0.010851  -0.000132  -0.000324  -0.020417   0.344641  -0.135034
     9  H   -0.097048  -0.041341  -0.021997   0.313134  -0.090669   0.004548
    10  C    0.064654   0.013913  -0.010317   0.004365   0.016512  -0.008880
    11  H    0.067136  -0.003037   0.007584  -0.122292  -0.079003   0.002841
    12  H   -0.055287  -0.003052  -0.000105   0.016342   0.025963  -0.000494
    13  C    0.032903  -0.001842   0.020221   0.047117   0.038469   0.008504
    14  C    0.068493   0.004538   0.024642  -0.225560  -0.035894   0.000916
    15  H    0.000516  -0.000708  -0.007333   0.018290  -0.003792   0.000906
    16  C    0.033413   0.005563   0.003511   0.053292   0.025621  -0.000330
    17  O   -0.000911  -0.000164   0.000543  -0.001757  -0.000229  -0.000002
    18  H   -0.000056  -0.000037   0.000114   0.000423   0.000437  -0.000011
    19  C   -0.004506   0.000895  -0.006443  -0.044322  -0.015171   0.000049
    20  O    0.000287   0.000002   0.000080  -0.000099   0.000120  -0.000001
    21  H   -0.000047   0.000018   0.000003   0.000102  -0.000015  -0.000001
    22  C    0.002755  -0.008089   0.009294   0.036739   0.013762   0.000769
    23  H    0.000354   0.000036  -0.000610  -0.001211  -0.000264   0.000042
    24  C   -0.080215  -0.023981  -0.002155  -0.321642  -0.092500   0.001687
    25  H    0.004190  -0.001533   0.005254   0.008214   0.017659  -0.000173
    26  H    0.396274  -0.104398  -0.051642  -0.077452   0.014611   0.002271
               7          8          9         10         11         12
     1  N    0.039560   0.010851  -0.097048   0.064654   0.067136  -0.055287
     2  H    0.001828  -0.000132  -0.041341   0.013913  -0.003037  -0.003052
     3  H    0.000144  -0.000324  -0.021997  -0.010317   0.007584  -0.000105
     4  C   -0.005057  -0.020417   0.313134   0.004365  -0.122292   0.016342
     5  C   -0.045321   0.344641  -0.090669   0.016512  -0.079003   0.025963
     6  O    0.290608  -0.135034   0.004548  -0.008880   0.002841  -0.000494
     7  H    0.547086   0.021707  -0.001066  -0.014712  -0.000003  -0.001423
     8  O    0.021707   8.497265   0.019699  -0.008195  -0.016713   0.009850
     9  H   -0.001066   0.019699   1.127291  -0.070880  -0.022890   0.060728
    10  C   -0.014712  -0.008195  -0.070880   7.465581   0.285427  -0.174353
    11  H   -0.000003  -0.016713  -0.022890   0.285427   1.279440  -0.191584
    12  H   -0.001423   0.009850   0.060728  -0.174353  -0.191584   1.573672
    13  C   -0.001345  -0.021316  -0.112821  -0.825475  -0.170051  -0.064918
    14  C    0.004128  -0.001423  -0.040878  -0.572679  -0.149905   0.299752
    15  H    0.000074  -0.000057   0.002448  -0.021680   0.013035  -0.060767
    16  C    0.000615  -0.002718  -0.018837  -0.188932  -0.042097   0.144503
    17  O   -0.000007   0.000010   0.000167   0.034219   0.000930  -0.000373
    18  H    0.000010  -0.000011  -0.000105   0.000832  -0.000410   0.000510
    19  C   -0.000262   0.000251   0.011013   0.101581   0.011648   0.019958
    20  O   -0.000001  -0.000000  -0.000100   0.007164   0.000512  -0.000118
    21  H   -0.000003  -0.000003  -0.000022  -0.002215  -0.000038   0.000250
    22  C    0.000481   0.005060   0.051342   0.101930   0.063965  -0.053655
    23  H   -0.000006   0.000215   0.001422   0.014277   0.001942  -0.000668
    24  C   -0.003373   0.004162   0.036648  -0.686888   0.192793  -0.309086
    25  H    0.000058  -0.003527  -0.026311   0.007755  -0.015680   0.009623
    26  H    0.000635  -0.000097   0.017554   0.005845   0.009583  -0.005165
              13         14         15         16         17         18
     1  N    0.032903   0.068493   0.000516   0.033413  -0.000911  -0.000056
     2  H   -0.001842   0.004538  -0.000708   0.005563  -0.000164  -0.000037
     3  H    0.020221   0.024642  -0.007333   0.003511   0.000543   0.000114
     4  C    0.047117  -0.225560   0.018290   0.053292  -0.001757   0.000423
     5  C    0.038469  -0.035894  -0.003792   0.025621  -0.000229   0.000437
     6  O    0.008504   0.000916   0.000906  -0.000330  -0.000002  -0.000011
     7  H   -0.001345   0.004128   0.000074   0.000615  -0.000007   0.000010
     8  O   -0.021316  -0.001423  -0.000057  -0.002718   0.000010  -0.000011
     9  H   -0.112821  -0.040878   0.002448  -0.018837   0.000167  -0.000105
    10  C   -0.825475  -0.572679  -0.021680  -0.188932   0.034219   0.000832
    11  H   -0.170051  -0.149905   0.013035  -0.042097   0.000930  -0.000410
    12  H   -0.064918   0.299752  -0.060767   0.144503  -0.000373   0.000510
    13  C   14.257810  -3.940045   0.954887   1.249006  -0.057247   0.029727
    14  C   -3.940045  16.433289  -1.464711  -3.149309   0.284947  -0.042926
    15  H    0.954887  -1.464711   2.202288   0.267073  -0.101887   0.014988
    16  C    1.249006  -3.149309   0.267073  10.353777  -0.829339   0.000877
    17  O   -0.057247   0.284947  -0.101887  -0.829339   9.088051   0.292339
    18  H    0.029727  -0.042926   0.014988   0.000877   0.292339   0.526688
    19  C   -3.709233   1.765727  -0.253524  -1.779088   0.287442  -0.043979
    20  O    0.130591  -0.012595   0.005336   0.277665  -0.047581   0.001533
    21  H    0.004435  -0.000898  -0.001755   0.066133   0.006299  -0.000592
    22  C    2.736778  -3.769015   0.030436   2.525522  -0.128529   0.052244
    23  H   -0.520539   0.202201   0.010621  -0.154109   0.001412  -0.002602
    24  C   -6.086387  -0.194406   0.140019  -3.456052   0.101864  -0.043752
    25  H    0.953280  -0.045432  -0.021077   0.164955   0.000239   0.000694
    26  H   -0.017632  -0.020163   0.004537  -0.018459   0.000225  -0.000035
              19         20         21         22         23         24
     1  N   -0.004506   0.000287  -0.000047   0.002755   0.000354  -0.080215
     2  H    0.000895   0.000002   0.000018  -0.008089   0.000036  -0.023981
     3  H   -0.006443   0.000080   0.000003   0.009294  -0.000610  -0.002155
     4  C   -0.044322  -0.000099   0.000102   0.036739  -0.001211  -0.321642
     5  C   -0.015171   0.000120  -0.000015   0.013762  -0.000264  -0.092500
     6  O    0.000049  -0.000001  -0.000001   0.000769   0.000042   0.001687
     7  H   -0.000262  -0.000001  -0.000003   0.000481  -0.000006  -0.003373
     8  O    0.000251  -0.000000  -0.000003   0.005060   0.000215   0.004162
     9  H    0.011013  -0.000100  -0.000022   0.051342   0.001422   0.036648
    10  C    0.101581   0.007164  -0.002215   0.101930   0.014277  -0.686888
    11  H    0.011648   0.000512  -0.000038   0.063965   0.001942   0.192793
    12  H    0.019958  -0.000118   0.000250  -0.053655  -0.000668  -0.309086
    13  C   -3.709233   0.130591   0.004435   2.736778  -0.520539  -6.086387
    14  C    1.765727  -0.012595  -0.000898  -3.769015   0.202201  -0.194406
    15  H   -0.253524   0.005336  -0.001755   0.030436   0.010621   0.140019
    16  C   -1.779088   0.277665   0.066133   2.525522  -0.154109  -3.456052
    17  O    0.287442  -0.047581   0.006299  -0.128529   0.001412   0.101864
    18  H   -0.043979   0.001533  -0.000592   0.052244  -0.002602  -0.043752
    19  C   10.133648  -0.605846  -0.104660  -4.616215   1.222243   3.611992
    20  O   -0.605846   8.899301   0.346228   0.156463  -0.068305  -0.172311
    21  H   -0.104660   0.346228   0.532518  -0.080345  -0.001620   0.030872
    22  C   -4.616215   0.156463  -0.080345  15.204041  -1.609802  -6.051912
    23  H    1.222243  -0.068305  -0.001620  -1.609802   1.841455   0.694237
    24  C    3.611992  -0.172311   0.030872  -6.051912   0.694237  19.807607
    25  H   -0.482800  -0.000457  -0.001704   0.787778  -0.130345  -1.789617
    26  H   -0.000108   0.000037   0.000014   0.003765  -0.000052   0.046688
              25         26
     1  N    0.004190   0.396274
     2  H   -0.001533  -0.104398
     3  H    0.005254  -0.051642
     4  C    0.008214  -0.077452
     5  C    0.017659   0.014611
     6  O   -0.000173   0.002271
     7  H    0.000058   0.000635
     8  O   -0.003527  -0.000097
     9  H   -0.026311   0.017554
    10  C    0.007755   0.005845
    11  H   -0.015680   0.009583
    12  H    0.009623  -0.005165
    13  C    0.953280  -0.017632
    14  C   -0.045432  -0.020163
    15  H   -0.021077   0.004537
    16  C    0.164955  -0.018459
    17  O    0.000239   0.000225
    18  H    0.000694  -0.000035
    19  C   -0.482800  -0.000108
    20  O   -0.000457   0.000037
    21  H   -0.001704   0.000014
    22  C    0.787778   0.003765
    23  H   -0.130345  -0.000052
    24  C   -1.789617   0.046688
    25  H    2.259978   0.000236
    26  H    0.000236   0.572384
 Mulliken charges:
               1
     1  N   -0.468961
     2  H    0.202745
     3  H    0.224749
     4  C    0.218687
     5  C    1.347446
     6  O   -0.635759
     7  H    0.165643
     8  O   -0.703745
     9  H   -0.101028
    10  C    0.461151
    11  H   -0.123132
    12  H   -0.240102
    13  C    1.065121
    14  C    0.577204
    15  H   -0.728162
    16  C    0.467744
    17  O   -0.930662
    18  H    0.213099
    19  C    0.499710
    20  O   -0.917908
    21  H    0.207047
    22  C    0.534441
    23  H   -0.500324
    24  C    0.645710
    25  H   -0.701256
    26  H    0.220540
 Sum of Mulliken charges =   1.00000
 Mulliken charges with hydrogens summed into heavy atoms:
               1
     1  N    0.179073
     4  C    0.117659
     5  C    1.347446
     6  O   -0.470115
     8  O   -0.703745
    10  C    0.097917
    13  C    1.065121
    14  C   -0.150958
    16  C    0.467744
    17  O   -0.717563
    19  C    0.499710
    20  O   -0.710860
    22  C    0.034116
    24  C   -0.055546
 Electronic spatial extent (au):  <R**2>=           3864.8765
 Charge=              1.0000 electrons
 Dipole moment (field-independent basis, Debye):
    X=              5.3898    Y=              8.5092    Z=              5.0656  Tot=             11.2746
 Quadrupole moment (field-independent basis, Debye-Ang):
   XX=            -69.7686   YY=            -61.4290   ZZ=            -71.7515
   XY=             12.3537   XZ=             20.4432   YZ=              1.2556
 Traceless Quadrupole moment (field-independent basis, Debye-Ang):
   XX=             -2.1190   YY=              6.2207   ZZ=             -4.1018
   XY=             12.3537   XZ=             20.4432   YZ=              1.2556
 Octapole moment (field-independent basis, Debye-Ang**2):
  XXX=            -23.7171  YYY=             41.9258  ZZZ=             20.4832  XYY=              8.7445
  XXY=             89.0920  XXZ=             43.7489  XZZ=             28.4013  YZZ=             22.7452
  YYZ=              9.9096  XYZ=             20.8458
 Hexadecapole moment (field-independent basis, Debye-Ang**3):
 XXXX=          -3973.7954 YYYY=           -461.0468 ZZZZ=           -244.4368 XXXY=             74.9366
 XXXZ=            228.4291 YYYX=             21.9469 YYYZ=            -18.3075 ZZZX=             55.6086
 ZZZY=             24.7793 XXYY=           -656.9830 XXZZ=           -651.7261 YYZZ=           -114.4299
 XXYZ=             14.6290 YYXZ=             59.6492 ZZXY=             17.0376
 N-N= 8.854859850827D+02 E-N=-3.401236972837D+03  KE= 7.005550779784D+02
 Leave Link  601 at Sun Jul 18 15:18:48 2021, MaxMem=   262144000 cpu:               0.4 elap:               3.9
 (Enter /dades/curu/g16A03_MST/g16/l9999.exe)
 1\1\GINC-PIRINEUSGPU1\SP\RMP2-FC\Aug-CC-pVDZ\C9H12N1O4(1+)\UBATOR02\18
 -Jul-2021\0\\#p mp2/aug-cc-pVDZ scf=tight maxdisk=180GB geom=allcheck\
 \SET_328_BBB292_conf1.geo_105_165_120 geometry\\1,1\N,0,-2.2195033566,
 -0.3781124264,-1.0698644693\H,0,-3.2168441669,-0.4763105763,-0.8253043
 097\H,0,-1.7313251844,-1.0461544977,-0.4547177534\C,0,-1.6853780788,1.
 0168043282,-0.8621232281\C,0,-2.342417721,2.0903017952,-1.7489984451\O
 ,0,-3.4003388795,1.8019710751,-2.5220521171\H,0,-3.6918669686,0.873469
 9433,-2.491782256\O,0,-1.9012931148,3.2126059532,-1.7199033348\H,0,-1.
 9457487778,1.2741297548,0.1663328973\C,0,-0.1525499169,1.0583226068,-1
 .0243223768\H,0,0.10206795,2.1194837511,-0.9885748608\H,0,0.1163079809
 ,0.7050219519,-2.0250426672\C,0,0.6047983542,0.2849406333,0.0313822117
 \C,0,1.271339156,-0.9049830071,-0.3009127312\H,0,1.248176221,-1.273255
 1255,-1.322914718\C,0,1.9720074863,-1.6141749387,0.6678327627\O,0,2.65
 01828635,-2.7832577446,0.4538995643\H,0,2.6640629724,-3.0073636338,-0.
 4907987177\C,0,2.0194840503,-1.1474337073,1.9924677201\O,0,2.706696328
 4,-1.8439808976,2.9357123245\H,0,3.1141911764,-2.6102039407,2.49470151
 22\C,0,1.3632934317,0.0330342989,2.3257279579\H,0,1.4193457501,0.39013
 94468,3.3483079355\C,0,0.6622564031,0.7440869565,1.351943407\H,0,0.172
 1896805,1.6733017246,1.6264635941\H,0,-2.0921336396,-0.728383724,-2.03
 44599019\\Version=ES64L-G16RevA.03\State=1-A\HF=-701.5624653\MP2=-703.
 7642135\RMSD=3.659e-09\PG=C01 [X(C9H12N1O4)]\\@


 I WANT IT ALL - RICH, THIN, AND CHOCOLATE.
 Job cpu time:       0 days  1 hours 10 minutes 19.9 seconds.
 Elapsed time:       0 days  0 hours 36 minutes 37.9 seconds.
 File lengths (MBytes):  RWF=  26833 Int=      0 D2E=      0 Chk=     16 Scr=      1
 Normal termination of Gaussian 16 at Sun Jul 18 15:19:18 2021.
