 Entering Gaussian System, Link 0=g16
 Input=SET_328_BBB324_conf1.geo_180_105_180_OCTANOL.dat
 Output=SET_328_BBB324_conf1.geo_180_105_180_OCTANOL.log
 Initial command:
 /dades/curu/g16A03_MST/g16/l1.exe "/tmp/ubator02/1839705/Gau-183792.inp" -scrdir="/tmp/ubator02/1839705/"
 Entering Link 1 = /dades/curu/g16A03_MST/g16/l1.exe PID=    183793.
  
 Copyright (c) 1988,1990,1992,1993,1995,1998,2003,2009,2016,
            Gaussian, Inc.  All Rights Reserved.
  
 This is part of the Gaussian(R) 16 program.  It is based on
 the Gaussian(R) 09 system (copyright 2009, Gaussian, Inc.),
 the Gaussian(R) 03 system (copyright 2003, Gaussian, Inc.),
 the Gaussian(R) 98 system (copyright 1998, Gaussian, Inc.),
 the Gaussian(R) 94 system (copyright 1995, Gaussian, Inc.),
 the Gaussian 92(TM) system (copyright 1992, Gaussian, Inc.),
 the Gaussian 90(TM) system (copyright 1990, Gaussian, Inc.),
 the Gaussian 88(TM) system (copyright 1988, Gaussian, Inc.),
 the Gaussian 86(TM) system (copyright 1986, Carnegie Mellon
 University), and the Gaussian 82(TM) system (copyright 1983,
 Carnegie Mellon University). Gaussian is a federally registered
 trademark of Gaussian, Inc.
  
 This software contains proprietary and confidential information,
 including trade secrets, belonging to Gaussian, Inc.
  
 This software is provided under written license and may be
 used, copied, transmitted, or stored only in accord with that
 written license.
  
 The following legend is applicable only to US Government
 contracts under FAR:
  
                    RESTRICTED RIGHTS LEGEND
  
 Use, reproduction and disclosure by the US Government is
 subject to restrictions as set forth in subparagraphs (a)
 and (c) of the Commercial Computer Software - Restricted
 Rights clause in FAR 52.227-19.
  
 Gaussian, Inc.
 340 Quinnipiac St., Bldg. 40, Wallingford CT 06492
  
  
 ---------------------------------------------------------------
 Warning -- This program may not be used in any manner that
 competes with the business of Gaussian, Inc. or will provide
 assistance to any competitor of Gaussian, Inc.  The licensee
 of this program is prohibited from giving any competitor of
 Gaussian, Inc. access to this program.  By using this program,
 the user acknowledges that Gaussian, Inc. is engaged in the
 business of creating and licensing software in the field of
 computational chemistry and represents and warrants to the
 licensee that it is not a competitor of Gaussian, Inc. and that
 it will not use this program in any manner prohibited above.
 ---------------------------------------------------------------
  

 Cite this work as:
 Gaussian 16, Revision A.03,
 M. J. Frisch, G. W. Trucks, H. B. Schlegel, G. E. Scuseria, 
 M. A. Robb, J. R. Cheeseman, G. Scalmani, V. Barone, 
 G. A. Petersson, H. Nakatsuji, X. Li, M. Caricato, A. V. Marenich, 
 J. Bloino, B. G. Janesko, R. Gomperts, B. Mennucci, H. P. Hratchian, 
 J. V. Ortiz, A. F. Izmaylov, J. L. Sonnenberg, D. Williams-Young, 
 F. Ding, F. Lipparini, F. Egidi, J. Goings, B. Peng, A. Petrone, 
 T. Henderson, D. Ranasinghe, V. G. Zakrzewski, J. Gao, N. Rega, 
 G. Zheng, W. Liang, M. Hada, M. Ehara, K. Toyota, R. Fukuda, 
 J. Hasegawa, M. Ishida, T. Nakajima, Y. Honda, O. Kitao, H. Nakai, 
 T. Vreven, K. Throssell, J. A. Montgomery, Jr., J. E. Peralta, 
 F. Ogliaro, M. J. Bearpark, J. J. Heyd, E. N. Brothers, K. N. Kudin, 
 V. N. Staroverov, T. A. Keith, R. Kobayashi, J. Normand, 
 K. Raghavachari, A. P. Rendell, J. C. Burant, S. S. Iyengar, 
 J. Tomasi, M. Cossi, J. M. Millam, M. Klene, C. Adamo, R. Cammi, 
 J. W. Ochterski, R. L. Martin, K. Morokuma, O. Farkas, 
 J. B. Foresman, and D. J. Fox, Gaussian, Inc., Wallingford CT, 2016.
 
 ******************************************
 Gaussian 16:  ES64L-G16RevA.03 25-Dec-2016
                18-Jul-2021 
 ******************************************
 %mem=800MB
 %nproc=4
 Will use up to    4 processors via shared memory.
 %chk=SET_328_BBB324_conf1.geo_180_105_180.chk
 ---------------------------------------------------------------
 #p b3lyp/6-31G(d) opt freq scrf=(iefpcm,read,solvent=n-octanol)
 ---------------------------------------------------------------
 1/18=20,19=15,26=3,38=1,40=2/1,3;
 2/9=110,12=2,17=6,18=5,40=1/2;
 3/5=1,6=6,7=1,11=2,25=1,30=1,70=2203,71=1,72=25,74=-5/1,2,3;
 4//1;
 5/5=2,38=5,53=25/2;
 6/7=2,8=2,9=2,10=2,28=1/1;
 7//1,2,3,16;
 1/18=20,19=15,26=3/3(2);
 2/9=110/2;
 99//99;
 2/9=110/2;
 3/5=1,6=6,7=1,11=2,25=1,30=1,70=2205,71=1,72=25,74=-5/1,2,3;
 4/5=5,16=3,69=1/1;
 5/5=2,38=5,53=25/2;
 7//1,2,3,16;
 1/18=20,19=15,26=3/3(-5);
 2/9=110/2;
 6/7=2,8=2,9=2,10=2,19=2,28=1/1;
 99/9=1/99;
 Leave Link    1 at Sun Jul 18 16:26:04 2021, MaxMem=   104857600 cpu:               0.0 elap:               0.0
 (Enter /dades/curu/g16A03_MST/g16/l101.exe)
 ---------------------------------------------
 SET_328_BBB324_conf1.geo_180_105_180 geometry
 ---------------------------------------------
 Symbolic Z-matrix:
 Charge =  1 Multiplicity = 1
 C                    -0.299    -0.664     2.001 
 H                    -0.856    -0.719     2.939 
 H                     0.541    -1.357     2.093 
 H                    -0.919    -1.186     1.268 
 N                     0.159     0.717     1.659 
 C                    -0.422     1.277     0.427 
 H                    -0.597     2.274     0.84 
 H                    -1.369     0.83      0.114 
 C                     0.77      1.213    -0.606 
 C                     1.1       0.369    -1.636 
 C                     0.319    -0.877    -1.851 
 N                     0.819    -1.803    -2.729 
 O                    -0.078    -2.833    -2.698 
 C                    -1.066    -2.447    -1.83 
 N                    -0.82     -1.267    -1.194 
 C                    -2.064    -3.401    -1.202 
 C                    -1.568    -4.861    -1.143 
 H                    -1.381    -5.329    -2.112 
 H                    -2.188    -5.569    -0.59 
 H                    -0.591    -4.853    -0.657 
 O                    -2.379    -3.003     0.229 
 H                    -2.694    -2.085     0.302 
 C                    -3.478    -3.428    -1.977 
 O                    -4.435    -4.333    -1.368 
 H                    -4.16     -4.403    -0.436 
 H                    -3.249    -3.698    -3.011 
 H                    -3.898    -2.422    -2.064 
 N                     2.27      0.832    -2.275 
 C                     2.865     1.716    -1.414 
 H                     3.778     2.277    -1.535 
 N                     1.938     1.97     -0.405 
 C                     1.991     2.986     0.517 
 C                     2.375     4.239     0.019 
 H                     2.705     4.437    -0.998 
 C                     2.479     5.283     0.917 
 H                     2.642     6.296     0.555 
 C                     2.17      5.093     2.215 
 H                     2.24      5.964     2.861 
 C                     1.729     3.881     2.751 
 Cl                    1.358     3.733     4.361 
 C                     1.625     2.782     1.896 
 C                     1.129     1.428     2.363 
 O                     1.51      0.944     3.402 
 H                     2.601     0.566    -3.181 
 
 ITRead=  0  0  0  0  0  0  0  0  0  0  0  0  0  0  0  0  0  0  0  0
 ITRead=  0  0  0  0  0  0  0  0  0  0  0  0  0  0  0  0  0  0  0  0
 ITRead=  0  0  0  0
 MicOpt= -1 -1 -1 -1 -1 -1 -1 -1 -1 -1 -1 -1 -1 -1 -1 -1 -1 -1 -1 -1
 MicOpt= -1 -1 -1 -1 -1 -1 -1 -1 -1 -1 -1 -1 -1 -1 -1 -1 -1 -1 -1 -1
 MicOpt= -1 -1 -1 -1
 NAtoms=     44 NQM=       44 NQMF=       0 NMMI=      0 NMMIF=      0
                NMic=       0 NMicF=      0.
                    Isotopes and Nuclear Properties:
 (Nuclear quadrupole moments (NQMom) in fm**2, nuclear magnetic moments (NMagM)
  in nuclear magnetons)

  Atom         1           2           3           4           5           6           7           8           9          10
 IAtWgt=          12           1           1           1          14          12           1           1          12          12
 AtmWgt=  12.0000000   1.0078250   1.0078250   1.0078250  14.0030740  12.0000000   1.0078250   1.0078250  12.0000000  12.0000000
 NucSpn=           0           1           1           1           2           0           1           1           0           0
 AtZEff=  -0.0000000  -0.0000000  -0.0000000  -0.0000000  -0.0000000  -0.0000000  -0.0000000  -0.0000000  -0.0000000  -0.0000000
 NQMom=    0.0000000   0.0000000   0.0000000   0.0000000   2.0440000   0.0000000   0.0000000   0.0000000   0.0000000   0.0000000
 NMagM=    0.0000000   2.7928460   2.7928460   2.7928460   0.4037610   0.0000000   2.7928460   2.7928460   0.0000000   0.0000000
 AtZNuc=   6.0000000   1.0000000   1.0000000   1.0000000   7.0000000   6.0000000   1.0000000   1.0000000   6.0000000   6.0000000

  Atom        11          12          13          14          15          16          17          18          19          20
 IAtWgt=          12          14          16          12          14          12          12           1           1           1
 AtmWgt=  12.0000000  14.0030740  15.9949146  12.0000000  14.0030740  12.0000000  12.0000000   1.0078250   1.0078250   1.0078250
 NucSpn=           0           2           0           0           2           0           0           1           1           1
 AtZEff=  -0.0000000  -0.0000000  -0.0000000  -0.0000000  -0.0000000  -0.0000000  -0.0000000  -0.0000000  -0.0000000  -0.0000000
 NQMom=    0.0000000   2.0440000   0.0000000   0.0000000   2.0440000   0.0000000   0.0000000   0.0000000   0.0000000   0.0000000
 NMagM=    0.0000000   0.4037610   0.0000000   0.0000000   0.4037610   0.0000000   0.0000000   2.7928460   2.7928460   2.7928460
 AtZNuc=   6.0000000   7.0000000   8.0000000   6.0000000   7.0000000   6.0000000   6.0000000   1.0000000   1.0000000   1.0000000

  Atom        21          22          23          24          25          26          27          28          29          30
 IAtWgt=          16           1          12          16           1           1           1          14          12           1
 AtmWgt=  15.9949146   1.0078250  12.0000000  15.9949146   1.0078250   1.0078250   1.0078250  14.0030740  12.0000000   1.0078250
 NucSpn=           0           1           0           0           1           1           1           2           0           1
 AtZEff=  -0.0000000  -0.0000000  -0.0000000  -0.0000000  -0.0000000  -0.0000000  -0.0000000  -0.0000000  -0.0000000  -0.0000000
 NQMom=    0.0000000   0.0000000   0.0000000   0.0000000   0.0000000   0.0000000   0.0000000   2.0440000   0.0000000   0.0000000
 NMagM=    0.0000000   2.7928460   0.0000000   0.0000000   2.7928460   2.7928460   2.7928460   0.4037610   0.0000000   2.7928460
 AtZNuc=   8.0000000   1.0000000   6.0000000   8.0000000   1.0000000   1.0000000   1.0000000   7.0000000   6.0000000   1.0000000

  Atom        31          32          33          34          35          36          37          38          39          40
 IAtWgt=          14          12          12           1          12           1          12           1          12          35
 AtmWgt=  14.0030740  12.0000000  12.0000000   1.0078250  12.0000000   1.0078250  12.0000000   1.0078250  12.0000000  34.9688527
 NucSpn=           2           0           0           1           0           1           0           1           0           3
 AtZEff=  -0.0000000  -0.0000000  -0.0000000  -0.0000000  -0.0000000  -0.0000000  -0.0000000  -0.0000000  -0.0000000  -0.0000000
 NQMom=    2.0440000   0.0000000   0.0000000   0.0000000   0.0000000   0.0000000   0.0000000   0.0000000   0.0000000  -8.1650000
 NMagM=    0.4037610   0.0000000   0.0000000   2.7928460   0.0000000   2.7928460   0.0000000   2.7928460   0.0000000   0.8218740
 AtZNuc=   7.0000000   6.0000000   6.0000000   1.0000000   6.0000000   1.0000000   6.0000000   1.0000000   6.0000000  17.0000000

  Atom        41          42          43          44
 IAtWgt=          12          12          16           1
 AtmWgt=  12.0000000  12.0000000  15.9949146   1.0078250
 NucSpn=           0           0           0           1
 AtZEff=  -0.0000000  -0.0000000  -0.0000000  -0.0000000
 NQMom=    0.0000000   0.0000000   0.0000000   0.0000000
 NMagM=    0.0000000   0.0000000   0.0000000   2.7928460
 AtZNuc=   6.0000000   6.0000000   8.0000000   1.0000000
 Leave Link  101 at Sun Jul 18 16:26:04 2021, MaxMem=   104857600 cpu:               0.1 elap:               0.1
 (Enter /dades/curu/g16A03_MST/g16/l103.exe)

 GradGradGradGradGradGradGradGradGradGradGradGradGradGradGradGradGradGrad
 Berny optimization.
 Initialization pass.
                           ----------------------------
                           !    Initial Parameters    !
                           ! (Angstroms and Degrees)  !
 --------------------------                            --------------------------
 ! Name  Definition              Value          Derivative Info.                !
 --------------------------------------------------------------------------------
 ! R1    R(1,2)                  1.0923         estimate D2E/DX2                !
 ! R2    R(1,3)                  1.0928         estimate D2E/DX2                !
 ! R3    R(1,4)                  1.0928         estimate D2E/DX2                !
 ! R4    R(1,5)                  1.4946         estimate D2E/DX2                !
 ! R5    R(5,6)                  1.4727         estimate D2E/DX2                !
 ! R6    R(5,42)                 1.3936         estimate D2E/DX2                !
 ! R7    R(6,7)                  1.0933         estimate D2E/DX2                !
 ! R8    R(6,8)                  1.093          estimate D2E/DX2                !
 ! R9    R(6,9)                  1.5786         estimate D2E/DX2                !
 ! R10   R(9,10)                 1.3719         estimate D2E/DX2                !
 ! R11   R(9,31)                 1.4063         estimate D2E/DX2                !
 ! R12   R(10,11)                1.4862         estimate D2E/DX2                !
 ! R13   R(10,28)                1.4112         estimate D2E/DX2                !
 ! R14   R(11,12)                1.3705         estimate D2E/DX2                !
 ! R15   R(11,15)                1.3715         estimate D2E/DX2                !
 ! R16   R(12,13)                1.3662         estimate D2E/DX2                !
 ! R17   R(13,14)                1.3706         estimate D2E/DX2                !
 ! R18   R(14,15)                1.3629         estimate D2E/DX2                !
 ! R19   R(14,16)                1.5167         estimate D2E/DX2                !
 ! R20   R(16,17)                1.5431         estimate D2E/DX2                !
 ! R21   R(16,21)                1.5184         estimate D2E/DX2                !
 ! R22   R(16,23)                1.6127         estimate D2E/DX2                !
 ! R23   R(17,18)                1.0922         estimate D2E/DX2                !
 ! R24   R(17,19)                1.0915         estimate D2E/DX2                !
 ! R25   R(17,20)                1.0912         estimate D2E/DX2                !
 ! R26   R(21,22)                0.9733         estimate D2E/DX2                !
 ! R27   R(23,24)                1.4511         estimate D2E/DX2                !
 ! R28   R(23,26)                1.0929         estimate D2E/DX2                !
 ! R29   R(23,27)                1.0936         estimate D2E/DX2                !
 ! R30   R(24,25)                0.9742         estimate D2E/DX2                !
 ! R31   R(28,29)                1.37           estimate D2E/DX2                !
 ! R32   R(28,44)                1.0006         estimate D2E/DX2                !
 ! R33   R(29,30)                1.0784         estimate D2E/DX2                !
 ! R34   R(29,31)                1.3935         estimate D2E/DX2                !
 ! R35   R(31,32)                1.373          estimate D2E/DX2                !
 ! R36   R(32,33)                1.402          estimate D2E/DX2                !
 ! R37   R(32,41)                1.4413         estimate D2E/DX2                !
 ! R38   R(33,34)                1.0874         estimate D2E/DX2                !
 ! R39   R(33,35)                1.381          estimate D2E/DX2                !
 ! R40   R(35,36)                1.088          estimate D2E/DX2                !
 ! R41   R(35,37)                1.3477         estimate D2E/DX2                !
 ! R42   R(37,38)                1.0867         estimate D2E/DX2                !
 ! R43   R(37,39)                1.3967         estimate D2E/DX2                !
 ! R44   R(39,40)                1.6588         estimate D2E/DX2                !
 ! R45   R(39,41)                1.3963         estimate D2E/DX2                !
 ! R46   R(41,42)                1.5157         estimate D2E/DX2                !
 ! R47   R(42,43)                1.2079         estimate D2E/DX2                !
 ! A1    A(2,1,3)              106.7222         estimate D2E/DX2                !
 ! A2    A(2,1,4)              105.227          estimate D2E/DX2                !
 ! A3    A(2,1,5)              113.5333         estimate D2E/DX2                !
 ! A4    A(3,1,4)              100.9324         estimate D2E/DX2                !
 ! A5    A(3,1,5)              111.6938         estimate D2E/DX2                !
 ! A6    A(4,1,5)              117.4994         estimate D2E/DX2                !
 ! A7    A(1,5,6)              114.9523         estimate D2E/DX2                !
 ! A8    A(1,5,42)             124.6885         estimate D2E/DX2                !
 ! A9    A(6,5,42)             120.2114         estimate D2E/DX2                !
 ! A10   A(5,6,7)               95.3877         estimate D2E/DX2                !
 ! A11   A(5,6,8)              115.2054         estimate D2E/DX2                !
 ! A12   A(5,6,9)              103.5386         estimate D2E/DX2                !
 ! A13   A(7,6,8)              110.0268         estimate D2E/DX2                !
 ! A14   A(7,6,9)              113.8938         estimate D2E/DX2                !
 ! A15   A(8,6,9)              116.7609         estimate D2E/DX2                !
 ! A16   A(6,9,10)             134.2552         estimate D2E/DX2                !
 ! A17   A(6,9,31)             120.783          estimate D2E/DX2                !
 ! A18   A(10,9,31)            103.8089         estimate D2E/DX2                !
 ! A19   A(9,10,11)            119.867          estimate D2E/DX2                !
 ! A20   A(9,10,28)            109.7268         estimate D2E/DX2                !
 ! A21   A(11,10,28)           130.1835         estimate D2E/DX2                !
 ! A22   A(10,11,12)           117.8671         estimate D2E/DX2                !
 ! A23   A(10,11,15)           127.2664         estimate D2E/DX2                !
 ! A24   A(12,11,15)           114.6911         estimate D2E/DX2                !
 ! A25   A(11,12,13)           104.7925         estimate D2E/DX2                !
 ! A26   A(12,13,14)           105.9819         estimate D2E/DX2                !
 ! A27   A(13,14,15)           114.1583         estimate D2E/DX2                !
 ! A28   A(13,14,16)           124.0134         estimate D2E/DX2                !
 ! A29   A(15,14,16)           118.0429         estimate D2E/DX2                !
 ! A30   A(11,15,14)            99.9365         estimate D2E/DX2                !
 ! A31   A(14,16,17)           113.5435         estimate D2E/DX2                !
 ! A32   A(14,16,21)           111.2145         estimate D2E/DX2                !
 ! A33   A(14,16,23)           112.8599         estimate D2E/DX2                !
 ! A34   A(17,16,21)           106.1804         estimate D2E/DX2                !
 ! A35   A(17,16,23)           106.521          estimate D2E/DX2                !
 ! A36   A(21,16,23)           105.9861         estimate D2E/DX2                !
 ! A37   A(16,17,18)           115.2472         estimate D2E/DX2                !
 ! A38   A(16,17,19)           116.7754         estimate D2E/DX2                !
 ! A39   A(16,17,20)           107.3302         estimate D2E/DX2                !
 ! A40   A(18,17,19)           105.5922         estimate D2E/DX2                !
 ! A41   A(18,17,20)           104.1804         estimate D2E/DX2                !
 ! A42   A(19,17,20)           106.7182         estimate D2E/DX2                !
 ! A43   A(16,21,22)           112.6482         estimate D2E/DX2                !
 ! A44   A(16,23,24)           112.768          estimate D2E/DX2                !
 ! A45   A(16,23,26)           105.9665         estimate D2E/DX2                !
 ! A46   A(16,23,27)           111.0732         estimate D2E/DX2                !
 ! A47   A(24,23,26)           112.4055         estimate D2E/DX2                !
 ! A48   A(24,23,27)           110.7199         estimate D2E/DX2                !
 ! A49   A(26,23,27)           103.4417         estimate D2E/DX2                !
 ! A50   A(23,24,25)           105.078          estimate D2E/DX2                !
 ! A51   A(10,28,29)           106.6906         estimate D2E/DX2                !
 ! A52   A(10,28,44)           126.658          estimate D2E/DX2                !
 ! A53   A(29,28,44)           126.6514         estimate D2E/DX2                !
 ! A54   A(28,29,30)           129.2623         estimate D2E/DX2                !
 ! A55   A(28,29,31)           106.4847         estimate D2E/DX2                !
 ! A56   A(30,29,31)           123.3406         estimate D2E/DX2                !
 ! A57   A(9,31,29)            110.5419         estimate D2E/DX2                !
 ! A58   A(9,31,32)            121.7603         estimate D2E/DX2                !
 ! A59   A(29,31,32)           126.5425         estimate D2E/DX2                !
 ! A60   A(31,32,33)           115.6834         estimate D2E/DX2                !
 ! A61   A(31,32,41)           121.8684         estimate D2E/DX2                !
 ! A62   A(33,32,41)           122.4075         estimate D2E/DX2                !
 ! A63   A(32,33,34)           125.3167         estimate D2E/DX2                !
 ! A64   A(32,33,35)           117.7296         estimate D2E/DX2                !
 ! A65   A(34,33,35)           116.5935         estimate D2E/DX2                !
 ! A66   A(33,35,36)           119.9196         estimate D2E/DX2                !
 ! A67   A(33,35,37)           120.1601         estimate D2E/DX2                !
 ! A68   A(36,35,37)           119.0808         estimate D2E/DX2                !
 ! A69   A(35,37,38)           116.4087         estimate D2E/DX2                !
 ! A70   A(35,37,39)           124.3561         estimate D2E/DX2                !
 ! A71   A(38,37,39)           119.1924         estimate D2E/DX2                !
 ! A72   A(37,39,40)           121.3669         estimate D2E/DX2                !
 ! A73   A(37,39,41)           118.1338         estimate D2E/DX2                !
 ! A74   A(40,39,41)           120.4931         estimate D2E/DX2                !
 ! A75   A(32,41,39)           117.1012         estimate D2E/DX2                !
 ! A76   A(32,41,42)           120.2873         estimate D2E/DX2                !
 ! A77   A(39,41,42)           122.6029         estimate D2E/DX2                !
 ! A78   A(5,42,41)            121.863          estimate D2E/DX2                !
 ! A79   A(5,42,43)            116.7224         estimate D2E/DX2                !
 ! A80   A(41,42,43)           121.3162         estimate D2E/DX2                !
 ! D1    D(2,1,5,6)           -116.2687         estimate D2E/DX2                !
 ! D2    D(2,1,5,42)            68.1625         estimate D2E/DX2                !
 ! D3    D(3,1,5,6)            123.0002         estimate D2E/DX2                !
 ! D4    D(3,1,5,42)           -52.5686         estimate D2E/DX2                !
 ! D5    D(4,1,5,6)              7.0751         estimate D2E/DX2                !
 ! D6    D(4,1,5,42)          -168.4936         estimate D2E/DX2                !
 ! D7    D(1,5,6,7)            137.6902         estimate D2E/DX2                !
 ! D8    D(1,5,6,8)             22.5669         estimate D2E/DX2                !
 ! D9    D(1,5,6,9)           -106.1308         estimate D2E/DX2                !
 ! D10   D(42,5,6,7)           -46.5257         estimate D2E/DX2                !
 ! D11   D(42,5,6,8)          -161.649          estimate D2E/DX2                !
 ! D12   D(42,5,6,9)            69.6533         estimate D2E/DX2                !
 ! D13   D(1,5,42,41)          175.0409         estimate D2E/DX2                !
 ! D14   D(1,5,42,43)           -8.5215         estimate D2E/DX2                !
 ! D15   D(6,5,42,41)           -0.3096         estimate D2E/DX2                !
 ! D16   D(6,5,42,43)          176.128          estimate D2E/DX2                !
 ! D17   D(5,6,9,10)           101.2512         estimate D2E/DX2                !
 ! D18   D(5,6,9,31)           -64.2896         estimate D2E/DX2                !
 ! D19   D(7,6,9,10)          -156.4913         estimate D2E/DX2                !
 ! D20   D(7,6,9,31)            37.9678         estimate D2E/DX2                !
 ! D21   D(8,6,9,10)           -26.4836         estimate D2E/DX2                !
 ! D22   D(8,6,9,31)           167.9755         estimate D2E/DX2                !
 ! D23   D(6,9,10,11)           -7.5841         estimate D2E/DX2                !
 ! D24   D(6,9,10,28)          177.3005         estimate D2E/DX2                !
 ! D25   D(31,9,10,11)         159.6542         estimate D2E/DX2                !
 ! D26   D(31,9,10,28)         -15.4611         estimate D2E/DX2                !
 ! D27   D(6,9,31,29)          177.8263         estimate D2E/DX2                !
 ! D28   D(6,9,31,32)          -13.708          estimate D2E/DX2                !
 ! D29   D(10,9,31,29)           8.4384         estimate D2E/DX2                !
 ! D30   D(10,9,31,32)         176.9042         estimate D2E/DX2                !
 ! D31   D(9,10,11,12)        -168.6443         estimate D2E/DX2                !
 ! D32   D(9,10,11,15)           6.2612         estimate D2E/DX2                !
 ! D33   D(28,10,11,12)          5.3335         estimate D2E/DX2                !
 ! D34   D(28,10,11,15)       -179.761          estimate D2E/DX2                !
 ! D35   D(9,10,28,29)          17.2081         estimate D2E/DX2                !
 ! D36   D(9,10,28,44)        -162.8132         estimate D2E/DX2                !
 ! D37   D(11,10,28,29)       -157.2455         estimate D2E/DX2                !
 ! D38   D(11,10,28,44)         22.7332         estimate D2E/DX2                !
 ! D39   D(10,11,12,13)        178.6503         estimate D2E/DX2                !
 ! D40   D(15,11,12,13)          3.1113         estimate D2E/DX2                !
 ! D41   D(10,11,15,14)        179.0408         estimate D2E/DX2                !
 ! D42   D(12,11,15,14)         -5.9157         estimate D2E/DX2                !
 ! D43   D(11,12,13,14)          1.2459         estimate D2E/DX2                !
 ! D44   D(12,13,14,15)         -5.324          estimate D2E/DX2                !
 ! D45   D(12,13,14,16)       -162.889          estimate D2E/DX2                !
 ! D46   D(13,14,15,11)          6.7265         estimate D2E/DX2                !
 ! D47   D(16,14,15,11)        165.7233         estimate D2E/DX2                !
 ! D48   D(13,14,16,17)         23.4014         estimate D2E/DX2                !
 ! D49   D(13,14,16,21)        143.0839         estimate D2E/DX2                !
 ! D50   D(13,14,16,23)        -97.9525         estimate D2E/DX2                !
 ! D51   D(15,14,16,17)       -133.3619         estimate D2E/DX2                !
 ! D52   D(15,14,16,21)        -13.6794         estimate D2E/DX2                !
 ! D53   D(15,14,16,23)        105.2842         estimate D2E/DX2                !
 ! D54   D(14,16,17,18)        -62.6573         estimate D2E/DX2                !
 ! D55   D(14,16,17,19)        172.5353         estimate D2E/DX2                !
 ! D56   D(14,16,17,20)         52.8661         estimate D2E/DX2                !
 ! D57   D(21,16,17,18)        174.8342         estimate D2E/DX2                !
 ! D58   D(21,16,17,19)         50.0268         estimate D2E/DX2                !
 ! D59   D(21,16,17,20)        -69.6424         estimate D2E/DX2                !
 ! D60   D(23,16,17,18)         62.1795         estimate D2E/DX2                !
 ! D61   D(23,16,17,19)        -62.6279         estimate D2E/DX2                !
 ! D62   D(23,16,17,20)        177.7029         estimate D2E/DX2                !
 ! D63   D(14,16,21,22)         55.3965         estimate D2E/DX2                !
 ! D64   D(17,16,21,22)        179.3683         estimate D2E/DX2                !
 ! D65   D(23,16,21,22)        -67.6067         estimate D2E/DX2                !
 ! D66   D(14,16,23,24)       -179.5196         estimate D2E/DX2                !
 ! D67   D(14,16,23,26)         57.1107         estimate D2E/DX2                !
 ! D68   D(14,16,23,27)        -54.5653         estimate D2E/DX2                !
 ! D69   D(17,16,23,24)         55.2258         estimate D2E/DX2                !
 ! D70   D(17,16,23,26)        -68.1438         estimate D2E/DX2                !
 ! D71   D(17,16,23,27)       -179.8199         estimate D2E/DX2                !
 ! D72   D(21,16,23,24)        -57.5627         estimate D2E/DX2                !
 ! D73   D(21,16,23,26)        179.0677         estimate D2E/DX2                !
 ! D74   D(21,16,23,27)         67.3916         estimate D2E/DX2                !
 ! D75   D(16,23,24,25)         25.0344         estimate D2E/DX2                !
 ! D76   D(26,23,24,25)        144.7513         estimate D2E/DX2                !
 ! D77   D(27,23,24,25)       -100.1122         estimate D2E/DX2                !
 ! D78   D(10,28,29,30)        179.6499         estimate D2E/DX2                !
 ! D79   D(10,28,29,31)        -11.1847         estimate D2E/DX2                !
 ! D80   D(44,28,29,30)         -0.3289         estimate D2E/DX2                !
 ! D81   D(44,28,29,31)        168.8366         estimate D2E/DX2                !
 ! D82   D(28,29,31,9)           1.8353         estimate D2E/DX2                !
 ! D83   D(28,29,31,32)       -165.9479         estimate D2E/DX2                !
 ! D84   D(30,29,31,9)         171.8025         estimate D2E/DX2                !
 ! D85   D(30,29,31,32)          4.0193         estimate D2E/DX2                !
 ! D86   D(9,31,32,33)        -124.1093         estimate D2E/DX2                !
 ! D87   D(9,31,32,41)          53.6242         estimate D2E/DX2                !
 ! D88   D(29,31,32,33)         42.4138         estimate D2E/DX2                !
 ! D89   D(29,31,32,41)       -139.8527         estimate D2E/DX2                !
 ! D90   D(31,32,33,34)         -5.3549         estimate D2E/DX2                !
 ! D91   D(31,32,33,35)       -178.2083         estimate D2E/DX2                !
 ! D92   D(41,32,33,34)        176.925          estimate D2E/DX2                !
 ! D93   D(41,32,33,35)          4.0717         estimate D2E/DX2                !
 ! D94   D(31,32,41,39)        179.3751         estimate D2E/DX2                !
 ! D95   D(31,32,41,42)         -1.6606         estimate D2E/DX2                !
 ! D96   D(33,32,41,39)         -3.0443         estimate D2E/DX2                !
 ! D97   D(33,32,41,42)        175.9199         estimate D2E/DX2                !
 ! D98   D(32,33,35,36)       -171.7613         estimate D2E/DX2                !
 ! D99   D(32,33,35,37)         -2.3465         estimate D2E/DX2                !
 ! D100  D(34,33,35,36)         14.7572         estimate D2E/DX2                !
 ! D101  D(34,33,35,37)       -175.828          estimate D2E/DX2                !
 ! D102  D(33,35,37,38)       -177.9205         estimate D2E/DX2                !
 ! D103  D(33,35,37,39)         -0.3276         estimate D2E/DX2                !
 ! D104  D(36,35,37,38)         -8.4174         estimate D2E/DX2                !
 ! D105  D(36,35,37,39)        169.1756         estimate D2E/DX2                !
 ! D106  D(35,37,39,40)       -179.5417         estimate D2E/DX2                !
 ! D107  D(35,37,39,41)          1.3621         estimate D2E/DX2                !
 ! D108  D(38,37,39,40)         -2.0113         estimate D2E/DX2                !
 ! D109  D(38,37,39,41)        178.8925         estimate D2E/DX2                !
 ! D110  D(37,39,41,32)          0.313          estimate D2E/DX2                !
 ! D111  D(37,39,41,42)       -178.6254         estimate D2E/DX2                !
 ! D112  D(40,39,41,32)       -178.7914         estimate D2E/DX2                !
 ! D113  D(40,39,41,42)          2.2702         estimate D2E/DX2                !
 ! D114  D(32,41,42,5)         -46.9523         estimate D2E/DX2                !
 ! D115  D(32,41,42,43)        136.7724         estimate D2E/DX2                !
 ! D116  D(39,41,42,5)         131.9532         estimate D2E/DX2                !
 ! D117  D(39,41,42,43)        -44.322          estimate D2E/DX2                !
 --------------------------------------------------------------------------------
 Trust Radius=3.00D-01 FncErr=1.00D-07 GrdErr=1.00D-06 EigMax=2.50D+02 EigMin=1.00D-04
 Number of steps in this run=    254 maximum allowed number of steps=    264.
 GradGradGradGradGradGradGradGradGradGradGradGradGradGradGradGradGradGrad

 Leave Link  103 at Sun Jul 18 16:26:04 2021, MaxMem=   104857600 cpu:               0.0 elap:               0.0
 (Enter /dades/curu/g16A03_MST/g16/l202.exe)
                          Input orientation:                          
 ---------------------------------------------------------------------
 Center     Atomic      Atomic             Coordinates (Angstroms)
 Number     Number       Type             X           Y           Z
 ---------------------------------------------------------------------
      1          6           0       -0.299000   -0.664000    2.001000
      2          1           0       -0.856000   -0.719000    2.939000
      3          1           0        0.541000   -1.357000    2.093000
      4          1           0       -0.919000   -1.186000    1.268000
      5          7           0        0.159000    0.717000    1.659000
      6          6           0       -0.422000    1.277000    0.427000
      7          1           0       -0.597000    2.274000    0.840000
      8          1           0       -1.369000    0.830000    0.114000
      9          6           0        0.770000    1.213000   -0.606000
     10          6           0        1.100000    0.369000   -1.636000
     11          6           0        0.319000   -0.877000   -1.851000
     12          7           0        0.819000   -1.803000   -2.729000
     13          8           0       -0.078000   -2.833000   -2.698000
     14          6           0       -1.066000   -2.447000   -1.830000
     15          7           0       -0.820000   -1.267000   -1.194000
     16          6           0       -2.064000   -3.401000   -1.202000
     17          6           0       -1.568000   -4.861000   -1.143000
     18          1           0       -1.381000   -5.329000   -2.112000
     19          1           0       -2.188000   -5.569000   -0.590000
     20          1           0       -0.591000   -4.853000   -0.657000
     21          8           0       -2.379000   -3.003000    0.229000
     22          1           0       -2.694000   -2.085000    0.302000
     23          6           0       -3.478000   -3.428000   -1.977000
     24          8           0       -4.435000   -4.333000   -1.368000
     25          1           0       -4.160000   -4.403000   -0.436000
     26          1           0       -3.249000   -3.698000   -3.011000
     27          1           0       -3.898000   -2.422000   -2.064000
     28          7           0        2.270000    0.832000   -2.275000
     29          6           0        2.865000    1.716000   -1.414000
     30          1           0        3.778000    2.277000   -1.535000
     31          7           0        1.938000    1.970000   -0.405000
     32          6           0        1.991000    2.986000    0.517000
     33          6           0        2.375000    4.239000    0.019000
     34          1           0        2.705000    4.437000   -0.998000
     35          6           0        2.479000    5.283000    0.917000
     36          1           0        2.642000    6.296000    0.555000
     37          6           0        2.170000    5.093000    2.215000
     38          1           0        2.240000    5.964000    2.861000
     39          6           0        1.729000    3.881000    2.751000
     40         17           0        1.358000    3.733000    4.361000
     41          6           0        1.625000    2.782000    1.896000
     42          6           0        1.129000    1.428000    2.363000
     43          8           0        1.510000    0.944000    3.402000
     44          1           0        2.601000    0.566000   -3.181000
 ---------------------------------------------------------------------
                    Distance matrix (angstroms):
                    1          2          3          4          5
     1  C    0.000000
     2  H    1.092299   0.000000
     3  H    1.092846   1.753388   0.000000
     4  H    1.092782   1.736174   1.685665   0.000000
     5  N    1.494620   2.175022   2.153081   2.221795   0.000000
     6  C    2.502016   3.237671   3.262036   2.649653   1.472747
     7  H    3.173101   3.664823   4.006147   3.501210   1.914823
     8  H    2.633952   3.262391   3.513902   2.366109   2.175909
     9  C    3.385608   4.352416   3.733891   3.481350   2.397824
    10  C    4.031384   5.093163   4.146926   3.863625   3.444359
    11  C    3.907070   4.934540   3.979299   3.369909   3.858307
    12  N    4.992008   6.008902   4.850555   4.401970   5.102994
    13  O    5.180155   6.070424   5.051279   4.375962   5.625133
    14  C    4.294641   5.076755   4.377268   3.348034   4.866687
    15  N    3.292882   4.169327   3.558762   2.465321   3.610306
    16  C    4.567888   5.079397   4.671294   3.509722   5.484977
    17  C    5.395360   5.858825   5.215131   4.442944   6.476713
    18  H    6.312663   6.858595   6.095317   5.366777   7.290141
    19  H    5.860088   6.144149   5.690947   4.926785   7.076737
    20  H    4.969703   5.485563   4.589765   4.154527   6.078754
    21  O    3.596847   3.857497   3.835389   2.551982   4.724907
    22  H    3.262187   3.492559   3.768672   2.211783   4.222826
    23  C    5.793981   6.195210   6.083281   4.701603   6.605247
    24  O    6.474428   6.664870   6.752457   5.405031   7.467936
    25  H    5.901391   5.989900   6.146003   4.874093   7.018346
    26  H    6.559558   7.071308   6.774599   5.481686   7.274310
    27  H    5.706802   6.097867   6.174107   4.637279   6.338241
    28  N    5.207874   6.274016   5.182720   5.176378   4.466084
    29  C    5.228530   6.222835   5.209928   5.471141   4.214708
    30  H    6.146113   7.103988   6.070133   6.473870   5.072711
    31  N    4.210815   5.120497   4.388683   4.574026   2.999158
    32  C    4.557286   5.262938   4.842306   5.141759   3.131892
    33  C    5.926045   6.599055   6.243416   6.468467   4.472666
    34  H    6.636130   7.400340   6.914305   7.063021   5.232606
    35  C    6.652755   7.157843   7.016297   7.315570   5.175067
    36  H    7.692984   8.193271   8.083814   8.316815   6.205590
    37  C    6.267759   6.592435   6.653647   7.061485   4.847951
    38  H    7.149581   7.365717   7.554698   7.977433   5.771167
    39  C    5.033121   5.279921   5.411188   5.906410   3.697061
    40  Cl   5.258218   5.171478   5.631999   6.240828   4.223110
    41  C    3.948128   4.415904   4.283128   4.755139   2.543531
    42  C    2.558650   2.980203   2.859173   3.496616   1.393570
    43  O    2.796595   2.928804   2.819050   3.871808   2.216930
    44  H    6.064324   7.145381   5.979683   5.937466   5.423261
                    6          7          8          9         10
     6  C    0.000000
     7  H    1.093253   0.000000
     8  H    1.092972   1.791144   0.000000
     9  C    1.578623   2.255067   2.289194   0.000000
    10  C    2.719727   3.555195   3.061206   1.371910   0.000000
    11  C    3.221503   4.243741   3.102325   2.474172   1.486170
    12  N    4.581137   5.600424   4.450020   3.688602   2.447692
    13  O    5.174559   6.234441   4.794955   4.633107   3.573280
    14  C    4.401927   5.443960   3.822260   4.273719   3.557956
    15  N    3.042693   4.089690   2.531733   3.004038   2.560910
    16  C    5.218572   6.207051   4.485113   5.447547   4.940866
    17  C    6.438421   7.468826   5.831563   6.530550   5.891873
    18  H    7.141809   8.193569   6.548931   7.049298   6.232908
    19  H    7.142882   8.129504   6.489498   7.399023   6.867671
    20  H    6.227401   7.282525   5.787591   6.217015   5.575590
    21  O    4.710356   5.603175   3.965503   5.328047   5.191536
    22  H    4.059637   4.867005   3.207521   4.868323   4.916543
    23  C    6.103718   6.982009   5.191409   6.439257   5.957481
    24  O    7.127292   7.953487   6.184921   7.644003   7.267520
    25  H    6.854182   7.674990   5.956213   7.474842   7.202748
    26  H    6.675507   7.584727   5.814018   6.786332   6.111049
    27  H    5.654225   6.432902   4.659939   6.093375   5.740459
    28  N    3.840012   4.472391   4.353119   2.276120   1.411237
    29  C    3.792937   4.168612   4.587650   2.301065   2.231349
    30  H    4.742304   4.978078   5.595053   3.323131   3.289734
    31  N    2.596550   2.840540   3.536271   1.406298   2.186505
    32  C    2.958268   2.703519   4.012524   2.428065   3.503995
    33  C    4.094279   3.656234   5.064370   3.481857   4.397903
    34  H    4.668442   4.354310   5.553780   3.780485   4.419468
    35  C    4.970306   4.303694   5.939791   4.669594   5.706737
    36  H    5.881738   5.171927   6.794097   5.539783   6.504427
    37  C    4.947450   4.182544   5.925529   4.997243   6.187995
    38  H    5.914268   5.074358   6.850463   6.062424   7.268193
    39  C    4.099828   3.412425   5.085270   4.394013   5.654693
    40  Cl   4.967564   4.283474   5.822452   5.600646   6.880921
    41  C    2.934825   2.512068   3.993728   3.074539   4.309666
    42  C    2.485256   2.452411   3.414031   2.998344   4.136946
    43  O    3.562883   3.573821   4.371794   4.084608   5.087256
    44  H    4.760432   5.414140   5.166006   3.225181   2.163061
                   11         12         13         14         15
    11  C    0.000000
    12  N    1.370533   0.000000
    13  O    2.168168   1.366188   0.000000
    14  C    2.093697   2.185443   1.370607   0.000000
    15  N    1.371521   2.308645   2.294545   1.362869   0.000000
    16  C    3.531355   3.632771   2.550458   1.516741   2.470133
    17  C    4.464783   4.191006   2.958194   2.559564   3.671368
    18  H    4.772675   4.201591   2.875973   2.912846   4.202058
    19  H    5.467178   5.272582   4.047402   3.541662   4.554497
    20  H    4.249978   3.947630   2.917062   2.718527   3.633209
    21  O    4.015654   4.518514   3.727040   2.504513   2.732967
    22  H    3.895233   4.648403   4.050057   2.706816   2.533578
    23  C    4.576099   4.655141   3.526169   2.608010   3.513968
    24  O    5.897266   5.988133   4.796076   3.888522   4.743296
    25  H    5.873359   6.066984   4.923847   3.916888   4.643776
    26  H    4.694067   4.496573   3.301732   2.779434   3.887324
    27  H    4.496163   4.803694   3.894005   2.841761   3.400737
    28  N    2.628090   3.042161   4.373129   4.698804   3.888761
    29  C    3.660155   4.277698   5.568061   5.740765   4.746147
    30  H    4.691722   5.179548   6.506413   6.772558   5.815309
    31  N    3.580152   4.570412   5.691302   5.528520   4.325188
    32  C    4.829677   5.902933   6.962596   6.661167   5.377476
    33  C    5.822155   6.817507   7.963195   7.743506   6.480388
    34  H    5.887207   6.744698   7.967935   7.893169   6.708178
    35  C    7.090347   8.140044   9.245319   8.936774   7.631659
    36  H    7.914360   8.927586  10.065736   9.791708   8.499613
    37  C    7.456504   8.592040   9.592317   9.147968   7.810953
    38  H    8.525988   9.674380  10.661276  10.182340   8.837080
    39  C    6.767944   7.947726   8.833722   8.297058   6.968668
    40  Cl   7.805163   9.011433   9.746996   9.077260   7.784710
    41  C    5.397585   6.562201   7.452065   6.961824   5.649825
    42  C    4.871029   6.038537   6.725079   6.116772   4.869689
    43  O    5.685818   6.753714   7.348297   6.745997   5.607195
    44  H    3.009763   2.998665   4.354714   4.934598   4.360195
                   16         17         18         19         20
    16  C    0.000000
    17  C    1.543080   0.000000
    18  H    2.238699   1.092224   0.000000
    19  H    2.256135   1.091546   1.739348   0.000000
    20  H    2.138939   1.091233   1.722702   1.751443   0.000000
    21  O    1.518351   2.447911   3.447689   2.700296   2.721110
    22  H    2.095417   3.325970   4.251459   3.631798   3.606122
    23  C    1.612684   2.529258   2.833626   2.858627   3.479626
    24  O    2.553002   2.923884   3.297343   2.679923   3.943635
    25  H    2.446217   2.725450   3.374803   2.296096   3.604040
    26  H    2.182869   2.769071   2.637762   3.238457   3.733672
    27  H    2.250565   3.496550   3.845548   3.873033   4.338855
    28  N    6.152493   6.958586   7.163399   7.980338   6.566770
    29  C    7.108001   7.936111   8.255165   8.904101   7.461149
    30  H    8.153498   8.926613   9.208661   9.901813   8.408088
    31  N    6.745284   7.713575   8.197866   8.596198   7.280980
    32  C    7.758335   8.774821   9.349933   9.585276   8.336361
    33  C    8.919931   9.985364  10.497396  10.834607   9.587419
    34  H    9.177103  10.233883  10.644771  11.145759   9.863265
    35  C   10.027007  11.114070  11.691406  11.908730  10.707048
    36  H   10.920865  12.045163  12.587217  12.861499  11.671394
    37  C   10.087154  11.150378  11.830072  11.854891  10.714216
    38  H   11.078610  12.153744  12.859791  12.826795  11.721705
    39  C    9.112661  10.122056  10.869451  10.761397   9.658138
    40  Cl   9.672177  10.616606  11.468291  11.118171  10.134018
    41  C    7.838100   8.823050   9.533542   9.510960   8.349951
    42  C    6.798802   7.688782   8.484266   8.287382   7.178423
    43  O    7.269754   7.989314   8.838134   8.487075   7.382065
    44  H    6.435507   7.140472   7.193755   8.202806   6.776799
                   21         22         23         24         25
    21  O    0.000000
    22  H    0.973282   0.000000
    23  C    2.500972   2.759012   0.000000
    24  O    2.923430   3.297497   1.451122   0.000000
    25  H    2.360971   2.840233   1.946903   0.974243   0.000000
    26  H    3.426007   3.726361   1.092930   2.123504   2.820917
    27  H    2.811187   2.676031   1.093620   2.103499   2.577477
    28  N    6.526135   6.308020   7.160720   8.512162   8.493059
    29  C    7.243476   6.949442   8.186046   9.480639   9.367458
    30  H    8.300527   8.018005   9.240775  10.543878  10.432739
    31  N    6.615828   6.196636   7.806577   9.015005   8.820527
    32  C    7.419432   6.907278   8.790301   9.920406   9.661280
    33  C    8.665517   8.109736   9.850102  11.035355  10.844234
    34  H    9.094294   8.565961  10.052172  11.315008  11.206680
    35  C    9.629709   9.023612  10.942696  12.062010  11.820555
    36  H   10.572990   9.938716  11.765271  12.913462  12.716835
    37  C    9.496463   8.879288  11.048991  12.054600  11.716259
    38  H   10.424475   9.781576  12.012969  12.979533  12.621604
    39  C    8.403904   7.820082  10.143388  11.064848  10.651852
    40  Cl   8.741412   8.169658  10.716206  11.464757  10.938648
    41  C    7.230293   6.699424   8.922154   9.899521   9.514656
    42  C    6.041008   5.586074   7.977517   8.835586   8.355147
    43  O    6.385222   6.038084   8.539799   9.270526   8.687321
    44  H    7.011866   6.869943   7.372645   8.763131   8.828200
                   26         27         28         29         30
    26  H    0.000000
    27  H    1.716446   0.000000
    28  N    7.177880   6.976909   0.000000
    29  C    8.321226   7.955106   1.369964   0.000000
    30  H    9.341195   9.015621   2.215782   1.078393   0.000000
    31  N    8.113102   7.490049   2.214084   1.393530   2.180997
    32  C    9.196752   8.401687   3.537347   2.470938   2.811895
    33  C   10.188535   9.383940   4.108663   2.942638   2.869280
    34  H   10.280103   9.580284   3.849153   2.757263   2.470890
    35  C   11.353305  10.436451   5.481236   4.278557   4.090934
    36  H   12.136732  11.208670   6.164623   4.990300   4.670220
    37  C   11.574036  10.564359   6.190817   5.005676   4.957622
    38  H   12.568363  11.500246   7.260635   6.059023   5.940053
    39  C   10.743480   9.724976   5.903368   4.829591   5.014081
    40  Cl  11.436372  10.333934   7.299592   6.299997   6.537519
    41  C    9.477601   8.559600   4.649276   3.691891   4.081935
    42  C    8.621058   7.726031   4.813330   4.166818   4.788779
    43  O    9.237035   8.393663   5.728741   5.062200   5.594165
    44  H    7.241070   7.239671   1.000576   2.124732   2.649937
                   31         32         33         34         35
    31  N    0.000000
    32  C    1.373007   0.000000
    33  C    2.349278   1.401952   0.000000
    34  H    2.650665   2.215947   1.087379   0.000000
    35  C    3.607816   2.382090   1.380998   2.105711   0.000000
    36  H    4.486813   3.373625   2.142390   2.423151   1.088017
    37  C    4.083057   2.711954   2.365112   3.322639   1.347733
    38  H    5.168171   3.798002   3.327283   4.176103   2.073648
    39  C    3.695394   2.420831   2.830071   3.913657   2.427274
    40  Cl   5.114619   3.966741   4.488128   5.570360   3.939578
    41  C    2.460064   1.441254   2.491682   3.504377   2.818290
    42  C    2.934292   2.564785   3.866338   4.778512   4.332948
    43  O    3.965994   3.567121   4.801035   5.743612   5.093241
    44  H    3.180717   4.461357   4.876680   4.445329   6.249686
                   36         37         38         39         40
    36  H    0.000000
    37  C    2.103709   0.000000
    38  H    2.364205   1.086672   0.000000
    39  C    3.389426   1.396682   2.147582   0.000000
    40  Cl   4.764794   2.667257   2.829361   1.658808   0.000000
    41  C    3.896250   2.395727   3.381505   1.396296   2.655544
    42  C    5.408831   3.812848   4.696554   2.554947   3.058998
    43  O    6.166907   4.365635   5.101567   3.016245   2.953186
    44  H    6.840488   7.056650   8.110147   6.851148   8.273857
                   41         42         43         44
    41  C    0.000000
    42  C    1.515725   0.000000
    43  O    2.378971   1.207865   0.000000
    44  H    5.624870   5.800497   6.683491   0.000000
 Stoichiometry    C17H17ClN5O4(1+)
 Framework group  C1[X(C17H17ClN5O4)]
 Deg. of freedom   126
 Full point group                 C1      NOp   1
 Largest Abelian subgroup         C1      NOp   1
 Largest concise Abelian subgroup C1      NOp   1
                         Standard orientation:                         
 ---------------------------------------------------------------------
 Center     Atomic      Atomic             Coordinates (Angstroms)
 Number     Number       Type             X           Y           Z
 ---------------------------------------------------------------------
      1          6           0       -0.328958   -2.008696   -0.694817
      2          1           0       -0.231075   -3.092277   -0.597921
      3          1           0       -0.470046   -1.799551   -1.758145
      4          1           0       -1.322105   -1.774132   -0.303904
      5          7           0        0.830628   -1.252045   -0.132034
      6          6           0        0.508727   -0.382552    1.012233
      7          1           0        1.395128   -0.647245    1.594844
      8          1           0       -0.395718   -0.653553    1.562800
      9          6           0        0.558078    1.070635    0.397530
     10          6           0       -0.393407    1.965595   -0.021826
     11          6           0       -1.819235    1.552065   -0.090459
     12          7           0       -2.697733    2.385349   -0.732518
     13          8           0       -3.901308    1.742491   -0.664621
     14          6           0       -3.672529    0.586018    0.034518
     15          7           0       -2.361838    0.367285    0.337264
     16          6           0       -4.613257   -0.603740    0.037635
     17          6           0       -5.530353   -0.667627   -1.201699
     18          1           0       -6.220873    0.171138   -1.313996
     19          1           0       -6.139085   -1.566284   -1.317172
     20          1           0       -4.890155   -0.606716   -2.083303
     21          8           0       -3.843847   -1.912471    0.062550
     22          1           0       -3.223018   -1.968064    0.810052
     23          6           0       -5.581721   -0.633285    1.326804
     24          8           0       -6.473187   -1.778274    1.333380
     25          1           0       -6.021273   -2.454399    0.796930
     26          1           0       -6.123075    0.316112    1.317962
     27          1           0       -5.003635   -0.587671    2.254026
     28          7           0        0.228433    3.162796   -0.436090
     29          6           0        1.551401    2.869675   -0.637683
     30          1           0        2.351800    3.515509   -0.962012
     31          7           0        1.760578    1.599165   -0.104789
     32          6           0        2.973760    1.013073    0.159476
     33          6           0        3.934198    1.844901    0.752004
     34          1           0        3.816819    2.910576    0.933529
     35          6           0        5.182299    1.309060    1.001557
     36          1           0        5.910291    1.875032    1.579039
     37          6           0        5.431662    0.014478    0.721808
     38          1           0        6.422799   -0.352400    0.974602
     39          6           0        4.494319   -0.870463    0.184230
     40         17           0        4.878783   -2.454951   -0.121109
     41          6           0        3.220276   -0.381027   -0.110572
     42          6           0        2.117080   -1.258457   -0.667794
     43          8           0        2.330964   -2.046827   -1.557548
     44          1           0       -0.211584    4.052972   -0.559071
 ---------------------------------------------------------------------
 Rotational constants (GHZ):           0.3724200           0.0926843           0.0791400
 Leave Link  202 at Sun Jul 18 16:26:04 2021, MaxMem=   104857600 cpu:               0.1 elap:               0.0
 (Enter /dades/curu/g16A03_MST/g16/l301.exe)
 Standard basis: 6-31G(d) (6D, 7F)
 Ernie: Thresh=  0.10000D-02 Tol=  0.10000D-05 Strict=F.
 There are   443 symmetry adapted cartesian basis functions of A   symmetry.
 There are   443 symmetry adapted basis functions of A   symmetry.
   443 basis functions,   848 primitive gaussians,   443 cartesian basis functions
   101 alpha electrons      101 beta electrons
       nuclear repulsion energy      2652.5980900055 Hartrees.
 IExCor=  402 DFT=T Ex+Corr=B3LYP ExCW=0 ScaHFX=  0.200000
 ScaDFX=  0.800000  0.720000  1.000000  0.810000 ScalE2=  1.000000  1.000000
 IRadAn=      5 IRanWt=     -1 IRanGd=            0 ICorTp=0 IEmpDi=  4
 NAtoms=   44 NActive=   44 NUniq=   44 SFac= 1.00D+00 NAtFMM=   60 NAOKFM=F Big=F
 Integral buffers will be    131072 words long.
 Raffenetti 2 integral format.
 Two-electron integral symmetry is turned on.
 Using the following non-standard input for PCM:
 MSTModel=DFT cav MSTCharged
 --- end of non-standard input.
 MST model for solvation energy: B3LYP parametrization.
 MST cavity parameters:
 ISph   IAn     Re0     Alpha   Atom Type   QCorr
 ------------------------------------------------
   1      6     1.50     1.50      CH3        F
   2      1     1.20     1.50      CH3        F
   3      1     1.20     1.50      CH3        F
   4      1     1.20     1.50      CH3        F
   5      7     1.50     1.50      N          F
   6      6     1.50     1.50      CH2        F
   7      1     1.20     1.50      CH2        F
   8      1     1.20     1.50      CH2        F
   9      6     1.50     1.50      C          F
  10      6     1.50     1.50      C          F
  11      6     1.50     1.50      C          F
  12      7     1.50     1.50      Nc         F
  13      8     1.40     1.50      O          F
  14      6     1.50     1.50      C          F
  15      7     1.50     1.50      Nc         F
  16      6     1.50     1.50      C          F
  17      6     1.50     1.50      CH3        F
  18      1     1.20     1.50      CH3        F
  19      1     1.20     1.50      CH3        F
  20      1     1.20     1.50      CH3        F
  21      8     1.40     1.50      OH         F
  22      1     0.90     1.50      OH         F
  23      6     1.50     1.50      CH2        F
  24      8     1.40     1.50      OH         F
  25      1     0.90     1.50      OH         F
  26      1     1.20     1.50      CH2        F
  27      1     1.20     1.50      CH2        F
  28      7     1.50     1.15      NHc        T
  29      6     1.50     1.50      CH         F
  30      1     1.20     1.50      CH         F
  31      7     1.50     1.50      Nc         F
  32      6     1.50     1.50      C          F
  33      6     1.50     1.50      CH         F
  34      1     1.20     1.50      CH         F
  35      6     1.50     1.50      CH         F
  36      1     1.20     1.50      CH         F
  37      6     1.50     1.50      CH         F
  38      1     1.20     1.50      CH         F
  39      6     1.50     1.50      C          F
  40     17     1.80     1.50      Cl         F
  41      6     1.50     1.50      C          F
  42      6     1.50     1.50      C          F
  43      8     1.40     1.50      O          F
  44      1     0.90     1.15      NHc        T
 ------------------------------------------------------------------------------
 Polarizable Continuum Model (PCM)
 =================================
 Model                : PCM.
 Atomic radii         : MST.
 Polarization charges : Total charges.
 Charge compensation  : None.
 Solution method      : On-the-fly selection.
 Cavity type          : Scaled VdW (van der Waals Surface) (Alpha=1.500).
 Cavity algorithm     : GePol (No added spheres)
                        Default sphere list used, NSphG=   44.
                        Lebedev-Laikov grids with approx.  5.0 points / Ang**2.
                        Smoothing algorithm: York/Karplus (Gamma=1.0000).
                        Polarization charges: spherical gaussians, with
                                              point-specific exponents (IZeta= 3).
                        Self-potential: point-specific (ISelfS= 7).
                        Self-field    : sphere-specific E.n sum rule (ISelfD= 2).
 1st derivatives      : Analytical E(r).r(x)/FMM algorithm (CHGder, D1EAlg=3).
                        Cavity 1st derivative terms included.
 Solvent              : n-Octanol, Eps=   9.862900 Eps(inf)=   2.043470
 ------------------------------------------------------------------------------
 GePol: Number of generator spheres                  =      44
 GePol: Total number of spheres                      =      44
 GePol: Number of exposed spheres                    =      44 (100.00%)
 GePol: Number of points                             =    3999
 GePol: Average weight of points                     =       0.11
 GePol: Minimum weight of points                     =   0.33D-11
 GePol: Maximum weight of points                     =    0.21373
 GePol: Number of points with low weight             =     212
 GePol: Fraction of low-weight points (<1% of avg)   =       5.30%
 GePol: Cavity surface area                          =    453.248 Ang**2
 GePol: Cavity volume                                =    562.822 Ang**3
 Surface areas from nonelectrostatic (unscaled) cavity and vdw tensions:
 Sphere =    1 Type =  CH3 Surf =        5.171 Tension =       -0.183
 Sphere =    2 Type =  CH3 Surf =       10.120 Tension =       -0.183
 Sphere =    3 Type =  CH3 Surf =       10.041 Tension =       -0.183
 Sphere =    4 Type =  CH3 Surf =        8.636 Tension =       -0.183
 Sphere =    5 Type =  N   Surf =        5.517 Tension =       -0.115
 Sphere =    6 Type =  CH2 Surf =        4.355 Tension =       -0.194
 Sphere =    7 Type =  CH2 Surf =        8.852 Tension =       -0.194
 Sphere =    8 Type =  CH2 Surf =        9.383 Tension =       -0.194
 Sphere =    9 Type =  C   Surf =        6.375 Tension =       -0.205
 Sphere =   10 Type =  C   Surf =        6.444 Tension =       -0.205
 Sphere =   11 Type =  C   Surf =        6.208 Tension =       -0.205
 Sphere =   12 Type =  Nc  Surf =       14.165 Tension =       -0.161
 Sphere =   13 Type =  O   Surf =       11.096 Tension =       -0.185
 Sphere =   14 Type =  C   Surf =        6.660 Tension =       -0.205
 Sphere =   15 Type =  Nc  Surf =       11.559 Tension =       -0.161
 Sphere =   16 Type =  C   Surf =        2.604 Tension =       -0.205
 Sphere =   17 Type =  CH3 Surf =        4.898 Tension =       -0.183
 Sphere =   18 Type =  CH3 Surf =       10.116 Tension =       -0.183
 Sphere =   19 Type =  CH3 Surf =       10.138 Tension =       -0.183
 Sphere =   20 Type =  CH3 Surf =       10.003 Tension =       -0.183
 Sphere =   21 Type =  OH  Surf =       14.086 Tension =       -0.238
 Sphere =   22 Type =  OH  Surf =        4.497 Tension =       -0.238
 Sphere =   23 Type =  CH2 Surf =        4.528 Tension =       -0.194
 Sphere =   24 Type =  OH  Surf =       14.777 Tension =       -0.238
 Sphere =   25 Type =  OH  Surf =        4.427 Tension =       -0.238
 Sphere =   26 Type =  CH2 Surf =       10.032 Tension =       -0.194
 Sphere =   27 Type =  CH2 Surf =       10.111 Tension =       -0.194
 Sphere =   28 Type =  NHc Surf =       11.008 Tension =       -0.295
 Sphere =   29 Type =  CH  Surf =        8.075 Tension =       -0.195
 Sphere =   30 Type =  CH  Surf =       10.235 Tension =       -0.195
 Sphere =   31 Type =  Nc  Surf =        5.606 Tension =       -0.161
 Sphere =   32 Type =  C   Surf =        5.719 Tension =       -0.205
 Sphere =   33 Type =  CH  Surf =        7.601 Tension =       -0.195
 Sphere =   34 Type =  CH  Surf =       10.136 Tension =       -0.195
 Sphere =   35 Type =  CH  Surf =        7.539 Tension =       -0.195
 Sphere =   36 Type =  CH  Surf =       10.208 Tension =       -0.195
 Sphere =   37 Type =  CH  Surf =        7.239 Tension =       -0.195
 Sphere =   38 Type =  CH  Surf =       10.017 Tension =       -0.195
 Sphere =   39 Type =  C   Surf =        5.011 Tension =       -0.205
 Sphere =   40 Type =  Cl  Surf =       30.749 Tension =       -0.163
 Sphere =   41 Type =  C   Surf =        5.659 Tension =       -0.205
 Sphere =   42 Type =  C   Surf =        5.999 Tension =       -0.205
 Sphere =   43 Type =  O   Surf =       15.157 Tension =       -0.185
 Sphere =   44 Type =  NHc Surf =        3.868 Tension =       -0.295
 PCM non-electrostatic energy =        -0.0212755074 Hartrees.
 Nuclear repulsion after PCM non-electrostatic terms =     2652.5768144981 Hartrees.
 Leave Link  301 at Sun Jul 18 16:26:04 2021, MaxMem=   104857600 cpu:               0.2 elap:               0.1
 (Enter /dades/curu/g16A03_MST/g16/l302.exe)
 NPDir=0 NMtPBC=     1 NCelOv=     1 NCel=       1 NClECP=     1 NCelD=      1
         NCelK=      1 NCelE2=     1 NClLst=     1 CellRange=     0.0.
 One-electron integrals computed using PRISM.
 One-electron integral symmetry used in STVInt
 NBasis=   443 RedAO= T EigKep=  3.81D-04  NBF=   443
 NBsUse=   443 1.00D-06 EigRej= -1.00D+00 NBFU=   443
 Precomputing XC quadrature grid using
 IXCGrd= 4 IRadAn=           5 IRanWt=          -1 IRanGd=           0 AccXCQ= 0.00D+00.
 Generated NRdTot=       0 NPtTot=           0 NUsed=           0 NTot=          32
 NSgBfM=   436   436   436   436   436 MxSgAt=    44 MxSgA2=    44.
 Leave Link  302 at Sun Jul 18 16:26:06 2021, MaxMem=   104857600 cpu:               7.3 elap:               2.0
 (Enter /dades/curu/g16A03_MST/g16/l303.exe)
 DipDrv:  MaxL=1.
 Leave Link  303 at Sun Jul 18 16:26:06 2021, MaxMem=   104857600 cpu:               0.1 elap:               0.1
 (Enter /dades/curu/g16A03_MST/g16/l401.exe)
 ExpMin= 1.43D-01 ExpMax= 2.52D+04 ExpMxC= 3.78D+03 IAcc=3 IRadAn=         5 AccDes= 0.00D+00
 Harris functional with IExCor=  402 and IRadAn=       5 diagonalized for initial guess.
 HarFok:  IExCor=  402 AccDes= 0.00D+00 IRadAn=         5 IDoV= 1 UseB2=F ITyADJ=14
 ICtDFT=  3500011 ScaDFX=  1.000000  1.000000  1.000000  1.000000
 FoFCou: FMM=F IPFlag=           0 FMFlag=      100000 FMFlg1=           0
         NFxFlg=           0 DoJE=T BraDBF=F KetDBF=T FulRan=T
         wScrn=  0.000000 ICntrl=       500 IOpCl=  0 I1Cent=   200000004 NGrid=           0
         NMat0=    1 NMatS0=      1 NMatT0=    0 NMatD0=    1 NMtDS0=    0 NMtDT0=    0
 Petite list used in FoFCou.
 Harris En= -1692.41547705294    
 JPrj=0 DoOrth=F DoCkMO=F.
 Leave Link  401 at Sun Jul 18 16:26:20 2021, MaxMem=   104857600 cpu:              52.6 elap:              13.3
 (Enter /dades/curu/g16A03_MST/g16/l502.exe)
 Integral symmetry usage will be decided dynamically.
 Closed shell SCF:
 Using DIIS extrapolation, IDIIS=  1040.
 NGot=   104857600 LenX=   104457664 LenY=   104260972
 Requested convergence on RMS density matrix=1.00D-08 within 128 cycles.
 Requested convergence on MAX density matrix=1.00D-06.
 Requested convergence on             energy=1.00D-06.
 No special actions if energy rises.
 Fock matrices will be formed incrementally for  20 cycles.

 Cycle   1  Pass 1  IDiag  1:
 FoFJK:  IHMeth= 1 ICntrl=       0 DoSepK=F KAlg= 0 I1Cent=           0 FoldK=F
 IRaf= 700000000 NMat=       1 IRICut=       1 DoRegI=T DoRafI=F ISym2E= 0 IDoP0=0 IntGTp=1.
 FoFCou: FMM=F IPFlag=           0 FMFlag=      100000 FMFlg1=           0
         NFxFlg=           0 DoJE=F BraDBF=F KetDBF=F FulRan=T
         wScrn=  0.000000 ICntrl=         0 IOpCl=  0 I1Cent=           0 NGrid=           0
         NMat0=    1 NMatS0=      1 NMatT0=    0 NMatD0=    1 NMtDS0=    0 NMtDT0=    0
 Symmetry not used in FoFCou.
 Inv3:  Mode=1 IEnd=    47976003.
 Iteration    1 A*A^-1 deviation from unit magnitude is 7.55D-15 for   3989.
 Iteration    1 A*A^-1 deviation from orthogonality  is 4.42D-15 for   3993   3789.
 Iteration    1 A^-1*A deviation from unit magnitude is 7.22D-15 for   3990.
 Iteration    1 A^-1*A deviation from orthogonality  is 3.74D-14 for   2886   2866.
 E= -1692.09771136865    
 DIIS: error= 2.44D-02 at cycle   1 NSaved=   1.
 NSaved= 1 IEnMin= 1 EnMin= -1692.09771136865     IErMin= 1 ErrMin= 2.44D-02
 ErrMax= 2.44D-02  0.00D+00 EMaxC= 1.00D-01 BMatC= 5.84D-01 BMatP= 5.84D-01
 IDIUse=3 WtCom= 7.56D-01 WtEn= 2.44D-01
 Coeff-Com:  0.100D+01
 Coeff-En:   0.100D+01
 Coeff:      0.100D+01
 Gap=     0.274 Goal=   None    Shift=    0.000
 GapD=    0.274 DampG=1.000 DampE=0.500 DampFc=0.5000 IDamp=-1.
 Damping current iteration by 5.00D-01
 RMSDP=4.37D-03 MaxDP=2.22D-01              OVMax= 3.82D-01

 Cycle   2  Pass 1  IDiag  1:
 RMSU=  2.17D-03    CP:  9.87D-01
 E= -1692.23734846002     Delta-E=       -0.139637091376 Rises=F Damp=T
 DIIS: error= 8.36D-03 at cycle   2 NSaved=   2.
 NSaved= 2 IEnMin= 2 EnMin= -1692.23734846002     IErMin= 2 ErrMin= 8.36D-03
 ErrMax= 8.36D-03  0.00D+00 EMaxC= 1.00D-01 BMatC= 9.87D-02 BMatP= 5.84D-01
 IDIUse=3 WtCom= 9.16D-01 WtEn= 8.36D-02
 Coeff-Com:  0.215D+00 0.785D+00
 Coeff-En:   0.347D+00 0.653D+00
 Coeff:      0.226D+00 0.774D+00
 Gap=     0.195 Goal=   None    Shift=    0.000
 RMSDP=1.39D-03 MaxDP=1.01D-01 DE=-1.40D-01 OVMax= 2.22D-01

 Cycle   3  Pass 1  IDiag  1:
 RMSU=  1.25D-03    CP:  9.77D-01  7.36D-01
 E= -1692.54816283349     Delta-E=       -0.310814373469 Rises=F Damp=F
 DIIS: error= 9.40D-03 at cycle   3 NSaved=   3.
 NSaved= 3 IEnMin= 3 EnMin= -1692.54816283349     IErMin= 2 ErrMin= 8.36D-03
 ErrMax= 9.40D-03  0.00D+00 EMaxC= 1.00D-01 BMatC= 7.67D-02 BMatP= 9.87D-02
 IDIUse=3 WtCom= 9.06D-01 WtEn= 9.40D-02
 Coeff-Com:  0.499D-01 0.461D+00 0.489D+00
 Coeff-En:   0.000D+00 0.000D+00 0.100D+01
 Coeff:      0.452D-01 0.418D+00 0.537D+00
 Gap=     0.174 Goal=   None    Shift=    0.000
 RMSDP=9.23D-04 MaxDP=5.50D-02 DE=-3.11D-01 OVMax= 1.07D-01

 Cycle   4  Pass 1  IDiag  1:
 RMSU=  6.77D-04    CP:  9.80D-01  8.38D-01  5.32D-01
 E= -1692.59798687894     Delta-E=       -0.049824045449 Rises=F Damp=F
 DIIS: error= 4.57D-03 at cycle   4 NSaved=   4.
 NSaved= 4 IEnMin= 4 EnMin= -1692.59798687894     IErMin= 4 ErrMin= 4.57D-03
 ErrMax= 4.57D-03  0.00D+00 EMaxC= 1.00D-01 BMatC= 2.10D-02 BMatP= 7.67D-02
 IDIUse=3 WtCom= 9.54D-01 WtEn= 4.57D-02
 Coeff-Com: -0.113D-02 0.113D+00 0.354D+00 0.534D+00
 Coeff-En:   0.000D+00 0.000D+00 0.253D+00 0.747D+00
 Coeff:     -0.108D-02 0.108D+00 0.350D+00 0.543D+00
 Gap=     0.169 Goal=   None    Shift=    0.000
 RMSDP=3.86D-04 MaxDP=2.84D-02 DE=-4.98D-02 OVMax= 5.29D-02

 Cycle   5  Pass 1  IDiag  1:
 RMSU=  1.69D-04    CP:  9.80D-01  8.12D-01  6.84D-01  5.77D-01
 E= -1692.61513172224     Delta-E=       -0.017144843301 Rises=F Damp=F
 DIIS: error= 8.31D-04 at cycle   5 NSaved=   5.
 NSaved= 5 IEnMin= 5 EnMin= -1692.61513172224     IErMin= 5 ErrMin= 8.31D-04
 ErrMax= 8.31D-04  0.00D+00 EMaxC= 1.00D-01 BMatC= 1.55D-03 BMatP= 2.10D-02
 IDIUse=3 WtCom= 9.92D-01 WtEn= 8.31D-03
 Coeff-Com: -0.372D-02 0.276D-01 0.163D+00 0.325D+00 0.488D+00
 Coeff-En:   0.000D+00 0.000D+00 0.000D+00 0.000D+00 0.100D+01
 Coeff:     -0.369D-02 0.273D-01 0.162D+00 0.322D+00 0.493D+00
 Gap=     0.157 Goal=   None    Shift=    0.000
 RMSDP=1.06D-04 MaxDP=6.09D-03 DE=-1.71D-02 OVMax= 1.40D-02

 Cycle   6  Pass 1  IDiag  1:
 RMSU=  6.23D-05    CP:  9.80D-01  8.16D-01  6.81D-01  6.16D-01  5.23D-01
 E= -1692.61635776618     Delta-E=       -0.001226043938 Rises=F Damp=F
 DIIS: error= 2.94D-04 at cycle   6 NSaved=   6.
 NSaved= 6 IEnMin= 6 EnMin= -1692.61635776618     IErMin= 6 ErrMin= 2.94D-04
 ErrMax= 2.94D-04  0.00D+00 EMaxC= 1.00D-01 BMatC= 1.78D-04 BMatP= 1.55D-03
 IDIUse=3 WtCom= 9.97D-01 WtEn= 2.94D-03
 Coeff-Com: -0.192D-02 0.226D-02 0.519D-01 0.124D+00 0.302D+00 0.521D+00
 Coeff-En:   0.000D+00 0.000D+00 0.000D+00 0.000D+00 0.841D-01 0.916D+00
 Coeff:     -0.191D-02 0.225D-02 0.518D-01 0.124D+00 0.301D+00 0.523D+00
 Gap=     0.157 Goal=   None    Shift=    0.000
 RMSDP=3.69D-05 MaxDP=2.31D-03 DE=-1.23D-03 OVMax= 3.51D-03

 Cycle   7  Pass 1  IDiag  1:
 RMSU=  2.01D-05    CP:  9.80D-01  8.14D-01  6.82D-01  6.24D-01  6.01D-01
                    CP:  5.64D-01
 E= -1692.61650650583     Delta-E=       -0.000148739653 Rises=F Damp=F
 DIIS: error= 1.30D-04 at cycle   7 NSaved=   7.
 NSaved= 7 IEnMin= 7 EnMin= -1692.61650650583     IErMin= 7 ErrMin= 1.30D-04
 ErrMax= 1.30D-04  0.00D+00 EMaxC= 1.00D-01 BMatC= 1.94D-05 BMatP= 1.78D-04
 IDIUse=3 WtCom= 9.99D-01 WtEn= 1.30D-03
 Coeff-Com: -0.836D-03-0.797D-03 0.197D-01 0.514D-01 0.150D+00 0.325D+00
 Coeff-Com:  0.455D+00
 Coeff-En:   0.000D+00 0.000D+00 0.000D+00 0.000D+00 0.000D+00 0.357D-01
 Coeff-En:   0.964D+00
 Coeff:     -0.835D-03-0.796D-03 0.196D-01 0.514D-01 0.150D+00 0.325D+00
 Coeff:      0.455D+00
 Gap=     0.157 Goal=   None    Shift=    0.000
 RMSDP=1.10D-05 MaxDP=7.63D-04 DE=-1.49D-04 OVMax= 1.06D-03

 Cycle   8  Pass 1  IDiag  1:
 RMSU=  6.67D-06    CP:  9.80D-01  8.14D-01  6.82D-01  6.27D-01  6.01D-01
                    CP:  6.11D-01  5.98D-01
 E= -1692.61652267115     Delta-E=       -0.000016165313 Rises=F Damp=F
 DIIS: error= 4.56D-05 at cycle   8 NSaved=   8.
 NSaved= 8 IEnMin= 8 EnMin= -1692.61652267115     IErMin= 8 ErrMin= 4.56D-05
 ErrMax= 4.56D-05  0.00D+00 EMaxC= 1.00D-01 BMatC= 2.11D-06 BMatP= 1.94D-05
 IDIUse=1 WtCom= 1.00D+00 WtEn= 0.00D+00
 Coeff-Com: -0.171D-03-0.863D-03 0.467D-02 0.132D-01 0.501D-01 0.123D+00
 Coeff-Com:  0.276D+00 0.534D+00
 Coeff:     -0.171D-03-0.863D-03 0.467D-02 0.132D-01 0.501D-01 0.123D+00
 Coeff:      0.276D+00 0.534D+00
 Gap=     0.157 Goal=   None    Shift=    0.000
 RMSDP=3.61D-06 MaxDP=3.00D-04 DE=-1.62D-05 OVMax= 3.66D-04

 Cycle   9  Pass 1  IDiag  1:
 RMSU=  2.39D-06    CP:  9.80D-01  8.14D-01  6.82D-01  6.26D-01  6.03D-01
                    CP:  6.19D-01  6.29D-01  6.29D-01
 E= -1692.61652425649     Delta-E=       -0.000001585342 Rises=F Damp=F
 DIIS: error= 1.36D-05 at cycle   9 NSaved=   9.
 NSaved= 9 IEnMin= 9 EnMin= -1692.61652425649     IErMin= 9 ErrMin= 1.36D-05
 ErrMax= 1.36D-05  0.00D+00 EMaxC= 1.00D-01 BMatC= 2.53D-07 BMatP= 2.11D-06
 IDIUse=1 WtCom= 1.00D+00 WtEn= 0.00D+00
 Coeff-Com:  0.391D-04-0.409D-03 0.993D-04 0.391D-03 0.865D-02 0.246D-01
 Coeff-Com:  0.971D-01 0.309D+00 0.561D+00
 Coeff:      0.391D-04-0.409D-03 0.993D-04 0.391D-03 0.865D-02 0.246D-01
 Coeff:      0.971D-01 0.309D+00 0.561D+00
 Gap=     0.157 Goal=   None    Shift=    0.000
 RMSDP=1.37D-06 MaxDP=9.98D-05 DE=-1.59D-06 OVMax= 1.36D-04

 Cycle  10  Pass 1  IDiag  1:
 RMSU=  9.66D-07    CP:  9.80D-01  8.14D-01  6.83D-01  6.26D-01  6.05D-01
                    CP:  6.18D-01  6.37D-01  6.98D-01  6.87D-01
 E= -1692.61652445409     Delta-E=       -0.000000197603 Rises=F Damp=F
 DIIS: error= 6.16D-06 at cycle  10 NSaved=  10.
 NSaved=10 IEnMin=10 EnMin= -1692.61652445409     IErMin=10 ErrMin= 6.16D-06
 ErrMax= 6.16D-06  0.00D+00 EMaxC= 1.00D-01 BMatC= 3.82D-08 BMatP= 2.53D-07
 IDIUse=1 WtCom= 1.00D+00 WtEn= 0.00D+00
 Coeff-Com:  0.498D-04-0.162D-03-0.393D-03-0.118D-02-0.785D-04 0.756D-03
 Coeff-Com:  0.279D-01 0.125D+00 0.342D+00 0.506D+00
 Coeff:      0.498D-04-0.162D-03-0.393D-03-0.118D-02-0.785D-04 0.756D-03
 Coeff:      0.279D-01 0.125D+00 0.342D+00 0.506D+00
 Gap=     0.157 Goal=   None    Shift=    0.000
 RMSDP=5.04D-07 MaxDP=4.27D-05 DE=-1.98D-07 OVMax= 5.62D-05

 Cycle  11  Pass 1  IDiag  1:
 RMSU=  3.02D-07    CP:  9.80D-01  8.14D-01  6.83D-01  6.26D-01  6.05D-01
                    CP:  6.18D-01  6.43D-01  7.06D-01  7.51D-01  6.61D-01
 E= -1692.61652448827     Delta-E=       -0.000000034182 Rises=F Damp=F
 DIIS: error= 1.66D-06 at cycle  11 NSaved=  11.
 NSaved=11 IEnMin=11 EnMin= -1692.61652448827     IErMin=11 ErrMin= 1.66D-06
 ErrMax= 1.66D-06  0.00D+00 EMaxC= 1.00D-01 BMatC= 3.38D-09 BMatP= 3.82D-08
 IDIUse=1 WtCom= 1.00D+00 WtEn= 0.00D+00
 Coeff-Com:  0.271D-04-0.538D-04-0.236D-03-0.741D-03-0.971D-03-0.236D-02
 Coeff-Com:  0.588D-02 0.387D-01 0.134D+00 0.288D+00 0.538D+00
 Coeff:      0.271D-04-0.538D-04-0.236D-03-0.741D-03-0.971D-03-0.236D-02
 Coeff:      0.588D-02 0.387D-01 0.134D+00 0.288D+00 0.538D+00
 Gap=     0.157 Goal=   None    Shift=    0.000
 RMSDP=1.58D-07 MaxDP=1.49D-05 DE=-3.42D-08 OVMax= 1.59D-05

 Cycle  12  Pass 1  IDiag  1:
 RMSU=  1.06D-07    CP:  9.80D-01  8.14D-01  6.83D-01  6.26D-01  6.05D-01
                    CP:  6.18D-01  6.44D-01  7.11D-01  7.58D-01  7.08D-01
                    CP:  6.84D-01
 E= -1692.61652449100     Delta-E=       -0.000000002729 Rises=F Damp=F
 DIIS: error= 4.87D-07 at cycle  12 NSaved=  12.
 NSaved=12 IEnMin=12 EnMin= -1692.61652449100     IErMin=12 ErrMin= 4.87D-07
 ErrMax= 4.87D-07  0.00D+00 EMaxC= 1.00D-01 BMatC= 4.22D-10 BMatP= 3.38D-09
 IDIUse=1 WtCom= 1.00D+00 WtEn= 0.00D+00
 Coeff-Com:  0.791D-05-0.713D-05-0.713D-04-0.234D-03-0.526D-03-0.150D-02
 Coeff-Com: -0.105D-02 0.171D-02 0.189D-01 0.809D-01 0.303D+00 0.599D+00
 Coeff:      0.791D-05-0.713D-05-0.713D-04-0.234D-03-0.526D-03-0.150D-02
 Coeff:     -0.105D-02 0.171D-02 0.189D-01 0.809D-01 0.303D+00 0.599D+00
 Gap=     0.157 Goal=   None    Shift=    0.000
 RMSDP=5.40D-08 MaxDP=4.29D-06 DE=-2.73D-09 OVMax= 4.45D-06

 Cycle  13  Pass 1  IDiag  1:
 RMSU=  3.55D-08    CP:  9.80D-01  8.14D-01  6.83D-01  6.26D-01  6.05D-01
                    CP:  6.18D-01  6.44D-01  7.11D-01  7.65D-01  7.21D-01
                    CP:  7.34D-01  7.43D-01
 E= -1692.61652449138     Delta-E=       -0.000000000380 Rises=F Damp=F
 DIIS: error= 1.71D-07 at cycle  13 NSaved=  13.
 NSaved=13 IEnMin=13 EnMin= -1692.61652449138     IErMin=13 ErrMin= 1.71D-07
 ErrMax= 1.71D-07  0.00D+00 EMaxC= 1.00D-01 BMatC= 4.81D-11 BMatP= 4.22D-10
 IDIUse=1 WtCom= 1.00D+00 WtEn= 0.00D+00
 Coeff-Com:  0.155D-05 0.148D-05-0.127D-04-0.482D-04-0.176D-03-0.568D-03
 Coeff-Com: -0.117D-02-0.314D-02-0.442D-02 0.142D-01 0.110D+00 0.328D+00
 Coeff-Com:  0.558D+00
 Coeff:      0.155D-05 0.148D-05-0.127D-04-0.482D-04-0.176D-03-0.568D-03
 Coeff:     -0.117D-02-0.314D-02-0.442D-02 0.142D-01 0.110D+00 0.328D+00
 Coeff:      0.558D+00
 Gap=     0.157 Goal=   None    Shift=    0.000
 RMSDP=1.97D-08 MaxDP=8.33D-07 DE=-3.80D-10 OVMax= 1.58D-06

 Cycle  14  Pass 1  IDiag  1:
 RMSU=  1.31D-08    CP:  9.80D-01  8.14D-01  6.83D-01  6.26D-01  6.05D-01
                    CP:  6.18D-01  6.44D-01  7.12D-01  7.65D-01  7.24D-01
                    CP:  7.56D-01  7.83D-01  6.75D-01
 E= -1692.61652449136     Delta-E=        0.000000000021 Rises=F Damp=F
 DIIS: error= 5.68D-08 at cycle  14 NSaved=  14.
 NSaved=14 IEnMin=13 EnMin= -1692.61652449138     IErMin=14 ErrMin= 5.68D-08
 ErrMax= 5.68D-08  0.00D+00 EMaxC= 1.00D-01 BMatC= 5.29D-12 BMatP= 4.81D-11
 IDIUse=1 WtCom= 1.00D+00 WtEn= 0.00D+00
 Coeff-Com: -0.409D-07 0.118D-05 0.234D-05 0.324D-05-0.219D-04-0.107D-03
 Coeff-Com: -0.425D-03-0.171D-02-0.449D-02-0.128D-02 0.231D-01 0.103D+00
 Coeff-Com:  0.298D+00 0.583D+00
 Coeff:     -0.409D-07 0.118D-05 0.234D-05 0.324D-05-0.219D-04-0.107D-03
 Coeff:     -0.425D-03-0.171D-02-0.449D-02-0.128D-02 0.231D-01 0.103D+00
 Coeff:      0.298D+00 0.583D+00
 Gap=     0.157 Goal=   None    Shift=    0.000
 RMSDP=6.85D-09 MaxDP=4.18D-07 DE= 2.14D-11 OVMax= 7.68D-07

 Error on total polarization charges =  0.00702
 SCF Done:  E(RB3LYP) =  -1692.61652449     A.U. after   14 cycles
            NFock= 14  Conv=0.68D-08     -V/T= 2.0080
 KE= 1.679227432214D+03 PE=-9.241851613157D+03 EE= 3.217430841953D+03
 Leave Link  502 at Sun Jul 18 16:34:15 2021, MaxMem=   104857600 cpu:            1850.3 elap:             475.1
 (Enter /dades/curu/g16A03_MST/g16/l601.exe)
 Copying SCF densities to generalized density rwf, IOpCl= 0 IROHF=0.

 **********************************************************************

            Population analysis using the SCF density.

 **********************************************************************

 Orbital symmetries:
       Occupied  (A) (A) (A) (A) (A) (A) (A) (A) (A) (A) (A) (A)
                 (A) (A) (A) (A) (A) (A) (A) (A) (A) (A) (A) (A)
                 (A) (A) (A) (A) (A) (A) (A) (A) (A) (A) (A) (A)
                 (A) (A) (A) (A) (A) (A) (A) (A) (A) (A) (A) (A)
                 (A) (A) (A) (A) (A) (A) (A) (A) (A) (A) (A) (A)
                 (A) (A) (A) (A) (A) (A) (A) (A) (A) (A) (A) (A)
                 (A) (A) (A) (A) (A) (A) (A) (A) (A) (A) (A) (A)
                 (A) (A) (A) (A) (A) (A) (A) (A) (A) (A) (A) (A)
                 (A) (A) (A) (A) (A)
       Virtual   (A) (A) (A) (A) (A) (A) (A) (A) (A) (A) (A) (A)
                 (A) (A) (A) (A) (A) (A) (A) (A) (A) (A) (A) (A)
                 (A) (A) (A) (A) (A) (A) (A) (A) (A) (A) (A) (A)
                 (A) (A) (A) (A) (A) (A) (A) (A) (A) (A) (A) (A)
                 (A) (A) (A) (A) (A) (A) (A) (A) (A) (A) (A) (A)
                 (A) (A) (A) (A) (A) (A) (A) (A) (A) (A) (A) (A)
                 (A) (A) (A) (A) (A) (A) (A) (A) (A) (A) (A) (A)
                 (A) (A) (A) (A) (A) (A) (A) (A) (A) (A) (A) (A)
                 (A) (A) (A) (A) (A) (A) (A) (A) (A) (A) (A) (A)
                 (A) (A) (A) (A) (A) (A) (A) (A) (A) (A) (A) (A)
                 (A) (A) (A) (A) (A) (A) (A) (A) (A) (A) (A) (A)
                 (A) (A) (A) (A) (A) (A) (A) (A) (A) (A) (A) (A)
                 (A) (A) (A) (A) (A) (A) (A) (A) (A) (A) (A) (A)
[...]
     33          6           0        3.763355    2.048423    0.890060
     34          1           0        3.402500    3.050962    1.083870
     35          6           0        5.027850    1.656782    1.312625
     36          1           0        5.673065    2.366879    1.815327
     37          6           0        5.451796    0.345161    1.123063
     38          1           0        6.420785    0.017563    1.475922
     39          6           0        4.619028   -0.568329    0.479605
     40         17           0        5.201638   -2.206513    0.318868
     41          6           0        3.345320   -0.206949    0.007715
     42          6           0        2.549978   -1.177478   -0.848196
     43          8           0        3.085588   -1.705190   -1.814462
     44          1           0       -0.539917    3.573751   -1.179622
 ---------------------------------------------------------------------
 Rotational constants (GHZ):           0.3889080           0.0841759           0.0754035
 Leave Link  202 at Sun Jul 18 21:54:34 2021, MaxMem=   262144000 cpu:               0.0 elap:               0.0
 (Enter /dades/curu/g16A03_MST/g16/l301.exe)
 Standard basis: Aug-CC-pVDZ (5D, 7F)
 Ernie: Thresh=  0.10000D-02 Tol=  0.10000D-05 Strict=F.
 Ernie:  62 primitive shells out of 822 were deleted.
 There are   832 symmetry adapted cartesian basis functions of A   symmetry.
 There are   778 symmetry adapted basis functions of A   symmetry.
   778 basis functions,  1386 primitive gaussians,   832 cartesian basis functions
   101 alpha electrons      101 beta electrons
       nuclear repulsion energy      2631.2930450995 Hartrees.
 IExCor=    0 DFT=F Ex=HF Corr=None ExCW=0 ScaHFX=  1.000000
 ScaDFX=  1.000000  1.000000  1.000000  1.000000 ScalE2=  1.000000  1.000000
 IRadAn=      5 IRanWt=     -1 IRanGd=            0 ICorTp=0 IEmpDi=  4
 NAtoms=   44 NActive=   44 NUniq=   44 SFac= 1.00D+00 NAtFMM=   60 NAOKFM=F Big=F
 Integral buffers will be    131072 words long.
 Raffenetti 1 integral format.
 Two-electron integral symmetry is turned on.
 Leave Link  301 at Sun Jul 18 21:54:34 2021, MaxMem=   262144000 cpu:               0.1 elap:               0.3
 (Enter /dades/curu/g16A03_MST/g16/l302.exe)
 NPDir=0 NMtPBC=     1 NCelOv=     1 NCel=       1 NClECP=     1 NCelD=      1
         NCelK=      1 NCelE2=     1 NClLst=     1 CellRange=     0.0.
 One-electron integrals computed using PRISM.
 One-electron integral symmetry used in STVInt
 NBasis=   778 RedAO= T EigKep=  1.03D-06  NBF=   778
 NBsUse=   777 1.00D-06 EigRej=  7.93D-07 NBFU=   777
 Leave Link  302 at Sun Jul 18 21:54:37 2021, MaxMem=   262144000 cpu:               4.1 elap:               2.3
 (Enter /dades/curu/g16A03_MST/g16/l303.exe)
 DipDrv:  MaxL=1.
 Leave Link  303 at Sun Jul 18 21:54:37 2021, MaxMem=   262144000 cpu:               0.3 elap:               0.3
 (Enter /dades/curu/g16A03_MST/g16/l401.exe)
 ExpMin= 2.97D-02 ExpMax= 1.28D+05 ExpMxC= 1.24D+03 IAcc=3 IRadAn=         5 AccDes= 0.00D+00
 Harris functional with IExCor=  205 and IRadAn=       5 diagonalized for initial guess.
 HarFok:  IExCor=  205 AccDes= 0.00D+00 IRadAn=         5 IDoV= 1 UseB2=F ITyADJ=14
 ICtDFT=  3500011 ScaDFX=  1.000000  1.000000  1.000000  1.000000
 FoFCou: FMM=F IPFlag=           0 FMFlag=      100000 FMFlg1=           0
         NFxFlg=           0 DoJE=T BraDBF=F KetDBF=T FulRan=T
         wScrn=  0.000000 ICntrl=       500 IOpCl=  0 I1Cent=   200000004 NGrid=           0
         NMat0=    1 NMatS0=      1 NMatT0=    0 NMatD0=    1 NMtDS0=    0 NMtDT0=    0
 Petite list used in FoFCou.
 Harris En= -1685.44460653982    
 JPrj=0 DoOrth=F DoCkMO=F.
 Leave Link  401 at Sun Jul 18 21:55:01 2021, MaxMem=   262144000 cpu:              94.2 elap:              24.6
 (Enter /dades/curu/g16A03_MST/g16/l502.exe)
 Integral symmetry usage will be decided dynamically.
 Closed shell SCF:
 Using DIIS extrapolation, IDIIS=  1040.
 NGot=   262144000 LenX=   260746924 LenY=   260053868
 Requested convergence on RMS density matrix=1.00D-08 within 128 cycles.
 Requested convergence on MAX density matrix=1.00D-06.
 Requested convergence on             energy=1.00D-06.
 No special actions if energy rises.
 Fock matrices will be formed incrementally for  20 cycles.

 Cycle   1  Pass 0  IDiag  1:
 FoFJK:  IHMeth= 1 ICntrl=       0 DoSepK=F KAlg= 0 I1Cent=           0 FoldK=F
 IRaf= 870000000 NMat=       1 IRICut=       1 DoRegI=T DoRafI=F ISym2E= 0 IDoP0=0 IntGTp=1.
 FoFCou: FMM=F IPFlag=           0 FMFlag=      100000 FMFlg1=           0
         NFxFlg=           0 DoJE=F BraDBF=F KetDBF=F FulRan=T
         wScrn=  0.000000 ICntrl=         0 IOpCl=  0 I1Cent=           0 NGrid=           0
         NMat0=    1 NMatS0=      1 NMatT0=    0 NMatD0=    1 NMtDS0=    0 NMtDT0=    0
 Symmetry not used in FoFCou.
 E= -1683.94035616983    
 DIIS: error= 1.43D-02 at cycle   1 NSaved=   1.
 NSaved= 1 IEnMin= 1 EnMin= -1683.94035616983     IErMin= 1 ErrMin= 1.43D-02
 ErrMax= 1.43D-02  0.00D+00 EMaxC= 1.00D-01 BMatC= 1.21D+00 BMatP= 1.21D+00
 IDIUse=3 WtCom= 8.57D-01 WtEn= 1.43D-01
 Coeff-Com:  0.100D+01
 Coeff-En:   0.100D+01
 Coeff:      0.100D+01
 Gap=     0.539 Goal=   None    Shift=    0.000
 GapD=    0.539 DampG=2.000 DampE=0.500 DampFc=1.0000 IDamp=-1.
 RMSDP=4.11D-02 MaxDP=5.01D+00              OVMax= 2.02D-01

 Cycle   2  Pass 0  IDiag  1:
 RMSU=  2.30D-02    CP:  6.29D-01
 E= -1684.59025800417     Delta-E=       -0.649901834343 Rises=F Damp=F
 DIIS: error= 6.06D-03 at cycle   2 NSaved=   2.
 NSaved= 2 IEnMin= 2 EnMin= -1684.59025800417     IErMin= 2 ErrMin= 6.06D-03
 ErrMax= 6.06D-03  0.00D+00 EMaxC= 1.00D-01 BMatC= 1.93D-01 BMatP= 1.21D+00
 IDIUse=3 WtCom= 9.39D-01 WtEn= 6.06D-02
 Coeff-Com:  0.219D+00 0.781D+00
 Coeff-En:   0.000D+00 0.100D+01
 Coeff:      0.205D+00 0.795D+00
 Gap=     0.440 Goal=   None    Shift=    0.000
 RMSDP=5.34D-03 MaxDP=1.66D+00 DE=-6.50D-01 OVMax= 7.10D-02

 Cycle   3  Pass 0  IDiag  1:
 RMSU=  4.71D-03    CP:  6.11D-01  9.18D-01
 E= -1684.73376696511     Delta-E=       -0.143508960946 Rises=F Damp=F
 DIIS: error= 2.18D-03 at cycle   3 NSaved=   3.
 NSaved= 3 IEnMin= 3 EnMin= -1684.73376696511     IErMin= 3 ErrMin= 2.18D-03
 ErrMax= 2.18D-03  0.00D+00 EMaxC= 1.00D-01 BMatC= 2.87D-02 BMatP= 1.93D-01
 IDIUse=3 WtCom= 9.78D-01 WtEn= 2.18D-02
 Coeff-Com: -0.166D-01 0.247D+00 0.770D+00
 Coeff-En:   0.000D+00 0.000D+00 0.100D+01
 Coeff:     -0.162D-01 0.242D+00 0.775D+00
 Gap=     0.391 Goal=   None    Shift=    0.000
 RMSDP=1.75D-03 MaxDP=1.67D-01 DE=-1.44D-01 OVMax= 3.22D-02

 Cycle   4  Pass 0  IDiag  1:
 RMSU=  1.32D-03    CP:  6.05D-01  9.46D-01  8.30D-01
 E= -1684.75739619154     Delta-E=       -0.023629226426 Rises=F Damp=F
 DIIS: error= 6.62D-04 at cycle   4 NSaved=   4.
 NSaved= 4 IEnMin= 4 EnMin= -1684.75739619154     IErMin= 4 ErrMin= 6.62D-04
 ErrMax= 6.62D-04  0.00D+00 EMaxC= 1.00D-01 BMatC= 2.23D-03 BMatP= 2.87D-02
 IDIUse=3 WtCom= 9.93D-01 WtEn= 6.62D-03
 Coeff-Com: -0.164D-01 0.394D-01 0.267D+00 0.710D+00
 Coeff-En:   0.000D+00 0.000D+00 0.000D+00 0.100D+01
 Coeff:     -0.163D-01 0.391D-01 0.265D+00 0.712D+00
 Gap=     0.386 Goal=   None    Shift=    0.000
 RMSDP=6.10D-04 MaxDP=7.75D-02 DE=-2.36D-02 OVMax= 9.30D-03

 Cycle   5  Pass 0  IDiag  1:
 RMSU=  5.14D-04    CP:  6.02D-01  9.45D-01  8.46D-01  8.40D-01
 E= -1684.75974460495     Delta-E=       -0.002348413406 Rises=F Damp=F
 DIIS: error= 2.33D-04 at cycle   5 NSaved=   5.
 NSaved= 5 IEnMin= 5 EnMin= -1684.75974460495     IErMin= 5 ErrMin= 2.33D-04
 ErrMax= 2.33D-04  0.00D+00 EMaxC= 1.00D-01 BMatC= 1.59D-04 BMatP= 2.23D-03
 IDIUse=3 WtCom= 9.98D-01 WtEn= 2.33D-03
 Coeff-Com: -0.338D-03-0.203D-01-0.455D-01 0.846D-01 0.982D+00
 Coeff-En:   0.000D+00 0.000D+00 0.000D+00 0.000D+00 0.100D+01
 Coeff:     -0.338D-03-0.202D-01-0.454D-01 0.844D-01 0.982D+00
 Gap=     0.387 Goal=   None    Shift=    0.000
 RMSDP=2.51D-04 MaxDP=5.50D-02 DE=-2.35D-03 OVMax= 6.10D-03

 Cycle   6  Pass 0  IDiag  1:
 RMSU=  1.34D-04    CP:  6.01D-01  9.45D-01  8.55D-01  9.53D-01  1.03D+00
 E= -1684.76011409178     Delta-E=       -0.000369486832 Rises=F Damp=F
 DIIS: error= 8.34D-05 at cycle   6 NSaved=   6.
 NSaved= 6 IEnMin= 6 EnMin= -1684.76011409178     IErMin= 6 ErrMin= 8.34D-05
 ErrMax= 8.34D-05  0.00D+00 EMaxC= 1.00D-01 BMatC= 3.49D-05 BMatP= 1.59D-04
 IDIUse=1 WtCom= 1.00D+00 WtEn= 0.00D+00
 Coeff-Com:  0.237D-02-0.112D-01-0.480D-01-0.974D-01 0.194D+00 0.960D+00
 Coeff:      0.237D-02-0.112D-01-0.480D-01-0.974D-01 0.194D+00 0.960D+00
 Gap=     0.387 Goal=   None    Shift=    0.000
 RMSDP=1.21D-04 MaxDP=2.99D-02 DE=-3.69D-04 OVMax= 3.49D-03

 Cycle   7  Pass 0  IDiag  1:
 RMSU=  4.85D-05    CP:  6.00D-01  9.43D-01  8.58D-01  9.68D-01  1.14D+00
                    CP:  1.32D+00
 E= -1684.76020783709     Delta-E=       -0.000093745310 Rises=F Damp=F
 DIIS: error= 3.58D-05 at cycle   7 NSaved=   7.
 NSaved= 7 IEnMin= 7 EnMin= -1684.76020783709     IErMin= 7 ErrMin= 3.58D-05
 ErrMax= 3.58D-05  0.00D+00 EMaxC= 1.00D-01 BMatC= 6.41D-06 BMatP= 3.49D-05
 IDIUse=1 WtCom= 1.00D+00 WtEn= 0.00D+00
 Coeff-Com:  0.306D-03 0.175D-02 0.482D-02-0.268D-01-0.138D+00 0.866D-01
 Coeff-Com:  0.107D+01
 Coeff:      0.306D-03 0.175D-02 0.482D-02-0.268D-01-0.138D+00 0.866D-01
 Coeff:      0.107D+01
 Gap=     0.387 Goal=   None    Shift=    0.000
 RMSDP=5.66D-05 MaxDP=9.05D-03 DE=-9.37D-05 OVMax= 1.82D-03

 Cycle   8  Pass 0  IDiag  1:
 RMSU=  2.43D-05    CP:  6.00D-01  9.42D-01  8.58D-01  9.77D-01  1.16D+00
                    CP:  1.57D+00  1.34D+00
 E= -1684.76022918905     Delta-E=       -0.000021351963 Rises=F Damp=F
 DIIS: error= 1.61D-05 at cycle   8 NSaved=   8.
 NSaved= 8 IEnMin= 8 EnMin= -1684.76022918905     IErMin= 8 ErrMin= 1.61D-05
 ErrMax= 1.61D-05  0.00D+00 EMaxC= 1.00D-01 BMatC= 1.35D-06 BMatP= 6.41D-06
 IDIUse=1 WtCom= 1.00D+00 WtEn= 0.00D+00
 Coeff-Com: -0.452D-03 0.274D-02 0.126D-01 0.157D-01-0.661D-01-0.197D+00
 Coeff-Com:  0.204D+00 0.103D+01
 Coeff:     -0.452D-03 0.274D-02 0.126D-01 0.157D-01-0.661D-01-0.197D+00
 Coeff:      0.204D+00 0.103D+01
 Gap=     0.387 Goal=   None    Shift=    0.000
 RMSDP=2.66D-05 MaxDP=4.30D-03 DE=-2.14D-05 OVMax= 9.55D-04

 Cycle   9  Pass 0  IDiag  1:
 RMSU=  1.16D-05    CP:  5.99D-01  9.42D-01  8.59D-01  9.77D-01  1.17D+00
                    CP:  1.67D+00  1.55D+00  1.37D+00
 E= -1684.76023380116     Delta-E=       -0.000004612113 Rises=F Damp=F
 DIIS: error= 6.58D-06 at cycle   9 NSaved=   9.
 NSaved= 9 IEnMin= 9 EnMin= -1684.76023380116     IErMin= 9 ErrMin= 6.58D-06
 ErrMax= 6.58D-06  0.00D+00 EMaxC= 1.00D-01 BMatC= 2.23D-07 BMatP= 1.35D-06
 IDIUse=1 WtCom= 1.00D+00 WtEn= 0.00D+00
 Coeff-Com: -0.146D-03 0.327D-03 0.212D-02 0.749D-02 0.684D-02-0.582D-01
 Coeff-Com: -0.140D+00 0.228D+00 0.953D+00
 Coeff:     -0.146D-03 0.327D-03 0.212D-02 0.749D-02 0.684D-02-0.582D-01
 Coeff:     -0.140D+00 0.228D+00 0.953D+00
 Gap=     0.387 Goal=   None    Shift=    0.000
 RMSDP=1.13D-05 MaxDP=1.59D-03 DE=-4.61D-06 OVMax= 3.15D-04

 Cycle  10  Pass 0  IDiag  1:
 RMSU=  4.08D-06    CP:  5.99D-01  9.42D-01  8.59D-01  9.78D-01  1.17D+00
                    CP:  1.71D+00  1.63D+00  1.59D+00  1.27D+00
 E= -1684.76023447783     Delta-E=       -0.000000676670 Rises=F Damp=F
 DIIS: error= 3.64D-06 at cycle  10 NSaved=  10.
 NSaved=10 IEnMin=10 EnMin= -1684.76023447783     IErMin=10 ErrMin= 3.64D-06
 ErrMax= 3.64D-06  0.00D+00 EMaxC= 1.00D-01 BMatC= 2.98D-08 BMatP= 2.23D-07
 IDIUse=1 WtCom= 1.00D+00 WtEn= 0.00D+00
 Coeff-Com:  0.433D-04-0.372D-03-0.149D-02-0.110D-02 0.103D-01 0.219D-01
 Coeff-Com: -0.430D-01-0.119D+00 0.612D-01 0.107D+01
 Coeff:      0.433D-04-0.372D-03-0.149D-02-0.110D-02 0.103D-01 0.219D-01
 Coeff:     -0.430D-01-0.119D+00 0.612D-01 0.107D+01
 Gap=     0.387 Goal=   None    Shift=    0.000
 RMSDP=4.75D-06 MaxDP=7.15D-04 DE=-6.77D-07 OVMax= 1.58D-04

 Initial convergence to 1.0D-05 achieved.  Increase integral accuracy.
 Cycle  11  Pass 1  IDiag  1:
 E= -1684.76023458993     Delta-E=       -0.000000112095 Rises=F Damp=F
 DIIS: error= 1.50D-06 at cycle   1 NSaved=   1.
 NSaved= 1 IEnMin= 1 EnMin= -1684.76023458993     IErMin= 1 ErrMin= 1.50D-06
 ErrMax= 1.50D-06  0.00D+00 EMaxC= 1.00D-01 BMatC= 7.04D-09 BMatP= 7.04D-09
 IDIUse=1 WtCom= 1.00D+00 WtEn= 0.00D+00
 Coeff-Com:  0.100D+01
 Coeff:      0.100D+01
 Gap=     0.387 Goal=   None    Shift=    0.000
 RMSDP=4.75D-06 MaxDP=7.15D-04 DE=-1.12D-07 OVMax= 5.39D-05

 Cycle  12  Pass 1  IDiag  1:
 RMSU=  1.35D-06    CP:  1.00D+00
 E= -1684.76023460858     Delta-E=       -0.000000018646 Rises=F Damp=F
 DIIS: error= 1.12D-06 at cycle   2 NSaved=   2.
 NSaved= 2 IEnMin= 2 EnMin= -1684.76023460858     IErMin= 2 ErrMin= 1.12D-06
 ErrMax= 1.12D-06  0.00D+00 EMaxC= 1.00D-01 BMatC= 3.21D-09 BMatP= 7.04D-09
 IDIUse=1 WtCom= 1.00D+00 WtEn= 0.00D+00
 Coeff-Com:  0.275D+00 0.725D+00
 Coeff:      0.275D+00 0.725D+00
 Gap=     0.387 Goal=   None    Shift=    0.000
 RMSDP=7.90D-07 MaxDP=1.06D-04 DE=-1.86D-08 OVMax= 2.48D-05

 Cycle  13  Pass 1  IDiag  1:
 RMSU=  5.73D-07    CP:  1.00D+00  1.18D+00
 E= -1684.76023461517     Delta-E=       -0.000000006594 Rises=F Damp=F
 DIIS: error= 7.55D-07 at cycle   3 NSaved=   3.
 NSaved= 3 IEnMin= 3 EnMin= -1684.76023461517     IErMin= 3 ErrMin= 7.55D-07
 ErrMax= 7.55D-07  0.00D+00 EMaxC= 1.00D-01 BMatC= 1.17D-09 BMatP= 3.21D-09
 IDIUse=1 WtCom= 1.00D+00 WtEn= 0.00D+00
 Coeff-Com: -0.605D+00-0.144D+00 0.175D+01
 Coeff:     -0.605D+00-0.144D+00 0.175D+01
 Gap=     0.387 Goal=   None    Shift=    0.000
 RMSDP=1.69D-06 MaxDP=2.17D-04 DE=-6.59D-09 OVMax= 5.73D-05

 Cycle  14  Pass 1  IDiag  1:
 RMSU=  3.46D-07    CP:  1.00D+00  1.94D+00  2.16D+00
 E= -1684.76023462186     Delta-E=       -0.000000006687 Rises=F Damp=F
 DIIS: error= 1.87D-07 at cycle   4 NSaved=   4.
 NSaved= 4 IEnMin= 4 EnMin= -1684.76023462186     IErMin= 4 ErrMin= 1.87D-07
 ErrMax= 1.87D-07  0.00D+00 EMaxC= 1.00D-01 BMatC= 1.18D-10 BMatP= 1.17D-09
 IDIUse=1 WtCom= 1.00D+00 WtEn= 0.00D+00
 Coeff-Com: -0.223D+00-0.115D+00 0.544D+00 0.793D+00
 Coeff:     -0.223D+00-0.115D+00 0.544D+00 0.793D+00
 Gap=     0.387 Goal=   None    Shift=    0.000
 RMSDP=3.50D-07 MaxDP=6.78D-05 DE=-6.69D-09 OVMax= 1.16D-05

 Cycle  15  Pass 1  IDiag  1:
 RMSU=  1.22D-07    CP:  1.00D+00  2.08D+00  2.37D+00  1.19D+00
 E= -1684.76023462235     Delta-E=       -0.000000000493 Rises=F Damp=F
 DIIS: error= 8.09D-08 at cycle   5 NSaved=   5.
 NSaved= 5 IEnMin= 5 EnMin= -1684.76023462235     IErMin= 5 ErrMin= 8.09D-08
 ErrMax= 8.09D-08  0.00D+00 EMaxC= 1.00D-01 BMatC= 1.95D-11 BMatP= 1.18D-10
 IDIUse=1 WtCom= 1.00D+00 WtEn= 0.00D+00
 Coeff-Com:  0.164D+00 0.609D-01-0.476D+00-0.122D+00 0.137D+01
 Coeff:      0.164D+00 0.609D-01-0.476D+00-0.122D+00 0.137D+01
 Gap=     0.387 Goal=   None    Shift=    0.000
 RMSDP=1.94D-07 MaxDP=3.43D-05 DE=-4.93D-10 OVMax= 6.93D-06

 Cycle  16  Pass 1  IDiag  1:
 RMSU=  5.69D-08    CP:  1.00D+00  2.14D+00  2.49D+00  1.41D+00  1.51D+00
 E= -1684.76023462245     Delta-E=       -0.000000000105 Rises=F Damp=F
 DIIS: error= 2.88D-08 at cycle   6 NSaved=   6.
 NSaved= 6 IEnMin= 6 EnMin= -1684.76023462245     IErMin= 6 ErrMin= 2.88D-08
 ErrMax= 2.88D-08  0.00D+00 EMaxC= 1.00D-01 BMatC= 3.63D-12 BMatP= 1.95D-11
 IDIUse=1 WtCom= 1.00D+00 WtEn= 0.00D+00
 Coeff-Com:  0.905D-01 0.412D-01-0.249D+00-0.161D+00 0.461D+00 0.817D+00
 Coeff:      0.905D-01 0.412D-01-0.249D+00-0.161D+00 0.461D+00 0.817D+00
 Gap=     0.387 Goal=   None    Shift=    0.000
 RMSDP=5.06D-08 MaxDP=1.01D-05 DE=-1.05D-10 OVMax= 1.58D-06

 Cycle  17  Pass 1  IDiag  1:
 RMSU=  1.80D-08    CP:  1.00D+00  2.15D+00  2.52D+00  1.47D+00  1.61D+00
                    CP:  1.19D+00
 E= -1684.76023462250     Delta-E=       -0.000000000044 Rises=F Damp=F
 DIIS: error= 1.32D-08 at cycle   7 NSaved=   7.
 NSaved= 7 IEnMin= 7 EnMin= -1684.76023462250     IErMin= 7 ErrMin= 1.32D-08
 ErrMax= 1.32D-08  0.00D+00 EMaxC= 1.00D-01 BMatC= 3.81D-13 BMatP= 3.63D-12
 IDIUse=1 WtCom= 1.00D+00 WtEn= 0.00D+00
 Coeff-Com: -0.184D-01-0.588D-02 0.523D-01 0.134D-01-0.164D+00-0.379D-02
 Coeff-Com:  0.113D+01
 Coeff:     -0.184D-01-0.588D-02 0.523D-01 0.134D-01-0.164D+00-0.379D-02
 Coeff:      0.113D+01
 Gap=     0.387 Goal=   None    Shift=    0.000
 RMSDP=2.16D-08 MaxDP=4.78D-06 DE=-4.37D-11 OVMax= 6.18D-07

 Cycle  18  Pass 1  IDiag  1:
 RMSU=  8.79D-09    CP:  1.00D+00  2.15D+00  2.52D+00  1.47D+00  1.66D+00
                    CP:  1.34D+00  1.14D+00
 E= -1684.76023462247     Delta-E=        0.000000000025 Rises=F Damp=F
 DIIS: error= 6.60D-09 at cycle   8 NSaved=   8.
 NSaved= 8 IEnMin= 7 EnMin= -1684.76023462250     IErMin= 8 ErrMin= 6.60D-09
 ErrMax= 6.60D-09  0.00D+00 EMaxC= 1.00D-01 BMatC= 1.04D-13 BMatP= 3.81D-13
 IDIUse=1 WtCom= 1.00D+00 WtEn= 0.00D+00
 Coeff-Com: -0.221D-01-0.940D-02 0.613D-01 0.346D-01-0.131D+00-0.174D+00
 Coeff-Com:  0.330D+00 0.911D+00
 Coeff:     -0.221D-01-0.940D-02 0.613D-01 0.346D-01-0.131D+00-0.174D+00
 Coeff:      0.330D+00 0.911D+00
 Gap=     0.387 Goal=   None    Shift=    0.000
 RMSDP=7.96D-09 MaxDP=1.44D-06 DE= 2.55D-11 OVMax= 2.43D-07

 Cycle  19  Pass 1  IDiag  1:
 RMSU=  3.41D-09    CP:  1.00D+00  2.15D+00  2.52D+00  1.48D+00  1.66D+00
                    CP:  1.36D+00  1.32D+00  1.13D+00
 E= -1684.76023462233     Delta-E=        0.000000000146 Rises=F Damp=F
 DIIS: error= 2.41D-09 at cycle   9 NSaved=   9.
 NSaved= 9 IEnMin= 7 EnMin= -1684.76023462250     IErMin= 9 ErrMin= 2.41D-09
 ErrMax= 2.41D-09  0.00D+00 EMaxC= 1.00D-01 BMatC= 1.69D-14 BMatP= 1.04D-13
 IDIUse=1 WtCom= 1.00D+00 WtEn= 0.00D+00
 Coeff-Com: -0.188D-02-0.128D-02 0.514D-02 0.522D-02-0.214D-02-0.377D-01
 Coeff-Com: -0.996D-01 0.178D+00 0.954D+00
 Coeff:     -0.188D-02-0.128D-02 0.514D-02 0.522D-02-0.214D-02-0.377D-01
 Coeff:     -0.996D-01 0.178D+00 0.954D+00
 Gap=     0.387 Goal=   None    Shift=    0.000
 RMSDP=2.52D-09 MaxDP=2.68D-07 DE= 1.46D-10 OVMax= 9.77D-08

 SCF Done:  E(RHF) =  -1684.76023462     A.U. after   19 cycles
            NFock= 19  Conv=0.25D-08     -V/T= 2.0010
 KE= 1.683081128423D+03 PE=-9.198837776110D+03 EE= 3.199703367965D+03
 Leave Link  502 at Sun Jul 18 23:12:42 2021, MaxMem=   262144000 cpu:           18536.5 elap:            4660.8
 (Enter /dades/curu/g16A03_MST/g16/l801.exe)
 ExpMin= 2.97D-02 ExpMax= 1.28D+05 ExpMxC= 1.24D+03 IAcc=3 IRadAn=         5 AccDes= 0.00D+00
 HarFok:  IExCor=  205 AccDes= 0.00D+00 IRadAn=         5 IDoV=-2 UseB2=F ITyADJ=14
 ICtDFT= 12500011 ScaDFX=  1.000000  1.000000  1.000000  1.000000
 GSVD:  LWork=       -1209 too small for GESVD, short by        5270 words or        5270 for optimal perf.
 Largest valence mixing into a core orbital is  2.88D-04
 Largest core mixing into a valence orbital is  6.84D-05
 Range of M.O.s used for correlation:    32   777
 NBasis=   778 NAE=   101 NBE=   101 NFC=    31 NFV=     0
 NROrb=    746 NOA=    70 NOB=    70 NVA=   676 NVB=   676

 **** Warning!!: The largest alpha MO coefficient is  0.12158981D+03

 Leave Link  801 at Sun Jul 18 23:12:44 2021, MaxMem=   262144000 cpu:               2.1 elap:               1.6
 (Enter /dades/curu/g16A03_MST/g16/l906.exe)
 FulOut=F Deriv=F AODrv=F NAtomX=    44
   MMem=           1  MDisk=          70 MDiskD=          40
  W3Min=    39370240 MinDsk=    37922640 NBas6D=         832
 NBas2D=      347686    NTT=      346528    LW2=     2000000
    MDV=   258309797 MDiskM=        4278 NBas2p=      287494
 Disk-based method using OVN memory for 35 occupieds at a time.
 Estimated scratch disk usage= 20663707272 words.
 IMap=   1   2   3   4   5   6   7   8   9  10  11  12  13  14  15  16  17  18  19  20
 IMap=  21  22  23  24  25  26  27  28  29  30  31  32  33  34  35  36  37  38  39  40
 IMap=  41  42  43  44  45  46  47  48  49  50  51  52  53  54  55  56  57  58  59  60
 IMap=  61  62  63  64  65  66  67  68  69  70
 Actual    scratch disk usage= 20459687560 words.
 JobTyp=1 Pass  1:  I=   1 to  35 NPSUse=  4 ParTrn=T ParDer=T DoDerP=F.
 JobTyp=1 Pass  2:  I=  36 to  70 NPSUse=  4 ParTrn=T ParDer=T DoDerP=F.
orig len = 2056157088 left = 814745048
g_write
