 Entering Gaussian System, Link 0=g16
 Input=SET_328_BBB301_conf1.geo_165_300_090_OCTANOL.dat
 Output=SET_328_BBB301_conf1.geo_165_300_090_OCTANOL.log
 Initial command:
 /dades/curu/g16A03_MST/g16/l1.exe "/tmp/ubator02/1839654/Gau-9372.inp" -scrdir="/tmp/ubator02/1839654/"
 Entering Link 1 = /dades/curu/g16A03_MST/g16/l1.exe PID=      9373.
  
 Copyright (c) 1988,1990,1992,1993,1995,1998,2003,2009,2016,
            Gaussian, Inc.  All Rights Reserved.
  
 This is part of the Gaussian(R) 16 program.  It is based on
 the Gaussian(R) 09 system (copyright 2009, Gaussian, Inc.),
 the Gaussian(R) 03 system (copyright 2003, Gaussian, Inc.),
 the Gaussian(R) 98 system (copyright 1998, Gaussian, Inc.),
 the Gaussian(R) 94 system (copyright 1995, Gaussian, Inc.),
 the Gaussian 92(TM) system (copyright 1992, Gaussian, Inc.),
 the Gaussian 90(TM) system (copyright 1990, Gaussian, Inc.),
 the Gaussian 88(TM) system (copyright 1988, Gaussian, Inc.),
 the Gaussian 86(TM) system (copyright 1986, Carnegie Mellon
 University), and the Gaussian 82(TM) system (copyright 1983,
 Carnegie Mellon University). Gaussian is a federally registered
 trademark of Gaussian, Inc.
  
 This software contains proprietary and confidential information,
 including trade secrets, belonging to Gaussian, Inc.
  
 This software is provided under written license and may be
 used, copied, transmitted, or stored only in accord with that
 written license.
  
 The following legend is applicable only to US Government
 contracts under FAR:
  
                    RESTRICTED RIGHTS LEGEND
  
 Use, reproduction and disclosure by the US Government is
 subject to restrictions as set forth in subparagraphs (a)
 and (c) of the Commercial Computer Software - Restricted
 Rights clause in FAR 52.227-19.
  
 Gaussian, Inc.
 340 Quinnipiac St., Bldg. 40, Wallingford CT 06492
  
  
 ---------------------------------------------------------------
 Warning -- This program may not be used in any manner that
 competes with the business of Gaussian, Inc. or will provide
 assistance to any competitor of Gaussian, Inc.  The licensee
 of this program is prohibited from giving any competitor of
 Gaussian, Inc. access to this program.  By using this program,
 the user acknowledges that Gaussian, Inc. is engaged in the
 business of creating and licensing software in the field of
 computational chemistry and represents and warrants to the
 licensee that it is not a competitor of Gaussian, Inc. and that
 it will not use this program in any manner prohibited above.
 ---------------------------------------------------------------
  

 Cite this work as:
 Gaussian 16, Revision A.03,
 M. J. Frisch, G. W. Trucks, H. B. Schlegel, G. E. Scuseria, 
 M. A. Robb, J. R. Cheeseman, G. Scalmani, V. Barone, 
 G. A. Petersson, H. Nakatsuji, X. Li, M. Caricato, A. V. Marenich, 
 J. Bloino, B. G. Janesko, R. Gomperts, B. Mennucci, H. P. Hratchian, 
 J. V. Ortiz, A. F. Izmaylov, J. L. Sonnenberg, D. Williams-Young, 
 F. Ding, F. Lipparini, F. Egidi, J. Goings, B. Peng, A. Petrone, 
 T. Henderson, D. Ranasinghe, V. G. Zakrzewski, J. Gao, N. Rega, 
 G. Zheng, W. Liang, M. Hada, M. Ehara, K. Toyota, R. Fukuda, 
 J. Hasegawa, M. Ishida, T. Nakajima, Y. Honda, O. Kitao, H. Nakai, 
 T. Vreven, K. Throssell, J. A. Montgomery, Jr., J. E. Peralta, 
 F. Ogliaro, M. J. Bearpark, J. J. Heyd, E. N. Brothers, K. N. Kudin, 
 V. N. Staroverov, T. A. Keith, R. Kobayashi, J. Normand, 
 K. Raghavachari, A. P. Rendell, J. C. Burant, S. S. Iyengar, 
 J. Tomasi, M. Cossi, J. M. Millam, M. Klene, C. Adamo, R. Cammi, 
 J. W. Ochterski, R. L. Martin, K. Morokuma, O. Farkas, 
 J. B. Foresman, and D. J. Fox, Gaussian, Inc., Wallingford CT, 2016.
 
 ******************************************
 Gaussian 16:  ES64L-G16RevA.03 25-Dec-2016
                18-Jul-2021 
 ******************************************
 %mem=800MB
 %nproc=4
 Will use up to    4 processors via shared memory.
 %chk=SET_328_BBB301_conf1.geo_165_300_090.chk
 ---------------------------------------------------------------
 #p b3lyp/6-31G(d) opt freq scrf=(iefpcm,read,solvent=n-octanol)
 ---------------------------------------------------------------
 1/18=20,19=15,26=3,38=1,40=2/1,3;
 2/9=110,12=2,17=6,18=5,40=1/2;
 3/5=1,6=6,7=1,11=2,25=1,30=1,70=2203,71=1,72=25,74=-5/1,2,3;
 4//1;
 5/5=2,38=5,53=25/2;
 6/7=2,8=2,9=2,10=2,28=1/1;
 7//1,2,3,16;
 1/18=20,19=15,26=3/3(2);
 2/9=110/2;
 99//99;
 2/9=110/2;
 3/5=1,6=6,7=1,11=2,25=1,30=1,70=2205,71=1,72=25,74=-5/1,2,3;
 4/5=5,16=3,69=1/1;
 5/5=2,38=5,53=25/2;
 7//1,2,3,16;
 1/18=20,19=15,26=3/3(-5);
 2/9=110/2;
 6/7=2,8=2,9=2,10=2,19=2,28=1/1;
 99/9=1/99;
 Leave Link    1 at Sun Jul 18 15:03:37 2021, MaxMem=   104857600 cpu:               0.1 elap:               0.0
 (Enter /dades/curu/g16A03_MST/g16/l101.exe)
 ---------------------------------------------
 SET_328_BBB301_conf1.geo_165_300_090 geometry
 ---------------------------------------------
 Symbolic Z-matrix:
 Charge =  1 Multiplicity = 1
 C                    -1.728     0.961    -2.98 
 H                    -1.979     1.502    -2.066 
 H                    -2.39      1.247    -3.8 
 H                    -0.736     1.26     -3.324 
 C                    -1.823    -0.552    -2.736 
 C                    -3.138    -0.991    -2.242 
 H                    -3.376    -0.717    -1.211 
 H                    -3.225    -2.079    -2.242 
 H                    -3.952    -0.618    -2.867 
 C                    -1.535    -1.263    -4.038 
 H                    -0.5      -1.114    -4.353 
 H                    -2.179    -0.889    -4.837 
 H                    -1.621    -2.335    -3.851 
 N                    -0.762    -1.031    -1.835 
 H                    -0.784    -2.03     -1.871 
 C                    -0.718    -0.65     -0.374 
 H                    -1.578    -1.157     0.071 
 H                    -0.865     0.426    -0.251 
 C                     0.65     -1.16      0.181 
 O                     1.67     -0.977    -0.76 
 H                     1.049    -0.928    -1.509 
 H                     0.458    -2.234     0.241 
 C                     1.072    -0.597     1.461 
 C                     1.218     0.77      1.508 
 H                     0.992     1.411     0.659 
 C                     1.758     1.309     2.688 
 C                     1.956     2.848     2.73 
 O                     3.333     3.088     2.409 
 H                     3.324     3.798     1.742 
 H                     1.708     3.248     3.717 
 H                     1.34      3.398     2.014 
 C                     1.955     0.541     3.847 
 O                     2.252     1.203     4.967 
 H                     1.949     0.625     5.691 
 C                     1.775    -0.87      3.746 
 H                     1.886    -1.53      4.602 
 C                     1.33     -1.409     2.502 
 H                     1.206    -2.486     2.426 
 H                     0.107    -0.74     -2.234 
 
 ITRead=  0  0  0  0  0  0  0  0  0  0  0  0  0  0  0  0  0  0  0  0
 ITRead=  0  0  0  0  0  0  0  0  0  0  0  0  0  0  0  0  0  0  0
 MicOpt= -1 -1 -1 -1 -1 -1 -1 -1 -1 -1 -1 -1 -1 -1 -1 -1 -1 -1 -1 -1
 MicOpt= -1 -1 -1 -1 -1 -1 -1 -1 -1 -1 -1 -1 -1 -1 -1 -1 -1 -1 -1
 NAtoms=     39 NQM=       39 NQMF=       0 NMMI=      0 NMMIF=      0
                NMic=       0 NMicF=      0.
                    Isotopes and Nuclear Properties:
 (Nuclear quadrupole moments (NQMom) in fm**2, nuclear magnetic moments (NMagM)
  in nuclear magnetons)

  Atom         1           2           3           4           5           6           7           8           9          10
 IAtWgt=          12           1           1           1          12          12           1           1           1          12
 AtmWgt=  12.0000000   1.0078250   1.0078250   1.0078250  12.0000000  12.0000000   1.0078250   1.0078250   1.0078250  12.0000000
 NucSpn=           0           1           1           1           0           0           1           1           1           0
 AtZEff=  -0.0000000  -0.0000000  -0.0000000  -0.0000000  -0.0000000  -0.0000000  -0.0000000  -0.0000000  -0.0000000  -0.0000000
 NQMom=    0.0000000   0.0000000   0.0000000   0.0000000   0.0000000   0.0000000   0.0000000   0.0000000   0.0000000   0.0000000
 NMagM=    0.0000000   2.7928460   2.7928460   2.7928460   0.0000000   0.0000000   2.7928460   2.7928460   2.7928460   0.0000000
 AtZNuc=   6.0000000   1.0000000   1.0000000   1.0000000   6.0000000   6.0000000   1.0000000   1.0000000   1.0000000   6.0000000

  Atom        11          12          13          14          15          16          17          18          19          20
 IAtWgt=           1           1           1          14           1          12           1           1          12          16
 AtmWgt=   1.0078250   1.0078250   1.0078250  14.0030740   1.0078250  12.0000000   1.0078250   1.0078250  12.0000000  15.9949146
 NucSpn=           1           1           1           2           1           0           1           1           0           0
 AtZEff=  -0.0000000  -0.0000000  -0.0000000  -0.0000000  -0.0000000  -0.0000000  -0.0000000  -0.0000000  -0.0000000  -0.0000000
 NQMom=    0.0000000   0.0000000   0.0000000   2.0440000   0.0000000   0.0000000   0.0000000   0.0000000   0.0000000   0.0000000
 NMagM=    2.7928460   2.7928460   2.7928460   0.4037610   2.7928460   0.0000000   2.7928460   2.7928460   0.0000000   0.0000000
 AtZNuc=   1.0000000   1.0000000   1.0000000   7.0000000   1.0000000   6.0000000   1.0000000   1.0000000   6.0000000   8.0000000

  Atom        21          22          23          24          25          26          27          28          29          30
 IAtWgt=           1           1          12          12           1          12          12          16           1           1
 AtmWgt=   1.0078250   1.0078250  12.0000000  12.0000000   1.0078250  12.0000000  12.0000000  15.9949146   1.0078250   1.0078250
 NucSpn=           1           1           0           0           1           0           0           0           1           1
 AtZEff=  -0.0000000  -0.0000000  -0.0000000  -0.0000000  -0.0000000  -0.0000000  -0.0000000  -0.0000000  -0.0000000  -0.0000000
 NQMom=    0.0000000   0.0000000   0.0000000   0.0000000   0.0000000   0.0000000   0.0000000   0.0000000   0.0000000   0.0000000
 NMagM=    2.7928460   2.7928460   0.0000000   0.0000000   2.7928460   0.0000000   0.0000000   0.0000000   2.7928460   2.7928460
 AtZNuc=   1.0000000   1.0000000   6.0000000   6.0000000   1.0000000   6.0000000   6.0000000   8.0000000   1.0000000   1.0000000

  Atom        31          32          33          34          35          36          37          38          39
 IAtWgt=           1          12          16           1          12           1          12           1           1
 AtmWgt=   1.0078250  12.0000000  15.9949146   1.0078250  12.0000000   1.0078250  12.0000000   1.0078250   1.0078250
 NucSpn=           1           0           0           1           0           1           0           1           1
 AtZEff=  -0.0000000  -0.0000000  -0.0000000  -0.0000000  -0.0000000  -0.0000000  -0.0000000  -0.0000000  -0.0000000
 NQMom=    0.0000000   0.0000000   0.0000000   0.0000000   0.0000000   0.0000000   0.0000000   0.0000000   0.0000000
 NMagM=    2.7928460   0.0000000   0.0000000   2.7928460   0.0000000   2.7928460   0.0000000   2.7928460   2.7928460
 AtZNuc=   1.0000000   6.0000000   8.0000000   1.0000000   6.0000000   1.0000000   6.0000000   1.0000000   1.0000000
 Leave Link  101 at Sun Jul 18 15:03:38 2021, MaxMem=   104857600 cpu:               0.1 elap:               0.1
 (Enter /dades/curu/g16A03_MST/g16/l103.exe)

 GradGradGradGradGradGradGradGradGradGradGradGradGradGradGradGradGradGrad
 Berny optimization.
 Initialization pass.
                           ----------------------------
                           !    Initial Parameters    !
                           ! (Angstroms and Degrees)  !
 --------------------------                            --------------------------
 ! Name  Definition              Value          Derivative Info.                !
 --------------------------------------------------------------------------------
 ! R1    R(1,2)                  1.0914         estimate D2E/DX2                !
 ! R2    R(1,3)                  1.092          estimate D2E/DX2                !
 ! R3    R(1,4)                  1.0917         estimate D2E/DX2                !
 ! R4    R(1,5)                  1.5355         estimate D2E/DX2                !
 ! R5    R(5,6)                  1.4717         estimate D2E/DX2                !
 ! R6    R(5,10)                 1.5112         estimate D2E/DX2                !
 ! R7    R(5,14)                 1.4721         estimate D2E/DX2                !
 ! R8    R(6,7)                  1.093          estimate D2E/DX2                !
 ! R9    R(6,8)                  1.0915         estimate D2E/DX2                !
 ! R10   R(6,9)                  1.0919         estimate D2E/DX2                !
 ! R11   R(10,11)                1.0921         estimate D2E/DX2                !
 ! R12   R(10,12)                1.0923         estimate D2E/DX2                !
 ! R13   R(10,13)                1.0916         estimate D2E/DX2                !
 ! R14   R(14,15)                0.9999         estimate D2E/DX2                !
 ! R15   R(14,16)                1.5105         estimate D2E/DX2                !
 ! R16   R(14,39)                0.9995         estimate D2E/DX2                !
 ! R17   R(16,17)                1.093          estimate D2E/DX2                !
 ! R18   R(16,18)                1.0929         estimate D2E/DX2                !
 ! R19   R(16,19)                1.5619         estimate D2E/DX2                !
 ! R20   R(19,20)                1.3998         estimate D2E/DX2                !
 ! R21   R(19,22)                1.0927         estimate D2E/DX2                !
 ! R22   R(19,23)                1.4606         estimate D2E/DX2                !
 ! R23   R(20,21)                0.9742         estimate D2E/DX2                !
 ! R24   R(23,24)                1.3756         estimate D2E/DX2                !
 ! R25   R(23,37)                1.3452         estimate D2E/DX2                !
 ! R26   R(24,25)                1.0875         estimate D2E/DX2                !
 ! R27   R(24,26)                1.4052         estimate D2E/DX2                !
 ! R28   R(26,27)                1.5523         estimate D2E/DX2                !
 ! R29   R(26,32)                1.4042         estimate D2E/DX2                !
 ! R30   R(27,28)                1.4341         estimate D2E/DX2                !
 ! R31   R(27,30)                1.0935         estimate D2E/DX2                !
 ! R32   R(27,31)                1.093          estimate D2E/DX2                !
 ! R33   R(28,29)                0.9742         estimate D2E/DX2                !
 ! R34   R(32,33)                1.3345         estimate D2E/DX2                !
 ! R35   R(32,35)                1.426          estimate D2E/DX2                !
 ! R36   R(33,34)                0.9747         estimate D2E/DX2                !
 ! R37   R(35,36)                1.0866         estimate D2E/DX2                !
 ! R38   R(35,37)                1.4269         estimate D2E/DX2                !
 ! R39   R(37,38)                1.0868         estimate D2E/DX2                !
 ! A1    A(2,1,3)              111.0775         estimate D2E/DX2                !
 ! A2    A(2,1,4)              109.701          estimate D2E/DX2                !
 ! A3    A(2,1,5)              109.9462         estimate D2E/DX2                !
 ! A4    A(3,1,4)              104.0352         estimate D2E/DX2                !
 ! A5    A(3,1,5)              109.8702         estimate D2E/DX2                !
 ! A6    A(4,1,5)              112.0964         estimate D2E/DX2                !
 ! A7    A(1,5,6)              113.737          estimate D2E/DX2                !
 ! A8    A(1,5,10)             108.3548         estimate D2E/DX2                !
 ! A9    A(1,5,14)             111.9191         estimate D2E/DX2                !
 ! A10   A(6,5,10)             108.6108         estimate D2E/DX2                !
 ! A11   A(6,5,14)             109.968          estimate D2E/DX2                !
 ! A12   A(10,5,14)            103.7028         estimate D2E/DX2                !
 ! A13   A(5,6,7)              115.8743         estimate D2E/DX2                !
 ! A14   A(5,6,8)              111.6269         estimate D2E/DX2                !
 ! A15   A(5,6,9)              111.8425         estimate D2E/DX2                !
 ! A16   A(7,6,8)              103.446          estimate D2E/DX2                !
 ! A17   A(7,6,9)              106.9745         estimate D2E/DX2                !
 ! A18   A(8,6,9)              106.325          estimate D2E/DX2                !
 ! A19   A(5,10,11)            111.4037         estimate D2E/DX2                !
 ! A20   A(5,10,12)            110.9031         estimate D2E/DX2                !
 ! A21   A(5,10,13)            107.424          estimate D2E/DX2                !
 ! A22   A(11,10,12)           107.522          estimate D2E/DX2                !
 ! A23   A(11,10,13)           104.9555         estimate D2E/DX2                !
 ! A24   A(12,10,13)           114.5278         estimate D2E/DX2                !
 ! A25   A(5,14,15)            106.6909         estimate D2E/DX2                !
 ! A26   A(5,14,16)            122.0682         estimate D2E/DX2                !
 ! A27   A(5,14,39)            106.7127         estimate D2E/DX2                !
 ! A28   A(15,14,16)           106.7068         estimate D2E/DX2                !
 ! A29   A(15,14,39)           107.1957         estimate D2E/DX2                !
 ! A30   A(16,14,39)           106.6992         estimate D2E/DX2                !
 ! A31   A(14,16,17)           104.7066         estimate D2E/DX2                !
 ! A32   A(14,16,18)           110.6868         estimate D2E/DX2                !
 ! A33   A(14,16,19)           106.669          estimate D2E/DX2                !
 ! A34   A(17,16,18)           107.7595         estimate D2E/DX2                !
 ! A35   A(17,16,19)           113.1418         estimate D2E/DX2                !
 ! A36   A(18,16,19)           113.5329         estimate D2E/DX2                !
 ! A37   A(16,19,20)           110.8953         estimate D2E/DX2                !
 ! A38   A(16,19,22)           100.7518         estimate D2E/DX2                !
 ! A39   A(16,19,23)           116.0134         estimate D2E/DX2                !
 ! A40   A(20,19,22)           107.065          estimate D2E/DX2                !
 ! A41   A(20,19,23)           109.1592         estimate D2E/DX2                !
 ! A42   A(22,19,23)           112.4271         estimate D2E/DX2                !
 ! A43   A(19,20,21)            93.3782         estimate D2E/DX2                !
 ! A44   A(19,23,24)           116.3371         estimate D2E/DX2                !
 ! A45   A(19,23,37)           120.0596         estimate D2E/DX2                !
 ! A46   A(24,23,37)           123.5774         estimate D2E/DX2                !
 ! A47   A(23,24,25)           122.4793         estimate D2E/DX2                !
 ! A48   A(23,24,26)           116.7867         estimate D2E/DX2                !
 ! A49   A(25,24,26)           120.6194         estimate D2E/DX2                !
 ! A50   A(24,26,27)           116.8751         estimate D2E/DX2                !
 ! A51   A(24,26,32)           122.4945         estimate D2E/DX2                !
 ! A52   A(27,26,32)           120.1334         estimate D2E/DX2                !
 ! A53   A(26,27,28)           106.3997         estimate D2E/DX2                !
 ! A54   A(26,27,30)           110.9884         estimate D2E/DX2                !
 ! A55   A(26,27,31)           114.1608         estimate D2E/DX2                !
 ! A56   A(28,27,30)           111.0131         estimate D2E/DX2                !
 ! A57   A(28,27,31)           108.0774         estimate D2E/DX2                !
 ! A58   A(30,27,31)           106.2245         estimate D2E/DX2                !
 ! A59   A(27,28,29)           105.4465         estimate D2E/DX2                !
 ! A60   A(26,32,33)           116.9114         estimate D2E/DX2                !
 ! A61   A(26,32,35)           117.7094         estimate D2E/DX2                !
 ! A62   A(33,32,35)           125.3369         estimate D2E/DX2                !
 ! A63   A(32,33,34)           105.0728         estimate D2E/DX2                !
 ! A64   A(32,35,36)           122.1625         estimate D2E/DX2                !
 ! A65   A(32,35,37)           118.3511         estimate D2E/DX2                !
 ! A66   A(36,35,37)           119.2895         estimate D2E/DX2                !
 ! A67   A(23,37,35)           120.4282         estimate D2E/DX2                !
 ! A68   A(23,37,38)           121.4795         estimate D2E/DX2                !
 ! A69   A(35,37,38)           118.0922         estimate D2E/DX2                !
 ! D1    D(2,1,5,6)             56.4101         estimate D2E/DX2                !
 ! D2    D(2,1,5,10)           177.2884         estimate D2E/DX2                !
 ! D3    D(2,1,5,14)           -68.9749         estimate D2E/DX2                !
 ! D4    D(3,1,5,6)            -66.1345         estimate D2E/DX2                !
 ! D5    D(3,1,5,10)            54.7438         estimate D2E/DX2                !
 ! D6    D(3,1,5,14)           168.4805         estimate D2E/DX2                !
 ! D7    D(4,1,5,6)            178.7125         estimate D2E/DX2                !
 ! D8    D(4,1,5,10)           -60.4092         estimate D2E/DX2                !
 ! D9    D(4,1,5,14)            53.3275         estimate D2E/DX2                !
 ! D10   D(1,5,6,7)            -71.6487         estimate D2E/DX2                !
 ! D11   D(1,5,6,8)            170.2974         estimate D2E/DX2                !
 ! D12   D(1,5,6,9)             51.3062         estimate D2E/DX2                !
 ! D13   D(10,5,6,7)           167.6165         estimate D2E/DX2                !
 ! D14   D(10,5,6,8)            49.5626         estimate D2E/DX2                !
 ! D15   D(10,5,6,9)           -69.4285         estimate D2E/DX2                !
 ! D16   D(14,5,6,7)            54.7679         estimate D2E/DX2                !
 ! D17   D(14,5,6,8)           -63.286          estimate D2E/DX2                !
 ! D18   D(14,5,6,9)           177.7228         estimate D2E/DX2                !
 ! D19   D(1,5,10,11)           66.3963         estimate D2E/DX2                !
 ! D20   D(1,5,10,12)          -53.3303         estimate D2E/DX2                !
 ! D21   D(1,5,10,13)         -179.1768         estimate D2E/DX2                !
 ! D22   D(6,5,10,11)         -169.6002         estimate D2E/DX2                !
 ! D23   D(6,5,10,12)           70.6733         estimate D2E/DX2                !
 ! D24   D(6,5,10,13)          -55.1733         estimate D2E/DX2                !
 ! D25   D(14,5,10,11)         -52.6637         estimate D2E/DX2                !
 ! D26   D(14,5,10,12)        -172.3903         estimate D2E/DX2                !
 ! D27   D(14,5,10,13)          61.7632         estimate D2E/DX2                !
 ! D28   D(1,5,14,15)         -169.2054         estimate D2E/DX2                !
 ! D29   D(1,5,14,16)           67.9736         estimate D2E/DX2                !
 ! D30   D(1,5,14,39)          -54.8572         estimate D2E/DX2                !
 ! D31   D(6,5,14,15)           63.3596         estimate D2E/DX2                !
 ! D32   D(6,5,14,16)          -59.4614         estimate D2E/DX2                !
 ! D33   D(6,5,14,39)          177.7079         estimate D2E/DX2                !
 ! D34   D(10,5,14,15)         -52.6225         estimate D2E/DX2                !
 ! D35   D(10,5,14,16)        -175.4435         estimate D2E/DX2                !
 ! D36   D(10,5,14,39)          61.7258         estimate D2E/DX2                !
 ! D37   D(5,14,16,17)          68.3979         estimate D2E/DX2                !
 ! D38   D(5,14,16,18)         -47.4636         estimate D2E/DX2                !
 ! D39   D(5,14,16,19)        -171.4212         estimate D2E/DX2                !
 ! D40   D(15,14,16,17)        -54.4157         estimate D2E/DX2                !
 ! D41   D(15,14,16,18)       -170.2772         estimate D2E/DX2                !
 ! D42   D(15,14,16,19)         65.7652         estimate D2E/DX2                !
 ! D43   D(39,14,16,17)       -168.7651         estimate D2E/DX2                !
 ! D44   D(39,14,16,18)         75.3734         estimate D2E/DX2                !
 ! D45   D(39,14,16,19)        -48.5842         estimate D2E/DX2                !
 ! D46   D(14,16,19,20)         38.7146         estimate D2E/DX2                !
 ! D47   D(14,16,19,22)        -74.3782         estimate D2E/DX2                !
 ! D48   D(14,16,19,23)        163.9691         estimate D2E/DX2                !
 ! D49   D(17,16,19,20)        153.3075         estimate D2E/DX2                !
 ! D50   D(17,16,19,22)         40.2148         estimate D2E/DX2                !
 ! D51   D(17,16,19,23)        -81.4379         estimate D2E/DX2                !
 ! D52   D(18,16,19,20)        -83.4671         estimate D2E/DX2                !
 ! D53   D(18,16,19,22)        163.4402         estimate D2E/DX2                !
 ! D54   D(18,16,19,23)         41.7874         estimate D2E/DX2                !
 ! D55   D(16,19,20,21)        -21.2916         estimate D2E/DX2                !
 ! D56   D(22,19,20,21)         87.7392         estimate D2E/DX2                !
 ! D57   D(23,19,20,21)       -150.314          estimate D2E/DX2                !
 ! D58   D(16,19,23,24)        -59.0706         estimate D2E/DX2                !
 ! D59   D(16,19,23,37)        122.7141         estimate D2E/DX2                !
 ! D60   D(20,19,23,24)         67.0648         estimate D2E/DX2                !
 ! D61   D(20,19,23,37)       -111.1505         estimate D2E/DX2                !
 ! D62   D(22,19,23,24)       -174.2838         estimate D2E/DX2                !
 ! D63   D(22,19,23,37)          7.501          estimate D2E/DX2                !
 ! D64   D(19,23,24,25)          2.6563         estimate D2E/DX2                !
 ! D65   D(19,23,24,26)       -173.4711         estimate D2E/DX2                !
 ! D66   D(37,23,24,25)       -179.1978         estimate D2E/DX2                !
 ! D67   D(37,23,24,26)          4.6748         estimate D2E/DX2                !
 ! D68   D(19,23,37,35)        178.4234         estimate D2E/DX2                !
 ! D69   D(19,23,37,38)         -1.7093         estimate D2E/DX2                !
 ! D70   D(24,23,37,35)          0.3433         estimate D2E/DX2                !
 ! D71   D(24,23,37,38)       -179.7894         estimate D2E/DX2                !
 ! D72   D(23,24,26,27)        178.5467         estimate D2E/DX2                !
 ! D73   D(23,24,26,32)         -9.5408         estimate D2E/DX2                !
 ! D74   D(25,24,26,27)          2.3427         estimate D2E/DX2                !
 ! D75   D(25,24,26,32)        174.2552         estimate D2E/DX2                !
 ! D76   D(24,26,27,28)        -97.8981         estimate D2E/DX2                !
 ! D77   D(24,26,27,30)        141.2209         estimate D2E/DX2                !
 ! D78   D(24,26,27,31)         21.2155         estimate D2E/DX2                !
 ! D79   D(32,26,27,28)         89.9879         estimate D2E/DX2                !
 ! D80   D(32,26,27,30)        -30.8931         estimate D2E/DX2                !
 ! D81   D(32,26,27,31)       -150.8985         estimate D2E/DX2                !
 ! D82   D(24,26,32,33)       -168.6679         estimate D2E/DX2                !
 ! D83   D(24,26,32,35)          9.095          estimate D2E/DX2                !
 ! D84   D(27,26,32,33)          2.989          estimate D2E/DX2                !
 ! D85   D(27,26,32,35)       -179.2481         estimate D2E/DX2                !
 ! D86   D(26,27,28,29)        132.7513         estimate D2E/DX2                !
 ! D87   D(30,27,28,29)       -106.3836         estimate D2E/DX2                !
 ! D88   D(31,27,28,29)          9.735          estimate D2E/DX2                !
 ! D89   D(26,32,33,34)        154.3319         estimate D2E/DX2                !
 ! D90   D(35,32,33,34)        -23.2401         estimate D2E/DX2                !
 ! D91   D(26,32,35,36)       -178.5388         estimate D2E/DX2                !
 ! D92   D(26,32,35,37)         -3.6768         estimate D2E/DX2                !
 ! D93   D(33,32,35,36)         -0.9844         estimate D2E/DX2                !
 ! D94   D(33,32,35,37)        173.8777         estimate D2E/DX2                !
 ! D95   D(32,35,37,23)         -0.8691         estimate D2E/DX2                !
 ! D96   D(32,35,37,38)        179.2592         estimate D2E/DX2                !
 ! D97   D(36,35,37,23)        174.1443         estimate D2E/DX2                !
 ! D98   D(36,35,37,38)         -5.7275         estimate D2E/DX2                !
 --------------------------------------------------------------------------------
 Trust Radius=3.00D-01 FncErr=1.00D-07 GrdErr=1.00D-06 EigMax=2.50D+02 EigMin=1.00D-04
 Number of steps in this run=    216 maximum allowed number of steps=    234.
 GradGradGradGradGradGradGradGradGradGradGradGradGradGradGradGradGradGrad

 Leave Link  103 at Sun Jul 18 15:03:38 2021, MaxMem=   104857600 cpu:               0.1 elap:               0.0
 (Enter /dades/curu/g16A03_MST/g16/l202.exe)
                          Input orientation:                          
 ---------------------------------------------------------------------
 Center     Atomic      Atomic             Coordinates (Angstroms)
 Number     Number       Type             X           Y           Z
 ---------------------------------------------------------------------
      1          6           0       -1.728000    0.961000   -2.980000
      2          1           0       -1.979000    1.502000   -2.066000
      3          1           0       -2.390000    1.247000   -3.800000
      4          1           0       -0.736000    1.260000   -3.324000
      5          6           0       -1.823000   -0.552000   -2.736000
      6          6           0       -3.138000   -0.991000   -2.242000
      7          1           0       -3.376000   -0.717000   -1.211000
      8          1           0       -3.225000   -2.079000   -2.242000
      9          1           0       -3.952000   -0.618000   -2.867000
     10          6           0       -1.535000   -1.263000   -4.038000
     11          1           0       -0.500000   -1.114000   -4.353000
     12          1           0       -2.179000   -0.889000   -4.837000
     13          1           0       -1.621000   -2.335000   -3.851000
     14          7           0       -0.762000   -1.031000   -1.835000
     15          1           0       -0.784000   -2.030000   -1.871000
     16          6           0       -0.718000   -0.650000   -0.374000
     17          1           0       -1.578000   -1.157000    0.071000
     18          1           0       -0.865000    0.426000   -0.251000
     19          6           0        0.650000   -1.160000    0.181000
     20          8           0        1.670000   -0.977000   -0.760000
     21          1           0        1.049000   -0.928000   -1.509000
     22          1           0        0.458000   -2.234000    0.241000
     23          6           0        1.072000   -0.597000    1.461000
     24          6           0        1.218000    0.770000    1.508000
     25          1           0        0.992000    1.411000    0.659000
     26          6           0        1.758000    1.309000    2.688000
     27          6           0        1.956000    2.848000    2.730000
     28          8           0        3.333000    3.088000    2.409000
     29          1           0        3.324000    3.798000    1.742000
     30          1           0        1.708000    3.248000    3.717000
     31          1           0        1.340000    3.398000    2.014000
     32          6           0        1.955000    0.541000    3.847000
     33          8           0        2.252000    1.203000    4.967000
     34          1           0        1.949000    0.625000    5.691000
     35          6           0        1.775000   -0.870000    3.746000
     36          1           0        1.886000   -1.530000    4.602000
     37          6           0        1.330000   -1.409000    2.502000
     38          1           0        1.206000   -2.486000    2.426000
     39          1           0        0.107000   -0.740000   -2.234000
 ---------------------------------------------------------------------
                    Distance matrix (angstroms):
                    1          2          3          4          5
     1  C    0.000000
     2  H    1.091365   0.000000
     3  H    1.091989   1.800195   0.000000
     4  H    1.091696   1.784987   1.721180   0.000000
     5  C    1.535490   2.166138   2.165638   2.193321   0.000000
     6  C    2.518541   2.754870   2.827634   3.465159   1.471728
     7  H    2.942949   2.758006   3.395941   3.917001   2.182810
     8  H    3.468033   3.795662   3.766545   4.302879   2.131049
     9  H    2.729869   3.004785   2.605486   3.752118   2.134047
    10  C    2.470382   3.425076   2.662286   2.741118   1.511181
    11  H    2.774660   3.776409   3.074448   2.598156   2.163530
    12  H    2.659765   3.665422   2.383776   2.998269   2.157430
    13  H    3.410822   4.246994   3.663971   3.739650   2.112609
    14  N    2.492438   2.819670   3.420657   2.732486   1.472061
    15  H    3.326725   3.733775   4.127833   3.596889   2.003055
    16  C    3.225935   3.013982   4.258130   3.514388   2.609535
    17  H    3.717126   3.434800   4.628520   4.251691   2.881892
    18  H    2.911775   2.386000   3.949059   3.186774   2.837159
    19  C    4.488368   4.364275   5.557302   4.479109   3.872245
    20  O    4.497849   4.600682   5.538174   4.167385   4.035623
    21  H    3.666591   3.922236   4.669692   3.356753   3.145678
    22  H    5.036016   5.021844   6.046333   5.132533   4.110306
    23  C    5.476298   5.114111   6.562309   5.441832   5.098810
    24  C    5.371922   4.850784   6.435842   5.235116   5.385806
    25  H    4.565438   4.032462   5.598884   4.344315   4.827382
    26  C    6.663297   6.050036   7.700902   6.508962   6.760670
    27  C    7.052427   6.348036   8.005737   6.813188   7.464449
    28  O    7.692800   7.124491   8.642551   7.263996   8.142786
    29  H    7.474527   6.920570   8.358897   6.970610   8.091143
    30  H    7.866783   7.077116   8.792206   7.713687   8.279443
    31  H    6.347569   5.590794   7.234798   6.113515   6.940430
    32  C    7.768450   7.166830   8.823495   7.692963   7.668365
    33  O    8.891219   8.213029   9.920201   8.813176   8.889424
    34  H    9.424408   8.738957  10.454324   9.427761   9.307397
    35  C    7.801452   7.314249   8.875305   7.799162   7.420448
    36  H    8.760868   8.282118   9.827996   8.802299   8.280061
    37  C    6.709738   6.347442   7.785110   6.733067   6.173532
    38  H    7.050887   6.799002   8.101209   7.132067   6.289789
    39  H    2.610966   3.066950   3.554650   2.428734   2.003060
                    6          7          8          9         10
     6  C    0.000000
     7  H    1.093015   0.000000
     8  H    1.091473   1.714878   0.000000
     9  H    1.091948   1.756107   1.747477   0.000000
    10  C    2.422645   3.417503   2.597609   2.762093   0.000000
    11  H    3.380901   4.277984   3.579549   3.790846   1.092086
    12  H    2.768413   3.822338   3.040434   2.664183   1.092251
    13  H    2.587761   3.559150   2.286314   3.057762   1.091581
    14  N    2.410939   2.705729   2.707457   3.378120   2.346180
    15  H    2.599707   2.979603   2.469519   3.608599   2.418301
    16  C    3.076053   2.787476   3.437516   4.083482   3.803703
    17  H    2.794839   2.251650   2.985408   3.815526   4.110592
    18  H    3.337439   2.921159   3.976016   4.178871   4.200356
    19  C    4.499826   4.282825   4.661664   5.546393   4.752346
    20  O    5.031241   5.072782   5.231802   6.014583   4.593376
    21  H    4.251144   4.440039   4.486554   5.191364   3.631132
    22  H    4.543298   4.371401   4.444525   5.631982   4.819204
    23  C    5.620636   5.190249   5.862827   6.631184   6.122010
    24  C    6.011519   5.541567   6.474531   6.913470   6.516918
    25  H    5.589482   5.206218   6.195078   6.402551   5.966390
    26  C    7.318860   6.757576   7.785482   8.196063   7.918214
    27  C    8.087493   7.528010   8.708552   8.845565   8.654087
    28  O    8.952312   8.520159   9.557042   9.728404   9.175644
    29  H    8.975757   8.602060   9.659233   9.679055   9.090215
    30  H    8.772828   8.115015   9.392609   9.504242   9.539717
    31  H    7.578215   7.040917   8.303631   8.243645   8.161939
    32  C    8.084652   7.455568   8.412652   9.017412   8.809526
    33  O    9.264741   8.574874   9.630095  10.157618  10.075344
    34  H    9.561460   8.820102   9.849588  10.469299  10.505058
    35  C    7.746506   7.150389   7.894164   8.751789   8.467656
    36  H    8.507140   7.882930   8.559443   9.523652   9.296458
    37  C    6.530183   6.034208   6.610784   7.573068   7.141508
    38  H    6.549472   6.111616   6.449003   7.623007   7.126858
    39  H    3.254703   3.630199   3.590990   4.109873   2.494816
                   11         12         13         14         15
    11  H    0.000000
    12  H    1.761795   0.000000
    13  H    1.731902   1.836975   0.000000
    14  N    2.532954   3.322658   2.550010   0.000000
    15  H    2.660834   3.470600   2.171173   0.999890   0.000000
    16  C    4.011890   4.702128   3.967892   1.510503   2.037097
    17  H    4.553648   4.951918   4.095316   2.077154   2.272428
    18  H    4.396729   4.948456   4.599419   2.154649   2.943280
    19  C    4.677796   5.766889   4.774420   2.464679   2.650275
    20  O    4.199681   5.607537   4.714777   2.659542   2.892274
    21  H    3.243815   4.636495   3.820146   1.842988   2.169179
    22  H    4.824624   5.877829   4.590959   2.691725   2.458602
    23  C    6.044921   7.093594   6.204050   3.796779   4.074365
    24  C    6.391580   7.385859   6.813210   4.282482   4.823447
    25  H    5.807050   6.749167   6.418753   3.906394   4.625533
    26  C    7.781078   8.772502   8.213093   5.681860   6.196383
    27  C    8.479285   9.398025   9.108676   6.578251   7.243734
    28  O    8.835912   9.934948   9.650836   7.193519   7.839771
    29  H    8.712046   9.774161   9.661696   7.267019   7.993436
    30  H    9.435423  10.266180   9.976310   7.432055   8.080414
    31  H    8.017633   8.814643   8.719692   6.232916   7.004840
    32  C    8.718145   9.723513   8.962051   6.491409   6.841614
    33  O    9.990215  10.960321  10.260346   7.768021   8.150327
    34  H   10.483495  11.409267  10.609254   8.168998   8.467713
    35  C    8.415994   9.449993   8.449464   6.132687   6.280507
    36  H    9.276749  10.297079   9.186963   6.978243   7.019874
    37  C    7.101194   8.151344   7.065868   4.830002   4.896710
    38  H    7.123739   8.170667   6.885888   4.913875   4.757336
    39  H    2.235729   3.467507   2.853892   0.999521   1.609270
                   16         17         18         19         20
    16  C    0.000000
    17  H    1.093011   0.000000
    18  H    1.092938   1.765770   0.000000
    19  C    1.561906   2.230716   2.235452   0.000000
    20  O    2.440998   3.357449   2.941720   1.399775   0.000000
    21  H    2.118442   3.074080   2.660691   1.751892   0.974188
    22  H    2.066460   2.309572   3.011311   1.092676   2.012708
    23  C    2.564007   3.044372   2.780187   1.460634   2.331275
    24  C    3.050643   3.687264   2.747964   2.410073   2.898299
    25  H    2.870350   3.680390   2.290584   2.637326   2.859334
    26  C    4.398193   4.904971   4.037021   3.688994   4.137903
    27  C    5.387123   5.966528   4.765552   4.926165   5.185800
    28  O    6.174814   6.899579   5.637823   5.496178   5.415935
    29  H    6.371807   7.167557   5.734994   5.845405   5.638825
    30  H    6.149485   6.595084   5.507180   5.749185   6.155940
    31  H    5.130713   5.747869   4.338783   4.960983   5.190819
    32  C    5.136171   5.442745   4.975865   4.246879   4.859012
    33  O    6.385984   6.649009   6.127556   5.572788   6.155457
    34  H    6.747054   6.870200   6.577656   5.935800   6.652792
    35  C    4.820565   4.983032   4.962381   3.749527   4.508493
    36  H    5.684698   5.715626   5.911476   4.605414   5.394767
    37  C    3.611338   3.798648   3.970423   2.431346   3.308001
    38  H    3.861693   3.881098   4.464876   2.665978   3.555696
    39  H    2.036744   2.885505   2.497324   2.510672   2.161438
                   21         22         23         24         25
    21  H    0.000000
    22  H    2.262171   0.000000
    23  C    2.988476   2.131939   0.000000
    24  C    3.466130   3.347672   1.375578   0.000000
    25  H    3.189733   3.707547   2.163716   1.087547   0.000000
    26  C    4.808499   4.497850   2.368325   1.405177   2.171175
    27  C    5.748908   5.853704   3.776221   2.521113   2.698760
    28  O    6.057692   6.425693   4.426065   3.264682   3.369734
    29  H    6.170875   6.844851   4.946361   3.695778   3.508402
    30  H    6.721929   6.610401   4.503116   3.355632   3.638487
    31  H    5.586635   5.969998   4.041987   2.679049   2.430082
    32  C    5.627214   4.790080   2.787065   2.463033   3.442036
    33  O    6.922929   6.112813   4.113932   3.636114   4.493298
    34  H    7.420364   6.332414   4.489467   4.248867   5.182149
    35  C    5.305230   3.984973   2.406234   2.829928   3.917348
    36  H    6.197362   4.642534   3.376235   3.912679   4.999597
    37  C    4.049499   2.559908   1.345210   2.397628   3.385749
    38  H    4.235120   2.323195   2.125442   3.382958   4.284238
    39  H    1.203467   2.912192   3.821609   4.185330   3.712072
                   26         27         28         29         30
    26  C    0.000000
    27  C    1.552253   0.000000
    28  O    2.392343   1.434144   0.000000
    29  H    3.089076   1.936509   0.974202   0.000000
    30  H    2.195692   1.093468   2.092149   2.610475   0.000000
    31  H    2.234485   1.092983   2.055280   2.042117   1.748752
    32  C    1.404249   2.563189   3.233255   4.112570   2.721352
    33  O    2.334334   2.792456   3.356360   4.275960   2.457735
    34  H    3.085830   3.702607   4.330514   5.249110   3.291639
    35  C    2.422332   3.858567   4.458778   5.310898   4.118647
    36  H    3.426325   4.761950   5.313095   6.215708   4.862529
    37  C    2.757772   4.308818   4.923786   5.627298   4.827707
    38  H    3.843875   5.395041   5.966062   6.666516   5.898936
    39  H    5.581244   6.397956   6.827746   6.837478   7.340419
                   31         32         33         34         35
    31  H    0.000000
    32  C    3.449719   0.000000
    33  O    3.790775   1.334486   0.000000
    34  H    4.645507   1.845922   0.974715   0.000000
    35  C    4.626540   1.426016   2.452692   2.459334   0.000000
    36  H    5.592946   2.205409   2.781451   2.415350   1.086580
    37  C    4.831717   2.449929   3.707945   3.832759   1.426913
    38  H    5.899928   3.426802   4.599948   4.570623   2.162780
    39  H    6.057131   6.483412   7.760842   8.249958   6.209632
                   36         37         38         39
    36  H    0.000000
    37  C    2.175724   0.000000
    38  H    2.472107   1.086776   0.000000
    39  H    7.107731   4.936900   5.096265   0.000000
 Stoichiometry    C13H22NO3(1+)
 Framework group  C1[X(C13H22NO3)]
 Deg. of freedom   111
 Full point group                 C1      NOp   1
 Largest Abelian subgroup         C1      NOp   1
 Largest concise Abelian subgroup C1      NOp   1
                         Standard orientation:                         
 ---------------------------------------------------------------------
 Center     Atomic      Atomic             Coordinates (Angstroms)
 Number     Number       Type             X           Y           Z
 ---------------------------------------------------------------------
      1          6           0        3.739073    1.848976   -0.465332
      2          1           0        2.980647    2.027132   -1.229615
      3          1           0        4.676325    2.349113   -0.718042
      4          1           0        3.433641    2.317116    0.472408
      5          6           0        3.978672    0.340612   -0.306713
      6          6           0        4.363476   -0.332872   -1.557443
      7          1           0        3.571542   -0.443951   -2.302549
      8          1           0        4.688928   -1.359133   -1.378053
      9          1           0        5.196840    0.171611   -2.050750
     10          6           0        5.079400    0.137805    0.708638
     11          1           0        4.766852    0.458503    1.704689
     12          1           0        5.967514    0.714580    0.441060
     13          1           0        5.247214   -0.937049    0.798503
     14          7           0        2.819931   -0.339615    0.294596
     15          1           0        3.118472   -1.265545    0.525479
     16          6           0        1.503676   -0.476674   -0.433624
     17          1           0        1.712320   -1.164804   -1.256800
     18          1           0        1.200924    0.479785   -0.867261
     19          6           0        0.478269   -1.046290    0.597699
     20          8           0        0.676824   -0.481660    1.863061
     21          1           0        1.596075   -0.224975    1.667782
     22          1           0        0.804972   -2.087336    0.656256
     23          6           0       -0.931093   -0.924153    0.234058
     24          6           0       -1.397308    0.351890    0.018255
     25          1           0       -0.751967    1.225803    0.068928
     26          6           0       -2.779294    0.493979   -0.192571
     27          6           0       -3.312521    1.936690   -0.401719
     28          8           0       -3.819374    2.369121    0.868271
     29          1           0       -3.452245    3.261227    1.004036
     30          1           0       -4.095831    1.958011   -1.164375
     31          1           0       -2.552118    2.652213   -0.724869
     32          6           0       -3.630592   -0.606611   -0.382056
     33          8           0       -4.870365   -0.346092   -0.801516
     34          1           0       -5.157873   -1.156082   -1.261216
     35          6           0       -3.091372   -1.907945   -0.160036
     36          1           0       -3.678446   -2.810251   -0.307836
     37          6           0       -1.705838   -2.021476    0.161663
     38          1           0       -1.302032   -3.014187    0.342071
     39          1           0        2.624764    0.130984    1.154532
 ---------------------------------------------------------------------
 Rotational constants (GHZ):           0.9341266           0.1890844           0.1745553
 Leave Link  202 at Sun Jul 18 15:03:38 2021, MaxMem=   104857600 cpu:               0.0 elap:               0.0
 (Enter /dades/curu/g16A03_MST/g16/l301.exe)
 Standard basis: 6-31G(d) (6D, 7F)
 Ernie: Thresh=  0.10000D-02 Tol=  0.10000D-05 Strict=F.
 There are   299 symmetry adapted cartesian basis functions of A   symmetry.
 There are   299 symmetry adapted basis functions of A   symmetry.
   299 basis functions,   564 primitive gaussians,   299 cartesian basis functions
    65 alpha electrons       65 beta electrons
       nuclear repulsion energy      1258.4359909683 Hartrees.
 IExCor=  402 DFT=T Ex+Corr=B3LYP ExCW=0 ScaHFX=  0.200000
 ScaDFX=  0.800000  0.720000  1.000000  0.810000 ScalE2=  1.000000  1.000000
 IRadAn=      5 IRanWt=     -1 IRanGd=            0 ICorTp=0 IEmpDi=  4
 NAtoms=   39 NActive=   39 NUniq=   39 SFac= 1.00D+00 NAtFMM=   60 NAOKFM=F Big=F
 Integral buffers will be    131072 words long.
 Raffenetti 2 integral format.
 Two-electron integral symmetry is turned on.
 Using the following non-standard input for PCM:
 MSTModel=DFT cav MSTCharged
 --- end of non-standard input.
 MST model for solvation energy: B3LYP parametrization.
 MST cavity parameters:
 ISph   IAn     Re0     Alpha   Atom Type   QCorr
 ------------------------------------------------
   1      6     1.50     1.50      CH3        F
   2      1     1.20     1.50      CH3        F
   3      1     1.20     1.50      CH3        F
   4      1     1.20     1.50      CH3        F
   5      6     1.50     1.50      CN+        F
   6      6     1.50     1.50      CH3        F
   7      1     1.20     1.50      CH3        F
   8      1     1.20     1.50      CH3        F
   9      1     1.20     1.50      CH3        F
  10      6     1.50     1.50      CH3        F
  11      1     1.20     1.50      CH3        F
  12      1     1.20     1.50      CH3        F
  13      1     1.20     1.50      CH3        F
  14      7     1.50     1.15      NH+        T
  15      1     0.90     1.15      NH+        T
  16      6     1.50     1.50      CN+        F
  17      1     1.20     1.50      CN+        F
  18      1     1.20     1.50      CN+        F
  19      6     1.50     1.50      CH         F
  20      8     1.40     1.50      OH         F
  21      1     0.90     1.50      OH         F
  22      1     1.20     1.50      CH         F
  23      6     1.50     1.50      C          F
  24      6     1.50     1.50      CH         F
  25      1     1.20     1.50      CH         F
  26      6     1.50     1.50      C          F
  27      6     1.50     1.50      CH2        F
  28      8     1.40     1.50      OH         F
  29      1     0.90     1.50      OH         F
  30      1     1.20     1.50      CH2        F
  31      1     1.20     1.50      CH2        F
  32      6     1.50     1.50      C          F
  33      8     1.40     1.50      OH         F
  34      1     0.90     1.50      OH         F
  35      6     1.50     1.50      CH         F
  36      1     1.20     1.50      CH         F
  37      6     1.50     1.50      CH         F
  38      1     1.20     1.50      CH         F
  39      1     0.90     1.15      NH+        T
 ------------------------------------------------------------------------------
 Polarizable Continuum Model (PCM)
 =================================
 Model                : PCM.
 Atomic radii         : MST.
 Polarization charges : Total charges.
 Charge compensation  : None.
 Solution method      : On-the-fly selection.
 Cavity type          : Scaled VdW (van der Waals Surface) (Alpha=1.500).
 Cavity algorithm     : GePol (No added spheres)
                        Default sphere list used, NSphG=   39.
                        Lebedev-Laikov grids with approx.  5.0 points / Ang**2.
                        Smoothing algorithm: York/Karplus (Gamma=1.0000).
                        Polarization charges: spherical gaussians, with
                                              point-specific exponents (IZeta= 3).
                        Self-potential: point-specific (ISelfS= 7).
                        Self-field    : sphere-specific E.n sum rule (ISelfD= 2).
 1st derivatives      : Analytical E(r).r(x)/FMM algorithm (CHGder, D1EAlg=3).
                        Cavity 1st derivative terms included.
 Solvent              : n-Octanol, Eps=   9.862900 Eps(inf)=   2.043470
 ------------------------------------------------------------------------------
 GePol: Number of generator spheres                  =      39
 GePol: Total number of spheres                      =      39
 GePol: Number of exposed spheres                    =      39 (100.00%)
 GePol: Number of points                             =    3351
 GePol: Average weight of points                     =       0.11
 GePol: Minimum weight of points                     =   0.13D-10
 GePol: Maximum weight of points                     =    0.20676
 GePol: Number of points with low weight             =     231
 GePol: Fraction of low-weight points (<1% of avg)   =       6.89%
 GePol: Cavity surface area                          =    364.958 Ang**2
 GePol: Cavity volume                                =    415.117 Ang**3
 Surface areas from nonelectrostatic (unscaled) cavity and vdw tensions:
 Sphere =    1 Type =  CH3 Surf =        4.870 Tension =       -0.183
 Sphere =    2 Type =  CH3 Surf =       10.013 Tension =       -0.183
 Sphere =    3 Type =  CH3 Surf =        9.958 Tension =       -0.183
 Sphere =    4 Type =  CH3 Surf =       10.093 Tension =       -0.183
 Sphere =    5 Type =  CN+ Surf =        1.541 Tension =       -0.227
 Sphere =    6 Type =  CH3 Surf =        4.456 Tension =       -0.183
 Sphere =    7 Type =  CH3 Surf =        9.554 Tension =       -0.183
 Sphere =    8 Type =  CH3 Surf =        9.685 Tension =       -0.183
 Sphere =    9 Type =  CH3 Surf =       10.073 Tension =       -0.183
 Sphere =   10 Type =  CH3 Surf =        4.322 Tension =       -0.183
 Sphere =   11 Type =  CH3 Surf =        9.955 Tension =       -0.183
 Sphere =   12 Type =  CH3 Surf =       10.016 Tension =       -0.183
 Sphere =   13 Type =  CH3 Surf =        9.596 Tension =       -0.183
 Sphere =   14 Type =  NH+ Surf =        6.110 Tension =       -0.274
 Sphere =   15 Type =  NH+ Surf =        3.818 Tension =       -0.274
 Sphere =   16 Type =  CN+ Surf =        4.040 Tension =       -0.227
 Sphere =   17 Type =  CN+ Surf =        9.432 Tension =       -0.227
 Sphere =   18 Type =  CN+ Surf =        9.504 Tension =       -0.227
 Sphere =   19 Type =  CH  Surf =        2.844 Tension =       -0.195
 Sphere =   20 Type =  OH  Surf =       14.436 Tension =       -0.238
 Sphere =   21 Type =  OH  Surf =        2.078 Tension =       -0.238
 Sphere =   22 Type =  CH  Surf =        9.444 Tension =       -0.195
 Sphere =   23 Type =  C   Surf =        5.568 Tension =       -0.205
 Sphere =   24 Type =  CH  Surf =        7.506 Tension =       -0.195
 Sphere =   25 Type =  CH  Surf =        9.780 Tension =       -0.195
 Sphere =   26 Type =  C   Surf =        6.157 Tension =       -0.205
 Sphere =   27 Type =  CH2 Surf =        4.584 Tension =       -0.194
 Sphere =   28 Type =  OH  Surf =       14.534 Tension =       -0.238
 Sphere =   29 Type =  OH  Surf =        4.430 Tension =       -0.238
 Sphere =   30 Type =  CH2 Surf =        9.656 Tension =       -0.194
 Sphere =   31 Type =  CH2 Surf =       10.013 Tension =       -0.194
 Sphere =   32 Type =  C   Surf =        6.758 Tension =       -0.205
 Sphere =   33 Type =  OH  Surf =       13.697 Tension =       -0.238
 Sphere =   34 Type =  OH  Surf =        4.411 Tension =       -0.238
 Sphere =   35 Type =  CH  Surf =        8.043 Tension =       -0.195
 Sphere =   36 Type =  CH  Surf =       10.260 Tension =       -0.195
 Sphere =   37 Type =  CH  Surf =        7.544 Tension =       -0.195
 Sphere =   38 Type =  CH  Surf =       10.011 Tension =       -0.195
 Sphere =   39 Type =  NH+ Surf =        2.861 Tension =       -0.274
 PCM non-electrostatic energy =        -0.0178350452 Hartrees.
 Nuclear repulsion after PCM non-electrostatic terms =     1258.4181559230 Hartrees.
 Leave Link  301 at Sun Jul 18 15:03:38 2021, MaxMem=   104857600 cpu:               0.2 elap:               0.2
 (Enter /dades/curu/g16A03_MST/g16/l302.exe)
 NPDir=0 NMtPBC=     1 NCelOv=     1 NCel=       1 NClECP=     1 NCelD=      1
         NCelK=      1 NCelE2=     1 NClLst=     1 CellRange=     0.0.
 One-electron integrals computed using PRISM.
 One-electron integral symmetry used in STVInt
 NBasis=   299 RedAO= T EigKep=  4.53D-04  NBF=   299
 NBsUse=   299 1.00D-06 EigRej= -1.00D+00 NBFU=   299
 Precomputing XC quadrature grid using
 IXCGrd= 4 IRadAn=           5 IRanWt=          -1 IRanGd=           0 AccXCQ= 0.00D+00.
 Generated NRdTot=       0 NPtTot=           0 NUsed=           0 NTot=          32
 NSgBfM=   297   297   297   297   297 MxSgAt=    39 MxSgA2=    39.
 Leave Link  302 at Sun Jul 18 15:03:40 2021, MaxMem=   104857600 cpu:               6.5 elap:               1.8
 (Enter /dades/curu/g16A03_MST/g16/l303.exe)
 DipDrv:  MaxL=1.
 Leave Link  303 at Sun Jul 18 15:03:40 2021, MaxMem=   104857600 cpu:               0.1 elap:               0.1
 (Enter /dades/curu/g16A03_MST/g16/l401.exe)
 ExpMin= 1.61D-01 ExpMax= 5.48D+03 ExpMxC= 8.25D+02 IAcc=3 IRadAn=         5 AccDes= 0.00D+00
 Harris functional with IExCor=  402 and IRadAn=       5 diagonalized for initial guess.
 HarFok:  IExCor=  402 AccDes= 0.00D+00 IRadAn=         5 IDoV= 1 UseB2=F ITyADJ=14
 ICtDFT=  3500011 ScaDFX=  1.000000  1.000000  1.000000  1.000000
 FoFCou: FMM=F IPFlag=           0 FMFlag=      100000 FMFlg1=           0
         NFxFlg=           0 DoJE=T BraDBF=F KetDBF=T FulRan=T
         wScrn=  0.000000 ICntrl=       500 IOpCl=  0 I1Cent=   200000004 NGrid=           0
         NMat0=    1 NMatS0=      1 NMatT0=    0 NMatD0=    1 NMtDS0=    0 NMtDT0=    0
 Petite list used in FoFCou.
 Harris En= -788.826078778992    
 JPrj=0 DoOrth=F DoCkMO=F.
 Leave Link  401 at Sun Jul 18 15:03:48 2021, MaxMem=   104857600 cpu:              32.6 elap:               8.2
 (Enter /dades/curu/g16A03_MST/g16/l502.exe)
 Integral symmetry usage will be decided dynamically.
 Closed shell SCF:
 Using DIIS extrapolation, IDIIS=  1040.
 NGot=   104857600 LenX=   104673418 LenY=   104583576
 Requested convergence on RMS density matrix=1.00D-08 within 128 cycles.
 Requested convergence on MAX density matrix=1.00D-06.
 Requested convergence on             energy=1.00D-06.
 No special actions if energy rises.
 Fock matrices will be formed incrementally for  20 cycles.

 Cycle   1  Pass 1  IDiag  1:
 FoFJK:  IHMeth= 1 ICntrl=       0 DoSepK=F KAlg= 0 I1Cent=           0 FoldK=F
 IRaf= 790000000 NMat=       1 IRICut=       1 DoRegI=T DoRafI=F ISym2E= 0 IDoP0=0 IntGTp=1.
 FoFCou: FMM=F IPFlag=           0 FMFlag=      100000 FMFlg1=           0
         NFxFlg=           0 DoJE=F BraDBF=F KetDBF=F FulRan=T
         wScrn=  0.000000 ICntrl=         0 IOpCl=  0 I1Cent=           0 NGrid=           0
         NMat0=    1 NMatS0=      1 NMatT0=    0 NMatD0=    1 NMtDS0=    0 NMtDT0=    0
 Symmetry not used in FoFCou.
 Inv3:  Mode=1 IEnd=    33687603.
 Iteration    1 A*A^-1 deviation from unit magnitude is 6.99D-15 for   3329.
 Iteration    1 A*A^-1 deviation from orthogonality  is 4.03D-15 for   3308   1594.
 Iteration    1 A^-1*A deviation from unit magnitude is 6.99D-15 for   3329.
 Iteration    1 A^-1*A deviation from orthogonality  is 2.08D-15 for   3346    826.
 E= -788.382544582918    
 DIIS: error= 3.06D-02 at cycle   1 NSaved=   1.
 NSaved= 1 IEnMin= 1 EnMin= -788.382544582918     IErMin= 1 ErrMin= 3.06D-02
 ErrMax= 3.06D-02  0.00D+00 EMaxC= 1.00D-01 BMatC= 4.68D-01 BMatP= 4.68D-01
 IDIUse=3 WtCom= 6.94D-01 WtEn= 3.06D-01
 Coeff-Com:  0.100D+01
 Coeff-En:   0.100D+01
 Coeff:      0.100D+01
 Gap=     0.222 Goal=   None    Shift=    0.000
 GapD=    0.222 DampG=1.000 DampE=0.500 DampFc=0.5000 IDamp=-1.
 Damping current iteration by 5.00D-01
 RMSDP=4.88D-03 MaxDP=1.33D-01              OVMax= 1.75D-01

 Cycle   2  Pass 1  IDiag  1:
 RMSU=  2.42D-03    CP:  9.83D-01
 E= -788.579758484524     Delta-E=       -0.197213901605 Rises=F Damp=T
 DIIS: error= 6.79D-03 at cycle   2 NSaved=   2.
 NSaved= 2 IEnMin= 2 EnMin= -788.579758484524     IErMin= 2 ErrMin= 6.79D-03
 ErrMax= 6.79D-03  0.00D+00 EMaxC= 1.00D-01 BMatC= 2.72D-02 BMatP= 4.68D-01
 IDIUse=3 WtCom= 9.32D-01 WtEn= 6.79D-02
 Coeff-Com:  0.723D-01 0.928D+00
 Coeff-En:   0.112D+00 0.888D+00
 Coeff:      0.750D-01 0.925D+00
 Gap=     0.261 Goal=   None    Shift=    0.000
 RMSDP=1.15D-03 MaxDP=3.06D-02 DE=-1.97D-01 OVMax= 1.18D-01

 Cycle   3  Pass 1  IDiag  1:
 RMSU=  1.11D-03    CP:  9.76D-01  8.88D-01
 E= -788.814499635500     Delta-E=       -0.234741150977 Rises=F Damp=F
 DIIS: error= 6.74D-03 at cycle   3 NSaved=   3.
 NSaved= 3 IEnMin= 3 EnMin= -788.814499635500     IErMin= 3 ErrMin= 6.74D-03
 ErrMax= 6.74D-03  0.00D+00 EMaxC= 1.00D-01 BMatC= 1.42D-02 BMatP= 2.72D-02
 IDIUse=3 WtCom= 9.33D-01 WtEn= 6.74D-02
 Coeff-Com: -0.872D-02 0.402D+00 0.607D+00
 Coeff-En:   0.000D+00 0.000D+00 0.100D+01
 Coeff:     -0.814D-02 0.374D+00 0.634D+00
 Gap=     0.212 Goal=   None    Shift=    0.000
 RMSDP=5.54D-04 MaxDP=2.08D-02 DE=-2.35D-01 OVMax= 4.30D-02

 Cycle   4  Pass 1  IDiag  1:
 RMSU=  4.39D-04    CP:  9.78D-01  9.24D-01  7.10D-01
 E= -788.823104038915     Delta-E=       -0.008604403414 Rises=F Damp=F
 DIIS: error= 2.91D-03 at cycle   4 NSaved=   4.
 NSaved= 4 IEnMin= 4 EnMin= -788.823104038915     IErMin= 4 ErrMin= 2.91D-03
 ErrMax= 2.91D-03  0.00D+00 EMaxC= 1.00D-01 BMatC= 4.03D-03 BMatP= 1.42D-02
 IDIUse=3 WtCom= 9.71D-01 WtEn= 2.91D-02
 Coeff-Com: -0.107D-01 0.764D-01 0.365D+00 0.570D+00
 Coeff-En:   0.000D+00 0.000D+00 0.252D+00 0.748D+00
 Coeff:     -0.104D-01 0.742D-01 0.361D+00 0.575D+00
 Gap=     0.210 Goal=   None    Shift=    0.000
 RMSDP=2.45D-04 MaxDP=7.48D-03 DE=-8.60D-03 OVMax= 1.98D-02

 Cycle   5  Pass 1  IDiag  1:
 RMSU=  1.07D-04    CP:  9.77D-01  9.18D-01  7.96D-01  5.53D-01
 E= -788.826682030875     Delta-E=       -0.003577991960 Rises=F Damp=F
 DIIS: error= 6.76D-04 at cycle   5 NSaved=   5.
 NSaved= 5 IEnMin= 5 EnMin= -788.826682030875     IErMin= 5 ErrMin= 6.76D-04
 ErrMax= 6.76D-04  0.00D+00 EMaxC= 1.00D-01 BMatC= 2.01D-04 BMatP= 4.03D-03
 IDIUse=3 WtCom= 9.93D-01 WtEn= 6.76D-03
 Coeff-Com: -0.470D-02 0.194D-01 0.161D+00 0.304D+00 0.520D+00
 Coeff-En:   0.000D+00 0.000D+00 0.000D+00 0.000D+00 0.100D+01
 Coeff:     -0.467D-02 0.193D-01 0.160D+00 0.302D+00 0.523D+00
 Gap=     0.210 Goal=   None    Shift=    0.000
 RMSDP=6.79D-05 MaxDP=2.69D-03 DE=-3.58D-03 OVMax= 7.25D-03

 Cycle   6  Pass 1  IDiag  1:
 RMSU=  3.97D-05    CP:  9.77D-01  9.21D-01  7.88D-01  6.03D-01  5.40D-01
 E= -788.826870427926     Delta-E=       -0.000188397052 Rises=F Damp=F
 DIIS: error= 2.40D-04 at cycle   6 NSaved=   6.
 NSaved= 6 IEnMin= 6 EnMin= -788.826870427926     IErMin= 6 ErrMin= 2.40D-04
 ErrMax= 2.40D-04  0.00D+00 EMaxC= 1.00D-01 BMatC= 2.55D-05 BMatP= 2.01D-04
 IDIUse=3 WtCom= 9.98D-01 WtEn= 2.40D-03
 Coeff-Com: -0.132D-02 0.188D-02 0.469D-01 0.103D+00 0.304D+00 0.545D+00
 Coeff-En:   0.000D+00 0.000D+00 0.000D+00 0.000D+00 0.861D-01 0.914D+00
 Coeff:     -0.132D-02 0.187D-02 0.468D-01 0.102D+00 0.304D+00 0.546D+00
 Gap=     0.210 Goal=   None    Shift=    0.000
 RMSDP=1.94D-05 MaxDP=6.51D-04 DE=-1.88D-04 OVMax= 1.85D-03

 Cycle   7  Pass 1  IDiag  1:
 RMSU=  7.62D-06    CP:  9.77D-01  9.20D-01  7.93D-01  5.98D-01  6.13D-01
                    CP:  6.30D-01
 E= -788.826895138149     Delta-E=       -0.000024710222 Rises=F Damp=F
 DIIS: error= 3.86D-05 at cycle   7 NSaved=   7.
 NSaved= 7 IEnMin= 7 EnMin= -788.826895138149     IErMin= 7 ErrMin= 3.86D-05
 ErrMax= 3.86D-05  0.00D+00 EMaxC= 1.00D-01 BMatC= 8.42D-07 BMatP= 2.55D-05
 IDIUse=1 WtCom= 1.00D+00 WtEn= 0.00D+00
 Coeff-Com: -0.456D-03 0.119D-03 0.166D-01 0.385D-01 0.130D+00 0.268D+00
 Coeff-Com:  0.547D+00
 Coeff:     -0.456D-03 0.119D-03 0.166D-01 0.385D-01 0.130D+00 0.268D+00
 Coeff:      0.547D+00
 Gap=     0.210 Goal=   None    Shift=    0.000
 RMSDP=3.69D-06 MaxDP=1.53D-04 DE=-2.47D-05 OVMax= 2.82D-04

 Cycle   8  Pass 1  IDiag  1:
 RMSU=  2.31D-06    CP:  9.77D-01  9.20D-01  7.93D-01  6.00D-01  6.15D-01
                    CP:  6.46D-01  6.46D-01
 E= -788.826895867223     Delta-E=       -0.000000729075 Rises=F Damp=F
 DIIS: error= 1.13D-05 at cycle   8 NSaved=   8.
 NSaved= 8 IEnMin= 8 EnMin= -788.826895867223     IErMin= 8 ErrMin= 1.13D-05
 ErrMax= 1.13D-05  0.00D+00 EMaxC= 1.00D-01 BMatC= 5.28D-08 BMatP= 8.42D-07
 IDIUse=1 WtCom= 1.00D+00 WtEn= 0.00D+00
 Coeff-Com: -0.605D-04-0.148D-03 0.239D-02 0.620D-02 0.253D-01 0.589D-01
 Coeff-Com:  0.239D+00 0.669D+00
 Coeff:     -0.605D-04-0.148D-03 0.239D-02 0.620D-02 0.253D-01 0.589D-01
 Coeff:      0.239D+00 0.669D+00
 Gap=     0.210 Goal=   None    Shift=    0.000
 RMSDP=9.77D-07 MaxDP=3.89D-05 DE=-7.29D-07 OVMax= 7.76D-05

 Cycle   9  Pass 1  IDiag  1:
 RMSU=  6.13D-07    CP:  9.77D-01  9.20D-01  7.93D-01  6.00D-01  6.17D-01
                    CP:  6.45D-01  6.86D-01  7.20D-01
 E= -788.826895909939     Delta-E=       -0.000000042716 Rises=F Damp=F
 DIIS: error= 2.06D-06 at cycle   9 NSaved=   9.
 NSaved= 9 IEnMin= 9 EnMin= -788.826895909939     IErMin= 9 ErrMin= 2.06D-06
 ErrMax= 2.06D-06  0.00D+00 EMaxC= 1.00D-01 BMatC= 4.81D-09 BMatP= 5.28D-08
 IDIUse=1 WtCom= 1.00D+00 WtEn= 0.00D+00
 Coeff-Com:  0.271D-05-0.779D-04-0.369D-04 0.237D-03 0.265D-02 0.852D-02
 Coeff-Com:  0.721D-01 0.309D+00 0.608D+00
 Coeff:      0.271D-05-0.779D-04-0.369D-04 0.237D-03 0.265D-02 0.852D-02
 Coeff:      0.721D-01 0.309D+00 0.608D+00
 Gap=     0.210 Goal=   None    Shift=    0.000
 RMSDP=2.76D-07 MaxDP=1.05D-05 DE=-4.27D-08 OVMax= 2.06D-05

 Cycle  10  Pass 1  IDiag  1:
 RMSU=  1.91D-07    CP:  9.77D-01  9.20D-01  7.93D-01  6.00D-01  6.17D-01
                    CP:  6.46D-01  6.90D-01  7.61D-01  7.37D-01
 E= -788.826895913814     Delta-E=       -0.000000003875 Rises=F Damp=F
 DIIS: error= 7.38D-07 at cycle  10 NSaved=  10.
 NSaved=10 IEnMin=10 EnMin= -788.826895913814     IErMin=10 ErrMin= 7.38D-07
 ErrMax= 7.38D-07  0.00D+00 EMaxC= 1.00D-01 BMatC= 6.01D-10 BMatP= 4.81D-09
 IDIUse=1 WtCom= 1.00D+00 WtEn= 0.00D+00
 Coeff-Com:  0.665D-05-0.230D-04-0.270D-03-0.526D-03-0.128D-02-0.163D-02
 Coeff-Com:  0.132D-01 0.903D-01 0.312D+00 0.589D+00
 Coeff:      0.665D-05-0.230D-04-0.270D-03-0.526D-03-0.128D-02-0.163D-02
 Coeff:      0.132D-01 0.903D-01 0.312D+00 0.589D+00
 Gap=     0.210 Goal=   None    Shift=    0.000
 RMSDP=9.93D-08 MaxDP=3.68D-06 DE=-3.88D-09 OVMax= 1.05D-05

 Cycle  11  Pass 1  IDiag  1:
 RMSU=  5.78D-08    CP:  9.77D-01  9.20D-01  7.93D-01  6.00D-01  6.17D-01
                    CP:  6.46D-01  6.92D-01  7.69D-01  7.94D-01  6.43D-01
 E= -788.826895914329     Delta-E=       -0.000000000515 Rises=F Damp=F
 DIIS: error= 3.20D-07 at cycle  11 NSaved=  11.
 NSaved=11 IEnMin=11 EnMin= -788.826895914329     IErMin=11 ErrMin= 3.20D-07
 ErrMax= 3.20D-07  0.00D+00 EMaxC= 1.00D-01 BMatC= 5.50D-11 BMatP= 6.01D-10
 IDIUse=1 WtCom= 1.00D+00 WtEn= 0.00D+00
 Coeff-Com:  0.319D-05-0.704D-05-0.149D-03-0.310D-03-0.893D-03-0.145D-02
 Coeff-Com:  0.277D-02 0.300D-01 0.134D+00 0.322D+00 0.514D+00
 Coeff:      0.319D-05-0.704D-05-0.149D-03-0.310D-03-0.893D-03-0.145D-02
 Coeff:      0.277D-02 0.300D-01 0.134D+00 0.322D+00 0.514D+00
 Gap=     0.210 Goal=   None    Shift=    0.000
 RMSDP=3.15D-08 MaxDP=1.13D-06 DE=-5.15D-10 OVMax= 3.01D-06

 Cycle  12  Pass 1  IDiag  1:
 RMSU=  1.95D-08    CP:  9.77D-01  9.20D-01  7.93D-01  6.00D-01  6.17D-01
                    CP:  6.46D-01  6.92D-01  7.71D-01  7.93D-01  6.99D-01
                    CP:  6.33D-01
 E= -788.826895914350     Delta-E=       -0.000000000021 Rises=F Damp=F
 DIIS: error= 7.43D-08 at cycle  12 NSaved=  12.
 NSaved=12 IEnMin=12 EnMin= -788.826895914350     IErMin=12 ErrMin= 7.43D-08
 ErrMax= 7.43D-08  0.00D+00 EMaxC= 1.00D-01 BMatC= 3.54D-12 BMatP= 5.50D-11
 IDIUse=1 WtCom= 1.00D+00 WtEn= 0.00D+00
 Coeff-Com:  0.336D-06 0.216D-06-0.295D-04-0.660D-04-0.222D-03-0.394D-03
 Coeff-Com: -0.382D-03 0.149D-02 0.184D-01 0.645D-01 0.230D+00 0.686D+00
 Coeff:      0.336D-06 0.216D-06-0.295D-04-0.660D-04-0.222D-03-0.394D-03
 Coeff:     -0.382D-03 0.149D-02 0.184D-01 0.645D-01 0.230D+00 0.686D+00
 Gap=     0.210 Goal=   None    Shift=    0.000
 RMSDP=9.49D-09 MaxDP=4.33D-07 DE=-2.07D-11 OVMax= 1.48D-06

 Error on total polarization charges =  0.00854
 SCF Done:  E(RB3LYP) =  -788.826895914     A.U. after   12 cycles
            NFock= 12  Conv=0.95D-08     -V/T= 2.0085
 KE= 7.822073039692D+02 PE=-4.334341340168D+03 EE= 1.504888984361D+03
 Leave Link  502 at Sun Jul 18 15:07:33 2021, MaxMem=   104857600 cpu:             868.3 elap:             225.1
 (Enter /dades/curu/g16A03_MST/g16/l601.exe)
 Copying SCF densities to generalized density rwf, IOpCl= 0 IROHF=0.

 **********************************************************************

            Population analysis using the SCF density.

 **********************************************************************

 Orbital symmetries:
       Occupied  (A) (A) (A) (A) (A) (A) (A) (A) (A) (A) (A) (A)
                 (A) (A) (A) (A) (A) (A) (A) (A) (A) (A) (A) (A)
                 (A) (A) (A) (A) (A) (A) (A) (A) (A) (A) (A) (A)
                 (A) (A) (A) (A) (A) (A) (A) (A) (A) (A) (A) (A)
                 (A) (A) (A) (A) (A) (A) (A) (A) (A) (A) (A) (A)
                 (A) (A) (A) (A) (A)
       Virtual   (A) (A) (A) (A) (A) (A) (A) (A) (A) (A) (A) (A)
                 (A) (A) (A) (A) (A) (A) (A) (A) (A) (A) (A) (A)
                 (A) (A) (A) (A) (A) (A) (A) (A) (A) (A) (A) (A)
                 (A) (A) (A) (A) (A) (A) (A) (A) (A) (A) (A) (A)
                 (A) (A) (A) (A) (A) (A) (A) (A) (A) (A) (A) (A)
                 (A) (A) (A) (A) (A) (A) (A) (A) (A) (A) (A) (A)
                 (A) (A) (A) (A) (A) (A) (A) (A) (A) (A) (A) (A)
                 (A) (A) (A) (A) (A) (A) (A) (A) (A) (A) (A) (A)
                 (A) (A) (A) (A) (A) (A) (A) (A) (A) (A) (A) (A)
                 (A) (A) (A) (A) (A) (A) (A) (A) (A) (A) (A) (A)
                 (A) (A) (A) (A) (A) (A) (A) (A) (A) (A) (A) (A)
                 (A) (A) (A) (A) (A) (A) (A) (A) (A) (A) (A) (A)
                 (A) (A) (A) (A) (A) (A) (A) (A) (A) (A) (A) (A)
                 (A) (A) (A) (A) (A) (A) (A) (A) (A) (A) (A) (A)
                 (A) (A) (A) (A) (A) (A) (A) (A) (A) (A) (A) (A)
                 (A) (A) (A) (A) (A) (A) (A) (A) (A) (A) (A) (A)
                 (A) (A) (A) (A) (A) (A) (A) (A) (A) (A) (A) (A)
                 (A) (A) (A) (A) (A) (A) (A) (A) (A) (A) (A) (A)
                 (A) (A) (A) (A) (A) (A) (A) (A) (A) (A) (A) (A)
                 (A) (A) (A) (A) (A) (A)
 The electronic state is 1-A.
 Alpha  occ. eigenvalues --  -19.19478 -19.18715 -19.14367 -14.49567 -10.29093
 Alpha  occ. eigenvalues --  -10.28678 -10.27644 -10.26812 -10.23898 -10.21823
 Alpha  occ. eigenvalues --  -10.21659 -10.21391 -10.20831 -10.20751 -10.20732
 Alpha  occ. eigenvalues --  -10.20617 -10.19961  -1.10229  -1.08671  -1.05782
 Alpha  occ. eigenvalues --   -1.01430  -0.87871  -0.86876  -0.80877  -0.77576
 Alpha  occ. eigenvalues --   -0.76075  -0.74709  -0.73301  -0.68763  -0.67570
 Alpha  occ. eigenvalues --   -0.66111  -0.64470  -0.63307  -0.59123  -0.56374
 Alpha  occ. eigenvalues --   -0.55791  -0.54713  -0.52531  -0.51137  -0.50703
 Alpha  occ. eigenvalues --   -0.49725  -0.48544  -0.47539  -0.47047  -0.45852
 Alpha  occ. eigenvalues --   -0.44158  -0.43950  -0.43448  -0.42827  -0.42689
 Alpha  occ. eigenvalues --   -0.42549  -0.41555  -0.40710  -0.40277  -0.39381
 Alpha  occ. eigenvalues --   -0.39207  -0.37465  -0.36987  -0.36408  -0.34956
 Alpha  occ. eigenvalues --   -0.33669  -0.30614  -0.27224  -0.25813  -0.23845
 Alpha virt. eigenvalues --   -0.02811  -0.01317   0.00823   0.04555   0.06409
 Alpha virt. eigenvalues --    0.06696   0.06829   0.07150   0.08016   0.08441
 Alpha virt. eigenvalues --    0.09948   0.10386   0.12055   0.12665   0.12762
 Alpha virt. eigenvalues --    0.13110   0.14027   0.14725   0.15357   0.15925
 Alpha virt. eigenvalues --    0.16376   0.17205   0.17583   0.17616   0.18402
 Alpha virt. eigenvalues --    0.18936   0.19787   0.20178   0.21287   0.21821
 Alpha virt. eigenvalues --    0.22105   0.23921   0.23942   0.25203   0.28494
 Alpha virt. eigenvalues --    0.30619   0.31268   0.32945   0.35876   0.38968
 Alpha virt. eigenvalues --    0.42959   0.45126   0.46131   0.47550   0.48017
 Alpha virt. eigenvalues --    0.48403   0.50066   0.51055   0.51573   0.53245
 Alpha virt. eigenvalues --    0.53664   0.54220   0.54989   0.56118   0.56776
 Alpha virt. eigenvalues --    0.57771   0.58848   0.59747   0.59865   0.60303
 Alpha virt. eigenvalues --    0.63376   0.63625   0.64079   0.64721   0.66149
 Alpha virt. eigenvalues --    0.67505   0.69236   0.70305   0.70821   0.71781
 Alpha virt. eigenvalues --    0.72843   0.74716   0.77153   0.78337   0.78665
 Alpha virt. eigenvalues --    0.79365   0.79832   0.81436   0.81601   0.81955
 Alpha virt. eigenvalues --    0.83602   0.84005   0.84362   0.84983   0.85312
 Alpha virt. eigenvalues --    0.85979   0.86720   0.86995   0.87473   0.87846
 Alpha virt. eigenvalues --    0.89476   0.89727   0.89993   0.90884   0.91977
 Alpha virt. eigenvalues --    0.92399   0.93792   0.94645   0.95217   0.96554
 Alpha virt. eigenvalues --    0.97191   0.97891   0.98675   1.00103   1.00397
 Alpha virt. eigenvalues --    1.01245   1.01777   1.04839   1.06091   1.07925
 Alpha virt. eigenvalues --    1.09945   1.11241   1.12702   1.15943   1.17812
 Alpha virt. eigenvalues --    1.18147   1.20454   1.23268   1.25601   1.26897
 Alpha virt. eigenvalues --    1.27529   1.29312   1.31683   1.32897   1.37968
 Alpha virt. eigenvalues --    1.39580   1.40041   1.41616   1.43222   1.46312
 Alpha virt. eigenvalues --    1.46603   1.48348   1.51229   1.55132   1.58298
 Alpha virt. eigenvalues --    1.61754   1.62350   1.64270   1.65183   1.66220
 Alpha virt. eigenvalues --    1.69609   1.70088   1.70874   1.73905   1.74747
 Alpha virt. eigenvalues --    1.75930   1.76748   1.78105   1.78391   1.80871
 Alpha virt. eigenvalues --    1.81365   1.83289   1.84167   1.85905   1.87592
 Alpha virt. eigenvalues --    1.89948   1.90852   1.91420   1.94417   1.95686
 Alpha virt. eigenvalues --    1.96823   1.97296   1.99005   2.00269   2.03509
 Alpha virt. eigenvalues --    2.04606   2.05232   2.06780   2.08476   2.09486
 Alpha virt. eigenvalues --    2.09881   2.11197   2.12879   2.14416   2.19071
 Alpha virt. eigenvalues --    2.19810   2.21088   2.22176   2.22737   2.23739
 Alpha virt. eigenvalues --    2.23917   2.24967   2.25530   2.27830   2.29093
 Alpha virt. eigenvalues --    2.31411   2.33393   2.35079   2.35958   2.39867
 Alpha virt. eigenvalues --    2.41377   2.42903   2.45213   2.46146   2.49711
 Alpha virt. eigenvalues --    2.54370   2.56500   2.57524   2.60099   2.60696
 Alpha virt. eigenvalues --    2.62601   2.66004   2.66941   2.68859   2.70647
 Alpha virt. eigenvalues --    2.72318   2.74045   2.74908   2.76339   2.80296
 Alpha virt. eigenvalues --    2.85674   2.88408   2.94753   2.95009   2.97655
 Alpha virt. eigenvalues --    3.16623   3.40663   3.70005   3.82897   3.97999
 Alpha virt. eigenvalues --    4.03648   4.09476   4.13846   4.18800   4.21860
 Alpha virt. eigenvalues --    4.23035   4.27131   4.27720   4.31013   4.43508
 Alpha virt. eigenvalues --    4.47226   4.54813   4.61762   4.78629
          Condensed to atoms (all electrons):
               1          2          3          4          5          6
     1  C    5.157149   0.368220   0.376984   0.367540   0.393759  -0.064864
     2  H    0.368220   0.525052  -0.019089  -0.026300  -0.031465  -0.004468
     3  H    0.376984  -0.019089   0.495790  -0.028264  -0.022775  -0.004048
     4  H    0.367540  -0.026300  -0.028264   0.530455  -0.025860   0.005198
     5  C    0.393759  -0.031465  -0.022775  -0.025860   4.778342   0.398252
     6  C   -0.064864  -0.004468  -0.004048   0.005198   0.398252   5.188025
     7  H   -0.003566   0.002397  -0.000073  -0.000070  -0.024967   0.365178
     8  H    0.005704  -0.000094   0.000002  -0.000174  -0.027988   0.367882
     9  H   -0.004930  -0.000042   0.002225   0.000069  -0.025631   0.378477
    10  C   -0.072467   0.005795  -0.005053  -0.004951   0.397791  -0.081138
    11  H   -0.005605  -0.000061  -0.000071   0.002532  -0.029996   0.006669
    12  H   -0.004520   0.000045   0.003483  -0.000102  -0.025941  -0.002549
    13  H    0.006592  -0.000229   0.000094  -0.000056  -0.030766  -0.009770
    14  N   -0.062941  -0.002298   0.004050  -0.004201   0.198559  -0.068127
    15  H    0.005390  -0.000214  -0.000095  -0.000091  -0.019108  -0.004068
    16  C   -0.003514   0.001721   0.000078  -0.000186  -0.025202  -0.004257
    17  H   -0.000151  -0.000004  -0.000008   0.000008  -0.002984   0.003693
    18  H    0.003693   0.002619  -0.000051  -0.000000  -0.002469  -0.001118
    19  C   -0.000091  -0.000041   0.000000  -0.000018   0.003910   0.000049
    20  O    0.000034   0.000005   0.000000  -0.000023   0.000404  -0.000037
    21  H   -0.000217   0.000036   0.000004  -0.000114  -0.000192   0.000131
    22  H    0.000008   0.000000   0.000000   0.000001  -0.000401  -0.000026
    23  C    0.000007   0.000006  -0.000000  -0.000002   0.000050  -0.000007
    24  C   -0.000016  -0.000017   0.000000  -0.000002  -0.000016   0.000001
    25  H    0.000020   0.000004  -0.000000   0.000018  -0.000005   0.000001
    26  C   -0.000000  -0.000000   0.000000   0.000000  -0.000000  -0.000000
    27  C   -0.000000  -0.000000   0.000000  -0.000000   0.000000  -0.000000
    28  O    0.000000  -0.000000  -0.000000  -0.000000  -0.000000   0.000000
    29  H    0.000000   0.000000   0.000000  -0.000000  -0.000000   0.000000
    30  H    0.000000   0.000000  -0.000000  -0.000000  -0.000000   0.000000
    31  H   -0.000000   0.000000   0.000000  -0.000000  -0.000000   0.000000
    32  C    0.000000   0.000000  -0.000000   0.000000  -0.000000   0.000000
    33  O    0.000000   0.000000  -0.000000  -0.000000  -0.000000  -0.000000
    34  H    0.000000   0.000000   0.000000   0.000000  -0.000000   0.000000
    35  C   -0.000000  -0.000000   0.000000  -0.000000  -0.000000  -0.000000
    36  H   -0.000000  -0.000000   0.000000  -0.000000   0.000000   0.000000
    37  C    0.000000   0.000000  -0.000000  -0.000000   0.000001  -0.000000
    38  H   -0.000000  -0.000000   0.000000   0.000000   0.000000  -0.000000
    39  H   -0.001370  -0.000435  -0.000158   0.005359  -0.014600   0.005094
               7          8          9         10         11         12
     1  C   -0.003566   0.005704  -0.004930  -0.072467  -0.005605  -0.004520
     2  H    0.002397  -0.000094  -0.000042   0.005795  -0.000061   0.000045
     3  H   -0.000073   0.000002   0.002225  -0.005053  -0.000071   0.003483
     4  H   -0.000070  -0.000174   0.000069  -0.004951   0.002532  -0.000102
     5  C   -0.024967  -0.027988  -0.025631   0.397791  -0.029996  -0.025941
     6  C    0.365178   0.367882   0.378477  -0.081138   0.006669  -0.002549
     7  H    0.529812  -0.034628  -0.020768   0.006023  -0.000223  -0.000018
     8  H   -0.034628   0.539263  -0.023490  -0.010294   0.000117  -0.000082
     9  H   -0.020768  -0.023490   0.490448  -0.002416  -0.000007   0.001615
    10  C    0.006023  -0.010294  -0.002416   5.200528   0.366227   0.377921
    11  H   -0.000223   0.000117  -0.000007   0.366227   0.535763  -0.022169
    12  H   -0.000018  -0.000082   0.001615   0.377921  -0.022169   0.483303
    13  H    0.000016   0.006244  -0.000163   0.364227  -0.032556  -0.014760
    14  N   -0.005357  -0.003154   0.004517  -0.074573  -0.004884   0.004650
    15  H   -0.000387   0.004143  -0.000121  -0.004468  -0.000753  -0.000028
    16  C    0.003022  -0.000611   0.000116   0.005261  -0.000041  -0.000103
    17  H    0.001614   0.000346  -0.000025  -0.000095  -0.000011   0.000002
    18  H    0.000049   0.000058  -0.000031   0.000067  -0.000004   0.000002
    19  C    0.000088  -0.000044  -0.000000  -0.000224  -0.000007   0.000002
    20  O   -0.000001   0.000001   0.000000   0.000004  -0.000037  -0.000000
    21  H   -0.000006  -0.000012  -0.000002  -0.000273  -0.000175   0.000002
    22  H    0.000003   0.000007  -0.000000   0.000000  -0.000001  -0.000000
    23  C    0.000002  -0.000000   0.000000   0.000002   0.000000  -0.000000
    24  C    0.000001  -0.000000  -0.000000  -0.000000  -0.000000  -0.000000
    25  H   -0.000000  -0.000000   0.000000  -0.000000  -0.000000   0.000000
    26  C    0.000000   0.000000   0.000000  -0.000000   0.000000   0.000000
[...]
    36  H   -0.000139   0.000078  -0.000026  -0.000038  -0.000004   0.000005
    37  C    0.012633   0.003117  -0.003157   0.005960   0.000312  -0.001528
    38  H   -0.000847  -0.000794   0.000515   0.000283   0.000118  -0.000092
    39  H    0.016294  -0.001587  -0.010366  -0.008822  -0.014919   0.003471
              13         14         15         16         17         18
     1  C   -0.016321   0.110758  -0.015117  -0.011038   0.041954  -0.072226
     2  H   -0.016701  -0.071595   0.012759   0.067818  -0.027480  -0.012540
     3  H    0.012096   0.069750  -0.007192  -0.011005   0.007460  -0.012959
     4  H    0.014527  -0.060343   0.000146   0.072613  -0.000981   0.009023
     5  C    0.239538  -1.656782  -0.080987  -0.277566   0.073343   0.021860
     6  C   -0.027739   0.254985   0.026958  -0.160654  -0.115530   0.064418
     7  H    0.015358  -0.040546  -0.027239   0.092115   0.024719  -0.027156
     8  H   -0.034312  -0.055287   0.010967   0.090065  -0.004861  -0.013716
     9  H   -0.004897   0.027260   0.011491  -0.032107  -0.007529   0.014034
    10  C    0.174729   0.190374  -0.017115  -0.016717  -0.003778   0.038502
    11  H   -0.299048  -0.000120  -0.004779  -0.019545  -0.001148   0.008311
    12  H   -0.248083   0.038255   0.002633   0.022904  -0.000477  -0.006117
    13  H    1.308163  -0.117096  -0.006287   0.037023   0.003640   0.002462
    14  N   -0.117096   9.957628   0.313349  -1.133478  -0.267979  -0.101254
    15  H   -0.006287   0.313349   0.686641  -0.008523  -0.064736   0.033118
    16  C    0.037023  -1.133478  -0.008523   7.268545   0.081280   0.113467
    17  H    0.003640  -0.267979  -0.064736   0.081280   1.756427  -0.220806
    18  H    0.002462  -0.101254   0.033118   0.113467  -0.220806   1.839622
    19  C   -0.002671  -1.061863   0.045538   0.157313   0.178875  -0.560969
    20  O   -0.002422   0.020116  -0.000734  -0.076059   0.033065   0.051718
    21  H   -0.000333  -0.003856   0.000724  -0.041226   0.002596  -0.016295
    22  H    0.002734  -0.002406  -0.021724   0.262143  -0.092854   0.122627
    23  C   -0.011653   1.061852  -0.021386  -0.527294  -0.224922  -0.079531
    24  C   -0.002886   0.059829   0.041328  -1.134554   0.000475   0.137756
    25  H    0.000089   0.022656  -0.006179   0.090108   0.017965  -0.031565
    26  C   -0.000591   0.085759  -0.002465  -0.063200  -0.005635  -0.167203
    27  C   -0.000010   0.006564   0.000273  -0.052946  -0.004549  -0.029375
    28  O   -0.000001   0.000127   0.000039   0.001302   0.000049  -0.000551
    29  H   -0.000001   0.000120   0.000011   0.000194   0.000001  -0.000188
    30  H    0.000003  -0.000169  -0.000056  -0.006056  -0.000008  -0.000530
    31  H    0.000004  -0.000419   0.000155  -0.006651  -0.000800  -0.000082
    32  C    0.000046  -0.013239   0.002954  -0.114475  -0.013405   0.030053
    33  O    0.000001  -0.000071  -0.000036   0.000537   0.000832  -0.000978
    34  H   -0.000002   0.000108   0.000074   0.001034  -0.000383   0.000574
    35  C    0.000320   0.000348  -0.004859   0.419013   0.014322  -0.012873
    36  H   -0.000003   0.000582  -0.000604  -0.011863  -0.001474  -0.000469
    37  C    0.004261  -0.220470  -0.014571  -0.044140  -0.002857   0.155449
    38  H   -0.000293   0.013034   0.009095   0.089564  -0.011814   0.025031
    39  H   -0.004850   0.283935  -0.102367   0.078358   0.079690  -0.059927
              19         20         21         22         23         24
     1  C    0.012251   0.001204  -0.000278  -0.002611   0.011776  -0.047652
     2  H    0.109945  -0.010697   0.001421   0.000156  -0.039272  -0.014799
     3  H   -0.000382   0.002148  -0.000202   0.000487  -0.001001  -0.001644
     4  H   -0.041063   0.000590   0.000331  -0.004017   0.005025   0.006296
     5  C   -0.090619   0.040019  -0.002379  -0.001257   0.014301   0.043692
     6  C   -0.104738   0.004837  -0.000871   0.008548   0.131281  -0.001613
     7  H   -0.046201   0.001454  -0.000390   0.001091  -0.003764  -0.001181
     8  H    0.009905   0.000443  -0.000033   0.003111  -0.005025  -0.003357
     9  H    0.013162  -0.000305   0.000134   0.000523   0.002793   0.002917
    10  C   -0.101691   0.005806  -0.002532   0.009780   0.008717  -0.007509
    11  H   -0.000231   0.001555  -0.000173   0.000699   0.000223   0.000224
    12  H   -0.002349   0.000674   0.000046   0.000828   0.003240   0.000452
    13  H   -0.002671  -0.002422  -0.000333   0.002734  -0.011653  -0.002886
    14  N   -1.061863   0.020116  -0.003856  -0.002406   1.061852   0.059829
    15  H    0.045538  -0.000734   0.000724  -0.021724  -0.021386   0.041328
    16  C    0.157313  -0.076059  -0.041226   0.262143  -0.527294  -1.134554
    17  H    0.178875   0.033065   0.002596  -0.092854  -0.224922   0.000475
    18  H   -0.560969   0.051718  -0.016295   0.122627  -0.079531   0.137756
    19  C   15.322299  -0.859045   0.192748  -1.038314  -4.558339  -1.809062
    20  O   -0.859045   8.988120   0.316813   0.020123   0.334535   0.253328
    21  H    0.192748   0.316813   0.519478  -0.072223  -0.126073   0.066877
    22  H   -1.038314   0.020123  -0.072223   1.787434   0.444824  -0.231855
    23  C   -4.558339   0.334535  -0.126073   0.444824  24.617443  -4.532071
    24  C   -1.809062   0.253328   0.066877  -0.231855  -4.532071  25.719762
    25  H    0.098904  -0.029031  -0.016533   0.031270   0.965025  -2.115103
    26  C   -0.668620  -0.083126   0.024599   0.002551   1.547930  -4.682342
    27  C   -0.286540  -0.017446  -0.000770   0.003877  -1.468242  -1.097374
    28  O   -0.019973   0.002056   0.000647  -0.000673   0.007922  -0.123981
    29  H   -0.001279  -0.000016  -0.000015  -0.000028  -0.000999  -0.022691
    30  H    0.001829  -0.000094   0.000102   0.000253  -0.062912  -0.058385
    31  H    0.022534  -0.001256   0.000218  -0.000264   0.162566   0.315224
    32  C    0.164074  -0.003330   0.002234   0.004370  -5.938332   1.210041
    33  O    0.008505  -0.000138   0.000096   0.000124   0.214711  -0.169944
    34  H   -0.002248   0.000135  -0.000009  -0.000299   0.001726   0.071832
    35  C   -0.143634  -0.005602  -0.010664   0.064200   1.573358  -5.256876
    36  H    0.033258   0.000142  -0.000084   0.004263  -0.413934   0.114137
    37  C   -0.419636  -0.124720  -0.037089   0.085538  -8.346441  -0.954490
    38  H   -0.032156   0.012674   0.002789  -0.048557   0.861395   0.136884
    39  H    0.019865   0.027805  -0.003462  -0.015301  -0.118508  -0.013012
              25         26         27         28         29         30
     1  C    0.008317   0.004809  -0.000786   0.000024  -0.000011   0.000023
     2  H   -0.000434   0.015472   0.001505  -0.000074  -0.000006   0.000112
     3  H    0.001242  -0.002283  -0.000182   0.000003  -0.000002   0.000009
     4  H   -0.002402   0.006227   0.000207   0.000054   0.000005  -0.000004
     5  C   -0.003048   0.000576   0.001263  -0.000034   0.000034  -0.000103
     6  C   -0.001996   0.003203   0.000527   0.000005   0.000011  -0.000096
     7  H   -0.001844  -0.003716   0.000871  -0.000005  -0.000002   0.000035
     8  H    0.000196  -0.000600  -0.000141   0.000002  -0.000000  -0.000005
     9  H   -0.000192   0.000724   0.000077   0.000000   0.000001  -0.000010
    10  C    0.000427  -0.002031   0.000218  -0.000001  -0.000002   0.000015
    11  H    0.000086  -0.000656  -0.000030   0.000000  -0.000000  -0.000003
    12  H   -0.000139   0.000569   0.000049  -0.000000   0.000000   0.000001
    13  H    0.000089  -0.000591  -0.000010  -0.000001  -0.000001   0.000003
    14  N    0.022656   0.085759   0.006564   0.000127   0.000120  -0.000169
    15  H   -0.006179  -0.002465   0.000273   0.000039   0.000011  -0.000056
    16  C    0.090108  -0.063200  -0.052946   0.001302   0.000194  -0.006056
    17  H    0.017965  -0.005635  -0.004549   0.000049   0.000001  -0.000008
    18  H   -0.031565  -0.167203  -0.029375  -0.000551  -0.000188  -0.000530
    19  C    0.098904  -0.668620  -0.286540  -0.019973  -0.001279   0.001829
    20  O   -0.029031  -0.083126  -0.017446   0.002056  -0.000016  -0.000094
    21  H   -0.016533   0.024599  -0.000770   0.000647  -0.000015   0.000102
    22  H    0.031270   0.002551   0.003877  -0.000673  -0.000028   0.000253
    23  C    0.965025   1.547930  -1.468242   0.007922  -0.000999  -0.062912
    24  C   -2.115103  -4.682342  -1.097374  -0.123981  -0.022691  -0.058385
    25  H    2.618540   0.661064  -0.203080  -0.014225  -0.005075   0.004644
    26  C    0.661064  19.350521  -0.705608   0.105315   0.053083  -0.223571
    27  C   -0.203080  -0.705608   6.617549   0.218703  -0.023219   0.169933
    28  O   -0.014225   0.105315   0.218703   8.338454   0.379370  -0.009807
    29  H   -0.005075   0.053083  -0.023219   0.379370   0.538292  -0.024639
    30  H    0.004644  -0.223571   0.169933  -0.009807  -0.024639   0.973193
    31  H   -0.036667   0.118544  -0.093851  -0.020592  -0.003273  -0.034393
    32  C   -0.279320  -4.840140   0.500279  -0.127790  -0.026065   0.278591
    33  O   -0.004117   0.278236   0.047775  -0.009246  -0.000032  -0.030736
    34  H   -0.002173  -0.028685  -0.031047   0.001095  -0.000387  -0.004480
    35  C    0.117087   0.433659   0.464157  -0.007629  -0.000559   0.081497
    36  H    0.012849  -0.217700   0.010810   0.001042  -0.000067   0.004987
    37  C   -0.011272  -5.026099   0.569585  -0.046385   0.002050   0.034181
    38  H   -0.036262  -0.083532  -0.007072  -0.000524   0.000048  -0.001044
    39  H    0.005403   0.000527  -0.000325  -0.000248   0.000001   0.000028
              31         32         33         34         35         36
     1  C   -0.000190  -0.005748   0.000049  -0.000021   0.004989   0.000136
     2  H    0.000028  -0.001858   0.000043  -0.000065   0.000720   0.000134
     3  H   -0.000013  -0.000290   0.000004   0.000000   0.000460  -0.000007
     4  H    0.000020  -0.000241   0.000010  -0.000004  -0.000128   0.000014
     5  C    0.000014   0.003520  -0.000083   0.000027  -0.005285   0.000098
     6  C    0.000117   0.000347  -0.000023   0.000043   0.002526  -0.000066
     7  H    0.000198   0.002263  -0.000011   0.000024  -0.003882  -0.000139
     8  H   -0.000031  -0.000217  -0.000001   0.000001   0.002268   0.000078
     9  H    0.000013   0.000124  -0.000003   0.000004  -0.000468  -0.000026
    10  C    0.000134   0.000702  -0.000003   0.000000  -0.000543  -0.000038
    11  H   -0.000008   0.000240  -0.000002   0.000002  -0.000050  -0.000004
    12  H    0.000016  -0.000018  -0.000000  -0.000000  -0.000172   0.000005
    13  H    0.000004   0.000046   0.000001  -0.000002   0.000320  -0.000003
    14  N   -0.000419  -0.013239  -0.000071   0.000108   0.000348   0.000582
    15  H    0.000155   0.002954  -0.000036   0.000074  -0.004859  -0.000604
    16  C   -0.006651  -0.114475   0.000537   0.001034   0.419013  -0.011863
    17  H   -0.000800  -0.013405   0.000832  -0.000383   0.014322  -0.001474
    18  H   -0.000082   0.030053  -0.000978   0.000574  -0.012873  -0.000469
    19  C    0.022534   0.164074   0.008505  -0.002248  -0.143634   0.033258
    20  O   -0.001256  -0.003330  -0.000138   0.000135  -0.005602   0.000142
    21  H    0.000218   0.002234   0.000096  -0.000009  -0.010664  -0.000084
    22  H   -0.000264   0.004370   0.000124  -0.000299   0.064200   0.004263
    23  C    0.162566  -5.938332   0.214711   0.001726   1.573358  -0.413934
    24  C    0.315224   1.210041  -0.169944   0.071832  -5.256876   0.114137
    25  H   -0.036667  -0.279320  -0.004117  -0.002173   0.117087   0.012849
    26  C    0.118544  -4.840140   0.278236  -0.028685   0.433659  -0.217700
    27  C   -0.093851   0.500279   0.047775  -0.031047   0.464157   0.010810
    28  O   -0.020592  -0.127790  -0.009246   0.001095  -0.007629   0.001042
    29  H   -0.003273  -0.026065  -0.000032  -0.000387  -0.000559  -0.000067
    30  H   -0.034393   0.278591  -0.030736  -0.004480   0.081497   0.004987
    31  H    1.009554  -0.210184   0.006298   0.002191  -0.087400  -0.001952
    32  C   -0.210184  18.938617  -1.392550   0.037956  -5.872863   1.302176
    33  O    0.006298  -1.392550   9.207494   0.266908   0.737288  -0.145186
    34  H    0.002191   0.037956   0.266908   0.539580  -0.102561   0.008807
    35  C   -0.087400  -5.872863   0.737288  -0.102561  18.038972  -1.530618
    36  H   -0.001952   1.302176  -0.145186   0.008807  -1.530618   2.005587
    37  C    0.014168   1.620410  -0.035986   0.000935  -3.737895   0.553460
    38  H   -0.000323  -0.171924   0.001554  -0.000130   0.502065  -0.108707
    39  H    0.000101  -0.003545   0.000079  -0.000044  -0.000174  -0.000099
              37         38         39
     1  C    0.006375  -0.001633   0.019156
     2  H   -0.005776  -0.001204  -0.024669
     3  H    0.002995  -0.000062   0.012227
     4  H   -0.006209   0.000222   0.008579
     5  C   -0.034498  -0.001525  -0.068403
     6  C   -0.020857   0.003110  -0.033265
     7  H    0.012633  -0.000847   0.016294
     8  H    0.003117  -0.000794  -0.001587
     9  H   -0.003157   0.000515  -0.010366
    10  C    0.005960   0.000283  -0.008822
    11  H    0.000312   0.000118  -0.014919
    12  H   -0.001528  -0.000092   0.003471
    13  H    0.004261  -0.000293  -0.004850
    14  N   -0.220470   0.013034   0.283935
    15  H   -0.014571   0.009095  -0.102367
    16  C   -0.044140   0.089564   0.078358
    17  H   -0.002857  -0.011814   0.079690
    18  H    0.155449   0.025031  -0.059927
    19  C   -0.419636  -0.032156   0.019865
    20  O   -0.124720   0.012674   0.027805
    21  H   -0.037089   0.002789  -0.003462
    22  H    0.085538  -0.048557  -0.015301
    23  C   -8.346441   0.861395  -0.118508
    24  C   -0.954490   0.136884  -0.013012
    25  H   -0.011272  -0.036262   0.005403
    26  C   -5.026099  -0.083532   0.000527
    27  C    0.569585  -0.007072  -0.000325
    28  O   -0.046385  -0.000524  -0.000248
    29  H    0.002050   0.000048   0.000001
    30  H    0.034181  -0.001044   0.000028
    31  H    0.014168  -0.000323   0.000101
    32  C    1.620410  -0.171924  -0.003545
    33  O   -0.035986   0.001554   0.000079
    34  H    0.000935  -0.000130  -0.000044
    35  C   -3.737895   0.502065  -0.000174
    36  H    0.553460  -0.108707  -0.000099
    37  C   23.208544  -1.572399   0.019706
    38  H   -1.572399   2.119840  -0.003114
    39  H    0.019706  -0.003114   0.638937
 Mulliken charges:
               1
     1  C    1.282085
     2  H   -0.019121
     3  H   -0.020938
     4  H    0.007197
     5  C   -3.450393
     6  C    1.324956
     7  H   -0.044610
     8  H   -0.026995
     9  H    0.031129
    10  C    1.326826
    11  H   -0.000558
    12  H    0.040125
    13  H   -0.018797
    14  N   -0.710414
    15  H    0.208702
    16  C    0.803699
    17  H   -0.242687
    18  H   -0.240714
    19  C    1.460622
    20  O   -0.905338
    21  H    0.203637
    22  H   -0.329172
    23  C    0.509054
    24  C    0.101328
    25  H   -0.855216
    26  C    0.114436
    27  C    1.408370
    28  O   -0.674472
    29  H    0.135336
    30  H   -0.092333
    31  H   -0.153746
    32  C    0.916537
    33  O   -0.981397
    34  H    0.239481
    35  C    0.327484
    36  H   -0.619528
    37  C    0.366798
    38  H   -0.694215
    39  H    0.272843
 Sum of Mulliken charges =   1.00000
 Mulliken charges with hydrogens summed into heavy atoms:
               1
     1  C    1.249223
     5  C   -3.450393
     6  C    1.284480
    10  C    1.347596
    14  N   -0.228869
    16  C    0.320298
    19  C    1.131451
    20  O   -0.701701
    23  C    0.509054
    24  C   -0.753888
    26  C    0.114436
    27  C    1.162291
    28  O   -0.539136
    32  C    0.916537
    33  O   -0.741916
    35  C   -0.292044
    37  C   -0.327418
 Electronic spatial extent (au):  <R**2>=           6513.0335
 Charge=              1.0000 electrons
 Dipole moment (field-independent basis, Debye):
    X=             10.7238    Y=             -2.1566    Z=              0.0367  Tot=             10.9386
 Quadrupole moment (field-independent basis, Debye-Ang):
   XX=            -35.5508   YY=            -84.0481   ZZ=            -94.4525
   XY=              2.8214   XZ=              7.1925   YZ=             -4.5541
 Traceless Quadrupole moment (field-independent basis, Debye-Ang):
   XX=             35.7997   YY=            -12.6977   ZZ=            -23.1020
   XY=              2.8214   XZ=              7.1925   YZ=             -4.5541
 Octapole moment (field-independent basis, Debye-Ang**2):
  XXX=            151.1330  YYY=              3.2804  ZZZ=             22.3546  XYY=            -50.0140
  XXY=             -8.3347  XXZ=            -47.4616  XZZ=             25.0770  YZZ=              6.8231
  YYZ=             -5.8197  XYZ=              2.3110
 Hexadecapole moment (field-independent basis, Debye-Ang**3):
 XXXX=          -5295.3051 YYYY=           -870.2423 ZZZZ=           -525.1658 XXXY=             48.7885
 XXXZ=            120.8497 YYYX=            -35.3976 YYYZ=             -6.5760 ZZZX=              7.2346
 ZZZY=             23.8416 XXYY=           -924.2234 XXZZ=          -1177.8326 YYZZ=           -258.4521
 XXYZ=            -37.4369 YYXZ=             57.5225 ZZXY=            -10.9492
 N-N= 1.245199421723D+03 E-N=-4.308000842737D+03  KE= 7.830266455111D+02
 Leave Link  601 at Sun Jul 18 18:47:07 2021, MaxMem=   262144000 cpu:               0.6 elap:               0.6
 (Enter /dades/curu/g16A03_MST/g16/l9999.exe)
 1\1\GINC-PIRINEUS35\SP\RMP2-FC\Aug-CC-pVDZ\C13H22N1O3(1+)\UBATOR02\18-
 Jul-2021\0\\#p mp2/aug-cc-pVDZ scf=tight maxdisk=180GB geom=allcheck\\
 SET_328_BBB301_conf1.geo_165_300_090 geometry\\1,1\C,0,-1.9296961975,0
 .7954823107,-2.9225527803\H,0,-2.0283850399,1.3018985227,-1.9606819158
 \H,0,-2.7681685556,1.1126556446,-3.5462356864\H,0,-1.0087866619,1.1326
 970765,-3.4062258956\C,0,-1.9714646159,-0.727345305,-2.7885977185\C,0,
 -3.2127958014,-1.194175429,-2.0239055838\H,0,-3.2603209383,-0.75309820
 55,-1.0262784623\H,0,-3.2437565762,-2.2833503199,-1.9288221723\H,0,-4.
 1051303769,-0.8795998191,-2.5706159323\C,0,-1.8803784184,-1.3889612037
 ,-4.1672711444\H,0,-0.9837838217,-1.0713414021,-4.7057544863\H,0,-2.74
 71103824,-1.0908391082,-4.7595775786\H,0,-1.883333084,-2.4806897262,-4
 .0999377342\N,0,-0.7260224291,-1.1837128549,-2.0043103401\H,0,-0.70100
 19935,-2.2129399572,-1.9891602975\C,0,-0.556075452,-0.6724413107,-0.60
 01676484\H,0,-1.3172587949,-1.1266411272,0.0309156152\H,0,-0.696879929
 9,0.4068630773,-0.6247938522\C,0,0.8578003378,-1.0000813921,-0.1137508
 593\O,0,1.702044941,-0.4446591859,-1.120025543\H,0,2.6235779142,-0.690
 8943492,-0.9264065563\H,0,0.9726816839,-2.0925895729,-0.0736967543\C,0
 ,1.1181052612,-0.428603005,1.2642921988\C,0,1.5375804287,0.8977049541,
 1.4118574708\H,0,1.6988368076,1.4983412857,0.5234891287\C,0,1.78080425
 2,1.4597629863,2.6620072324\C,0,2.2886195612,2.8703997029,2.790773268\
 O,0,3.7187409429,2.8345116347,2.8247447106\H,0,4.0211596437,3.73171580
 77,3.0384549854\H,0,1.8886990338,3.3189106042,3.706950117\H,0,1.933854
 3566,3.4595637776,1.9337919057\C,0,1.592122495,0.6594213002,3.80341721
 95\O,0,1.8319708672,1.2337403727,5.0126867152\H,0,1.6533519995,0.59444
 74901,5.7198422019\C,0,1.1684002231,-0.6669353765,3.6747764162\H,0,1.0
 308877854,-1.2791962502,4.5613530187\C,0,0.9427669496,-1.2064713332,2.
 4114741531\H,0,0.6317521772,-2.2442696422,2.3240127252\H,0,0.125591407
 9,-0.911280672,-2.515070141\\Version=ES64L-G16RevA.03\State=1-A\HF=-78
 4.0353737\MP2=-786.66781\RMSD=9.574e-09\PG=C01 [X(C13H22N1O3)]\\@


  ON THE CHOICE OF THE CORRECT LANGUAGE -
 I SPEAK SPANISH TO GOD, ITALIAN TO WOMEN,
 FRENCH TO MEN, AND GERMAN TO MY HORSE.
          -- CHARLES V
 Job cpu time:       0 days  3 hours 18 minutes 24.6 seconds.
 Elapsed time:       0 days  1 hours  8 minutes  7.1 seconds.
 File lengths (MBytes):  RWF=  99319 Int=      0 D2E=      0 Chk=     28 Scr=      1
 Normal termination of Gaussian 16 at Sun Jul 18 18:47:09 2021.
