 Entering Gaussian System, Link 0=g16
 Input=SET_328_BBB272_conf1.geo_345_270_180_OCTANOL.dat
 Output=SET_328_BBB272_conf1.geo_345_270_180_OCTANOL.log
 Initial command:
 /dades/curu/g16A03_MST/g16/l1.exe "/tmp/ubator02/1839570/Gau-223552.inp" -scrdir="/tmp/ubator02/1839570/"
 Entering Link 1 = /dades/curu/g16A03_MST/g16/l1.exe PID=    223556.
  
 Copyright (c) 1988,1990,1992,1993,1995,1998,2003,2009,2016,
            Gaussian, Inc.  All Rights Reserved.
  
 This is part of the Gaussian(R) 16 program.  It is based on
 the Gaussian(R) 09 system (copyright 2009, Gaussian, Inc.),
 the Gaussian(R) 03 system (copyright 2003, Gaussian, Inc.),
 the Gaussian(R) 98 system (copyright 1998, Gaussian, Inc.),
 the Gaussian(R) 94 system (copyright 1995, Gaussian, Inc.),
 the Gaussian 92(TM) system (copyright 1992, Gaussian, Inc.),
 the Gaussian 90(TM) system (copyright 1990, Gaussian, Inc.),
 the Gaussian 88(TM) system (copyright 1988, Gaussian, Inc.),
 the Gaussian 86(TM) system (copyright 1986, Carnegie Mellon
 University), and the Gaussian 82(TM) system (copyright 1983,
 Carnegie Mellon University). Gaussian is a federally registered
 trademark of Gaussian, Inc.
  
 This software contains proprietary and confidential information,
 including trade secrets, belonging to Gaussian, Inc.
  
 This software is provided under written license and may be
 used, copied, transmitted, or stored only in accord with that
 written license.
  
 The following legend is applicable only to US Government
 contracts under FAR:
  
                    RESTRICTED RIGHTS LEGEND
  
 Use, reproduction and disclosure by the US Government is
 subject to restrictions as set forth in subparagraphs (a)
 and (c) of the Commercial Computer Software - Restricted
 Rights clause in FAR 52.227-19.
  
 Gaussian, Inc.
 340 Quinnipiac St., Bldg. 40, Wallingford CT 06492
  
  
 ---------------------------------------------------------------
 Warning -- This program may not be used in any manner that
 competes with the business of Gaussian, Inc. or will provide
 assistance to any competitor of Gaussian, Inc.  The licensee
 of this program is prohibited from giving any competitor of
 Gaussian, Inc. access to this program.  By using this program,
 the user acknowledges that Gaussian, Inc. is engaged in the
 business of creating and licensing software in the field of
 computational chemistry and represents and warrants to the
 licensee that it is not a competitor of Gaussian, Inc. and that
 it will not use this program in any manner prohibited above.
 ---------------------------------------------------------------
  

 Cite this work as:
 Gaussian 16, Revision A.03,
 M. J. Frisch, G. W. Trucks, H. B. Schlegel, G. E. Scuseria, 
 M. A. Robb, J. R. Cheeseman, G. Scalmani, V. Barone, 
 G. A. Petersson, H. Nakatsuji, X. Li, M. Caricato, A. V. Marenich, 
 J. Bloino, B. G. Janesko, R. Gomperts, B. Mennucci, H. P. Hratchian, 
 J. V. Ortiz, A. F. Izmaylov, J. L. Sonnenberg, D. Williams-Young, 
 F. Ding, F. Lipparini, F. Egidi, J. Goings, B. Peng, A. Petrone, 
 T. Henderson, D. Ranasinghe, V. G. Zakrzewski, J. Gao, N. Rega, 
 G. Zheng, W. Liang, M. Hada, M. Ehara, K. Toyota, R. Fukuda, 
 J. Hasegawa, M. Ishida, T. Nakajima, Y. Honda, O. Kitao, H. Nakai, 
 T. Vreven, K. Throssell, J. A. Montgomery, Jr., J. E. Peralta, 
 F. Ogliaro, M. J. Bearpark, J. J. Heyd, E. N. Brothers, K. N. Kudin, 
 V. N. Staroverov, T. A. Keith, R. Kobayashi, J. Normand, 
 K. Raghavachari, A. P. Rendell, J. C. Burant, S. S. Iyengar, 
 J. Tomasi, M. Cossi, J. M. Millam, M. Klene, C. Adamo, R. Cammi, 
 J. W. Ochterski, R. L. Martin, K. Morokuma, O. Farkas, 
 J. B. Foresman, and D. J. Fox, Gaussian, Inc., Wallingford CT, 2016.
 
 ******************************************
 Gaussian 16:  ES64L-G16RevA.03 25-Dec-2016
                18-Jul-2021 
 ******************************************
 %mem=800MB
 %nproc=4
 Will use up to    4 processors via shared memory.
 %chk=SET_328_BBB272_conf1.geo_345_270_180.chk
 ---------------------------------------------------------------
 #p b3lyp/6-31G(d) opt freq scrf=(iefpcm,read,solvent=n-octanol)
 ---------------------------------------------------------------
 1/18=20,19=15,26=3,38=1,40=2/1,3;
 2/9=110,12=2,17=6,18=5,40=1/2;
 3/5=1,6=6,7=1,11=2,25=1,30=1,70=2203,71=1,72=25,74=-5/1,2,3;
 4//1;
 5/5=2,38=5,53=25/2;
 6/7=2,8=2,9=2,10=2,28=1/1;
 7//1,2,3,16;
 1/18=20,19=15,26=3/3(2);
 2/9=110/2;
 99//99;
 2/9=110/2;
 3/5=1,6=6,7=1,11=2,25=1,30=1,70=2205,71=1,72=25,74=-5/1,2,3;
 4/5=5,16=3,69=1/1;
 5/5=2,38=5,53=25/2;
 7//1,2,3,16;
 1/18=20,19=15,26=3/3(-5);
 2/9=110/2;
 6/7=2,8=2,9=2,10=2,19=2,28=1/1;
 99/9=1/99;
 Leave Link    1 at Sun Jul 18 13:43:43 2021, MaxMem=   104857600 cpu:               0.0 elap:               0.0
 (Enter /dades/curu/g16A03_MST/g16/l101.exe)
 ---------------------------------------------
 SET_328_BBB272_conf1.geo_345_270_180 geometry
 ---------------------------------------------
 Symbolic Z-matrix:
 Charge = -1 Multiplicity = 1
 C                    -1.15     -1.931    -2.648 
 H                    -1.075    -1.37     -3.582 
 H                    -2.069    -2.504    -2.503 
 H                    -0.229    -2.517    -2.65 
 C                    -1.039    -0.916    -1.573 
 O                    -2.03     -0.596    -1.015 
 O                     0.178    -0.546    -1.277 
 C                     0.364     0.373    -0.315 
 C                     0.497     0.031     1.029 
 C                     0.422    -1.372     1.545 
 O                     0.787    -1.524     2.769 
 O                    -0.045    -2.301     0.912 
 C                     0.627     1.067     1.952 
 H                     0.689     0.917     3.027 
 C                     0.655     2.38      1.54 
 H                     0.683     3.141     2.316 
 C                     0.698     2.725     0.208 
 H                     0.741     3.757    -0.129 
 C                     0.394     1.723    -0.718 
 H                     0.221     1.949    -1.767 
 
 ITRead=  0  0  0  0  0  0  0  0  0  0  0  0  0  0  0  0  0  0  0  0
 MicOpt= -1 -1 -1 -1 -1 -1 -1 -1 -1 -1 -1 -1 -1 -1 -1 -1 -1 -1 -1 -1
 NAtoms=     20 NQM=       20 NQMF=       0 NMMI=      0 NMMIF=      0
                NMic=       0 NMicF=      0.
                    Isotopes and Nuclear Properties:
 (Nuclear quadrupole moments (NQMom) in fm**2, nuclear magnetic moments (NMagM)
  in nuclear magnetons)

  Atom         1           2           3           4           5           6           7           8           9          10
 IAtWgt=          12           1           1           1          12          16          16          12          12          12
 AtmWgt=  12.0000000   1.0078250   1.0078250   1.0078250  12.0000000  15.9949146  15.9949146  12.0000000  12.0000000  12.0000000
 NucSpn=           0           1           1           1           0           0           0           0           0           0
 AtZEff=  -0.0000000  -0.0000000  -0.0000000  -0.0000000  -0.0000000  -0.0000000  -0.0000000  -0.0000000  -0.0000000  -0.0000000
 NQMom=    0.0000000   0.0000000   0.0000000   0.0000000   0.0000000   0.0000000   0.0000000   0.0000000   0.0000000   0.0000000
 NMagM=    0.0000000   2.7928460   2.7928460   2.7928460   0.0000000   0.0000000   0.0000000   0.0000000   0.0000000   0.0000000
 AtZNuc=   6.0000000   1.0000000   1.0000000   1.0000000   6.0000000   8.0000000   8.0000000   6.0000000   6.0000000   6.0000000

  Atom        11          12          13          14          15          16          17          18          19          20
 IAtWgt=          16          16          12           1          12           1          12           1          12           1
 AtmWgt=  15.9949146  15.9949146  12.0000000   1.0078250  12.0000000   1.0078250  12.0000000   1.0078250  12.0000000   1.0078250
 NucSpn=           0           0           0           1           0           1           0           1           0           1
 AtZEff=  -0.0000000  -0.0000000  -0.0000000  -0.0000000  -0.0000000  -0.0000000  -0.0000000  -0.0000000  -0.0000000  -0.0000000
 NQMom=    0.0000000   0.0000000   0.0000000   0.0000000   0.0000000   0.0000000   0.0000000   0.0000000   0.0000000   0.0000000
 NMagM=    0.0000000   0.0000000   0.0000000   2.7928460   0.0000000   2.7928460   0.0000000   2.7928460   0.0000000   2.7928460
 AtZNuc=   8.0000000   8.0000000   6.0000000   1.0000000   6.0000000   1.0000000   6.0000000   1.0000000   6.0000000   1.0000000
 Leave Link  101 at Sun Jul 18 13:43:43 2021, MaxMem=   104857600 cpu:               0.1 elap:               0.2
 (Enter /dades/curu/g16A03_MST/g16/l103.exe)

 GradGradGradGradGradGradGradGradGradGradGradGradGradGradGradGradGradGrad
 Berny optimization.
 Initialization pass.
                           ----------------------------
                           !    Initial Parameters    !
                           ! (Angstroms and Degrees)  !
 --------------------------                            --------------------------
 ! Name  Definition              Value          Derivative Info.                !
 --------------------------------------------------------------------------------
 ! R1    R(1,2)                  1.0921         estimate D2E/DX2                !
 ! R2    R(1,3)                  1.0927         estimate D2E/DX2                !
 ! R3    R(1,4)                  1.0916         estimate D2E/DX2                !
 ! R4    R(1,5)                  1.4826         estimate D2E/DX2                !
 ! R5    R(5,6)                  1.1815         estimate D2E/DX2                !
 ! R6    R(5,7)                  1.306          estimate D2E/DX2                !
 ! R7    R(7,8)                  1.3434         estimate D2E/DX2                !
 ! R8    R(8,9)                  1.3932         estimate D2E/DX2                !
 ! R9    R(8,19)                 1.4092         estimate D2E/DX2                !
 ! R10   R(9,10)                 1.4968         estimate D2E/DX2                !
 ! R11   R(9,13)                 1.3936         estimate D2E/DX2                !
 ! R12   R(10,11)                1.2863         estimate D2E/DX2                !
 ! R13   R(10,12)                1.2173         estimate D2E/DX2                !
 ! R14   R(13,14)                1.0872         estimate D2E/DX2                !
 ! R15   R(13,15)                1.3764         estimate D2E/DX2                !
 ! R16   R(15,16)                1.0872         estimate D2E/DX2                !
 ! R17   R(15,17)                1.3766         estimate D2E/DX2                !
 ! R18   R(17,18)                1.0865         estimate D2E/DX2                !
 ! R19   R(17,19)                1.3978         estimate D2E/DX2                !
 ! R20   R(19,20)                1.0869         estimate D2E/DX2                !
 ! A1    A(2,1,3)              116.1441         estimate D2E/DX2                !
 ! A2    A(2,1,4)              102.4887         estimate D2E/DX2                !
 ! A3    A(2,1,5)              105.2652         estimate D2E/DX2                !
 ! A4    A(3,1,4)              115.3621         estimate D2E/DX2                !
 ! A5    A(3,1,5)              109.0114         estimate D2E/DX2                !
 ! A6    A(4,1,5)              107.7982         estimate D2E/DX2                !
 ! A7    A(1,5,6)              117.715          estimate D2E/DX2                !
 ! A8    A(1,5,7)              115.3442         estimate D2E/DX2                !
 ! A9    A(6,5,7)              126.7167         estimate D2E/DX2                !
 ! A10   A(5,7,8)              119.0221         estimate D2E/DX2                !
 ! A11   A(7,8,9)              122.4196         estimate D2E/DX2                !
 ! A12   A(7,8,19)             116.9702         estimate D2E/DX2                !
 ! A13   A(9,8,19)             120.5985         estimate D2E/DX2                !
 ! A14   A(8,9,10)             123.91           estimate D2E/DX2                !
 ! A15   A(8,9,13)             117.7324         estimate D2E/DX2                !
 ! A16   A(10,9,13)            118.2406         estimate D2E/DX2                !
 ! A17   A(9,10,11)            115.1255         estimate D2E/DX2                !
 ! A18   A(9,10,12)            123.7323         estimate D2E/DX2                !
 ! A19   A(11,10,12)           120.8976         estimate D2E/DX2                !
 ! A20   A(9,13,14)            123.8929         estimate D2E/DX2                !
 ! A21   A(9,13,15)            120.8504         estimate D2E/DX2                !
 ! A22   A(14,13,15)           115.2412         estimate D2E/DX2                !
 ! A23   A(13,15,16)           117.0377         estimate D2E/DX2                !
 ! A24   A(13,15,17)           121.9602         estimate D2E/DX2                !
 ! A25   A(16,15,17)           120.9561         estimate D2E/DX2                !
 ! A26   A(15,17,18)           122.643          estimate D2E/DX2                !
 ! A27   A(15,17,19)           117.0357         estimate D2E/DX2                !
 ! A28   A(18,17,19)           118.9479         estimate D2E/DX2                !
 ! A29   A(8,19,17)            120.126          estimate D2E/DX2                !
 ! A30   A(8,19,20)            118.1516         estimate D2E/DX2                !
 ! A31   A(17,19,20)           121.6624         estimate D2E/DX2                !
 ! D1    D(2,1,5,6)            103.5396         estimate D2E/DX2                !
 ! D2    D(2,1,5,7)            -81.5317         estimate D2E/DX2                !
 ! D3    D(3,1,5,6)            -21.7094         estimate D2E/DX2                !
 ! D4    D(3,1,5,7)            153.2194         estimate D2E/DX2                !
 ! D5    D(4,1,5,6)           -147.6137         estimate D2E/DX2                !
 ! D6    D(4,1,5,7)             27.315          estimate D2E/DX2                !
 ! D7    D(1,5,7,8)            179.8549         estimate D2E/DX2                !
 ! D8    D(6,5,7,8)             -5.7473         estimate D2E/DX2                !
 ! D9    D(5,7,8,9)             88.2892         estimate D2E/DX2                !
 ! D10   D(5,7,8,19)           -90.4709         estimate D2E/DX2                !
 ! D11   D(7,8,9,10)            -1.2258         estimate D2E/DX2                !
 ! D12   D(7,8,9,13)          -177.2169         estimate D2E/DX2                !
 ! D13   D(19,8,9,10)          177.4904         estimate D2E/DX2                !
 ! D14   D(19,8,9,13)            1.4993         estimate D2E/DX2                !
 ! D15   D(7,8,19,17)         -174.4753         estimate D2E/DX2                !
 ! D16   D(7,8,19,20)            2.7554         estimate D2E/DX2                !
 ! D17   D(9,8,19,17)            6.7406         estimate D2E/DX2                !
 ! D18   D(9,8,19,20)         -176.0287         estimate D2E/DX2                !
 ! D19   D(8,9,10,11)          168.848          estimate D2E/DX2                !
 ! D20   D(8,9,10,12)          -16.8016         estimate D2E/DX2                !
 ! D21   D(13,9,10,11)         -15.1799         estimate D2E/DX2                !
 ! D22   D(13,9,10,12)         159.1706         estimate D2E/DX2                !
 ! D23   D(8,9,13,14)          176.9609         estimate D2E/DX2                !
 ! D24   D(8,9,13,15)           -1.5432         estimate D2E/DX2                !
 ! D25   D(10,9,13,14)           0.7372         estimate D2E/DX2                !
 ! D26   D(10,9,13,15)        -177.7669         estimate D2E/DX2                !
 ! D27   D(9,13,15,16)         175.5229         estimate D2E/DX2                !
 ! D28   D(9,13,15,17)          -6.9218         estimate D2E/DX2                !
 ! D29   D(14,13,15,16)         -3.1044         estimate D2E/DX2                !
 ! D30   D(14,13,15,17)        174.4509         estimate D2E/DX2                !
 ! D31   D(13,15,17,18)       -178.7099         estimate D2E/DX2                !
 ! D32   D(13,15,17,19)         14.8264         estimate D2E/DX2                !
 ! D33   D(16,15,17,18)         -1.2491         estimate D2E/DX2                !
 ! D34   D(16,15,17,19)       -167.7129         estimate D2E/DX2                !
 ! D35   D(15,17,19,8)         -14.5798         estimate D2E/DX2                !
 ! D36   D(15,17,19,20)        168.289          estimate D2E/DX2                !
 ! D37   D(18,17,19,8)         178.4367         estimate D2E/DX2                !
 ! D38   D(18,17,19,20)          1.3054         estimate D2E/DX2                !
 --------------------------------------------------------------------------------
 Trust Radius=3.00D-01 FncErr=1.00D-07 GrdErr=1.00D-06 EigMax=2.50D+02 EigMin=1.00D-04
 Number of steps in this run=     99 maximum allowed number of steps=    120.
 GradGradGradGradGradGradGradGradGradGradGradGradGradGradGradGradGradGrad

 Leave Link  103 at Sun Jul 18 13:43:44 2021, MaxMem=   104857600 cpu:               0.0 elap:               0.0
 (Enter /dades/curu/g16A03_MST/g16/l202.exe)
                          Input orientation:                          
 ---------------------------------------------------------------------
 Center     Atomic      Atomic             Coordinates (Angstroms)
 Number     Number       Type             X           Y           Z
 ---------------------------------------------------------------------
      1          6           0       -1.150000   -1.931000   -2.648000
      2          1           0       -1.075000   -1.370000   -3.582000
      3          1           0       -2.069000   -2.504000   -2.503000
      4          1           0       -0.229000   -2.517000   -2.650000
      5          6           0       -1.039000   -0.916000   -1.573000
      6          8           0       -2.030000   -0.596000   -1.015000
      7          8           0        0.178000   -0.546000   -1.277000
      8          6           0        0.364000    0.373000   -0.315000
      9          6           0        0.497000    0.031000    1.029000
     10          6           0        0.422000   -1.372000    1.545000
     11          8           0        0.787000   -1.524000    2.769000
     12          8           0       -0.045000   -2.301000    0.912000
     13          6           0        0.627000    1.067000    1.952000
     14          1           0        0.689000    0.917000    3.027000
     15          6           0        0.655000    2.380000    1.540000
     16          1           0        0.683000    3.141000    2.316000
     17          6           0        0.698000    2.725000    0.208000
     18          1           0        0.741000    3.757000   -0.129000
     19          6           0        0.394000    1.723000   -0.718000
     20          1           0        0.221000    1.949000   -1.767000
 ---------------------------------------------------------------------
                    Distance matrix (angstroms):
                    1          2          3          4          5
     1  C    0.000000
     2  H    1.092109   0.000000
     3  H    1.092664   1.854247   0.000000
     4  H    1.091623   1.702924   1.845908   0.000000
     5  C    1.482623   2.059974   2.108920   2.092661   0.000000
     6  O    2.285457   2.846154   2.419944   3.099527   1.181459
     7  O    2.358273   2.749911   3.222708   2.436313   1.305988
     8  C    3.611579   3.972664   4.357059   3.762443   2.283089
     9  C    4.481337   5.069054   5.048327   4.533698   3.166466
    10  C    4.512750   5.341081   4.885981   4.396914   3.473382
    11  O    5.767279   6.620118   6.075452   5.602130   4.749411
    12  O    3.745868   4.703583   3.974923   3.573284   3.013550
    13  C    5.771112   6.281793   6.314070   5.895439   4.374182
    14  H    6.610495   7.212555   7.063335   6.698015   5.244604
    15  C    6.275515   6.579535   6.900687   6.505241   4.839837
    16  H    7.329827   7.630602   7.915952   7.583262   5.877827
    17  C    5.766297   5.854627   6.507553   6.042024   4.409763
    18  H    6.501891   6.442608   7.261687   6.830770   5.204850
    19  C    4.411412   4.463979   5.207698   4.700889   3.122312
    20  H    4.208349   3.998700   5.061127   4.574642   3.135835
                    6          7          8          9         10
     6  O    0.000000
     7  O    2.224052   0.000000
     8  C    2.675854   1.343354   0.000000
     9  C    3.310105   2.398401   1.393194   0.000000
    10  C    3.628785   2.950508   2.551076   1.496760   0.000000
    11  O    4.807840   4.206837   3.645352   2.351537   1.286276
    12  O    3.249704   2.814512   2.970368   2.397014   1.217300
    13  C    4.316052   3.637281   2.385392   1.393601   2.481208
    14  H    5.100970   4.574484   3.401547   2.194052   2.739915
    15  C    4.753296   4.089559   2.748410   2.409126   3.759231
    16  H    5.693953   5.172876   3.832199   3.370915   4.585818
    17  C    4.468417   3.629747   2.432486   2.823487   4.318467
    18  H    5.235651   4.488951   3.410012   3.909421   5.404690
    19  C    3.367751   2.346806   1.409187   2.434231   3.834185
    20  H    3.479875   2.543025   2.147680   3.401840   4.694549
                   11         12         13         14         15
    11  O    0.000000
    12  O    2.178165   0.000000
    13  C    2.721465   3.588399   0.000000
    14  H    2.456552   3.920141   1.087184   0.000000
    15  C    4.095007   4.774531   1.376407   2.086311   0.000000
    16  H    4.688097   5.667148   2.106444   2.334895   1.087235
    17  C    4.961919   5.129166   2.407393   3.348986   1.376626
    18  H    6.024075   6.196841   3.402890   4.246015   2.165430
    19  C    4.780860   4.363737   2.759262   3.842094   2.366080
    20  H    5.740852   5.030934   3.843660   4.926102   3.363089
                   16         17         18         19         20
    16  H    0.000000
    17  C    2.148708   0.000000
    18  H    2.522072   1.086481   0.000000
    19  C    3.361458   1.397818   2.145807   0.000000
    20  H    4.278457   2.174932   2.494455   1.086925   0.000000
 Stoichiometry    C9H7O4(1-)
 Framework group  C1[X(C9H7O4)]
 Deg. of freedom    54
 Full point group                 C1      NOp   1
 Largest Abelian subgroup         C1      NOp   1
 Largest concise Abelian subgroup C1      NOp   1
                         Standard orientation:                         
 ---------------------------------------------------------------------
 Center     Atomic      Atomic             Coordinates (Angstroms)
 Number     Number       Type             X           Y           Z
 ---------------------------------------------------------------------
      1          6           0        3.467161   -0.428262   -0.225253
      2          1           0        3.754690   -1.440554   -0.517303
      3          1           0        4.058988    0.029529    0.571040
      4          1           0        3.474999    0.103648   -1.178485
      5          6           0        2.057681   -0.536443    0.221773
      6          8           0        1.847170   -0.520681    1.384219
      7          8           0        1.166755   -0.536114   -0.733139
      8          6           0       -0.133765   -0.633893   -0.411129
      9          6           0       -0.919793    0.481753   -0.130982
     10          6           0       -0.405119    1.887242   -0.131427
     11          8           0       -1.309483    2.800052   -0.073041
     12          8           0        0.776845    2.174316   -0.082742
     13          6           0       -2.242547    0.264012    0.249855
     14          1           0       -2.929186    1.056635    0.536637
     15          6           0       -2.757994   -1.010644    0.313601
     16          1           0       -3.772872   -1.115140    0.689347
     17          6           0       -2.048668   -2.106233   -0.124165
     18          1           0       -2.452492   -3.114539   -0.097957
     19          6           0       -0.678649   -1.931504   -0.339603
     20          1           0       -0.014269   -2.776333   -0.501677
 ---------------------------------------------------------------------
 Rotational constants (GHZ):           1.1275108           0.7774775           0.5057489
 Leave Link  202 at Sun Jul 18 13:43:44 2021, MaxMem=   104857600 cpu:               0.1 elap:               0.1
 (Enter /dades/curu/g16A03_MST/g16/l301.exe)
 Standard basis: 6-31G(d) (6D, 7F)
 Ernie: Thresh=  0.10000D-02 Tol=  0.10000D-05 Strict=F.
 There are   209 symmetry adapted cartesian basis functions of A   symmetry.
 There are   209 symmetry adapted basis functions of A   symmetry.
   209 basis functions,   392 primitive gaussians,   209 cartesian basis functions
    47 alpha electrons       47 beta electrons
       nuclear repulsion energy       773.4226131987 Hartrees.
 IExCor=  402 DFT=T Ex+Corr=B3LYP ExCW=0 ScaHFX=  0.200000
 ScaDFX=  0.800000  0.720000  1.000000  0.810000 ScalE2=  1.000000  1.000000
 IRadAn=      5 IRanWt=     -1 IRanGd=            0 ICorTp=0 IEmpDi=  4
 NAtoms=   20 NActive=   20 NUniq=   20 SFac= 1.00D+00 NAtFMM=   60 NAOKFM=F Big=F
 Integral buffers will be    131072 words long.
 Raffenetti 2 integral format.
 Two-electron integral symmetry is turned on.
 Using the following non-standard input for PCM:
 MSTModel=DFT cav MSTCharged
 --- end of non-standard input.
 MST model for solvation energy: B3LYP parametrization.
 MST cavity parameters:
 ISph   IAn     Re0     Alpha   Atom Type   QCorr
 ------------------------------------------------
   1      6     1.50     1.50      CH3        F
   2      1     1.20     1.50      CH3        F
   3      1     1.20     1.50      CH3        F
   4      1     1.20     1.50      CH3        F
   5      6     1.50     1.50      C          F
   6      8     1.40     1.50      O          F
   7      8     1.40     1.50      O          F
   8      6     1.50     1.50      C          F
   9      6     1.50     1.50      C          F
  10      6     1.50     1.15      C          T
  11      8     1.40     1.15      O          T
  12      8     1.40     1.15      O          T
  13      6     1.50     1.50      CH         F
  14      1     1.20     1.50      CH         F
  15      6     1.50     1.50      CH         F
  16      1     1.20     1.50      CH         F
  17      6     1.50     1.50      CH         F
  18      1     1.20     1.50      CH         F
  19      6     1.50     1.50      CH         F
  20      1     1.20     1.50      CH         F
 ------------------------------------------------------------------------------
 Polarizable Continuum Model (PCM)
 =================================
 Model                : PCM.
 Atomic radii         : MST.
 Polarization charges : Total charges.
 Charge compensation  : None.
 Solution method      : On-the-fly selection.
 Cavity type          : Scaled VdW (van der Waals Surface) (Alpha=1.500).
 Cavity algorithm     : GePol (No added spheres)
                        Default sphere list used, NSphG=   20.
                        Lebedev-Laikov grids with approx.  5.0 points / Ang**2.
                        Smoothing algorithm: York/Karplus (Gamma=1.0000).
                        Polarization charges: spherical gaussians, with
                                              point-specific exponents (IZeta= 3).
                        Self-potential: point-specific (ISelfS= 7).
                        Self-field    : sphere-specific E.n sum rule (ISelfD= 2).
 1st derivatives      : Analytical E(r).r(x)/FMM algorithm (CHGder, D1EAlg=3).
                        Cavity 1st derivative terms included.
 Solvent              : n-Octanol, Eps=   9.862900 Eps(inf)=   2.043470
 ------------------------------------------------------------------------------
 Spheres list:
 ISph  on   Nord     Re0    Alpha      Xe            Ye            Ze
    1   C      1    1.5000  1.500      3.467161     -0.428262     -0.225253
    2   H      2    1.2000  1.500      3.754690     -1.440554     -0.517303
    3   H      3    1.2000  1.500      4.058988      0.029529      0.571040
    4   H      4    1.2000  1.500      3.474999      0.103648     -1.178485
    5   C      5    1.5000  1.500      2.057681     -0.536443      0.221773
    6   O      6    1.4000  1.500      1.847170     -0.520681      1.384219
    7   O      7    1.4000  1.500      1.166755     -0.536114     -0.733139
    8   C      8    1.5000  1.500     -0.133765     -0.633893     -0.411129
    9   C      9    1.5000  1.500     -0.919793      0.481753     -0.130982
   10   C     10    1.5000  1.150     -0.405119      1.887242     -0.131427
   11   O     11    1.4000  1.150     -1.309483      2.800052     -0.073041
   12   O     12    1.4000  1.150      0.776845      2.174316     -0.082742
   13   C     13    1.5000  1.500     -2.242547      0.264012      0.249855
   14   H     14    1.2000  1.500     -2.929186      1.056635      0.536637
   15   C     15    1.5000  1.500     -2.757994     -1.010644      0.313601
   16   H     16    1.2000  1.500     -3.772872     -1.115140      0.689347
   17   C     17    1.5000  1.500     -2.048668     -2.106233     -0.124165
   18   H     18    1.2000  1.500     -2.452492     -3.114539     -0.097957
   19   C     19    1.5000  1.500     -0.678649     -1.931504     -0.339603
   20   H     20    1.2000  1.500     -0.014269     -2.776333     -0.501677
 ------------------------------------------------------------------------------
 GePol: Number of generator spheres                  =      20
 GePol: Total number of spheres                      =      20
 GePol: Number of exposed spheres                    =      20 (100.00%)
 GePol: Number of points                             =    2108
 GePol: Average weight of points                     =       0.12
 GePol: Minimum weight of points                     =   0.61D-09
 GePol: Maximum weight of points                     =    0.20790
 GePol: Number of points with low weight             =     101
 GePol: Fraction of low-weight points (<1% of avg)   =       4.79%
 GePol: Cavity surface area                          =    243.315 Ang**2
 GePol: Cavity volume                                =    256.788 Ang**3
 Surface areas from nonelectrostatic (unscaled) cavity and vdw tensions:
 Sphere =    1 Type =  CH3 Surf =        5.364 Tension =       -0.183
 Sphere =    2 Type =  CH3 Surf =       10.000 Tension =       -0.183
 Sphere =    3 Type =  CH3 Surf =       10.093 Tension =       -0.183
 Sphere =    4 Type =  CH3 Surf =        9.935 Tension =       -0.183
 Sphere =    5 Type =  C   Surf =        6.527 Tension =       -0.205
 Sphere =    6 Type =  O   Surf =       15.907 Tension =       -0.185
 Sphere =    7 Type =  O   Surf =        9.592 Tension =       -0.185
 Sphere =    8 Type =  C   Surf =        6.000 Tension =       -0.205
 Sphere =    9 Type =  C   Surf =        6.345 Tension =       -0.205
 Sphere =   10 Type =  C   Surf =        7.205 Tension =       -0.205
 Sphere =   11 Type =  O   Surf =       16.030 Tension =       -0.185
 Sphere =   12 Type =  O   Surf =       16.321 Tension =       -0.185
 Sphere =   13 Type =  CH  Surf =        7.412 Tension =       -0.195
 Sphere =   14 Type =  CH  Surf =        9.770 Tension =       -0.195
 Sphere =   15 Type =  CH  Surf =        7.565 Tension =       -0.195
 Sphere =   16 Type =  CH  Surf =       10.198 Tension =       -0.195
 Sphere =   17 Type =  CH  Surf =        7.848 Tension =       -0.195
 Sphere =   18 Type =  CH  Surf =       10.247 Tension =       -0.195
 Sphere =   19 Type =  CH  Surf =        7.729 Tension =       -0.195
 Sphere =   20 Type =  CH  Surf =       10.219 Tension =       -0.195
 PCM non-electrostatic energy =        -0.0092997283 Hartrees.
 Nuclear repulsion after PCM non-electrostatic terms =      773.4133134704 Hartrees.
 Leave Link  301 at Sun Jul 18 13:43:44 2021, MaxMem=   104857600 cpu:               0.1 elap:               0.3
 (Enter /dades/curu/g16A03_MST/g16/l302.exe)
 NPDir=0 NMtPBC=     1 NCelOv=     1 NCel=       1 NClECP=     1 NCelD=      1
         NCelK=      1 NCelE2=     1 NClLst=     1 CellRange=     0.0.
 One-electron integrals computed using PRISM.
 One-electron integral symmetry used in STVInt
 NBasis=   209 RedAO= T EigKep=  4.85D-04  NBF=   209
 NBsUse=   209 1.00D-06 EigRej= -1.00D+00 NBFU=   209
 Precomputing XC quadrature grid using
 IXCGrd= 4 IRadAn=           5 IRanWt=          -1 IRanGd=           0 AccXCQ= 0.00D+00.
 Generated NRdTot=       0 NPtTot=           0 NUsed=           0 NTot=          32
 NSgBfM=   208   208   208   208   208 MxSgAt=    20 MxSgA2=    20.
 Leave Link  302 at Sun Jul 18 13:43:45 2021, MaxMem=   104857600 cpu:               1.8 elap:               0.7
 (Enter /dades/curu/g16A03_MST/g16/l303.exe)
 DipDrv:  MaxL=1.
 Leave Link  303 at Sun Jul 18 13:43:46 2021, MaxMem=   104857600 cpu:               0.1 elap:               0.4
 (Enter /dades/curu/g16A03_MST/g16/l401.exe)
 ExpMin= 1.61D-01 ExpMax= 5.48D+03 ExpMxC= 8.25D+02 IAcc=3 IRadAn=         5 AccDes= 0.00D+00
 Harris functional with IExCor=  402 and IRadAn=       5 diagonalized for initial guess.
 HarFok:  IExCor=  402 AccDes= 0.00D+00 IRadAn=         5 IDoV= 1 UseB2=F ITyADJ=14
 ICtDFT=  3500011 ScaDFX=  1.000000  1.000000  1.000000  1.000000
 FoFCou: FMM=F IPFlag=           0 FMFlag=      100000 FMFlg1=           0
         NFxFlg=           0 DoJE=T BraDBF=F KetDBF=T FulRan=T
         wScrn=  0.000000 ICntrl=       500 IOpCl=  0 I1Cent=   200000004 NGrid=           0
         NMat0=    1 NMatS0=      1 NMatT0=    0 NMatD0=    1 NMtDS0=    0 NMtDT0=    0
 Petite list used in FoFCou.
 Harris En= -648.344256784567    
 JPrj=0 DoOrth=F DoCkMO=F.
 Leave Link  401 at Sun Jul 18 13:43:50 2021, MaxMem=   104857600 cpu:              12.2 elap:               3.4
 (Enter /dades/curu/g16A03_MST/g16/l502.exe)
 Integral symmetry usage will be decided dynamically.
 Closed shell SCF:
 Using DIIS extrapolation, IDIIS=  1040.
 NGot=   104857600 LenX=   104766663 LenY=   104722541
 Requested convergence on RMS density matrix=1.00D-08 within 128 cycles.
 Requested convergence on MAX density matrix=1.00D-06.
 Requested convergence on             energy=1.00D-06.
 No special actions if energy rises.
 Fock matrices will be formed incrementally for  20 cycles.

 Cycle   1  Pass 1  IDiag  1:
 FoFJK:  IHMeth= 1 ICntrl=       0 DoSepK=F KAlg= 0 I1Cent=           0 FoldK=F
 IRaf= 890000000 NMat=       1 IRICut=       1 DoRegI=T DoRafI=F ISym2E= 0 IDoP0=0 IntGTp=1.
 FoFCou: FMM=F IPFlag=           0 FMFlag=      100000 FMFlg1=           0
         NFxFlg=           0 DoJE=F BraDBF=F KetDBF=F FulRan=T
         wScrn=  0.000000 ICntrl=         0 IOpCl=  0 I1Cent=           0 NGrid=           0
         NMat0=    1 NMatS0=      1 NMatT0=    0 NMatD0=    1 NMtDS0=    0 NMtDT0=    0
 Symmetry not used in FoFCou.
 Inv3:  Mode=1 IEnd=    13330992.
 Iteration    1 A*A^-1 deviation from unit magnitude is 6.33D-15 for    520.
 Iteration    1 A*A^-1 deviation from orthogonality  is 3.71D-15 for   2080    384.
 Iteration    1 A^-1*A deviation from unit magnitude is 6.55D-15 for    520.
 Iteration    1 A^-1*A deviation from orthogonality  is 2.97D-15 for   1981   1959.
 E= -647.802178589380    
 DIIS: error= 3.30D-02 at cycle   1 NSaved=   1.
 NSaved= 1 IEnMin= 1 EnMin= -647.802178589380     IErMin= 1 ErrMin= 3.30D-02
 ErrMax= 3.30D-02  0.00D+00 EMaxC= 1.00D-01 BMatC= 4.78D-01 BMatP= 4.78D-01
 IDIUse=3 WtCom= 6.70D-01 WtEn= 3.30D-01
 Coeff-Com:  0.100D+01
 Coeff-En:   0.100D+01
 Coeff:      0.100D+01
 Gap=     0.239 Goal=   None    Shift=    0.000
 GapD=    0.239 DampG=1.000 DampE=0.500 DampFc=0.5000 IDamp=-1.
 Damping current iteration by 5.00D-01
 RMSDP=8.34D-03 MaxDP=2.04D-01              OVMax= 2.47D-01

 Cycle   2  Pass 1  IDiag  1:
 RMSU=  4.15D-03    CP:  9.85D-01
 E= -647.941419542478     Delta-E=       -0.139240953099 Rises=F Damp=T
 DIIS: error= 1.13D-02 at cycle   2 NSaved=   2.
 NSaved= 2 IEnMin= 2 EnMin= -647.941419542478     IErMin= 2 ErrMin= 1.13D-02
 ErrMax= 1.13D-02  0.00D+00 EMaxC= 1.00D-01 BMatC= 5.23D-02 BMatP= 4.78D-01
 IDIUse=3 WtCom= 8.87D-01 WtEn= 1.13D-01
 Coeff-Com:  0.176D+00 0.824D+00
 Coeff-En:   0.272D+00 0.728D+00
 Coeff:      0.187D+00 0.813D+00
 Gap=     0.190 Goal=   None    Shift=    0.000
 RMSDP=2.22D-03 MaxDP=7.55D-02 DE=-1.39D-01 OVMax= 1.76D-01

 Cycle   3  Pass 1  IDiag  1:
 RMSU=  2.02D-03    CP:  9.75D-01  7.89D-01
 E= -648.166542401374     Delta-E=       -0.225122858895 Rises=F Damp=F
 DIIS: error= 1.20D-02 at cycle   3 NSaved=   3.
 NSaved= 3 IEnMin= 3 EnMin= -648.166542401374     IErMin= 2 ErrMin= 1.13D-02
 ErrMax= 1.20D-02  0.00D+00 EMaxC= 1.00D-01 BMatC= 4.42D-02 BMatP= 5.23D-02
 IDIUse=3 WtCom= 8.80D-01 WtEn= 1.20D-01
 Coeff-Com:  0.542D-01 0.477D+00 0.469D+00
 Coeff-En:   0.000D+00 0.000D+00 0.100D+01
 Coeff:      0.477D-01 0.419D+00 0.533D+00
 Gap=     0.178 Goal=   None    Shift=    0.000
 RMSDP=1.39D-03 MaxDP=4.69D-02 DE=-2.25D-01 OVMax= 8.76D-02

 Cycle   4  Pass 1  IDiag  1:
 RMSU=  8.59D-04    CP:  9.79D-01  8.32D-01  4.67D-01
 E= -648.198880887142     Delta-E=       -0.032338485768 Rises=F Damp=F
 DIIS: error= 4.98D-03 at cycle   4 NSaved=   4.
 NSaved= 4 IEnMin= 4 EnMin= -648.198880887142     IErMin= 4 ErrMin= 4.98D-03
 ErrMax= 4.98D-03  0.00D+00 EMaxC= 1.00D-01 BMatC= 8.59D-03 BMatP= 4.42D-02
 IDIUse=3 WtCom= 9.50D-01 WtEn= 4.98D-02
 Coeff-Com:  0.132D-01 0.103D+00 0.315D+00 0.568D+00
 Coeff-En:   0.000D+00 0.000D+00 0.166D+00 0.834D+00
 Coeff:      0.125D-01 0.980D-01 0.308D+00 0.582D+00
 Gap=     0.172 Goal=   None    Shift=    0.000
 RMSDP=4.67D-04 MaxDP=1.72D-02 DE=-3.23D-02 OVMax= 2.93D-02

 Cycle   5  Pass 1  IDiag  1:
 RMSU=  2.30D-04    CP:  9.78D-01  8.10D-01  6.05D-01  6.71D-01
 E= -648.205118174145     Delta-E=       -0.006237287003 Rises=F Damp=F
 DIIS: error= 1.98D-03 at cycle   5 NSaved=   5.
 NSaved= 5 IEnMin= 5 EnMin= -648.205118174145     IErMin= 5 ErrMin= 1.98D-03
 ErrMax= 1.98D-03  0.00D+00 EMaxC= 1.00D-01 BMatC= 7.49D-04 BMatP= 8.59D-03
 IDIUse=3 WtCom= 9.80D-01 WtEn= 1.98D-02
 Coeff-Com:  0.331D-02 0.533D-02 0.128D+00 0.348D+00 0.516D+00
 Coeff-En:   0.000D+00 0.000D+00 0.000D+00 0.197D-02 0.998D+00
 Coeff:      0.325D-02 0.523D-02 0.125D+00 0.341D+00 0.525D+00
 Gap=     0.174 Goal=   None    Shift=    0.000
 RMSDP=1.43D-04 MaxDP=5.46D-03 DE=-6.24D-03 OVMax= 6.05D-03

 Cycle   6  Pass 1  IDiag  1:
 RMSU=  7.88D-05    CP:  9.78D-01  8.11D-01  6.03D-01  7.04D-01  4.98D-01
 E= -648.205666199097     Delta-E=       -0.000548024952 Rises=F Damp=F
 DIIS: error= 4.13D-04 at cycle   6 NSaved=   6.
 NSaved= 6 IEnMin= 6 EnMin= -648.205666199097     IErMin= 6 ErrMin= 4.13D-04
 ErrMax= 4.13D-04  0.00D+00 EMaxC= 1.00D-01 BMatC= 4.42D-05 BMatP= 7.49D-04
 IDIUse=3 WtCom= 9.96D-01 WtEn= 4.13D-03
 Coeff-Com:  0.108D-02-0.284D-02 0.486D-01 0.143D+00 0.286D+00 0.524D+00
 Coeff-En:   0.000D+00 0.000D+00 0.000D+00 0.000D+00 0.000D+00 0.100D+01
 Coeff:      0.108D-02-0.283D-02 0.484D-01 0.143D+00 0.285D+00 0.526D+00
 Gap=     0.174 Goal=   None    Shift=    0.000
 RMSDP=3.84D-05 MaxDP=1.49D-03 DE=-5.48D-04 OVMax= 2.40D-03

 Cycle   7  Pass 1  IDiag  1:
 RMSU=  2.22D-05    CP:  9.78D-01  8.11D-01  6.04D-01  7.05D-01  5.64D-01
                    CP:  6.55D-01
 E= -648.205698282370     Delta-E=       -0.000032083273 Rises=F Damp=F
 DIIS: error= 1.62D-04 at cycle   7 NSaved=   7.
 NSaved= 7 IEnMin= 7 EnMin= -648.205698282370     IErMin= 7 ErrMin= 1.62D-04
 ErrMax= 1.62D-04  0.00D+00 EMaxC= 1.00D-01 BMatC= 4.86D-06 BMatP= 4.42D-05
 IDIUse=3 WtCom= 9.98D-01 WtEn= 1.62D-03
 Coeff-Com:  0.388D-03-0.224D-02 0.166D-01 0.505D-01 0.121D+00 0.312D+00
 Coeff-Com:  0.502D+00
 Coeff-En:   0.000D+00 0.000D+00 0.000D+00 0.000D+00 0.000D+00 0.358D-01
 Coeff-En:   0.964D+00
 Coeff:      0.388D-03-0.224D-02 0.166D-01 0.504D-01 0.120D+00 0.312D+00
 Coeff:      0.503D+00
 Gap=     0.174 Goal=   None    Shift=    0.000
 RMSDP=1.29D-05 MaxDP=4.59D-04 DE=-3.21D-05 OVMax= 9.03D-04

 Cycle   8  Pass 1  IDiag  1:
 RMSU=  7.45D-06    CP:  9.78D-01  8.11D-01  6.05D-01  7.06D-01  5.61D-01
                    CP:  6.77D-01  5.39D-01
 E= -648.205702087017     Delta-E=       -0.000003804647 Rises=F Damp=F
 DIIS: error= 5.34D-05 at cycle   8 NSaved=   8.
 NSaved= 8 IEnMin= 8 EnMin= -648.205702087017     IErMin= 8 ErrMin= 5.34D-05
 ErrMax= 5.34D-05  0.00D+00 EMaxC= 1.00D-01 BMatC= 4.50D-07 BMatP= 4.86D-06
 IDIUse=1 WtCom= 1.00D+00 WtEn= 0.00D+00
 Coeff-Com:  0.138D-03-0.100D-02 0.443D-02 0.135D-01 0.396D-01 0.123D+00
 Coeff-Com:  0.288D+00 0.532D+00
 Coeff:      0.138D-03-0.100D-02 0.443D-02 0.135D-01 0.396D-01 0.123D+00
 Coeff:      0.288D+00 0.532D+00
 Gap=     0.174 Goal=   None    Shift=    0.000
 RMSDP=3.99D-06 MaxDP=1.60D-04 DE=-3.80D-06 OVMax= 2.62D-04

 Cycle   9  Pass 1  IDiag  1:
 RMSU=  2.17D-06    CP:  9.78D-01  8.11D-01  6.05D-01  7.06D-01  5.63D-01
                    CP:  6.77D-01  5.98D-01  6.20D-01
 E= -648.205702423186     Delta-E=       -0.000000336169 Rises=F Damp=F
 DIIS: error= 1.07D-05 at cycle   9 NSaved=   9.
 NSaved= 9 IEnMin= 9 EnMin= -648.205702423186     IErMin= 9 ErrMin= 1.07D-05
 ErrMax= 1.07D-05  0.00D+00 EMaxC= 1.00D-01 BMatC= 3.73D-08 BMatP= 4.50D-07
 IDIUse=1 WtCom= 1.00D+00 WtEn= 0.00D+00
 Coeff-Com:  0.260D-04-0.225D-03 0.488D-04-0.804D-04 0.407D-02 0.195D-01
 Coeff-Com:  0.763D-01 0.268D+00 0.632D+00
 Coeff:      0.260D-04-0.225D-03 0.488D-04-0.804D-04 0.407D-02 0.195D-01
 Coeff:      0.763D-01 0.268D+00 0.632D+00
 Gap=     0.174 Goal=   None    Shift=    0.000
 RMSDP=1.20D-06 MaxDP=3.43D-05 DE=-3.36D-07 OVMax= 5.64D-05

 Cycle  10  Pass 1  IDiag  1:
 RMSU=  9.13D-07    CP:  9.78D-01  8.11D-01  6.05D-01  7.06D-01  5.63D-01
                    CP:  6.79D-01  6.06D-01  6.82D-01  7.55D-01
 E= -648.205702446513     Delta-E=       -0.000000023327 Rises=F Damp=F
 DIIS: error= 4.58D-06 at cycle  10 NSaved=  10.
 NSaved=10 IEnMin=10 EnMin= -648.205702446513     IErMin=10 ErrMin= 4.58D-06
 ErrMax= 4.58D-06  0.00D+00 EMaxC= 1.00D-01 BMatC= 7.21D-09 BMatP= 3.73D-08
 IDIUse=1 WtCom= 1.00D+00 WtEn= 0.00D+00
 Coeff-Com:  0.677D-05-0.506D-04-0.303D-03-0.111D-02-0.874D-03 0.803D-03
 Coeff-Com:  0.192D-01 0.114D+00 0.383D+00 0.485D+00
 Coeff:      0.677D-05-0.506D-04-0.303D-03-0.111D-02-0.874D-03 0.803D-03
 Coeff:      0.192D-01 0.114D+00 0.383D+00 0.485D+00
 Gap=     0.174 Goal=   None    Shift=    0.000
 RMSDP=4.89D-07 MaxDP=1.40D-05 DE=-2.33D-08 OVMax= 3.73D-05

 Cycle  11  Pass 1  IDiag  1:
 RMSU=  2.23D-07    CP:  9.78D-01  8.11D-01  6.05D-01  7.06D-01  5.63D-01
                    CP:  6.80D-01  6.06D-01  6.90D-01  8.06D-01  5.75D-01
 E= -648.205702453714     Delta-E=       -0.000000007202 Rises=F Damp=F
 DIIS: error= 7.33D-07 at cycle  11 NSaved=  11.
 NSaved=11 IEnMin=11 EnMin= -648.205702453714     IErMin=11 ErrMin= 7.33D-07
 ErrMax= 7.33D-07  0.00D+00 EMaxC= 1.00D-01 BMatC= 2.16D-10 BMatP= 7.21D-09
 IDIUse=1 WtCom= 1.00D+00 WtEn= 0.00D+00
 Coeff-Com:  0.898D-06-0.130D-05-0.118D-03-0.430D-03-0.689D-03-0.130D-02
 Coeff-Com:  0.129D-02 0.234D-01 0.896D-01 0.194D+00 0.694D+00
 Coeff:      0.898D-06-0.130D-05-0.118D-03-0.430D-03-0.689D-03-0.130D-02
 Coeff:      0.129D-02 0.234D-01 0.896D-01 0.194D+00 0.694D+00
 Gap=     0.174 Goal=   None    Shift=    0.000
 RMSDP=9.82D-08 MaxDP=3.96D-06 DE=-7.20D-09 OVMax= 8.64D-06

 Cycle  12  Pass 1  IDiag  1:
 RMSU=  6.89D-08    CP:  9.78D-01  8.11D-01  6.05D-01  7.06D-01  5.63D-01
                    CP:  6.79D-01  6.06D-01  6.93D-01  8.13D-01  6.27D-01
                    CP:  8.30D-01
 E= -648.205702453875     Delta-E=       -0.000000000161 Rises=F Damp=F
 DIIS: error= 3.63D-07 at cycle  12 NSaved=  12.
 NSaved=12 IEnMin=12 EnMin= -648.205702453875     IErMin=12 ErrMin= 3.63D-07
 ErrMax= 3.63D-07  0.00D+00 EMaxC= 1.00D-01 BMatC= 5.15D-11 BMatP= 2.16D-10
 IDIUse=1 WtCom= 1.00D+00 WtEn= 0.00D+00
 Coeff-Com: -0.192D-06 0.447D-05-0.398D-04-0.143D-03-0.341D-03-0.938D-03
 Coeff-Com: -0.147D-02 0.146D-02 0.904D-02 0.629D-01 0.404D+00 0.526D+00
 Coeff:     -0.192D-06 0.447D-05-0.398D-04-0.143D-03-0.341D-03-0.938D-03
 Coeff:     -0.147D-02 0.146D-02 0.904D-02 0.629D-01 0.404D+00 0.526D+00
 Gap=     0.174 Goal=   None    Shift=    0.000
 RMSDP=3.45D-08 MaxDP=1.46D-06 DE=-1.61D-10 OVMax= 2.09D-06

 Cycle  13  Pass 1  IDiag  1:
 RMSU=  1.76D-08    CP:  9.78D-01  8.11D-01  6.05D-01  7.06D-01  5.63D-01
                    CP:  6.80D-01  6.06D-01  6.93D-01  8.15D-01  6.32D-01
                    CP:  8.85D-01  6.58D-01
 E= -648.205702453945     Delta-E=       -0.000000000070 Rises=F Damp=F
 DIIS: error= 3.30D-08 at cycle  13 NSaved=  13.
 NSaved=13 IEnMin=13 EnMin= -648.205702453945     IErMin=13 ErrMin= 3.30D-08
 ErrMax= 3.30D-08  0.00D+00 EMaxC= 1.00D-01 BMatC= 5.48D-13 BMatP= 5.15D-11
 IDIUse=1 WtCom= 1.00D+00 WtEn= 0.00D+00
 Coeff-Com: -0.454D-07 0.744D-06 0.161D-05 0.502D-05-0.201D-04-0.114D-03
 Coeff-Com: -0.436D-03-0.153D-02-0.655D-02-0.778D-03 0.412D-01 0.952D-01
 Coeff-Com:  0.873D+00
 Coeff:     -0.454D-07 0.744D-06 0.161D-05 0.502D-05-0.201D-04-0.114D-03
 Coeff:     -0.436D-03-0.153D-02-0.655D-02-0.778D-03 0.412D-01 0.952D-01
 Coeff:      0.873D+00
 Gap=     0.174 Goal=   None    Shift=    0.000
 RMSDP=6.93D-09 MaxDP=1.49D-07 DE=-7.05D-11 OVMax= 4.67D-07

 Error on total polarization charges =  0.00471
 SCF Done:  E(RB3LYP) =  -648.205702454     A.U. after   13 cycles
            NFock= 13  Conv=0.69D-08     -V/T= 2.0079
 KE= 6.431503071137D+02 PE=-3.078354467350D+03 EE= 1.013585144312D+03
 Leave Link  502 at Sun Jul 18 13:45:26 2021, MaxMem=   104857600 cpu:             369.8 elap:              95.7
 (Enter /dades/curu/g16A03_MST/g16/l601.exe)
 Copying SCF densities to generalized density rwf, IOpCl= 0 IROHF=0.

 **********************************************************************

            Population analysis using the SCF density.

 **********************************************************************

 Orbital symmetries:
       Occupied  (A) (A) (A) (A) (A) (A) (A) (A) (A) (A) (A) (A)
                 (A) (A) (A) (A) (A) (A) (A) (A) (A) (A) (A) (A)
                 (A) (A) (A) (A) (A) (A) (A) (A) (A) (A) (A) (A)
                 (A) (A) (A) (A) (A) (A) (A) (A) (A) (A) (A)
       Virtual   (A) (A) (A) (A) (A) (A) (A) (A) (A) (A) (A) (A)
                 (A) (A) (A) (A) (A) (A) (A) (A) (A) (A) (A) (A)
                 (A) (A) (A) (A) (A) (A) (A) (A) (A) (A) (A) (A)
                 (A) (A) (A) (A) (A) (A) (A) (A) (A) (A) (A) (A)
                 (A) (A) (A) (A) (A) (A) (A) (A) (A) (A) (A) (A)
                 (A) (A) (A) (A) (A) (A) (A) (A) (A) (A) (A) (A)
                 (A) (A) (A) (A) (A) (A) (A) (A) (A) (A) (A) (A)
                 (A) (A) (A) (A) (A) (A) (A) (A) (A) (A) (A) (A)
                 (A) (A) (A) (A) (A) (A) (A) (A) (A) (A) (A) (A)
                 (A) (A) (A) (A) (A) (A) (A) (A) (A) (A) (A) (A)
                 (A) (A) (A) (A) (A) (A) (A) (A) (A) (A) (A) (A)
                 (A) (A) (A) (A) (A) (A) (A) (A) (A) (A) (A) (A)
                 (A) (A) (A) (A) (A) (A) (A) (A) (A) (A) (A) (A)
                 (A) (A) (A) (A) (A) (A)
 The electronic state is 1-A.
 Alpha  occ. eigenvalues --  -19.18944 -19.11171 -19.05007 -19.03284 -10.29730
 Alpha  occ. eigenvalues --  -10.23526 -10.23240 -10.18144 -10.18073 -10.17473
 Alpha  occ. eigenvalues --  -10.17231 -10.17136 -10.16992  -1.12641  -1.02305
 Alpha  occ. eigenvalues --   -0.99338  -0.88328  -0.84486  -0.76716  -0.73916
 Alpha  occ. eigenvalues --   -0.71859  -0.64095  -0.60978  -0.55824  -0.51218
 Alpha  occ. eigenvalues --   -0.48352  -0.48090  -0.47281  -0.45337  -0.43702
 Alpha  occ. eigenvalues --   -0.41704  -0.40766  -0.40016  -0.38623  -0.37134
 Alpha  occ. eigenvalues --   -0.36744  -0.36124  -0.34839  -0.33793  -0.33288
 Alpha  occ. eigenvalues --   -0.29717  -0.25395  -0.23733  -0.23079  -0.21021
 Alpha  occ. eigenvalues --   -0.20365  -0.17963
 Alpha virt. eigenvalues --   -0.00556   0.01433   0.04167   0.10985   0.11303
 Alpha virt. eigenvalues --    0.12547   0.15964   0.16887   0.17956   0.18987
 Alpha virt. eigenvalues --    0.19806   0.20738   0.22939   0.26816   0.28681
 Alpha virt. eigenvalues --    0.30093   0.32950   0.34746   0.35434   0.36821
 Alpha virt. eigenvalues --    0.40243   0.42847   0.44134   0.51139   0.53302
 Alpha virt. eigenvalues --    0.54829   0.55347   0.56256   0.56991   0.57490
 Alpha virt. eigenvalues --    0.58333   0.59370   0.60586   0.61940   0.62320
 Alpha virt. eigenvalues --    0.63432   0.64504   0.65510   0.65933   0.67902
 Alpha virt. eigenvalues --    0.69872   0.71649   0.72746   0.74717   0.76417
 Alpha virt. eigenvalues --    0.78712   0.79714   0.83581   0.84677   0.84748
 Alpha virt. eigenvalues --    0.85399   0.87409   0.89013   0.90320   0.90841
 Alpha virt. eigenvalues --    0.92560   0.94260   0.95635   0.96158   0.97014
 Alpha virt. eigenvalues --    0.98923   1.02236   1.03122   1.04230   1.05767
 Alpha virt. eigenvalues --    1.07162   1.09046   1.12093   1.14181   1.15103
 Alpha virt. eigenvalues --    1.19625   1.21857   1.24306   1.26621   1.27662
 Alpha virt. eigenvalues --    1.32548   1.32733   1.37818   1.38641   1.41916
 Alpha virt. eigenvalues --    1.42535   1.44641   1.49388   1.50893   1.51878
 Alpha virt. eigenvalues --    1.54004   1.55558   1.56545   1.62762   1.69595
 Alpha virt. eigenvalues --    1.73799   1.74249   1.75533   1.77750   1.79522
 Alpha virt. eigenvalues --    1.82254   1.83380   1.84389   1.88211   1.90597
 Alpha virt. eigenvalues --    1.91048   1.91745   1.93577   1.94556   1.95909
 Alpha virt. eigenvalues --    1.99171   2.00530   2.01526   2.02704   2.06624
 Alpha virt. eigenvalues --    2.09137   2.09893   2.12152   2.14348   2.15029
 Alpha virt. eigenvalues --    2.17657   2.19467   2.21124   2.24232   2.26713
 Alpha virt. eigenvalues --    2.29132   2.32452   2.35811   2.38464   2.40171
 Alpha virt. eigenvalues --    2.44568   2.48862   2.53601   2.59255   2.62264
 Alpha virt. eigenvalues --    2.64026   2.66042   2.67577   2.71699   2.73835
 Alpha virt. eigenvalues --    2.77199   2.78184   2.82229   2.86391   2.88912
 Alpha virt. eigenvalues --    2.91733   2.97839   3.01536   3.04670   3.13303
 Alpha virt. eigenvalues --    3.17975   3.24965   3.30766   3.46831   3.92781
 Alpha virt. eigenvalues --    4.11495   4.11654   4.13125   4.14615   4.20239
 Alpha virt. eigenvalues --    4.27588   4.35814   4.42104   4.46930   4.49450
 Alpha virt. eigenvalues --    4.65537   4.79677
          Condensed to atoms (all electrons):
               1          2          3          4          5          6
     1  C    5.306112   0.347971   0.368978   0.339501   0.372144  -0.102085
     2  H    0.347971   0.538021  -0.015134  -0.029189  -0.022089   0.000024
     3  H    0.368978  -0.015134   0.497592  -0.017871  -0.024319   0.002892
     4  H    0.339501  -0.029189  -0.017871   0.549131  -0.029204   0.003582
     5  C    0.372144  -0.022089  -0.024319  -0.029204   4.250990   0.595114
     6  O   -0.102085   0.000024   0.002892   0.003582   0.595114   8.049471
     7  O   -0.101876   0.002342   0.002704   0.008270   0.254569  -0.078731
     8  C    0.003325  -0.000246  -0.000087   0.000202  -0.011445   0.015989
     9  C    0.000115  -0.000023   0.000008  -0.000017  -0.009006   0.000384
    10  C   -0.000377   0.000010   0.000007   0.000069   0.002644   0.000362
    11  O   -0.000001   0.000000   0.000000   0.000000   0.000066  -0.000001
    12  O   -0.000961   0.000024   0.000031   0.000787   0.018580  -0.002751
    13  C    0.000010  -0.000000  -0.000000  -0.000001  -0.000131  -0.000236
    14  H   -0.000000  -0.000000   0.000000  -0.000000  -0.000013  -0.000000
    15  C   -0.000001   0.000000  -0.000000   0.000000  -0.000048   0.000031
    16  H    0.000000   0.000000  -0.000000   0.000000   0.000000   0.000000
    17  C    0.000007  -0.000001   0.000000  -0.000000   0.000311  -0.000099
    18  H   -0.000000   0.000000   0.000000   0.000000  -0.000009   0.000000
    19  C   -0.000366   0.000083   0.000002   0.000013  -0.003810   0.000462
    20  H   -0.000275   0.000059   0.000004   0.000009   0.001079  -0.000141
               7          8          9         10         11         12
     1  C   -0.101876   0.003325   0.000115  -0.000377  -0.000001  -0.000961
     2  H    0.002342  -0.000246  -0.000023   0.000010   0.000000   0.000024
     3  H    0.002704  -0.000087   0.000008   0.000007   0.000000   0.000031
     4  H    0.008270   0.000202  -0.000017   0.000069   0.000000   0.000787
     5  C    0.254569  -0.011445  -0.009006   0.002644   0.000066   0.018580
     6  O   -0.078731   0.015989   0.000384   0.000362  -0.000001  -0.002751
     7  O    8.318013   0.177470  -0.043584  -0.010797  -0.000013  -0.005927
     8  C    0.177470   4.760023   0.460749  -0.034912   0.002749  -0.002656
     9  C   -0.043584   0.460749   5.327960   0.164138  -0.163570  -0.125376
    10  C   -0.010797  -0.034912   0.164138   4.408419   0.525807   0.537287
    11  O   -0.000013   0.002749  -0.163570   0.525807   8.439352  -0.127987
    12  O   -0.005927  -0.002656  -0.125376   0.537287  -0.127987   8.325682
    13  C    0.005549  -0.042015   0.447058  -0.042086   0.009588   0.005269
    14  H   -0.000042   0.004403  -0.041875  -0.004754   0.019608   0.000372
    15  C   -0.000111  -0.047809  -0.020857   0.008199   0.001967  -0.000057
    16  H    0.000002   0.000855   0.005231  -0.000117  -0.000001   0.000001
    17  C    0.004616  -0.005664  -0.047616  -0.000784  -0.000035  -0.000012
    18  H   -0.000073   0.004017   0.000456   0.000007  -0.000000  -0.000000
    19  C   -0.059665   0.484874  -0.032010   0.006762  -0.000050   0.000285
    20  H   -0.001666  -0.041080   0.006620  -0.000007   0.000001   0.000007
              13         14         15         16         17         18
     1  C    0.000010  -0.000000  -0.000001   0.000000   0.000007  -0.000000
     2  H   -0.000000  -0.000000   0.000000   0.000000  -0.000001   0.000000
     3  H   -0.000000   0.000000  -0.000000  -0.000000   0.000000   0.000000
     4  H   -0.000001  -0.000000   0.000000   0.000000  -0.000000   0.000000
     5  C   -0.000131  -0.000013  -0.000048   0.000000   0.000311  -0.000009
     6  O   -0.000236  -0.000000   0.000031   0.000000  -0.000099   0.000000
     7  O    0.005549  -0.000042  -0.000111   0.000002   0.004616  -0.000073
     8  C   -0.042015   0.004403  -0.047809   0.000855  -0.005664   0.004017
     9  C    0.447058  -0.041875  -0.020857   0.005231  -0.047616   0.000456
    10  C   -0.042086  -0.004754   0.008199  -0.000117  -0.000784   0.000007
    11  O    0.009588   0.019608   0.001967  -0.000001  -0.000035  -0.000000
    12  O    0.005269   0.000372  -0.000057   0.000001  -0.000012  -0.000000
    13  C    5.126717   0.351860   0.439453  -0.039485  -0.013852   0.004499
    14  H    0.351860   0.576839  -0.046572  -0.007894   0.005848  -0.000196
    15  C    0.439453  -0.046572   4.984215   0.358094   0.517118  -0.041820
    16  H   -0.039485  -0.007894   0.358094   0.606011  -0.049192  -0.005490
    17  C   -0.013852   0.005848   0.517118  -0.049192   4.925903   0.357984
    18  H    0.004499  -0.000196  -0.041820  -0.005490   0.357984   0.587530
    19  C   -0.058257   0.000265  -0.023674   0.005162   0.496884  -0.038889
    20  H    0.000202   0.000016   0.005478  -0.000184  -0.042870  -0.005844
              19         20
     1  C   -0.000366  -0.000275
     2  H    0.000083   0.000059
     3  H    0.000002   0.000004
     4  H    0.000013   0.000009
     5  C   -0.003810   0.001079
     6  O    0.000462  -0.000141
     7  O   -0.059665  -0.001666
     8  C    0.484874  -0.041080
     9  C   -0.032010   0.006620
    10  C    0.006762  -0.000007
    11  O   -0.000050   0.000001
    12  O    0.000285   0.000007
    13  C   -0.058257   0.000202
    14  H    0.000265   0.000016
    15  C   -0.023674   0.005478
    16  H    0.005162  -0.000184
    17  C    0.496884  -0.042870
    18  H   -0.038889  -0.005844
    19  C    5.046158   0.348075
    20  H    0.348075   0.596493
 Mulliken charges:
               1
     1  C   -0.532224
     2  H    0.178147
     3  H    0.185191
     4  H    0.174718
     5  C    0.604576
     6  O   -0.484267
     7  O   -0.471050
     8  C    0.271258
     9  C    0.071216
    10  C    0.440122
    11  O   -0.707481
    12  O   -0.622598
    13  C   -0.194141
    14  H    0.142134
    15  C   -0.133606
    16  H    0.127007
    17  C   -0.148548
    18  H    0.137829
    19  C   -0.172305
    20  H    0.134022
 Sum of Mulliken charges =  -1.00000
 Mulliken charges with hydrogens summed into heavy atoms:
               1
     1  C    0.005833
     5  C    0.604576
     6  O   -0.484267
     7  O   -0.471050
     8  C    0.271258
     9  C    0.071216
    10  C    0.440122
    11  O   -0.707481
    12  O   -0.622598
    13  C   -0.052008
    15  C   -0.006599
    17  C   -0.010719
    19  C   -0.038283
 Electronic spatial extent (au):  <R**2>=           2235.5230
 Charge=             -1.0000 electrons
 Dipole moment (field-independent basis, Debye):
    X=              1.0966    Y=            -12.3809    Z=             -1.5695  Tot=             12.5281
 Quadrupole moment (field-independent basis, Debye-Ang):
   XX=            -74.1421   YY=           -103.7442   ZZ=            -79.6737
   XY=              5.7722   XZ=             -5.5851   YZ=              2.5888
 Traceless Quadrupole moment (field-independent basis, Debye-Ang):
   XX=             11.7112   YY=            -17.8909   ZZ=              6.1796
   XY=              5.7722   XZ=             -5.5851   YZ=              2.5888
 Octapole moment (field-independent basis, Debye-Ang**2):
  XXX=             25.4576  YYY=           -103.4548  ZZZ=             -4.3779  XYY=             23.5902
  XXY=            -21.9169  XXZ=              0.8317  XZZ=              0.6787  YZZ=              9.0023
  YYZ=              1.1785  XYZ=              3.0607
 Hexadecapole moment (field-independent basis, Debye-Ang**3):
 XXXX=          -1571.5139 YYYY=          -1275.5774 ZZZZ=           -191.3429 XXXY=             10.8314
 XXXZ=            -28.0831 YYYX=             69.7503 YYYZ=             10.8355 ZZZX=             -7.6548
 ZZZY=             -0.2516 XXYY=           -485.6737 XXZZ=           -325.0724 YYZZ=           -210.3952
 XXYZ=              8.0838 YYXZ=             -4.4706 ZZXY=             -2.5387
 N-N= 7.734133134704D+02 E-N=-3.078354466602D+03  KE= 6.431503071137D+02
 No NMR shielding tensors so no spin-rotation constants.
 Leave Link  601 at Sun Jul 18 13:45:27 2021, MaxMem=   104857600 cpu:               0.6 elap:               0.3
 (Enter /dades/curu/g16A03_MST/g16/l701.exe)
 ... and contract with generalized density number  0.
 Compute integral first derivatives.
 D1PCM: PCM CHGder 1st derivatives, ID1Alg=3 FixD1E=F DoIter=F DoCFld=F I1PDM=0.
 GePol: Maximum number of non-zero 1st derivatives   =     225
 Leave Link  701 at Sun Jul 18 13:45:30 2021, MaxMem=   104857600 cpu:               9.4 elap:               2.7
 (Enter /dades/curu/g16A03_MST/g16/l702.exe)
 L702 exits ... SP integral derivatives will be done elsewhere.
 Leave Link  702 at Sun Jul 18 13:45:30 2021, MaxMem=   104857600 cpu:               0.0 elap:               0.0
 (Enter /dades/curu/g16A03_MST/g16/l703.exe)
 Integral derivatives from FoFJK, PRISM(SPDF).
 Compute integral first derivatives, UseDBF=F ICtDFT=           0.
 Calling FoFJK, ICntrl=      2127 FMM=F ISym2X=0 I1Cent= 0 IOpClX= 0 NMat=1 NMatS=1 NMatT=0.
 FoFJK:  IHMeth= 1 ICntrl=    2127 DoSepK=F KAlg= 0 I1Cent=           0 FoldK=F
 IRaf=         0 NMat=       1 IRICut=       1 DoRegI=T DoRafI=F ISym2E= 0 IDoP0=0 IntGTp=1.
 FoFCou: FMM=F IPFlag=           0 FMFlag=      100000 FMFlg1=         800
         NFxFlg=           0 DoJE=F BraDBF=F KetDBF=F FulRan=T
         wScrn=  0.000000 ICntrl=      2127 IOpCl=  0 I1Cent=           0 NGrid=           0
         NMat0=    1 NMatS0=      1 NMatT0=    0 NMatD0=    1 NMtDS0=    0 NMtDT0=    0
 Symmetry not used in FoFCou.
 Leave Link  703 at Sun Jul 18 13:45:42 2021, MaxMem=   104857600 cpu:              48.4 elap:              12.3
 (Enter /dades/curu/g16A03_MST/g16/l716.exe)
 Dipole        = 4.31433011D-01-4.87102087D+00-6.17506197D-01
 ***** Axes restored to original set *****
 -------------------------------------------------------------------
 Center     Atomic                   Forces (Hartrees/Bohr)
 Number     Number              X              Y              Z
 -------------------------------------------------------------------
      1        6           0.031184234    0.001946875   -0.012500528
      2        1          -0.011517867   -0.004465099   -0.007820413
      3        1           0.005472570    0.002113997   -0.007026213
      4        1          -0.004837055   -0.010490964    0.000690496
      5        6          -0.015413015   -0.047323620   -0.016877005
      6        8          -0.046509577    0.038557797    0.037642296
      7        8           0.034764620   -0.011337729   -0.023486139
      8        6          -0.001279392    0.047487083    0.022708110
      9        6           0.000741634   -0.005048171   -0.000812364
     10        6           0.016166042    0.006142568    0.072663026
     11        8           0.006489014    0.013819405   -0.007032316
     12        8          -0.022321019   -0.033766310   -0.054634569
     13        6          -0.001981797    0.005338282    0.006407311
     14        1          -0.001909449   -0.012689359   -0.006548427
     15        6           0.012799443    0.016794150    0.018278804
     16        1           0.004260300    0.002570437   -0.002486880
     17        6          -0.025132994   -0.000192092   -0.020606544
     18        1           0.000942430   -0.001118153    0.002776876
     19        6           0.013900766   -0.008435051   -0.001568661
     20        1           0.004181111    0.000095955    0.000233140
 -------------------------------------------------------------------
 Cartesian Forces:  Max     0.072663026 RMS     0.021216268
 Leave Link  716 at Sun Jul 18 13:45:42 2021, MaxMem=   104857600 cpu:               0.1 elap:               0.0
 (Enter /dades/curu/g16A03_MST/g16/l103.exe)

 GradGradGradGradGradGradGradGradGradGradGradGradGradGradGradGradGradGrad
 Berny optimization.
 FormGI is forming the generalized inverse of G from B-inverse, IUseBI=4.
 Internal  Forces:  Max     0.067239609 RMS     0.014820604
 Search for a local minimum.
 Step number   1 out of a maximum of   99
 All quantities printed in internal units (Hartrees-Bohrs-Radians)
 RMS Force = .14821D-01 SwitMx=.10000D-02 MixMth= 1
 Mixed Optimization -- RFO/linear search
 Second derivative matrix not updated -- first step.
 ITU=  0
     Eigenvalues ---    0.00809   0.00869   0.00996   0.01586   0.01746
     Eigenvalues ---    0.02042   0.02102   0.02153   0.02214   0.02275
     Eigenvalues ---    0.02341   0.02401   0.02407   0.02441   0.02935
     Eigenvalues ---    0.07602   0.08391   0.15552   0.15983   0.15987
     Eigenvalues ---    0.15996   0.16000   0.16000   0.16000   0.21747
     Eigenvalues ---    0.22265   0.24422   0.24936   0.24937   0.24995
     Eigenvalues ---    0.25000   0.25000   0.25000   0.25000   0.32720
     Eigenvalues ---    0.34271   0.34507   0.34570   0.34626   0.35134
     Eigenvalues ---    0.35140   0.35170   0.35222   0.41484   0.42864
     Eigenvalues ---    0.45736   0.46359   0.48398   0.49335   0.56460
     Eigenvalues ---    0.65557   0.71153   0.96590   1.14720
 RFO step:  Lambda=-4.48757150D-02 EMin= 8.08808713D-03
 Linear search not attempted -- first point.
 Maximum step size (   0.300) exceeded in Quadratic search.
    -- Step size scaled by   0.968
 Iteration  1 RMS(Cart)=  0.08096279 RMS(Int)=  0.00451436
 Iteration  2 RMS(Cart)=  0.00606452 RMS(Int)=  0.00160939
 Iteration  3 RMS(Cart)=  0.00002496 RMS(Int)=  0.00160929
 Iteration  4 RMS(Cart)=  0.00000005 RMS(Int)=  0.00160929
 ITry= 1 IFail=0 DXMaxC= 2.42D-01 DCOld= 1.00D+10 DXMaxT= 3.00D-01 DXLimC= 3.00D+00 Rises=F
 Variable       Old X    -DE/DX   Delta X   Delta X   Delta X     New X
                                 (Linear)    (Quad)   (Total)
    R1        2.06379   0.00359   0.00000   0.00889   0.00889   2.07267
    R2        2.06484  -0.00663   0.00000  -0.01646  -0.01646   2.04838
    R3        2.06287   0.00155   0.00000   0.00384   0.00384   2.06671
    R4        2.80175   0.02527   0.00000   0.06308   0.06308   2.86483
    R5        2.23263   0.06724   0.00000   0.05458   0.05458   2.28721
    R6        2.46796   0.04572   0.00000   0.06317   0.06317   2.53113
    R7        2.53857   0.04319   0.00000   0.06858   0.06858   2.60715
    R8        2.63275   0.00894   0.00000   0.01537   0.01551   2.64826
    R9        2.66298  -0.00775   0.00000  -0.01757  -0.01765   2.64533
   R10        2.82847   0.01669   0.00000   0.04341   0.04341   2.87188
   R11        2.63353   0.00599   0.00000   0.01191   0.01212   2.64565
   R12        2.43071  -0.00648   0.00000  -0.00829  -0.00829   2.42242
   R13        2.30036   0.06273   0.00000   0.06005   0.06005   2.36042
   R14        2.05448  -0.00484   0.00000  -0.01182  -0.01182   2.04266
   R15        2.60103   0.01826   0.00000   0.03450   0.03458   2.63561
   R16        2.05458   0.00013   0.00000   0.00032   0.00032   2.05490
   R17        2.60145   0.01747   0.00000   0.03267   0.03256   2.63400
   R18        2.05315  -0.00188   0.00000  -0.00458  -0.00458   2.04858
   R19        2.64149  -0.00199   0.00000  -0.00441  -0.00465   2.63684
   R20        2.05399  -0.00086   0.00000  -0.00210  -0.00210   2.05189
    A1        2.02710  -0.01234   0.00000  -0.07028  -0.07022   1.95688
    A2        1.78876   0.00093   0.00000   0.02746   0.02419   1.81295
    A3        1.83722   0.01256   0.00000   0.06209   0.06059   1.89781
    A4        2.01345  -0.00897   0.00000  -0.04894  -0.04897   1.96448
    A5        1.90261   0.00119   0.00000  -0.00354  -0.00352   1.89908
    A6        1.88143   0.00980   0.00000   0.05097   0.04950   1.93093
    A7        2.05451   0.03256   0.00000   0.10979   0.10695   2.16146
    A8        2.01314  -0.01764   0.00000  -0.05491  -0.05762   1.95551
    A9        2.21162  -0.01420   0.00000  -0.04355  -0.04614   2.16548
   A10        2.07733   0.00636   0.00000   0.02086   0.02086   2.09819
   A11        2.13662  -0.00902   0.00000  -0.02744  -0.02738   2.10925
   A12        2.04152   0.00248   0.00000   0.01030   0.01035   2.05187
   A13        2.10484   0.00659   0.00000   0.01784   0.01714   2.12198
   A14        2.16264  -0.00303   0.00000  -0.00974  -0.00983   2.15281
   A15        2.05482  -0.00302   0.00000  -0.00891  -0.00932   2.04550
   A16        2.06369   0.00619   0.00000   0.02075   0.02070   2.08439
   A17        2.00932  -0.00371   0.00000  -0.00747  -0.01328   1.99604
   A18        2.15954  -0.02674   0.00000  -0.08305  -0.08886   2.07067
   A19        2.11006   0.03124   0.00000   0.10725   0.10140   2.21146
   A20        2.16234  -0.01449   0.00000  -0.07140  -0.07129   2.09105
   A21        2.10924   0.00128   0.00000   0.01206   0.01174   2.12097
   A22        2.01134   0.01322   0.00000   0.05963   0.05976   2.07110
   A23        2.04269   0.00867   0.00000   0.03156   0.03186   2.07456
   A24        2.12861  -0.00962   0.00000  -0.02609  -0.02683   2.10178
   A25        2.11108   0.00101   0.00000  -0.00474  -0.00448   2.10660
   A26        2.14052  -0.00457   0.00000  -0.01559  -0.01688   2.12364
   A27        2.04266   0.00589   0.00000   0.03014   0.02783   2.07049
   A28        2.07603   0.00019   0.00000   0.00679   0.00561   2.08164
   A29        2.09659   0.00063   0.00000   0.00013  -0.00082   2.09577
   A30        2.06213   0.00046   0.00000   0.00400   0.00434   2.06648
   A31        2.12341  -0.00102   0.00000  -0.00305  -0.00273   2.12068
    D1        1.80711  -0.00907   0.00000  -0.10113  -0.10408   1.70303
    D2       -1.42300  -0.00175   0.00000   0.02398   0.02415  -1.39885
    D3       -0.37890  -0.00260   0.00000  -0.05256  -0.05409  -0.43299
    D4        2.67418   0.00472   0.00000   0.07255   0.07414   2.74832
    D5       -2.57635   0.00131   0.00000  -0.02315  -0.02335  -2.59970
    D6        0.47674   0.00863   0.00000   0.10195   0.10487   0.58161
    D7        3.13906  -0.00220   0.00000  -0.03186  -0.02709   3.11197
    D8       -0.10031   0.00860   0.00000   0.11527   0.11051   0.01020
    D9        1.54094   0.00251   0.00000   0.03339   0.03295   1.57389
   D10       -1.57902  -0.00038   0.00000  -0.00355  -0.00311  -1.58213
   D11       -0.02140  -0.00036   0.00000  -0.00685  -0.00699  -0.02838
   D12       -3.09302  -0.00312   0.00000  -0.04367  -0.04297  -3.13599
   D13        3.09779   0.00257   0.00000   0.03128   0.03043   3.12822
   D14        0.02617  -0.00019   0.00000  -0.00554  -0.00556   0.02060
   D15       -3.04517  -0.00166   0.00000  -0.02423  -0.02371  -3.06888
   D16        0.04809  -0.00004   0.00000   0.00043   0.00093   0.04902
   D17        0.11765  -0.00429   0.00000  -0.05987  -0.05946   0.05819
   D18       -3.07228  -0.00266   0.00000  -0.03520  -0.03483  -3.10711
   D19        2.94695  -0.00650   0.00000  -0.11339  -0.11296   2.83399
   D20       -0.29324   0.00454   0.00000   0.08598   0.08583  -0.20741
   D21       -0.26494  -0.00407   0.00000  -0.07751  -0.07736  -0.34230
   D22        2.77805   0.00696   0.00000   0.12186   0.12143   2.89948
   D23        3.08855   0.00258   0.00000   0.03029   0.02914   3.11769
   D24       -0.02693   0.00150   0.00000   0.01565   0.01510  -0.01184
   D25        0.01287   0.00033   0.00000  -0.00322  -0.00418   0.00868
   D26       -3.10262  -0.00074   0.00000  -0.01786  -0.01822  -3.12084
   D27        3.06345   0.00206   0.00000   0.02620   0.02570   3.08915
   D28       -0.12081   0.00375   0.00000   0.04547   0.04465  -0.07616
   D29       -0.05418   0.00146   0.00000   0.01459   0.01367  -0.04051
   D30        3.04474   0.00314   0.00000   0.03385   0.03263   3.07737
   D31       -3.11908  -0.00025   0.00000  -0.00088  -0.00087  -3.11995
   D32        0.25877  -0.00767   0.00000  -0.10560  -0.10562   0.15315
   D33       -0.02180   0.00167   0.00000   0.01997   0.01929  -0.00251
   D34       -2.92714  -0.00576   0.00000  -0.08474  -0.08545  -3.01259
   D35       -0.25446   0.00713   0.00000   0.10943   0.11047  -0.14399
   D36        2.93720   0.00541   0.00000   0.08367   0.08486   3.02205
   D37        3.11431   0.00070   0.00000   0.01205   0.01157   3.12588
   D38        0.02278  -0.00102   0.00000  -0.01370  -0.01405   0.00874
         Item               Value     Threshold  Converged?
 Maximum Force            0.067240     0.000450     NO 
 RMS     Force            0.014821     0.000300     NO 
 Maximum Displacement     0.241599     0.001800     NO 
 RMS     Displacement     0.081551     0.001200     NO 
 Predicted change in Energy=-2.753953D-02
 Lowest energy point so far.  Saving SCF results.
 GradGradGradGradGradGradGradGradGradGradGradGradGradGradGradGradGradGrad

 Leave Link  103 at Sun Jul 18 13:45:42 2021, MaxMem=   104857600 cpu:               0.1 elap:               0.1
 (Enter /dades/curu/g16A03_MST/g16/l202.exe)
                          Input orientation:                          
 ---------------------------------------------------------------------
 Center     Atomic      Atomic             Coordinates (Angstroms)
 Number     Number       Type             X           Y           Z
 ---------------------------------------------------------------------
      1          6           0       -1.121062   -1.982035   -2.673811
      2          1           0       -0.989665   -1.471488   -3.635617
      3          1           0       -2.050056   -2.538890   -2.630849
      4          1           0       -0.241308   -2.627180   -2.597012
      5          6           0       -1.121225   -0.944978   -1.568019
      6          8           0       -2.126559   -0.487926   -1.072705
      7          8           0        0.118966   -0.560156   -1.239587
      8          6           0        0.313403    0.405911   -0.274015
      9          6           0        0.459262    0.054731    1.074805
     10          6           0        0.381147   -1.376986    1.578457
     11          8           0        0.878888   -1.554648    2.746332
     12          8           0       -0.042165   -2.261559    0.804806
     13          6           0        0.645965    1.096905    1.990808
     14          1           0        0.740896    0.875543    3.044560
     15          6           0        0.699495    2.428482    1.579424
     16          1           0        0.796596    3.206999    2.332376
     17          6           0        0.657877    2.750673    0.223956
     18          1           0        0.718029    3.777207   -0.119258
     19          6           0        0.376417    1.739368   -0.695317
     20          1           0        0.224099    1.956028   -1.748335
 ---------------------------------------------------------------------
                    Distance matrix (angstroms):
                    1          2          3          4          5
     1  C    0.000000
     2  H    1.096811   0.000000
     3  H    1.083956   1.809236   0.000000
     4  H    1.093654   1.724634   1.811218   0.000000
     5  C    1.516003   2.137635   2.129058   2.159372   0.000000
     6  O    2.409756   2.971269   2.576842   3.233278   1.210342
     7  O    2.369896   2.792946   3.248946   2.498998   1.339414
     8  C    3.676818   4.064846   4.451118   3.860526   2.357435
     9  C    4.549501   5.159148   5.172564   4.600618   3.237573
    10  C    4.550220   5.392089   4.997902   4.402838   3.513412
    11  O    5.793135   6.650389   6.201735   5.563856   4.794348
    12  O    3.652797   4.608614   3.989018   3.427201   2.920283
    13  C    5.861819   6.397545   6.468944   5.975295   4.467381
    14  H    6.658259   7.288907   7.187352   6.712759   5.296950
    15  C    6.391956   6.727531   7.068324   6.624760   4.960005
    16  H    7.460925   7.790758   8.108777   7.708032   6.010826
    17  C    5.827539   5.952927   6.592593   6.139031   4.475959
    18  H    6.563297   6.544448   7.339173   6.933669   5.270748
    19  C    4.472776   4.563019   5.285598   4.802580   3.195349
    20  H    4.263134   4.096697   5.114186   4.684299   3.202850
                    6          7          8          9         10
     6  O    0.000000
     7  O    2.252876   0.000000
     8  C    2.718504   1.379645   0.000000
     9  C    3.404812   2.418739   1.401399   0.000000
    10  C    3.756019   2.945730   2.571958   1.519731   0.000000
    11  O    4.975505   4.177804   3.645005   2.358005   1.281890
    12  O    3.318963   2.664635   2.899255   2.385273   1.249079
    13  C    4.425346   3.668655   2.391128   1.400016   2.521964
    14  H    5.199348   4.560915   3.378794   2.152437   2.711599
    15  C    4.850341   4.149192   2.770397   2.438656   3.818761
    16  H    5.813079   5.235414   3.856533   3.410582   4.664109
    17  C    4.463512   3.659778   2.421683   2.833989   4.353025
    18  H    5.214604   4.519594   3.399016   3.917853   5.437043
    19  C    3.371668   2.377041   1.399848   2.445035   3.857686
    20  H    3.457597   2.569253   2.141134   3.411796   4.711815
                   11         12         13         14         15
    11  O    0.000000
    12  O    2.262208   0.000000
    13  C    2.766912   3.627589   0.000000
    14  H    2.452307   3.933331   1.080929   0.000000
    15  C    4.154417   4.811089   1.394704   2.135406   0.000000
    16  H    4.780315   5.739522   2.142861   2.438441   1.087407
    17  C    4.994698   5.094106   2.420093   3.388039   1.393855
    18  H    6.055258   6.156174   3.411977   4.293008   2.169083
    19  C    4.790404   4.293367   2.775010   3.855609   2.398688
    20  H    5.740699   4.937354   3.859695   4.940280   3.394583
                   16         17         18         19         20
    16  H    0.000000
    17  C    2.161692   0.000000
    18  H    2.518297   1.084060   0.000000
    19  C    3.390784   1.395357   2.145071   0.000000
    20  H    4.306377   2.170151   2.492900   1.085813   0.000000
 Stoichiometry    C9H7O4(1-)
 Framework group  C1[X(C9H7O4)]
 Deg. of freedom    54
 Full point group                 C1      NOp   1
 RotChk:  IX=0 Diff= 4.36D-02
 Largest Abelian subgroup         C1      NOp   1
 Largest concise Abelian subgroup C1      NOp   1
                         Standard orientation:                         
 ---------------------------------------------------------------------
 Center     Atomic      Atomic             Coordinates (Angstroms)
 Number     Number       Type             X           Y           Z
 ---------------------------------------------------------------------
      1          6           0        3.505684   -0.388529   -0.313340
      2          1           0        3.818424   -1.363258   -0.707157
      3          1           0        4.167351   -0.032620    0.467996
      4          1           0        3.506586    0.262046   -1.192447
      5          6           0        2.105670   -0.518767    0.253463
      6          8           0        1.866888   -0.685169    1.428291
      7          8           0        1.169861   -0.476889   -0.703897
      8          6           0       -0.163533   -0.615812   -0.378044
      9          6           0       -0.948928    0.503712   -0.071874
     10          6           0       -0.404484    1.922170   -0.038109
     11          8           0       -1.302832    2.834902   -0.094085
     12          8           0        0.832904    2.089462   -0.070983
     13          6           0       -2.290801    0.274033    0.254730
     14          1           0       -2.929192    1.105120    0.519606
     15          6           0       -2.829710   -1.012329    0.261780
     16          1           0       -3.863912   -1.146496    0.569805
     17          6           0       -2.061926   -2.101493   -0.146950
     18          1           0       -2.466377   -3.107050   -0.168397
     19          6           0       -0.700273   -1.908662   -0.383035
     20          1           0       -0.037640   -2.742128   -0.595734
 ---------------------------------------------------------------------
 Rotational constants (GHZ):           1.1255260           0.7527757           0.4963997
 Leave Link  202 at Sun Jul 18 13:45:42 2021, MaxMem=   104857600 cpu:               0.0 elap:               0.0
 (Enter /dades/curu/g16A03_MST/g16/l301.exe)
 Standard basis: 6-31G(d) (6D, 7F)
 Ernie: Thresh=  0.10000D-02 Tol=  0.10000D-05 Strict=F.
 There are   209 symmetry adapted cartesian basis functions of A   symmetry.
 There are   209 symmetry adapted basis functions of A   symmetry.
   209 basis functions,   392 primitive gaussians,   209 cartesian basis functions
    47 alpha electrons       47 beta electrons
       nuclear repulsion energy       765.7802391199 Hartrees.
 IExCor=  402 DFT=T Ex+Corr=B3LYP ExCW=0 ScaHFX=  0.200000
 ScaDFX=  0.800000  0.720000  1.000000  0.810000 ScalE2=  1.000000  1.000000
 IRadAn=      5 IRanWt=     -1 IRanGd=            0 ICorTp=0 IEmpDi=  4
 NAtoms=   20 NActive=   20 NUniq=   20 SFac= 1.00D+00 NAtFMM=   60 NAOKFM=F Big=F
 Integral buffers will be    131072 words long.
 Raffenetti 2 integral format.
 Two-electron integral symmetry is turned on.
 ------------------------------------------------------------------------------
 Polarizable Continuum Model (PCM)
 =================================
 Model                : PCM.
 Atomic radii         : MST.
 Polarization charges : Total charges.
 Charge compensation  : None.
 Solution method      : On-the-fly selection.
 Cavity type          : Scaled VdW (van der Waals Surface) (Alpha=1.500).
 Cavity algorithm     : GePol (No added spheres)
                        Default sphere list used, NSphG=   20.
                        Lebedev-Laikov grids with approx.  5.0 points / Ang**2.
                        Smoothing algorithm: York/Karplus (Gamma=1.0000).
                        Polarization charges: spherical gaussians, with
                                              point-specific exponents (IZeta= 3).
[...]
     14          1           0        0.813245    0.760665    2.979416
     15          6           0        0.761787    2.425846    1.604199
     16          1           0        0.956745    3.174024    2.365894
     17          6           0        0.603453    2.805642    0.270551
     18          1           0        0.672769    3.847784   -0.019650
     19          6           0        0.356928    1.830716   -0.693658
     20          1           0        0.241041    2.089702   -1.741071
 ---------------------------------------------------------------------
                    Distance matrix (angstroms):
                    1          2          3          4          5
     1  C    0.000000
     2  H    1.094787   0.000000
     3  H    1.089240   1.774904   0.000000
     4  H    1.089639   1.767852   1.789569   0.000000
     5  C    1.507766   2.137041   2.135641   2.149075   0.000000
     6  O    2.436378   3.008021   2.615635   3.231633   1.224762
     7  O    2.353060   2.752901   3.269589   2.508252   1.363439
     8  C    3.662212   4.085215   4.457278   3.832828   2.366076
     9  C    4.440747   5.097689   5.087212   4.439736   3.184801
    10  C    4.371794   5.255620   4.834586   4.149664   3.431089
    11  O    5.583056   6.490604   5.987473   5.280192   4.685161
    12  O    3.427657   4.416790   3.768020   3.140744   2.805006
    13  C    5.789892   6.384399   6.423714   5.830698   4.453302
    14  H    6.518991   7.213726   7.073867   6.476976   5.238893
    15  C    6.405219   6.810846   7.108611   6.571746   5.007197
    16  H    7.484307   7.887675   8.167192   7.648980   6.072591
    17  C    5.882919   6.083077   6.660825   6.165734   4.528089
    18  H    6.669787   6.736970   7.457723   7.014418   5.354293
    19  C    4.552895   4.699451   5.381205   4.866371   3.273476
    20  H    4.428756   4.321213   5.292435   4.845728   3.337934
                    6          7          8          9         10
     6  O    0.000000
     7  O    2.286374   0.000000
     8  C    2.724426   1.395757   0.000000
     9  C    3.366714   2.437117   1.402035   0.000000
    10  C    3.691215   3.008066   2.607775   1.537429   0.000000
    11  O    4.862797   4.231605   3.672149   2.371227   1.260735
    12  O    3.214360   2.745179   2.943958   2.402272   1.260368
    13  C    4.438580   3.681001   2.384798   1.401509   2.526225
    14  H    5.182540   4.549412   3.356383   2.122256   2.649344
    15  C    4.924726   4.166085   2.773939   2.447454   3.831433
    16  H    5.917967   5.251175   3.859229   3.423876   4.678433
    17  C    4.511070   3.658154   2.412438   2.833287   4.369077
    18  H    5.292248   4.520785   3.394407   3.917278   5.453016
    19  C    3.449274   2.372611   1.393207   2.445665   3.885157
    20  H    3.591496   2.557583   2.138192   3.413137   4.744686
                   11         12         13         14         15
    11  O    0.000000
    12  O    2.251281   0.000000
    13  C    2.761523   3.640618   0.000000
    14  H    2.368013   3.885376   1.083644   0.000000
    15  C    4.150616   4.836947   1.392571   2.160253   0.000000
    16  H    4.774239   5.769119   2.152271   2.494254   1.085338
    17  C    5.005699   5.118220   2.410966   3.400572   1.395683
    18  H    6.062806   6.184031   3.398555   4.306324   2.160259
    19  C    4.809334   4.331635   2.769541   3.852882   2.407953
    20  H    5.762865   4.985713   3.854234   4.937281   3.402205
                   16         17         18         19         20
    16  H    0.000000
    17  C    2.156614   0.000000
    18  H    2.495078   1.084012   0.000000
    19  C    3.394866   1.393181   2.150024   0.000000
    20  H    4.307569   2.165764   2.498106   1.085162   0.000000
 Stoichiometry    C9H7O4(1-)
 Framework group  C1[X(C9H7O4)]
 Deg. of freedom    54
 Full point group                 C1      NOp   1
 RotChk:  IX=0 Diff= 2.57D-15
 Largest Abelian subgroup         C1      NOp   1
 Largest concise Abelian subgroup C1      NOp   1
                         Standard orientation:                         
 ---------------------------------------------------------------------
 Center     Atomic      Atomic             Coordinates (Angstroms)
 Number     Number       Type             X           Y           Z
 ---------------------------------------------------------------------
      1          6           0        3.427021   -0.492652   -0.357722
      2          1           0        3.757883   -1.464356   -0.738356
      3          1           0        4.133801   -0.154642    0.399018
      4          1           0        3.401048    0.206280   -1.193266
      5          6           0        2.058009   -0.636338    0.257515
      6          8           0        1.818331   -0.764494    1.451740
      7          8           0        1.111992   -0.704450   -0.721963
      8          6           0       -0.230623   -0.674786   -0.341647
      9          6           0       -0.883487    0.537592   -0.077808
     10          6           0       -0.208252    1.918786   -0.070771
     11          8           0       -0.991950    2.906241   -0.056511
     12          8           0        1.051397    1.961342   -0.069358
     13          6           0       -2.256715    0.464034    0.192492
     14          1           0       -2.766831    1.401181    0.381759
     15          6           0       -2.947808   -0.744790    0.212201
     16          1           0       -4.010854   -0.760145    0.430505
     17          6           0       -2.268724   -1.933890   -0.057645
     18          1           0       -2.792181   -2.883125   -0.052410
     19          6           0       -0.904803   -1.894007   -0.338855
     20          1           0       -0.348731   -2.797989   -0.565085
 ---------------------------------------------------------------------
 Rotational constants (GHZ):           1.1385068           0.7525005           0.4987617
 Leave Link  202 at Sun Jul 18 16:26:59 2021, MaxMem=   104857600 cpu:               0.1 elap:               0.0
 (Enter /dades/curu/g16A03_MST/g16/l601.exe)
 Copying SCF densities to generalized density rwf, IOpCl= 0 IROHF=0.

 **********************************************************************

            Population analysis using the SCF density.

 **********************************************************************

 Orbital symmetries:
       Occupied  (A) (A) (A) (A) (A) (A) (A) (A) (A) (A) (A) (A)
                 (A) (A) (A) (A) (A) (A) (A) (A) (A) (A) (A) (A)
                 (A) (A) (A) (A) (A) (A) (A) (A) (A) (A) (A) (A)
                 (A) (A) (A) (A) (A) (A) (A) (A) (A) (A) (A)
       Virtual   (A) (A) (A) (A) (A) (A) (A) (A) (A) (A) (A) (A)
                 (A) (A) (A) (A) (A) (A) (A) (A) (A) (A) (A) (A)
                 (A) (A) (A) (A) (A) (A) (A) (A) (A) (A) (A) (A)
                 (A) (A) (A) (A) (A) (A) (A) (A) (A) (A) (A) (A)
                 (A) (A) (A) (A) (A) (A) (A) (A) (A) (A) (A) (A)
                 (A) (A) (A) (A) (A) (A) (A) (A) (A) (A) (A) (A)
                 (A) (A) (A) (A) (A) (A) (A) (A) (A) (A) (A) (A)
                 (A) (A) (A) (A) (A) (A) (A) (A) (A) (A) (A) (A)
                 (A) (A) (A) (A) (A) (A) (A) (A) (A) (A) (A) (A)
                 (A) (A) (A) (A) (A) (A) (A) (A) (A) (A) (A) (A)
                 (A) (A) (A) (A) (A) (A) (A) (A) (A) (A) (A) (A)
                 (A) (A) (A) (A) (A) (A) (A) (A) (A) (A) (A) (A)
                 (A) (A) (A) (A) (A) (A) (A) (A) (A) (A) (A) (A)
                 (A) (A) (A) (A) (A) (A)
 The electronic state is 1-A.
 Alpha  occ. eigenvalues --  -19.17673 -19.11931 -19.05259 -19.05205 -10.30743
 Alpha  occ. eigenvalues --  -10.24313 -10.23311 -10.18109 -10.17958 -10.17784
 Alpha  occ. eigenvalues --  -10.17512 -10.17184 -10.17057  -1.08553  -0.99690
 Alpha  occ. eigenvalues --   -0.98560  -0.89682  -0.83864  -0.75523  -0.73486
 Alpha  occ. eigenvalues --   -0.71415  -0.62150  -0.59981  -0.55440  -0.50741
 Alpha  occ. eigenvalues --   -0.47526  -0.46853  -0.46056  -0.44899  -0.43207
 Alpha  occ. eigenvalues --   -0.41471  -0.40247  -0.39549  -0.38412  -0.37039
 Alpha  occ. eigenvalues --   -0.36771  -0.35985  -0.34715  -0.33564  -0.33105
 Alpha  occ. eigenvalues --   -0.28917  -0.25815  -0.23579  -0.22943  -0.21396
 Alpha  occ. eigenvalues --   -0.20949  -0.19480
 Alpha virt. eigenvalues --   -0.00263   0.01448   0.02673   0.11005   0.11150
 Alpha virt. eigenvalues --    0.12974   0.16057   0.16748   0.18678   0.18923
 Alpha virt. eigenvalues --    0.19757   0.19900   0.21802   0.25521   0.27861
 Alpha virt. eigenvalues --    0.29166   0.32382   0.34055   0.34435   0.36006
 Alpha virt. eigenvalues --    0.37538   0.40204   0.44197   0.51877   0.53274
 Alpha virt. eigenvalues --    0.55408   0.55583   0.56924   0.57205   0.57466
 Alpha virt. eigenvalues --    0.58775   0.59162   0.60931   0.61058   0.62053
 Alpha virt. eigenvalues --    0.62767   0.63718   0.64079   0.65543   0.67243
 Alpha virt. eigenvalues --    0.67789   0.70637   0.71434   0.73543   0.76277
 Alpha virt. eigenvalues --    0.78324   0.81516   0.83756   0.84592   0.84995
 Alpha virt. eigenvalues --    0.85634   0.87194   0.89200   0.89529   0.91262
 Alpha virt. eigenvalues --    0.91752   0.93590   0.94664   0.96488   0.97677
 Alpha virt. eigenvalues --    0.98676   1.00279   1.03521   1.04524   1.06955
 Alpha virt. eigenvalues --    1.07921   1.09569   1.13265   1.13439   1.16419
 Alpha virt. eigenvalues --    1.19033   1.21224   1.24468   1.26198   1.29932
 Alpha virt. eigenvalues --    1.33017   1.38768   1.39293   1.41132   1.43077
 Alpha virt. eigenvalues --    1.45111   1.46343   1.48178   1.48771   1.50617
 Alpha virt. eigenvalues --    1.51215   1.52841   1.53588   1.59464   1.68804
 Alpha virt. eigenvalues --    1.70632   1.73009   1.75121   1.77628   1.79336
 Alpha virt. eigenvalues --    1.81323   1.82572   1.84125   1.87411   1.89343
 Alpha virt. eigenvalues --    1.90316   1.91276   1.92396   1.92842   1.96870
 Alpha virt. eigenvalues --    1.98157   1.98596   2.00972   2.02619   2.04495
 Alpha virt. eigenvalues --    2.04880   2.08665   2.10856   2.12803   2.15389
 Alpha virt. eigenvalues --    2.17697   2.18701   2.19828   2.24602   2.25341
 Alpha virt. eigenvalues --    2.29644   2.30812   2.32783   2.36462   2.37909
 Alpha virt. eigenvalues --    2.40509   2.47739   2.52723   2.55473   2.61579
 Alpha virt. eigenvalues --    2.63298   2.64165   2.66326   2.67715   2.71250
 Alpha virt. eigenvalues --    2.76315   2.76991   2.79446   2.83830   2.86575
 Alpha virt. eigenvalues --    2.89740   2.96025   2.97751   3.01522   3.11356
 Alpha virt. eigenvalues --    3.13285   3.16092   3.25802   3.45669   3.92039
 Alpha virt. eigenvalues --    4.08108   4.10448   4.12167   4.13660   4.18701
 Alpha virt. eigenvalues --    4.25444   4.33841   4.41627   4.47010   4.50485
 Alpha virt. eigenvalues --    4.58696   4.79013
          Condensed to atoms (all electrons):
               1          2          3          4          5          6
     1  C    5.274296   0.353201   0.360874   0.348793   0.359209  -0.073351
     2  H    0.353201   0.527052  -0.022681  -0.022856  -0.018832   0.000121
     3  H    0.360874  -0.022681   0.523465  -0.022155  -0.023590   0.002677
     4  H    0.348793  -0.022856  -0.022155   0.518846  -0.019348   0.002074
     5  C    0.359209  -0.018832  -0.023590  -0.019348   4.275635   0.560866
     6  O   -0.073351   0.000121   0.002677   0.002074   0.560866   8.078441
     7  O   -0.092874   0.001062   0.003309   0.003713   0.224589  -0.076460
     8  C    0.002851  -0.000117  -0.000082   0.000091  -0.006515   0.014638
     9  C    0.000264  -0.000025   0.000005  -0.000031  -0.006846  -0.000404
    10  C   -0.000384   0.000012   0.000010   0.000099   0.003349   0.000556
    11  O   -0.000001   0.000000  -0.000000   0.000001   0.000082  -0.000001
    12  O   -0.001334   0.000091   0.000020   0.002881   0.023618  -0.003782
    13  C    0.000009  -0.000000  -0.000000  -0.000001  -0.000156  -0.000178
    14  H   -0.000000  -0.000000   0.000000  -0.000000  -0.000016   0.000000
    15  C   -0.000000   0.000000  -0.000000   0.000000   0.000040   0.000025
    16  H    0.000000   0.000000  -0.000000   0.000000   0.000000   0.000000
    17  C    0.000009  -0.000000  -0.000000  -0.000000   0.000051  -0.000093
    18  H   -0.000000   0.000000   0.000000   0.000000  -0.000008  -0.000000
    19  C   -0.000267   0.000051   0.000004   0.000009  -0.003273   0.000333
    20  H   -0.000129   0.000014   0.000002   0.000003   0.000801  -0.000075
               7          8          9         10         11         12
     1  C   -0.092874   0.002851   0.000264  -0.000384  -0.000001  -0.001334
     2  H    0.001062  -0.000117  -0.000025   0.000012   0.000000   0.000091
     3  H    0.003309  -0.000082   0.000005   0.000010  -0.000000   0.000020
     4  H    0.003713   0.000091  -0.000031   0.000099   0.000001   0.002881
     5  C    0.224589  -0.006515  -0.006846   0.003349   0.000082   0.023618
     6  O   -0.076460   0.014638  -0.000404   0.000556  -0.000001  -0.003782
     7  O    8.395365   0.167056  -0.043562  -0.010054  -0.000016  -0.009112
     8  C    0.167056   4.749555   0.463916  -0.035583   0.002385  -0.006031
     9  C   -0.043562   0.463916   5.278023   0.195493  -0.152108  -0.122631
    10  C   -0.010054  -0.035583   0.195493   4.386878   0.521609   0.492234
    11  O   -0.000016   0.002385  -0.152108   0.521609   8.360404  -0.095082
    12  O   -0.009112  -0.006031  -0.122631   0.492234  -0.095082   8.372443
    13  C    0.005218  -0.043632   0.457672  -0.039236   0.003148   0.005033
    14  H   -0.000054   0.005532  -0.042756  -0.006966   0.025501   0.000453
    15  C   -0.000037  -0.042545  -0.025649   0.006323   0.001365  -0.000037
    16  H    0.000002   0.000619   0.003802  -0.000053   0.000002   0.000001
    17  C    0.004570  -0.007362  -0.042015  -0.000786  -0.000025  -0.000021
    18  H   -0.000066   0.003722   0.000629   0.000006   0.000000  -0.000000
    19  C   -0.055870   0.498881  -0.038339   0.006396  -0.000046   0.000432
    20  H   -0.001767  -0.040722   0.006393  -0.000007   0.000001   0.000011
              13         14         15         16         17         18
     1  C    0.000009  -0.000000  -0.000000   0.000000   0.000009  -0.000000
     2  H   -0.000000  -0.000000   0.000000   0.000000  -0.000000   0.000000
     3  H   -0.000000   0.000000  -0.000000  -0.000000  -0.000000   0.000000
     4  H   -0.000001  -0.000000   0.000000   0.000000  -0.000000   0.000000
     5  C   -0.000156  -0.000016   0.000040   0.000000   0.000051  -0.000008
     6  O   -0.000178   0.000000   0.000025   0.000000  -0.000093  -0.000000
     7  O    0.005218  -0.000054  -0.000037   0.000002   0.004570  -0.000066
     8  C   -0.043632   0.005532  -0.042545   0.000619  -0.007362   0.003722
     9  C    0.457672  -0.042756  -0.025649   0.003802  -0.042015   0.000629
    10  C   -0.039236  -0.006966   0.006323  -0.000053  -0.000786   0.000006
    11  O    0.003148   0.025501   0.001365   0.000002  -0.000025   0.000000
    12  O    0.005033   0.000453  -0.000037   0.000001  -0.000021  -0.000000
    13  C    5.126028   0.340481   0.461993  -0.040196  -0.017562   0.004130
    14  H    0.340481   0.582588  -0.043799  -0.005357   0.004665  -0.000174
    15  C    0.461993  -0.043799   4.955210   0.361441   0.526407  -0.041811
    16  H   -0.040196  -0.005357   0.361441   0.594690  -0.044935  -0.005056
    17  C   -0.017562   0.004665   0.526407  -0.044935   4.918460   0.356799
    18  H    0.004130  -0.000174  -0.041811  -0.005056   0.356799   0.587844
    19  C   -0.053978   0.000486  -0.031657   0.004696   0.499775  -0.036752
    20  H    0.000150   0.000018   0.005113  -0.000163  -0.043580  -0.005754
              19         20
     1  C   -0.000267  -0.000129
     2  H    0.000051   0.000014
     3  H    0.000004   0.000002
     4  H    0.000009   0.000003
     5  C   -0.003273   0.000801
     6  O    0.000333  -0.000075
     7  O   -0.055870  -0.001767
     8  C    0.498881  -0.040722
     9  C   -0.038339   0.006393
    10  C    0.006396  -0.000007
    11  O   -0.000046   0.000001
    12  O    0.000432   0.000011
    13  C   -0.053978   0.000150
    14  H    0.000486   0.000018
    15  C   -0.031657   0.005113
    16  H    0.004696  -0.000163
    17  C    0.499775  -0.043580
    18  H   -0.036752  -0.005754
    19  C    5.026776   0.350709
    20  H    0.350709   0.594276
 Mulliken charges:
               1
     1  C   -0.531165
     2  H    0.182908
     3  H    0.178141
     4  H    0.187880
     5  C    0.630343
     6  O   -0.505387
     7  O   -0.515011
     8  C    0.273343
     9  C    0.068170
    10  C    0.480105
    11  O   -0.667220
    12  O   -0.659189
    13  C   -0.208922
    14  H    0.139397
    15  C   -0.132380
    16  H    0.130507
    17  C   -0.154356
    18  H    0.136492
    19  C   -0.168366
    20  H    0.134707
 Sum of Mulliken charges =  -1.00000
 Mulliken charges with hydrogens summed into heavy atoms:
               1
     1  C    0.017765
     5  C    0.630343
     6  O   -0.505387
     7  O   -0.515011
     8  C    0.273343
     9  C    0.068170
    10  C    0.480105
    11  O   -0.667220
    12  O   -0.659189
    13  C   -0.069525
    15  C   -0.001873
    17  C   -0.017864
    19  C   -0.033659
 Electronic spatial extent (au):  <R**2>=           2264.5101
 Charge=             -1.0000 electrons
 Dipole moment (field-independent basis, Debye):
    X=             -0.4315    Y=            -10.8971    Z=             -1.8324  Tot=             11.0585
 Quadrupole moment (field-independent basis, Debye-Ang):
   XX=            -72.1576   YY=           -102.1658   ZZ=            -80.6444
   XY=              2.6793   XZ=             -5.4205   YZ=              3.1346
 Traceless Quadrupole moment (field-independent basis, Debye-Ang):
   XX=             12.8317   YY=            -17.1765   ZZ=              4.3449
   XY=              2.6793   XZ=             -5.4205   YZ=              3.1346
 Octapole moment (field-independent basis, Debye-Ang**2):
  XXX=             24.2849  YYY=            -97.1102  ZZZ=             -5.1764  XYY=             12.9218
  XXY=            -18.7514  XXZ=             -4.2447  XZZ=              1.4286  YZZ=              9.6224
  YYZ=             -0.7530  XYZ=              3.4424
 Hexadecapole moment (field-independent basis, Debye-Ang**3):
 XXXX=          -1581.5723 YYYY=          -1252.8539 ZZZZ=           -196.2575 XXXY=             -8.4955
 XXXZ=            -30.2018 YYYX=             47.8667 YYYZ=             11.2287 ZZZX=             -8.6249
 ZZZY=              1.2167 XXYY=           -475.5613 XXZZ=           -343.0005 YYZZ=           -207.7630
 XXYZ=              9.4457 YYXZ=             -4.8154 ZZXY=             -0.3734
 N-N= 7.655000742676D+02 E-N=-3.062200027848D+03  KE= 6.424219893289D+02
 No NMR shielding tensors so no spin-rotation constants.
 Leave Link  601 at Sun Jul 18 16:26:59 2021, MaxMem=   104857600 cpu:               0.6 elap:               0.2
 (Enter /dades/curu/g16A03_MST/g16/l9999.exe)


            ARSENIC

 FOR SMELTER FUMES HAVE I BEEN NAMED,
    I AM AN EVIL POISONOUS SMOKE...
 BUT WHEN FROM POISON I AM FREED,
    THROUGH ART AND SLEIGHT OF HAND,
 THEN CAN I CURE BOTH MAN AND BEAST,
    FROM DIRE DISEASE OFTTIMES DIRECT THEM;
 BUT PREPARE ME CORRECTLY, AND TAKE GREAT CARE
    THAT YOU FAITHFULLY KEEP WATCHFUL GUARD OVER ME;
 FOR ELSE I AM POISON, AND POISON REMAIN,
    THAT PIERCES THE HEART OF MANY A ONE.

 ATTRIBUTED TO THE PROBABLY MYTHICAL 15TH
 CENTURY MONK, BASILIUS VALENTINUS
 Error termination request processed by link 9999.
 Error termination via Lnk1e in /dades/curu/g16A03_MST/g16/l9999.exe at Sun Jul 18 16:26:59 2021.
 Job cpu time:       0 days 10 hours 25 minutes 12.5 seconds.
 Elapsed time:       0 days  2 hours 43 minutes  6.9 seconds.
 File lengths (MBytes):  RWF=    182 Int=      0 D2E=      0 Chk=      8 Scr=      1
