 Entering Gaussian System, Link 0=g16
 Input=SET_328_BBB321_conf1.geo_180_210_255_OCTANOL.dat
 Output=SET_328_BBB321_conf1.geo_180_210_255_OCTANOL.log
 Initial command:
 /dades/curu/g16A03_MST/g16/l1.exe "/tmp/ubator02/1839693/Gau-10856.inp" -scrdir="/tmp/ubator02/1839693/"
 Entering Link 1 = /dades/curu/g16A03_MST/g16/l1.exe PID=     10857.
  
 Copyright (c) 1988,1990,1992,1993,1995,1998,2003,2009,2016,
            Gaussian, Inc.  All Rights Reserved.
  
 This is part of the Gaussian(R) 16 program.  It is based on
 the Gaussian(R) 09 system (copyright 2009, Gaussian, Inc.),
 the Gaussian(R) 03 system (copyright 2003, Gaussian, Inc.),
 the Gaussian(R) 98 system (copyright 1998, Gaussian, Inc.),
 the Gaussian(R) 94 system (copyright 1995, Gaussian, Inc.),
 the Gaussian 92(TM) system (copyright 1992, Gaussian, Inc.),
 the Gaussian 90(TM) system (copyright 1990, Gaussian, Inc.),
 the Gaussian 88(TM) system (copyright 1988, Gaussian, Inc.),
 the Gaussian 86(TM) system (copyright 1986, Carnegie Mellon
 University), and the Gaussian 82(TM) system (copyright 1983,
 Carnegie Mellon University). Gaussian is a federally registered
 trademark of Gaussian, Inc.
  
 This software contains proprietary and confidential information,
 including trade secrets, belonging to Gaussian, Inc.
  
 This software is provided under written license and may be
 used, copied, transmitted, or stored only in accord with that
 written license.
  
 The following legend is applicable only to US Government
 contracts under FAR:
  
                    RESTRICTED RIGHTS LEGEND
  
 Use, reproduction and disclosure by the US Government is
 subject to restrictions as set forth in subparagraphs (a)
 and (c) of the Commercial Computer Software - Restricted
 Rights clause in FAR 52.227-19.
  
 Gaussian, Inc.
 340 Quinnipiac St., Bldg. 40, Wallingford CT 06492
  
  
 ---------------------------------------------------------------
 Warning -- This program may not be used in any manner that
 competes with the business of Gaussian, Inc. or will provide
 assistance to any competitor of Gaussian, Inc.  The licensee
 of this program is prohibited from giving any competitor of
 Gaussian, Inc. access to this program.  By using this program,
 the user acknowledges that Gaussian, Inc. is engaged in the
 business of creating and licensing software in the field of
 computational chemistry and represents and warrants to the
 licensee that it is not a competitor of Gaussian, Inc. and that
 it will not use this program in any manner prohibited above.
 ---------------------------------------------------------------
  

 Cite this work as:
 Gaussian 16, Revision A.03,
 M. J. Frisch, G. W. Trucks, H. B. Schlegel, G. E. Scuseria, 
 M. A. Robb, J. R. Cheeseman, G. Scalmani, V. Barone, 
 G. A. Petersson, H. Nakatsuji, X. Li, M. Caricato, A. V. Marenich, 
 J. Bloino, B. G. Janesko, R. Gomperts, B. Mennucci, H. P. Hratchian, 
 J. V. Ortiz, A. F. Izmaylov, J. L. Sonnenberg, D. Williams-Young, 
 F. Ding, F. Lipparini, F. Egidi, J. Goings, B. Peng, A. Petrone, 
 T. Henderson, D. Ranasinghe, V. G. Zakrzewski, J. Gao, N. Rega, 
 G. Zheng, W. Liang, M. Hada, M. Ehara, K. Toyota, R. Fukuda, 
 J. Hasegawa, M. Ishida, T. Nakajima, Y. Honda, O. Kitao, H. Nakai, 
 T. Vreven, K. Throssell, J. A. Montgomery, Jr., J. E. Peralta, 
 F. Ogliaro, M. J. Bearpark, J. J. Heyd, E. N. Brothers, K. N. Kudin, 
 V. N. Staroverov, T. A. Keith, R. Kobayashi, J. Normand, 
 K. Raghavachari, A. P. Rendell, J. C. Burant, S. S. Iyengar, 
 J. Tomasi, M. Cossi, J. M. Millam, M. Klene, C. Adamo, R. Cammi, 
 J. W. Ochterski, R. L. Martin, K. Morokuma, O. Farkas, 
 J. B. Foresman, and D. J. Fox, Gaussian, Inc., Wallingford CT, 2016.
 
 ******************************************
 Gaussian 16:  ES64L-G16RevA.03 25-Dec-2016
                18-Jul-2021 
 ******************************************
 %mem=800MB
 %nproc=4
 Will use up to    4 processors via shared memory.
 %chk=SET_328_BBB321_conf1.geo_180_210_255.chk
 ---------------------------------------------------------------
 #p b3lyp/6-31G(d) opt freq scrf=(iefpcm,read,solvent=n-octanol)
 ---------------------------------------------------------------
 1/18=20,19=15,26=3,38=1,40=2/1,3;
 2/9=110,12=2,17=6,18=5,40=1/2;
 3/5=1,6=6,7=1,11=2,25=1,30=1,70=2203,71=1,72=25,74=-5/1,2,3;
 4//1;
 5/5=2,38=5,53=25/2;
 6/7=2,8=2,9=2,10=2,28=1/1;
 7//1,2,3,16;
 1/18=20,19=15,26=3/3(2);
 2/9=110/2;
 99//99;
 2/9=110/2;
 3/5=1,6=6,7=1,11=2,25=1,30=1,70=2205,71=1,72=25,74=-5/1,2,3;
 4/5=5,16=3,69=1/1;
 5/5=2,38=5,53=25/2;
 7//1,2,3,16;
 1/18=20,19=15,26=3/3(-5);
 2/9=110/2;
 6/7=2,8=2,9=2,10=2,19=2,28=1/1;
 99/9=1/99;
 Leave Link    1 at Sun Jul 18 16:09:48 2021, MaxMem=   104857600 cpu:               0.0 elap:               0.0
 (Enter /dades/curu/g16A03_MST/g16/l101.exe)
 ---------------------------------------------
 SET_328_BBB321_conf1.geo_180_210_255 geometry
 ---------------------------------------------
 Symbolic Z-matrix:
 Charge =  1 Multiplicity = 1
 C                     0.845    -5.775     0.66 
 H                     0.446    -6.558     1.308 
 H                     1.933    -5.821     0.587 
 H                     0.446    -5.77     -0.356 
 C                     0.491    -4.542     1.268 
 O                    -0.272    -4.359     2.185 
 N                     1.096    -3.532     0.692 
 H                     1.499    -3.692    -0.219 
 C                     0.906    -2.19      1.057 
 C                     1.202    -1.726     2.336 
 C                     0.975    -0.38      2.639 
 C                     0.189     0.386     1.728 
 H                    -0.201     1.355     2.029 
 H                     1.215     0.055     3.606 
 H                     1.546    -2.432     3.089 
 C                     0.184    -1.425     0.204 
 H                    -0.193    -1.914    -0.691 
 C                    -0.055    -0.102     0.478 
 C                    -0.66      0.778    -0.493 
 N                    -0.381     2.092    -0.63 
 C                    -1.495     0.237    -1.44 
 H                    -1.849    -0.775    -1.586 
 S                    -2.073     1.467    -2.573 
 C                    -1.026     2.549    -1.749 
 N                    -1.034     3.834    -2.33 
 C                    -0.273     4.584    -1.759 
 N                    -0.432     5.748    -2.26 
 H                     0.371     6.105    -2.766 
 H                    -1.122     5.461    -2.945 
 N                    -0.656     5.074    -0.618 
 H                    -0.036     5.876    -0.584 
 H                    -1.586     5.393    -0.868 
 H                    -1.597     4.093    -3.115 
 
 ITRead=  0  0  0  0  0  0  0  0  0  0  0  0  0  0  0  0  0  0  0  0
 ITRead=  0  0  0  0  0  0  0  0  0  0  0  0  0
 MicOpt= -1 -1 -1 -1 -1 -1 -1 -1 -1 -1 -1 -1 -1 -1 -1 -1 -1 -1 -1 -1
 MicOpt= -1 -1 -1 -1 -1 -1 -1 -1 -1 -1 -1 -1 -1
 NAtoms=     33 NQM=       33 NQMF=       0 NMMI=      0 NMMIF=      0
                NMic=       0 NMicF=      0.
                    Isotopes and Nuclear Properties:
 (Nuclear quadrupole moments (NQMom) in fm**2, nuclear magnetic moments (NMagM)
  in nuclear magnetons)

  Atom         1           2           3           4           5           6           7           8           9          10
 IAtWgt=          12           1           1           1          12          16          14           1          12          12
 AtmWgt=  12.0000000   1.0078250   1.0078250   1.0078250  12.0000000  15.9949146  14.0030740   1.0078250  12.0000000  12.0000000
 NucSpn=           0           1           1           1           0           0           2           1           0           0
 AtZEff=  -0.0000000  -0.0000000  -0.0000000  -0.0000000  -0.0000000  -0.0000000  -0.0000000  -0.0000000  -0.0000000  -0.0000000
 NQMom=    0.0000000   0.0000000   0.0000000   0.0000000   0.0000000   0.0000000   2.0440000   0.0000000   0.0000000   0.0000000
 NMagM=    0.0000000   2.7928460   2.7928460   2.7928460   0.0000000   0.0000000   0.4037610   2.7928460   0.0000000   0.0000000
 AtZNuc=   6.0000000   1.0000000   1.0000000   1.0000000   6.0000000   8.0000000   7.0000000   1.0000000   6.0000000   6.0000000

  Atom        11          12          13          14          15          16          17          18          19          20
 IAtWgt=          12          12           1           1           1          12           1          12          12          14
 AtmWgt=  12.0000000  12.0000000   1.0078250   1.0078250   1.0078250  12.0000000   1.0078250  12.0000000  12.0000000  14.0030740
 NucSpn=           0           0           1           1           1           0           1           0           0           2
 AtZEff=  -0.0000000  -0.0000000  -0.0000000  -0.0000000  -0.0000000  -0.0000000  -0.0000000  -0.0000000  -0.0000000  -0.0000000
 NQMom=    0.0000000   0.0000000   0.0000000   0.0000000   0.0000000   0.0000000   0.0000000   0.0000000   0.0000000   2.0440000
 NMagM=    0.0000000   0.0000000   2.7928460   2.7928460   2.7928460   0.0000000   2.7928460   0.0000000   0.0000000   0.4037610
 AtZNuc=   6.0000000   6.0000000   1.0000000   1.0000000   1.0000000   6.0000000   1.0000000   6.0000000   6.0000000   7.0000000

  Atom        21          22          23          24          25          26          27          28          29          30
 IAtWgt=          12           1          32          12          14          12          14           1           1          14
 AtmWgt=  12.0000000   1.0078250  31.9720718  12.0000000  14.0030740  12.0000000  14.0030740   1.0078250   1.0078250  14.0030740
 NucSpn=           0           1           0           0           2           0           2           1           1           2
 AtZEff=  -0.0000000  -0.0000000  -0.0000000  -0.0000000  -0.0000000  -0.0000000  -0.0000000  -0.0000000  -0.0000000  -0.0000000
 NQMom=    0.0000000   0.0000000   0.0000000   0.0000000   2.0440000   0.0000000   2.0440000   0.0000000   0.0000000   2.0440000
 NMagM=    0.0000000   2.7928460   0.0000000   0.0000000   0.4037610   0.0000000   0.4037610   2.7928460   2.7928460   0.4037610
 AtZNuc=   6.0000000   1.0000000  16.0000000   6.0000000   7.0000000   6.0000000   7.0000000   1.0000000   1.0000000   7.0000000

  Atom        31          32          33
 IAtWgt=           1           1           1
 AtmWgt=   1.0078250   1.0078250   1.0078250
 NucSpn=           1           1           1
 AtZEff=  -0.0000000  -0.0000000  -0.0000000
 NQMom=    0.0000000   0.0000000   0.0000000
 NMagM=    2.7928460   2.7928460   2.7928460
 AtZNuc=   1.0000000   1.0000000   1.0000000
 Leave Link  101 at Sun Jul 18 16:09:48 2021, MaxMem=   104857600 cpu:               0.1 elap:               0.1
 (Enter /dades/curu/g16A03_MST/g16/l103.exe)

 GradGradGradGradGradGradGradGradGradGradGradGradGradGradGradGradGradGrad
 Berny optimization.
 Initialization pass.
                           ----------------------------
                           !    Initial Parameters    !
                           ! (Angstroms and Degrees)  !
 --------------------------                            --------------------------
 ! Name  Definition              Value          Derivative Info.                !
 --------------------------------------------------------------------------------
 ! R1    R(1,2)                  1.0919         estimate D2E/DX2                !
 ! R2    R(1,3)                  1.0914         estimate D2E/DX2                !
 ! R3    R(1,4)                  1.0916         estimate D2E/DX2                !
 ! R4    R(1,5)                  1.4196         estimate D2E/DX2                !
 ! R5    R(5,6)                  1.2069         estimate D2E/DX2                !
 ! R6    R(5,7)                  1.3107         estimate D2E/DX2                !
 ! R7    R(7,8)                  1.0089         estimate D2E/DX2                !
 ! R8    R(7,9)                  1.4037         estimate D2E/DX2                !
 ! R9    R(9,10)                 1.3924         estimate D2E/DX2                !
 ! R10   R(9,16)                 1.3543         estimate D2E/DX2                !
 ! R11   R(10,11)                1.3982         estimate D2E/DX2                !
 ! R12   R(10,15)                1.088          estimate D2E/DX2                !
 ! R13   R(11,12)                1.4263         estimate D2E/DX2                !
 ! R14   R(11,14)                1.0872         estimate D2E/DX2                !
 ! R15   R(12,13)                1.087          estimate D2E/DX2                !
 ! R16   R(12,18)                1.3639         estimate D2E/DX2                !
 ! R17   R(16,17)                1.0873         estimate D2E/DX2                !
 ! R18   R(16,18)                1.3721         estimate D2E/DX2                !
 ! R19   R(18,19)                1.4434         estimate D2E/DX2                !
 ! R20   R(19,20)                1.3503         estimate D2E/DX2                !
 ! R21   R(19,21)                1.3736         estimate D2E/DX2                !
 ! R22   R(20,24)                1.37           estimate D2E/DX2                !
 ! R23   R(21,22)                1.082          estimate D2E/DX2                !
 ! R24   R(21,23)                1.7694         estimate D2E/DX2                !
 ! R25   R(23,24)                1.7164         estimate D2E/DX2                !
 ! R26   R(24,25)                1.4103         estimate D2E/DX2                !
 ! R27   R(25,26)                1.2115         estimate D2E/DX2                !
 ! R28   R(25,33)                1.0001         estimate D2E/DX2                !
 ! R29   R(26,27)                1.2772         estimate D2E/DX2                !
 ! R30   R(26,30)                1.2995         estimate D2E/DX2                !
 ! R31   R(27,28)                1.014          estimate D2E/DX2                !
 ! R32   R(27,29)                1.0138         estimate D2E/DX2                !
 ! R33   R(30,31)                1.0143         estimate D2E/DX2                !
 ! R34   R(30,32)                1.0145         estimate D2E/DX2                !
 ! A1    A(2,1,3)              111.9472         estimate D2E/DX2                !
 ! A2    A(2,1,4)              114.9676         estimate D2E/DX2                !
 ! A3    A(2,1,5)              106.114          estimate D2E/DX2                !
 ! A4    A(3,1,4)              107.5975         estimate D2E/DX2                !
 ! A5    A(3,1,5)              108.2907         estimate D2E/DX2                !
 ! A6    A(4,1,5)              107.6689         estimate D2E/DX2                !
 ! A7    A(1,5,6)              127.9353         estimate D2E/DX2                !
 ! A8    A(1,5,7)              111.4676         estimate D2E/DX2                !
 ! A9    A(6,5,7)              120.5898         estimate D2E/DX2                !
 ! A10   A(5,7,8)              117.3214         estimate D2E/DX2                !
 ! A11   A(5,7,9)              124.0542         estimate D2E/DX2                !
 ! A12   A(8,7,9)              116.1344         estimate D2E/DX2                !
 ! A13   A(7,9,10)             121.9163         estimate D2E/DX2                !
 ! A14   A(7,9,16)             116.6432         estimate D2E/DX2                !
 ! A15   A(10,9,16)            120.2418         estimate D2E/DX2                !
 ! A16   A(9,10,11)            119.0343         estimate D2E/DX2                !
 ! A17   A(9,10,15)            119.124          estimate D2E/DX2                !
 ! A18   A(11,10,15)           121.7356         estimate D2E/DX2                !
 ! A19   A(10,11,12)           117.9065         estimate D2E/DX2                !
 ! A20   A(10,11,14)           122.826          estimate D2E/DX2                !
 ! A21   A(12,11,14)           118.3509         estimate D2E/DX2                !
 ! A22   A(11,12,13)           119.9715         estimate D2E/DX2                !
 ! A23   A(11,12,18)           119.4586         estimate D2E/DX2                !
 ! A24   A(13,12,18)           120.5666         estimate D2E/DX2                !
 ! A25   A(9,16,17)            116.6954         estimate D2E/DX2                !
 ! A26   A(9,16,18)            120.781          estimate D2E/DX2                !
 ! A27   A(17,16,18)           122.5225         estimate D2E/DX2                !
 ! A28   A(12,18,16)           119.7933         estimate D2E/DX2                !
 ! A29   A(12,18,19)           118.2556         estimate D2E/DX2                !
 ! A30   A(16,18,19)           121.7735         estimate D2E/DX2                !
 ! A31   A(18,19,20)           125.0972         estimate D2E/DX2                !
 ! A32   A(18,19,21)           118.5868         estimate D2E/DX2                !
 ! A33   A(20,19,21)           116.0364         estimate D2E/DX2                !
 ! A34   A(19,20,24)           108.0713         estimate D2E/DX2                !
 ! A35   A(19,21,22)           131.3216         estimate D2E/DX2                !
 ! A36   A(19,21,23)           111.4853         estimate D2E/DX2                !
 ! A37   A(22,21,23)           117.1871         estimate D2E/DX2                !
 ! A38   A(21,23,24)            86.0746         estimate D2E/DX2                !
 ! A39   A(20,24,23)           117.9705         estimate D2E/DX2                !
 ! A40   A(20,24,25)           130.0229         estimate D2E/DX2                !
 ! A41   A(23,24,25)           111.9108         estimate D2E/DX2                !
 ! A42   A(24,25,26)           111.4908         estimate D2E/DX2                !
 ! A43   A(24,25,33)           124.2299         estimate D2E/DX2                !
 ! A44   A(26,25,33)           124.2793         estimate D2E/DX2                !
 ! A45   A(25,26,27)           107.5256         estimate D2E/DX2                !
 ! A46   A(25,26,30)           117.5255         estimate D2E/DX2                !
 ! A47   A(27,26,30)            87.9415         estimate D2E/DX2                !
 ! A48   A(26,27,28)           114.7092         estimate D2E/DX2                !
 ! A49   A(26,27,29)            95.2658         estimate D2E/DX2                !
 ! A50   A(28,27,29)           107.5465         estimate D2E/DX2                !
 ! A51   A(26,30,31)            98.4778         estimate D2E/DX2                !
 ! A52   A(26,30,32)            99.9263         estimate D2E/DX2                !
 ! A53   A(31,30,32)           108.6626         estimate D2E/DX2                !
 ! D1    D(2,1,5,6)            -10.9796         estimate D2E/DX2                !
 ! D2    D(2,1,5,7)            170.0118         estimate D2E/DX2                !
 ! D3    D(3,1,5,6)           -131.3263         estimate D2E/DX2                !
 ! D4    D(3,1,5,7)             49.6651         estimate D2E/DX2                !
 ! D5    D(4,1,5,6)            112.6036         estimate D2E/DX2                !
 ! D6    D(4,1,5,7)            -66.405          estimate D2E/DX2                !
 ! D7    D(1,5,7,8)             16.675          estimate D2E/DX2                !
 ! D8    D(1,5,7,9)            178.041          estimate D2E/DX2                !
 ! D9    D(6,5,7,8)           -162.4166         estimate D2E/DX2                !
 ! D10   D(6,5,7,9)             -1.0507         estimate D2E/DX2                !
 ! D11   D(5,7,9,10)            60.6396         estimate D2E/DX2                !
 ! D12   D(5,7,9,16)          -106.8683         estimate D2E/DX2                !
 ! D13   D(8,7,9,10)          -137.7941         estimate D2E/DX2                !
 ! D14   D(8,7,9,16)            54.6981         estimate D2E/DX2                !
 ! D15   D(7,9,10,11)         -179.2727         estimate D2E/DX2                !
 ! D16   D(7,9,10,15)           -2.9502         estimate D2E/DX2                !
 ! D17   D(16,9,10,11)         -12.2048         estimate D2E/DX2                !
 ! D18   D(16,9,10,15)         164.1178         estimate D2E/DX2                !
 ! D19   D(7,9,16,17)            0.2725         estimate D2E/DX2                !
 ! D20   D(7,9,16,18)          179.9166         estimate D2E/DX2                !
 ! D21   D(10,9,16,17)        -167.4569         estimate D2E/DX2                !
 ! D22   D(10,9,16,18)          12.1872         estimate D2E/DX2                !
 ! D23   D(9,10,11,12)          13.273          estimate D2E/DX2                !
 ! D24   D(9,10,11,14)        -177.8767         estimate D2E/DX2                !
 ! D25   D(15,10,11,12)       -162.9496         estimate D2E/DX2                !
 ! D26   D(15,10,11,14)          5.9006         estimate D2E/DX2                !
 ! D27   D(10,11,12,13)        165.9226         estimate D2E/DX2                !
 ! D28   D(10,11,12,18)        -14.7287         estimate D2E/DX2                !
 ! D29   D(14,11,12,13)         -3.4372         estimate D2E/DX2                !
 ! D30   D(14,11,12,18)        175.9116         estimate D2E/DX2                !
 ! D31   D(11,12,18,16)         14.7753         estimate D2E/DX2                !
 ! D32   D(11,12,18,19)       -169.9808         estimate D2E/DX2                !
 ! D33   D(13,12,18,16)       -165.8799         estimate D2E/DX2                !
 ! D34   D(13,12,18,19)          9.364          estimate D2E/DX2                !
 ! D35   D(9,16,18,12)         -13.5572         estimate D2E/DX2                !
 ! D36   D(9,16,18,19)         171.3711         estimate D2E/DX2                !
 ! D37   D(17,16,18,12)        166.0658         estimate D2E/DX2                !
 ! D38   D(17,16,18,19)         -9.0059         estimate D2E/DX2                !
 ! D39   D(12,18,19,20)         38.4559         estimate D2E/DX2                !
 ! D40   D(12,18,19,21)       -147.874          estimate D2E/DX2                !
 ! D41   D(16,18,19,20)       -146.3993         estimate D2E/DX2                !
 ! D42   D(16,18,19,21)         27.2708         estimate D2E/DX2                !
 ! D43   D(18,19,20,24)        172.8796         estimate D2E/DX2                !
 ! D44   D(21,19,20,24)         -0.9349         estimate D2E/DX2                !
 ! D45   D(18,19,21,22)          3.4527         estimate D2E/DX2                !
 ! D46   D(18,19,21,23)       -177.4905         estimate D2E/DX2                !
 ! D47   D(20,19,21,22)        177.6908         estimate D2E/DX2                !
 ! D48   D(20,19,21,23)         -3.2524         estimate D2E/DX2                !
 ! D49   D(19,20,24,23)          5.1021         estimate D2E/DX2                !
 ! D50   D(19,20,24,25)       -178.778          estimate D2E/DX2                !
 ! D51   D(19,21,23,24)          4.8289         estimate D2E/DX2                !
 ! D52   D(22,21,23,24)       -175.9674         estimate D2E/DX2                !
 ! D53   D(21,23,24,20)         -5.8237         estimate D2E/DX2                !
 ! D54   D(21,23,24,25)        177.3782         estimate D2E/DX2                !
 ! D55   D(20,24,25,26)          5.0453         estimate D2E/DX2                !
 ! D56   D(20,24,25,33)       -174.9808         estimate D2E/DX2                !
 ! D57   D(23,24,25,26)       -178.6481         estimate D2E/DX2                !
 ! D58   D(23,24,25,33)          1.3258         estimate D2E/DX2                !
 ! D59   D(24,25,26,27)       -174.0006         estimate D2E/DX2                !
 ! D60   D(24,25,26,30)        -76.9878         estimate D2E/DX2                !
 ! D61   D(33,25,26,27)          6.0255         estimate D2E/DX2                !
 ! D62   D(33,25,26,30)        103.0383         estimate D2E/DX2                !
 ! D63   D(25,26,27,28)       -114.1424         estimate D2E/DX2                !
 ! D64   D(25,26,27,29)         -2.076          estimate D2E/DX2                !
 ! D65   D(30,26,27,28)        127.5893         estimate D2E/DX2                !
 ! D66   D(30,26,27,29)       -120.3443         estimate D2E/DX2                !
 ! D67   D(25,26,30,31)       -159.4237         estimate D2E/DX2                !
 ! D68   D(25,26,30,32)        -48.659          estimate D2E/DX2                !
 ! D69   D(27,26,30,31)        -50.6969         estimate D2E/DX2                !
 ! D70   D(27,26,30,32)         60.0679         estimate D2E/DX2                !
 --------------------------------------------------------------------------------
 Trust Radius=3.00D-01 FncErr=1.00D-07 GrdErr=1.00D-06 EigMax=2.50D+02 EigMin=1.00D-04
 Number of steps in this run=    167 maximum allowed number of steps=    198.
 GradGradGradGradGradGradGradGradGradGradGradGradGradGradGradGradGradGrad

 Leave Link  103 at Sun Jul 18 16:09:48 2021, MaxMem=   104857600 cpu:               0.0 elap:               0.0
 (Enter /dades/curu/g16A03_MST/g16/l202.exe)
                          Input orientation:                          
 ---------------------------------------------------------------------
 Center     Atomic      Atomic             Coordinates (Angstroms)
 Number     Number       Type             X           Y           Z
 ---------------------------------------------------------------------
      1          6           0        0.845000   -5.775000    0.660000
      2          1           0        0.446000   -6.558000    1.308000
      3          1           0        1.933000   -5.821000    0.587000
      4          1           0        0.446000   -5.770000   -0.356000
      5          6           0        0.491000   -4.542000    1.268000
      6          8           0       -0.272000   -4.359000    2.185000
      7          7           0        1.096000   -3.532000    0.692000
      8          1           0        1.499000   -3.692000   -0.219000
      9          6           0        0.906000   -2.190000    1.057000
     10          6           0        1.202000   -1.726000    2.336000
     11          6           0        0.975000   -0.380000    2.639000
     12          6           0        0.189000    0.386000    1.728000
     13          1           0       -0.201000    1.355000    2.029000
     14          1           0        1.215000    0.055000    3.606000
     15          1           0        1.546000   -2.432000    3.089000
     16          6           0        0.184000   -1.425000    0.204000
     17          1           0       -0.193000   -1.914000   -0.691000
     18          6           0       -0.055000   -0.102000    0.478000
     19          6           0       -0.660000    0.778000   -0.493000
     20          7           0       -0.381000    2.092000   -0.630000
     21          6           0       -1.495000    0.237000   -1.440000
     22          1           0       -1.849000   -0.775000   -1.586000
     23         16           0       -2.073000    1.467000   -2.573000
     24          6           0       -1.026000    2.549000   -1.749000
     25          7           0       -1.034000    3.834000   -2.330000
     26          6           0       -0.273000    4.584000   -1.759000
     27          7           0       -0.432000    5.748000   -2.260000
     28          1           0        0.371000    6.105000   -2.766000
     29          1           0       -1.122000    5.461000   -2.945000
     30          7           0       -0.656000    5.074000   -0.618000
     31          1           0       -0.036000    5.876000   -0.584000
     32          1           0       -1.586000    5.393000   -0.868000
     33          1           0       -1.597000    4.093000   -3.115000
 ---------------------------------------------------------------------
                    Distance matrix (angstroms):
                    1          2          3          4          5
     1  C    0.000000
     2  H    1.091876   0.000000
     3  H    1.091416   1.809469   0.000000
     4  H    1.091550   1.841152   1.761539   0.000000
     5  C    1.419602   2.016899   2.044252   2.036513   0.000000
     6  O    2.361857   2.473915   3.090805   2.993848   1.206875
     7  N    2.257227   3.155730   2.439491   2.555278   1.310687
     8  H    2.353560   3.413868   2.317463   2.333594   1.987394
     9  C    3.607431   4.399321   3.802603   3.876154   2.397634
    10  C    4.396684   4.997654   4.512470   4.916537   3.094511
    11  C    5.747988   6.341852   5.893467   6.188858   4.408644
    12  C    6.287200   6.961436   6.547539   6.504263   4.958628
    13  H    7.335201   7.972077   7.624191   7.541383   5.986033
    14  H    6.542531   7.043006   6.645093   7.086567   5.207958
    15  H    4.191311   4.626644   4.230259   4.921409   2.980129
    16  C    4.423501   5.256914   4.746631   4.388766   3.307875
    17  H    4.220186   5.096181   4.627938   3.922918   3.348421
    18  C    5.746830   6.528387   6.055657   5.750894   4.542666
    19  C    6.821748   7.634378   7.171949   6.642161   5.720867
    20  N    8.065784   8.902936   8.333742   7.910123   6.955052
    21  C    6.784522   7.582283   7.249778   6.405200   5.840916
    22  H    6.107549   6.861877   6.669900   5.632934   5.273633
    23  S    8.450655   9.263269   8.896549   7.977131   7.578618
    24  C    8.865264   9.718512   9.179841   8.562301   7.854035
    25  N   10.237364  11.109415  10.513373   9.915840   9.242760
    26  C   10.696278  11.578757  10.891932  10.473332   9.645222
    27  N   11.955612  12.842864  12.146621  11.707281  10.917088
    28  H   12.373219  13.302431  12.486470  12.117316  11.386227
    29  H   11.962977  12.845349  12.210306  11.631720  10.973201
    30  N   11.026653  11.841761  11.263036  10.902999   9.866107
    31  H   11.750298  12.586355  11.919229  11.658200  10.594449
    32  H   11.531208  12.316266  11.842896  11.357981  10.372109
    33  H   10.843957  11.712411  11.155855  10.443405   9.906243
                    6          7          8          9         10
     6  O    0.000000
     7  N    2.187328   0.000000
     8  H    3.059501   1.008925   0.000000
     9  C    2.713785   1.403670   2.058113   0.000000
    10  C    3.021285   2.444506   3.237497   1.392391   0.000000
    11  C    4.194469   3.706825   4.405915   2.404909   1.398232
    12  C    4.789196   4.152911   4.704997   2.756829   2.419995
    13  H    5.716570   5.229966   5.780633   3.838914   3.399297
    14  H    4.869682   4.623000   5.362023   3.410705   2.187471
    15  H    2.799227   2.675464   3.540152   2.144105   1.088017
    16  C    3.569405   2.347198   2.654702   1.354296   2.381669
    17  H    3.775664   2.488400   2.499386   2.083142   3.338278
    18  C    4.591621   3.624293   3.973515   2.370339   2.769402
    19  C    5.806117   4.802485   4.971645   3.696469   4.211924
    20  N    7.039283   5.963102   6.095734   4.778898   5.087256
    21  C    5.979931   5.046193   5.088410   4.229674   5.038388
    22  H    5.436214   4.632856   4.646147   4.071572   5.059159
    23  S    7.734626   6.759644   6.701924   5.951890   6.709632
    24  C    7.985320   6.887665   6.904101   5.836470   6.318768
    25  N    9.385687   8.241804   8.216635   7.178018   7.595054
    26  C    9.774067   8.587841   8.602544   7.430140   7.665556
    27  N   11.042422   9.857357   9.849266   8.706582   8.924900
    28  H   11.594013  10.264266  10.185323   9.149239   9.383258
    29  H   11.111787   9.950947   9.903440   8.869419   9.216448
    30  N    9.848135   8.879687   9.035817   7.616506   7.643185
    31  H   10.605578   9.561384   9.697220   8.284962   8.237078
    32  H   10.302859   9.448934   9.616426   8.210821   8.289676
    33  H   10.063892   8.937904   8.864438   7.946489   8.450359
                   11         12         13         14         15
    11  C    0.000000
    12  C    1.426350   0.000000
    13  H    2.182957   1.087043   0.000000
    14  H    1.087159   2.165438   2.486360   0.000000
    15  H    2.176981   3.410996   4.303136   2.561644   0.000000
    16  C    2.765308   2.366922   3.347723   3.850580   3.345492
    17  H    3.847893   3.359685   4.252626   4.931900   4.192952
    18  C    2.410001   1.363884   2.133018   3.379635   3.848301
    19  C    3.718012   2.409835   2.627564   4.565102   5.291622
    20  N    4.316930   2.965721   2.765113   4.963898   6.165295
    21  C    4.808308   3.590861   3.867599   5.730562   6.073144
    22  H    5.097217   4.060044   4.507885   6.085545   6.010599
    23  S    6.314005   4.978334   4.969440   7.140359   7.769016
    24  C    5.642480   4.271337   4.047165   6.318081   7.404849
    25  N    6.817979   5.463680   5.083327   7.387485   8.676677
    26  C    6.748422   5.476844   4.978009   7.176992   8.719869
    27  N    7.970711   6.711246   6.143886   8.338634   9.971794
    28  H    8.463691   7.275721   6.773604   8.827073  10.418350
    29  H    8.348398   7.022199   6.515225   8.809200  10.287217
    30  N    6.558531   5.309904   4.587439   6.821523   8.656251
    31  H    7.109668   5.961214   5.224408   7.280463   9.220440
    32  H    7.223939   5.912689   5.159097   7.507098   9.311171
    33  H    7.728611   6.355021   5.992178   8.329744   9.536440
                   16         17         18         19         20
    16  C    0.000000
    17  H    1.087325   0.000000
    18  C    1.372052   2.160775   0.000000
    19  C    2.459950   2.739372   1.443352   0.000000
    20  N    3.658425   4.010873   2.479431   1.350261   0.000000
    21  C    2.878198   2.623548   2.422240   1.373577   2.310437
    22  H    2.785622   2.200155   2.816285   2.240576   3.359858
    23  S    4.601026   4.302033   3.980287   2.607238   2.651177
    24  C    4.590314   4.661719   3.595855   2.201802   1.370049
    25  N    5.963368   6.035984   4.933092   3.585189   2.520114
    26  C    6.338004   6.585668   5.197142   4.029660   2.737950
    27  N    7.609381   7.824649   6.470029   5.279694   4.003228
    28  H    8.096713   8.302294   7.016542   5.882722   4.607838
    29  H    7.683673   7.767508   6.618337   5.306245   4.154331
    30  N    6.604414   7.003702   5.324790   4.297820   2.994677
    31  H    7.346696   7.792317   6.071630   5.136853   3.799973
    32  H    7.125111   7.440701   5.860947   4.721899   3.522112
    33  H    6.681021   6.628050   5.734583   4.329212   3.414364
                   21         22         23         24         25
    21  C    0.000000
    22  H    1.082024   0.000000
    23  S    1.769371   2.459860   0.000000
    24  C    2.379241   3.428246   1.716365   0.000000
    25  N    3.734037   4.739266   2.596393   1.410266   0.000000
    26  C    4.526749   5.588612   3.690296   2.169870   1.211471
    27  N    5.672168   6.709075   4.595412   3.293563   2.007660
    28  H    6.298703   7.324971   5.246087   3.953610   2.705839
    29  H    5.449250   6.423637   4.122478   3.149504   1.741579
    30  N    4.977567   6.047402   4.340549   2.791359   2.147424
    31  H    5.887252   6.966116   5.248311   3.661455   2.866057
    32  H    5.188430   6.215217   4.307861   3.029537   2.207403
    33  H    4.205326   5.108695   2.723273   2.139143   1.000137
                   26         27         28         29         30
    26  C    0.000000
    27  N    1.277176   0.000000
    28  H    1.934483   1.014048   0.000000
    29  H    1.701918   1.013752   1.635795   0.000000
    30  N    1.299488   1.789027   2.594532   2.404549   0.000000
    31  H    1.762401   1.726898   2.231415   2.631718   1.014278
    32  H    1.781104   1.842662   2.817658   2.129284   1.014476
    33  H    1.957752   2.197106   2.836013   1.458063   2.843036
                   31         32         33
    31  H    0.000000
    32  H    1.648164   0.000000
    33  H    3.467243   2.595983   0.000000
 Stoichiometry    C12H14N5OS(1+)
 Framework group  C1[X(C12H14N5OS)]
 Deg. of freedom    93
 Full point group                 C1      NOp   1
 Largest Abelian subgroup         C1      NOp   1
 Largest concise Abelian subgroup C1      NOp   1
                         Standard orientation:                         
 ---------------------------------------------------------------------
 Center     Atomic      Atomic             Coordinates (Angstroms)
 Number     Number       Type             X           Y           Z
 ---------------------------------------------------------------------
      1          6           0       -6.013765   -1.310545    0.675230
      2          1           0       -6.895757   -1.300580    0.031658
      3          1           0       -6.225907   -0.900948    1.664379
      4          1           0       -5.556788   -2.291865    0.815468
      5          6           0       -5.055459   -0.475322    0.043311
      6          8           0       -5.093382   -0.014022   -1.071279
      7          7           0       -4.031356   -0.241898    0.827293
      8          1           0       -3.909374   -0.849880    1.623162
      9          6           0       -2.912827    0.519380    0.453611
     10          6           0       -3.022906    1.857692    0.085431
     11          6           0       -1.870833    2.554963   -0.290859
     12          6           0       -0.690721    1.799662   -0.557937
     13          1           0        0.148831    2.265968   -1.067223
     14          1           0       -1.880435    3.608999   -0.556995
     15          1           0       -4.009082    2.315064    0.040171
     16          6           0       -1.766940   -0.161763    0.214647
     17          1           0       -1.808494   -1.242433    0.327347
     18          6           0       -0.622759    0.497617   -0.157636
     19          6           0        0.650597   -0.176962   -0.239926
     20          7           0        1.846216    0.384688    0.039810
     21          6           0        0.664381   -1.525223   -0.502066
     22          1           0       -0.137117   -2.219272   -0.718103
     23         16           0        2.311737   -2.170797   -0.490778
     24          6           0        2.797476   -0.600622    0.003706
     25          7           0        4.184892   -0.531128    0.246809
     26          6           0        4.515244    0.572893    0.620527
     27          7           0        5.790120    0.588020    0.695639
     28          1           0        6.158193    0.694391    1.634522
     29          1           0        5.910594   -0.382385    0.428258
     30          7           0        4.603744    1.509028   -0.276406
     31          1           0        5.207824    2.146120    0.231491
     32          1           0        5.156272    1.027494   -0.977832
     33          1           0        4.816273   -1.297331    0.126124
 ---------------------------------------------------------------------
 Rotational constants (GHZ):           0.9287389           0.1384754           0.1251780
 Leave Link  202 at Sun Jul 18 16:09:48 2021, MaxMem=   104857600 cpu:               0.0 elap:               0.0
 (Enter /dades/curu/g16A03_MST/g16/l301.exe)
 Standard basis: 6-31G(d) (6D, 7F)
 Ernie: Thresh=  0.10000D-02 Tol=  0.10000D-05 Strict=F.
 There are   317 symmetry adapted cartesian basis functions of A   symmetry.
 There are   317 symmetry adapted basis functions of A   symmetry.
   317 basis functions,   612 primitive gaussians,   317 cartesian basis functions
    72 alpha electrons       72 beta electrons
       nuclear repulsion energy      1482.7202211232 Hartrees.
 IExCor=  402 DFT=T Ex+Corr=B3LYP ExCW=0 ScaHFX=  0.200000
 ScaDFX=  0.800000  0.720000  1.000000  0.810000 ScalE2=  1.000000  1.000000
 IRadAn=      5 IRanWt=     -1 IRanGd=            0 ICorTp=0 IEmpDi=  4
 NAtoms=   33 NActive=   33 NUniq=   33 SFac= 1.00D+00 NAtFMM=   60 NAOKFM=F Big=F
 Integral buffers will be    131072 words long.
 Raffenetti 2 integral format.
 Two-electron integral symmetry is turned on.
 Using the following non-standard input for PCM:
 MSTModel=DFT cav MSTCharged
 --- end of non-standard input.
 MST model for solvation energy: B3LYP parametrization.
 MST cavity parameters:
 ISph   IAn     Re0     Alpha   Atom Type   QCorr
 ------------------------------------------------
   1      6     1.50     1.50      CH3        F
   2      1     1.20     1.50      CH3        F
   3      1     1.20     1.50      CH3        F
   4      1     1.20     1.50      CH3        F
   5      6     1.50     1.50      C          F
   6      8     1.40     1.50      O          F
   7      7     1.50     1.50      NH         F
   8      1     0.90     1.50      NH         F
   9      6     1.50     1.50      C          F
  10      6     1.50     1.50      CH         F
  11      6     1.50     1.50      CH         F
  12      6     1.50     1.50      CH         F
  13      1     1.20     1.50      CH         F
  14      1     1.20     1.50      CH         F
  15      1     1.20     1.50      CH         F
  16      6     1.50     1.50      CH         F
  17      1     1.20     1.50      CH         F
  18      6     1.50     1.50      C          F
  19      6     1.50     1.50      C          F
  20      7     1.50     1.50      Nc         F
  21      6     1.50     1.50      CH         F
  22      1     1.20     1.50      CH         F
  23     16     1.75     1.50      S          F
  24      6     1.50     1.50      C          F
  25      7     1.50     1.15      NH         T
  26      6     1.50     1.15      CN+        T
  27      7     1.50     1.15      NH+        T
  28      1     0.90     1.15      NH+        T
  29      1     0.90     1.15      NH+        T
  30      7     1.50     1.15      NH+        T
  31      1     0.90     1.15      NH+        T
  32      1     0.90     1.15      NH+        T
  33      1     0.90     1.15      NH         T
 ------------------------------------------------------------------------------
 Polarizable Continuum Model (PCM)
 =================================
 Model                : PCM.
 Atomic radii         : MST.
 Polarization charges : Total charges.
 Charge compensation  : None.
 Solution method      : On-the-fly selection.
 Cavity type          : Scaled VdW (van der Waals Surface) (Alpha=1.500).
 Cavity algorithm     : GePol (No added spheres)
                        Default sphere list used, NSphG=   33.
                        Lebedev-Laikov grids with approx.  5.0 points / Ang**2.
                        Smoothing algorithm: York/Karplus (Gamma=1.0000).
                        Polarization charges: spherical gaussians, with
                                              point-specific exponents (IZeta= 3).
                        Self-potential: point-specific (ISelfS= 7).
                        Self-field    : sphere-specific E.n sum rule (ISelfD= 2).
 1st derivatives      : Analytical E(r).r(x)/FMM algorithm (CHGder, D1EAlg=3).
                        Cavity 1st derivative terms included.
 Solvent              : n-Octanol, Eps=   9.862900 Eps(inf)=   2.043470
 ------------------------------------------------------------------------------
 GePol: Number of generator spheres                  =      33
 GePol: Total number of spheres                      =      33
 GePol: Number of exposed spheres                    =      33 (100.00%)
 GePol: Number of points                             =    2925
 GePol: Average weight of points                     =       0.12
 GePol: Minimum weight of points                     =   0.15D-09
 GePol: Maximum weight of points                     =    0.22065
 GePol: Number of points with low weight             =     146
 GePol: Fraction of low-weight points (<1% of avg)   =       4.99%
 GePol: Cavity surface area                          =    343.380 Ang**2
 GePol: Cavity volume                                =    385.090 Ang**3
 Surface areas from nonelectrostatic (unscaled) cavity and vdw tensions:
 Sphere =    1 Type =  CH3 Surf =        4.972 Tension =       -0.183
 Sphere =    2 Type =  CH3 Surf =       10.016 Tension =       -0.183
 Sphere =    3 Type =  CH3 Surf =        9.894 Tension =       -0.183
 Sphere =    4 Type =  CH3 Surf =       10.029 Tension =       -0.183
 Sphere =    5 Type =  C   Surf =        5.900 Tension =       -0.205
 Sphere =    6 Type =  O   Surf =       16.094 Tension =       -0.185
 Sphere =    7 Type =  NH  Surf =        8.919 Tension =       -0.234
 Sphere =    8 Type =  NH  Surf =        3.893 Tension =       -0.234
 Sphere =    9 Type =  C   Surf =        5.721 Tension =       -0.205
 Sphere =   10 Type =  CH  Surf =        7.744 Tension =       -0.195
 Sphere =   11 Type =  CH  Surf =        7.979 Tension =       -0.195
 Sphere =   12 Type =  CH  Surf =        7.604 Tension =       -0.195
 Sphere =   13 Type =  CH  Surf =       10.187 Tension =       -0.195
 Sphere =   14 Type =  CH  Surf =       10.258 Tension =       -0.195
 Sphere =   15 Type =  CH  Surf =       10.242 Tension =       -0.195
 Sphere =   16 Type =  CH  Surf =        7.149 Tension =       -0.195
 Sphere =   17 Type =  CH  Surf =        9.185 Tension =       -0.195
 Sphere =   18 Type =  C   Surf =        5.871 Tension =       -0.205
 Sphere =   19 Type =  C   Surf =        5.793 Tension =       -0.205
 Sphere =   20 Type =  Nc  Surf =       12.901 Tension =       -0.161
 Sphere =   21 Type =  CH  Surf =        7.324 Tension =       -0.195
 Sphere =   22 Type =  CH  Surf =        9.542 Tension =       -0.195
 Sphere =   23 Type =  S   Surf =       24.156 Tension =       -0.186
 Sphere =   24 Type =  C   Surf =        5.301 Tension =       -0.205
 Sphere =   25 Type =  NH  Surf =        8.184 Tension =       -0.234
 Sphere =   26 Type =  CN+ Surf =        6.453 Tension =       -0.227
 Sphere =   27 Type =  NH+ Surf =       12.044 Tension =       -0.274
 Sphere =   28 Type =  NH+ Surf =        3.953 Tension =       -0.274
 Sphere =   29 Type =  NH+ Surf =        2.922 Tension =       -0.274
 Sphere =   30 Type =  NH+ Surf =       13.353 Tension =       -0.274
 Sphere =   31 Type =  NH+ Surf =        3.323 Tension =       -0.274
 Sphere =   32 Type =  NH+ Surf =        3.543 Tension =       -0.274
 Sphere =   33 Type =  NH  Surf =        3.611 Tension =       -0.234
 PCM non-electrostatic energy =        -0.0200320387 Hartrees.
 Nuclear repulsion after PCM non-electrostatic terms =     1482.7001890845 Hartrees.
 Leave Link  301 at Sun Jul 18 16:09:49 2021, MaxMem=   104857600 cpu:               0.1 elap:               0.1
 (Enter /dades/curu/g16A03_MST/g16/l302.exe)
 NPDir=0 NMtPBC=     1 NCelOv=     1 NCel=       1 NClECP=     1 NCelD=      1
         NCelK=      1 NCelE2=     1 NClLst=     1 CellRange=     0.0.
 One-electron integrals computed using PRISM.
 One-electron integral symmetry used in STVInt
 NBasis=   317 RedAO= T EigKep=  6.05D-04  NBF=   317
 NBsUse=   317 1.00D-06 EigRej= -1.00D+00 NBFU=   317
 Precomputing XC quadrature grid using
 IXCGrd= 4 IRadAn=           5 IRanWt=          -1 IRanGd=           0 AccXCQ= 0.00D+00.
 Generated NRdTot=       0 NPtTot=           0 NUsed=           0 NTot=          32
 NSgBfM=   312   312   312   312   312 MxSgAt=    33 MxSgA2=    33.
 Leave Link  302 at Sun Jul 18 16:09:50 2021, MaxMem=   104857600 cpu:               3.9 elap:               1.1
 (Enter /dades/curu/g16A03_MST/g16/l303.exe)
 DipDrv:  MaxL=1.
 Leave Link  303 at Sun Jul 18 16:09:50 2021, MaxMem=   104857600 cpu:               0.1 elap:               0.1
 (Enter /dades/curu/g16A03_MST/g16/l401.exe)
 ExpMin= 1.17D-01 ExpMax= 2.19D+04 ExpMxC= 3.30D+03 IAcc=3 IRadAn=         5 AccDes= 0.00D+00
 Harris functional with IExCor=  402 and IRadAn=       5 diagonalized for initial guess.
 HarFok:  IExCor=  402 AccDes= 0.00D+00 IRadAn=         5 IDoV= 1 UseB2=F ITyADJ=14
 ICtDFT=  3500011 ScaDFX=  1.000000  1.000000  1.000000  1.000000
 FoFCou: FMM=F IPFlag=           0 FMFlag=      100000 FMFlg1=           0
         NFxFlg=           0 DoJE=T BraDBF=F KetDBF=T FulRan=T
         wScrn=  0.000000 ICntrl=       500 IOpCl=  0 I1Cent=   200000004 NGrid=           0
         NMat0=    1 NMatS0=      1 NMatT0=    0 NMatD0=    1 NMtDS0=    0 NMtDT0=    0
 Petite list used in FoFCou.
 Harris En= -1212.29984070103    
 JPrj=0 DoOrth=F DoCkMO=F.
 Leave Link  401 at Sun Jul 18 16:09:57 2021, MaxMem=   104857600 cpu:              27.2 elap:               6.9
 (Enter /dades/curu/g16A03_MST/g16/l502.exe)
 Integral symmetry usage will be decided dynamically.
 Closed shell SCF:
 Using DIIS extrapolation, IDIIS=  1040.
 NGot=   104857600 LenX=   104651201 LenY=   104550271
 Requested convergence on RMS density matrix=1.00D-08 within 128 cycles.
 Requested convergence on MAX density matrix=1.00D-06.
 Requested convergence on             energy=1.00D-06.
 No special actions if energy rises.
 Fock matrices will be formed incrementally for  20 cycles.

 Cycle   1  Pass 1  IDiag  1:
 FoFJK:  IHMeth= 1 ICntrl=       0 DoSepK=F KAlg= 0 I1Cent=           0 FoldK=F
 IRaf= 720000000 NMat=       1 IRICut=       1 DoRegI=T DoRafI=F ISym2E= 0 IDoP0=0 IntGTp=1.
 FoFCou: FMM=F IPFlag=           0 FMFlag=      100000 FMFlg1=           0
         NFxFlg=           0 DoJE=F BraDBF=F KetDBF=F FulRan=T
         wScrn=  0.000000 ICntrl=         0 IOpCl=  0 I1Cent=           0 NGrid=           0
         NMat0=    1 NMatS0=      1 NMatT0=    0 NMatD0=    1 NMtDS0=    0 NMtDT0=    0
 Symmetry not used in FoFCou.
 Inv3:  Mode=1 IEnd=    25666875.
 Iteration    1 A*A^-1 deviation from unit magnitude is 4.66D-15 for   2914.
 Iteration    1 A*A^-1 deviation from orthogonality  is 3.27D-15 for   2923   2819.
 Iteration    1 A^-1*A deviation from unit magnitude is 5.11D-15 for   2914.
 Iteration    1 A^-1*A deviation from orthogonality  is 2.73D-15 for   2921   2749.
 E= -1211.81939795570    
 DIIS: error= 2.93D-02 at cycle   1 NSaved=   1.
 NSaved= 1 IEnMin= 1 EnMin= -1211.81939795570     IErMin= 1 ErrMin= 2.93D-02
 ErrMax= 2.93D-02  0.00D+00 EMaxC= 1.00D-01 BMatC= 5.88D-01 BMatP= 5.88D-01
 IDIUse=3 WtCom= 7.07D-01 WtEn= 2.93D-01
 Coeff-Com:  0.100D+01
 Coeff-En:   0.100D+01
 Coeff:      0.100D+01
 Gap=    -0.032 Goal=   None    Shift=    0.000
 GapD=   -0.032 DampG=0.250 DampE=0.500 DampFc=0.2500 IDamp=-1.
 Damping current iteration by 2.50D-01
 RMSDP=8.01D-03 MaxDP=2.94D-01              OVMax= 7.49D-01

 Cycle   2  Pass 1  IDiag  1:
 RMSU=  1.98D-03    CP:  9.87D-01
 E= -1212.01535690027     Delta-E=       -0.195958944570 Rises=F Damp=T
 DIIS: error= 1.35D-02 at cycle   2 NSaved=   2.
 NSaved= 2 IEnMin= 2 EnMin= -1212.01535690027     IErMin= 2 ErrMin= 1.35D-02
 ErrMax= 1.35D-02  0.00D+00 EMaxC= 1.00D-01 BMatC= 1.10D-01 BMatP= 5.88D-01
 IDIUse=3 WtCom= 8.65D-01 WtEn= 1.35D-01
 Coeff-Com: -0.427D+00 0.143D+01
 Coeff-En:   0.000D+00 0.100D+01
 Coeff:     -0.369D+00 0.137D+01
 Gap=     0.202 Goal=   None    Shift=    0.000
 RMSDP=2.38D-03 MaxDP=8.78D-02 DE=-1.96D-01 OVMax= 9.27D-01

 Cycle   3  Pass 1  IDiag  1:
 RMSU=  2.34D-03    CP:  9.74D-01  8.38D-01
 E= -1212.24904363434     Delta-E=       -0.233686734075 Rises=F Damp=F
 DIIS: error= 1.16D-02 at cycle   3 NSaved=   3.
 NSaved= 3 IEnMin= 3 EnMin= -1212.24904363434     IErMin= 3 ErrMin= 1.16D-02
 ErrMax= 1.16D-02  0.00D+00 EMaxC= 1.00D-01 BMatC= 1.37D-01 BMatP= 1.10D-01
 IDIUse=2 WtCom= 0.00D+00 WtEn= 1.00D+00
 Coeff-En:   0.000D+00 0.000D+00 0.100D+01
 Coeff:      0.000D+00 0.000D+00 0.100D+01
 Gap=     0.055 Goal=   None    Shift=    0.000
 RMSDP=5.45D-03 MaxDP=2.34D-01 DE=-2.34D-01 OVMax= 9.40D-01

 Cycle   4  Pass 1  IDiag  1:
 RMSU=  2.64D-03    CP:  9.60D-01  2.44D+00 -5.17D-01
 E= -1211.40379007979     Delta-E=        0.845253554557 Rises=F Damp=F
 DIIS: error= 3.31D-02 at cycle   4 NSaved=   4.
 NSaved= 4 IEnMin= 3 EnMin= -1212.24904363434     IErMin= 3 ErrMin= 1.16D-02
 ErrMax= 3.31D-02  0.00D+00 EMaxC= 1.00D-01 BMatC= 9.54D-01 BMatP= 1.10D-01
 IDIUse=2 WtCom= 0.00D+00 WtEn= 1.00D+00
 Coeff-En:   0.000D+00 0.000D+00 0.816D+00 0.184D+00
 Coeff:      0.000D+00 0.000D+00 0.816D+00 0.184D+00
 Gap=    -0.002 Goal=   None    Shift=    0.000
 RMSDP=4.96D-03 MaxDP=2.09D-01 DE= 8.45D-01 OVMax= 9.84D-01

 Cycle   5  Pass 1  IDiag  1:
 RMSU=  1.55D-03    CP:  9.81D-01  9.06D-01  6.70D-01  1.48D-01
 E= -1212.34194398753     Delta-E=       -0.938153907741 Rises=F Damp=F
 DIIS: error= 4.96D-03 at cycle   5 NSaved=   5.
 NSaved= 5 IEnMin= 5 EnMin= -1212.34194398753     IErMin= 5 ErrMin= 4.96D-03
 ErrMax= 4.96D-03  0.00D+00 EMaxC= 1.00D-01 BMatC= 3.90D-02 BMatP= 1.10D-01
 IDIUse=3 WtCom= 9.50D-01 WtEn= 4.96D-02
 Coeff-Com: -0.120D+00 0.305D+00 0.402D+00 0.527D-01 0.360D+00
 Coeff-En:   0.000D+00 0.000D+00 0.213D+00 0.000D+00 0.787D+00
 Coeff:     -0.114D+00 0.290D+00 0.392D+00 0.500D-01 0.381D+00
 Gap=     0.030 Goal=   None    Shift=    0.000
 RMSDP=8.37D-04 MaxDP=4.35D-02 DE=-9.38D-01 OVMax= 6.76D-02

 Cycle   6  Pass 1  IDiag  1:
 RMSU=  3.96D-04    CP:  9.79D-01  8.07D-01  8.17D-01  1.16D-01  6.03D-01
 E= -1212.37056315946     Delta-E=       -0.028619171936 Rises=F Damp=F
 DIIS: error= 2.62D-03 at cycle   6 NSaved=   6.
 NSaved= 6 IEnMin= 6 EnMin= -1212.37056315946     IErMin= 6 ErrMin= 2.62D-03
 ErrMax= 2.62D-03  0.00D+00 EMaxC= 1.00D-01 BMatC= 6.66D-03 BMatP= 3.90D-02
 IDIUse=3 WtCom= 9.74D-01 WtEn= 2.62D-02
 Coeff-Com: -0.100D+00 0.146D+00 0.401D-01-0.939D-02 0.245D+00 0.679D+00
 Coeff-En:   0.000D+00 0.000D+00 0.000D+00 0.000D+00 0.162D+00 0.838D+00
 Coeff:     -0.977D-01 0.142D+00 0.391D-01-0.915D-02 0.243D+00 0.683D+00
 Gap=     0.035 Goal=   None    Shift=    0.000
 RMSDP=3.49D-04 MaxDP=1.37D-02 DE=-2.86D-02 OVMax= 4.34D-02

 Cycle   7  Pass 1  IDiag  1:
 RMSU=  1.41D-04    CP:  9.79D-01  8.92D-01  8.01D-01  1.12D-01  7.68D-01
                    CP:  7.96D-01
 E= -1212.37712986678     Delta-E=       -0.006566707314 Rises=F Damp=F
 DIIS: error= 2.98D-04 at cycle   7 NSaved=   7.
 NSaved= 7 IEnMin= 7 EnMin= -1212.37712986678     IErMin= 7 ErrMin= 2.98D-04
 ErrMax= 2.98D-04  0.00D+00 EMaxC= 1.00D-01 BMatC= 1.28D-04 BMatP= 6.66D-03
 IDIUse=3 WtCom= 9.97D-01 WtEn= 2.98D-03
 Coeff-Com: -0.314D-01 0.427D-01-0.121D-01-0.395D-02 0.505D-01 0.249D+00
 Coeff-Com:  0.705D+00
 Coeff-En:   0.000D+00 0.000D+00 0.000D+00 0.000D+00 0.000D+00 0.000D+00
 Coeff-En:   0.100D+01
 Coeff:     -0.313D-01 0.426D-01-0.121D-01-0.394D-02 0.503D-01 0.248D+00
 Coeff:      0.706D+00
 Gap=     0.037 Goal=   None    Shift=    0.000
 RMSDP=1.11D-04 MaxDP=3.38D-03 DE=-6.57D-03 OVMax= 1.96D-02

 Cycle   8  Pass 1  IDiag  1:
 RMSU=  9.37D-05    CP:  9.79D-01  8.96D-01  7.97D-01  1.16D-01  7.94D-01
                    CP:  8.29D-01  1.26D+00
 E= -1212.37728017284     Delta-E=       -0.000150306067 Rises=F Damp=F
 DIIS: error= 2.49D-04 at cycle   8 NSaved=   8.
 NSaved= 8 IEnMin= 8 EnMin= -1212.37728017284     IErMin= 8 ErrMin= 2.49D-04
 ErrMax= 2.49D-04  0.00D+00 EMaxC= 1.00D-01 BMatC= 6.66D-05 BMatP= 1.28D-04
 IDIUse=3 WtCom= 9.98D-01 WtEn= 2.49D-03
 Coeff-Com: -0.403D-02 0.433D-02-0.116D-01-0.554D-03-0.453D-02 0.613D-01
 Coeff-Com:  0.484D+00 0.471D+00
 Coeff-En:   0.000D+00 0.000D+00 0.000D+00 0.000D+00 0.000D+00 0.000D+00
 Coeff-En:   0.237D-01 0.976D+00
 Coeff:     -0.402D-02 0.432D-02-0.116D-01-0.552D-03-0.452D-02 0.611D-01
 Coeff:      0.483D+00 0.473D+00
 Gap=     0.038 Goal=   None    Shift=    0.000
 RMSDP=7.68D-05 MaxDP=2.53D-03 DE=-1.50D-04 OVMax= 1.44D-02

 Cycle   9  Pass 1  IDiag  1:
 RMSU=  4.62D-05    CP:  9.79D-01  9.04D-01  7.92D-01  1.18D-01  8.07D-01
                    CP:  8.10D-01  1.59D+00  1.29D+00
 E= -1212.37738730510     Delta-E=       -0.000107132255 Rises=F Damp=F
 DIIS: error= 1.95D-04 at cycle   9 NSaved=   9.
 NSaved= 9 IEnMin= 9 EnMin= -1212.37738730510     IErMin= 9 ErrMin= 1.95D-04
 ErrMax= 1.95D-04  0.00D+00 EMaxC= 1.00D-01 BMatC= 2.01D-05 BMatP= 6.66D-05
 IDIUse=3 WtCom= 9.98D-01 WtEn= 1.95D-03
 Coeff-Com:  0.499D-02-0.649D-02 0.295D-02 0.251D-03-0.589D-02-0.833D-02
 Coeff-Com:  0.113D+00 0.172D+00 0.727D+00
 Coeff-En:   0.000D+00 0.000D+00 0.000D+00 0.000D+00 0.000D+00 0.000D+00
 Coeff-En:   0.000D+00 0.000D+00 0.100D+01
 Coeff:      0.498D-02-0.647D-02 0.294D-02 0.250D-03-0.588D-02-0.832D-02
 Coeff:      0.113D+00 0.172D+00 0.728D+00
 Gap=     0.039 Goal=   None    Shift=    0.000
 RMSDP=9.56D-05 MaxDP=3.47D-03 DE=-1.07D-04 OVMax= 1.93D-02

 Cycle  10  Pass 1  IDiag  1:
 RMSU=  1.85D-05    CP:  9.78D-01  9.13D-01  7.85D-01  1.20D-01  8.20D-01
                    CP:  7.86D-01  1.95D+00  1.95D+00  1.74D+00
 E= -1212.37746463562     Delta-E=       -0.000077330518 Rises=F Damp=F
 DIIS: error= 2.43D-04 at cycle  10 NSaved=  10.
 NSaved=10 IEnMin=10 EnMin= -1212.37746463562     IErMin= 9 ErrMin= 1.95D-04
 ErrMax= 2.43D-04  0.00D+00 EMaxC= 1.00D-01 BMatC= 2.53D-05 BMatP= 2.01D-05
 IDIUse=3 WtCom= 9.98D-01 WtEn= 1.95D-03
 Coeff-Com:  0.551D-02-0.674D-02 0.803D-02 0.101D-03-0.201D-03-0.136D-01
 Coeff-Com:  0.215D-01 0.422D-01 0.544D+00 0.399D+00
 Coeff-En:   0.000D+00 0.000D+00 0.000D+00 0.000D+00 0.000D+00 0.000D+00
 Coeff-En:   0.000D+00 0.000D+00 0.000D+00 0.100D+01
 Coeff:      0.550D-02-0.673D-02 0.802D-02 0.101D-03-0.201D-03-0.136D-01
 Coeff:      0.214D-01 0.422D-01 0.543D+00 0.401D+00
 Gap=     0.039 Goal=   None    Shift=    0.000
 RMSDP=5.52D-05 MaxDP=2.06D-03 DE=-7.73D-05 OVMax= 1.12D-02

 Cycle  11  Pass 1  IDiag  1:
 RMSU=  4.28D-06    CP:  9.78D-01  9.19D-01  7.80D-01  1.21D-01  8.26D-01
                    CP:  7.68D-01  2.16D+00  2.32D+00  2.22D+00  1.35D+00
 E= -1212.37751105412     Delta-E=       -0.000046418500 Rises=F Damp=F
 DIIS: error= 2.23D-04 at cycle  11 NSaved=  11.
 NSaved=11 IEnMin=11 EnMin= -1212.37751105412     IErMin= 9 ErrMin= 1.95D-04
 ErrMax= 2.23D-04  0.00D+00 EMaxC= 1.00D-01 BMatC= 2.41D-05 BMatP= 2.01D-05
 IDIUse=3 WtCom= 9.98D-01 WtEn= 1.95D-03
 Coeff-Com:  0.336D-02-0.439D-02 0.119D-01-0.222D-03 0.131D-01 0.575D-02
 Coeff-Com:  0.449D-01-0.412D-01-0.365D+00-0.236D+01 0.369D+01
 Coeff-En:   0.000D+00 0.000D+00 0.000D+00 0.000D+00 0.000D+00 0.000D+00
 Coeff-En:   0.000D+00 0.000D+00 0.000D+00 0.000D+00 0.100D+01
 Coeff:      0.335D-02-0.438D-02 0.119D-01-0.221D-03 0.130D-01 0.573D-02
 Coeff:      0.448D-01-0.412D-01-0.365D+00-0.236D+01 0.369D+01
 Gap=     0.041 Goal=   None    Shift=    0.000
 RMSDP=2.52D-04 MaxDP=9.50D-03 DE=-4.64D-05 OVMax= 5.10D-02

 Cycle  12  Pass 1  IDiag  1:
 RMSU=  1.17D-04    CP:  9.78D-01  9.48D-01  7.59D-01  1.28D-01  8.48D-01
                    CP:  6.77D-01  3.00D+00  3.00D+00  3.00D+00  3.00D+00
                    CP:  3.00D+00
 E= -1212.37768045540     Delta-E=       -0.000169401285 Rises=F Damp=F
 DIIS: error= 2.01D-04 at cycle  12 NSaved=  12.
 NSaved=12 IEnMin=12 EnMin= -1212.37768045540     IErMin= 9 ErrMin= 1.95D-04
 ErrMax= 2.01D-04  0.00D+00 EMaxC= 1.00D-01 BMatC= 2.59D-05 BMatP= 2.01D-05
 IDIUse=3 WtCom= 9.98D-01 WtEn= 1.95D-03
 Coeff-Com:  0.122D-02-0.197D-02 0.904D-02-0.407D-03 0.145D-01 0.165D-01
 Coeff-Com:  0.163D+00 0.819D-01-0.489D+00-0.317D+01 0.344D+01 0.932D+00
 Coeff-En:   0.000D+00 0.000D+00 0.000D+00 0.000D+00 0.000D+00 0.000D+00
 Coeff-En:   0.000D+00 0.000D+00 0.000D+00 0.000D+00 0.000D+00 0.100D+01
 Coeff:      0.122D-02-0.197D-02 0.903D-02-0.407D-03 0.145D-01 0.165D-01
 Coeff:      0.162D+00 0.817D-01-0.488D+00-0.316D+01 0.343D+01 0.932D+00
 Gap=     0.043 Goal=   None    Shift=    0.000
 RMSDP=1.80D-04 MaxDP=6.83D-03 DE=-1.69D-04 OVMax= 3.60D-02

 Cycle  13  Pass 1  IDiag  1:
 RMSU=  7.92D-05    CP:  9.77D-01  9.72D-01  7.40D-01  1.35D-01  8.54D-01
                    CP:  5.98D-01  3.00D+00  3.00D+00  3.00D+00  3.00D+00
                    CP:  3.00D+00  2.22D+00
 E= -1212.37774951524     Delta-E=       -0.000069059842 Rises=F Damp=F
 DIIS: error= 1.39D-04 at cycle  13 NSaved=  13.
 NSaved=13 IEnMin=13 EnMin= -1212.37774951524     IErMin=13 ErrMin= 1.39D-04
 ErrMax= 1.39D-04  0.00D+00 EMaxC= 1.00D-01 BMatC= 1.46D-05 BMatP= 2.01D-05
 IDIUse=3 WtCom= 9.99D-01 WtEn= 1.39D-03
 Coeff-Com:  0.456D-03-0.676D-03 0.337D-02-0.589D-03 0.580D-02 0.988D-02
 Coeff-Com:  0.168D+00 0.158D+00 0.104D+00-0.568D+00-0.181D-01 0.337D+00
 Coeff-Com:  0.801D+00
 Coeff-En:   0.000D+00 0.000D+00 0.000D+00 0.000D+00 0.000D+00 0.000D+00
 Coeff-En:   0.000D+00 0.000D+00 0.000D+00 0.000D+00 0.000D+00 0.000D+00
 Coeff-En:   0.100D+01
 Coeff:      0.456D-03-0.675D-03 0.336D-02-0.589D-03 0.579D-02 0.987D-02
 Coeff:      0.168D+00 0.158D+00 0.104D+00-0.567D+00-0.181D-01 0.336D+00
 Coeff:      0.801D+00
 Gap=     0.043 Goal=   None    Shift=    0.000
 RMSDP=4.33D-05 MaxDP=1.55D-03 DE=-6.91D-05 OVMax= 8.77D-03

 Cycle  14  Pass 1  IDiag  1:
 RMSU=  6.87D-06    CP:  9.77D-01  9.65D-01  7.45D-01  1.32D-01  8.49D-01
                    CP:  5.96D-01  3.00D+00  3.00D+00  3.00D+00  3.00D+00
                    CP:  3.00D+00  1.95D+00  7.68D-01
 E= -1212.37775265692     Delta-E=       -0.000003141677 Rises=F Damp=F
 DIIS: error= 8.64D-05 at cycle  14 NSaved=  14.
 NSaved=14 IEnMin=14 EnMin= -1212.37775265692     IErMin=14 ErrMin= 8.64D-05
 ErrMax= 8.64D-05  0.00D+00 EMaxC= 1.00D-01 BMatC= 2.67D-06 BMatP= 1.46D-05
 IDIUse=1 WtCom= 1.00D+00 WtEn= 0.00D+00
 Coeff-Com:  0.532D-04-0.204D-03 0.883D-03-0.333D-03 0.231D-02 0.537D-02
 Coeff-Com:  0.855D-01 0.805D-01 0.546D-01-0.278D+00-0.292D+00 0.488D-01
 Coeff-Com:  0.670D+00 0.623D+00
 Coeff:      0.532D-04-0.204D-03 0.883D-03-0.333D-03 0.231D-02 0.537D-02
 Coeff:      0.855D-01 0.805D-01 0.546D-01-0.278D+00-0.292D+00 0.488D-01
 Coeff:      0.670D+00 0.623D+00
 Gap=     0.045 Goal=   None    Shift=    0.000
 RMSDP=1.09D-04 MaxDP=4.11D-03 DE=-3.14D-06 OVMax= 2.16D-02

 Cycle  15  Pass 1  IDiag  1:
 RMSU=  4.80D-06    CP:  9.77D-01  9.80D-01  7.34D-01  1.36D-01  8.51D-01
                    CP:  5.47D-01  3.00D+00  3.00D+00  3.00D+00  3.00D+00
                    CP:  3.00D+00  2.68D+00  1.36D+00  8.15D-01
 E= -1212.37776529491     Delta-E=       -0.000012637990 Rises=F Damp=F
 DIIS: error= 2.32D-05 at cycle  15 NSaved=  15.
 NSaved=15 IEnMin=15 EnMin= -1212.37776529491     IErMin=15 ErrMin= 2.32D-05
 ErrMax= 2.32D-05  0.00D+00 EMaxC= 1.00D-01 BMatC= 4.31D-07 BMatP= 2.67D-06
 IDIUse=1 WtCom= 1.00D+00 WtEn= 0.00D+00
 Coeff-Com:  0.547D-03-0.769D-03 0.197D-04-0.102D-04-0.110D-02-0.143D-02
 Coeff-Com:  0.224D-02 0.555D-02 0.104D+00 0.293D+00-0.432D+00-0.203D+00
 Coeff-Com:  0.249D+00 0.439D+00 0.547D+00
 Coeff:      0.547D-03-0.769D-03 0.197D-04-0.102D-04-0.110D-02-0.143D-02
 Coeff:      0.224D-02 0.555D-02 0.104D+00 0.293D+00-0.432D+00-0.203D+00
 Coeff:      0.249D+00 0.439D+00 0.547D+00
 Gap=     0.044 Goal=   None    Shift=    0.000
 RMSDP=2.71D-05 MaxDP=1.03D-03 DE=-1.26D-05 OVMax= 5.46D-03

 Cycle  16  Pass 1  IDiag  1:
 RMSU=  1.68D-06    CP:  9.77D-01  9.76D-01  7.37D-01  1.35D-01  8.50D-01
                    CP:  5.57D-01  3.00D+00  3.00D+00  3.00D+00  3.00D+00
                    CP:  3.00D+00  2.50D+00  1.21D+00  9.38D-01  5.64D-01
 E= -1212.37776581793     Delta-E=       -0.000000523016 Rises=F Damp=F
 DIIS: error= 1.18D-05 at cycle  16 NSaved=  16.
 NSaved=16 IEnMin=16 EnMin= -1212.37776581793     IErMin=16 ErrMin= 1.18D-05
 ErrMax= 1.18D-05  0.00D+00 EMaxC= 1.00D-01 BMatC= 8.96D-08 BMatP= 4.31D-07
 IDIUse=1 WtCom= 1.00D+00 WtEn= 0.00D+00
 Coeff-Com:  0.162D-03-0.243D-03-0.928D-04 0.161D-04-0.522D-03-0.378D-03
 Coeff-Com: -0.851D-02-0.109D-01 0.324D-02-0.166D-01 0.107D-01-0.758D-01
 Coeff-Com:  0.485D-01 0.166D+00 0.328D+00 0.557D+00
 Coeff:      0.162D-03-0.243D-03-0.928D-04 0.161D-04-0.522D-03-0.378D-03
 Coeff:     -0.851D-02-0.109D-01 0.324D-02-0.166D-01 0.107D-01-0.758D-01
 Coeff:      0.485D-01 0.166D+00 0.328D+00 0.557D+00
 Gap=     0.045 Goal=   None    Shift=    0.000
 RMSDP=2.24D-05 MaxDP=8.42D-04 DE=-5.23D-07 OVMax= 4.50D-03

 Cycle  17  Pass 1  IDiag  1:
 RMSU=  8.40D-07    CP:  9.77D-01  9.79D-01  7.34D-01  1.36D-01  8.50D-01
                    CP:  5.48D-01  3.00D+00  3.00D+00  3.00D+00  3.00D+00
                    CP:  3.00D+00  2.65D+00  1.34D+00  8.69D-01  8.12D-01
                    CP:  6.20D-01
 E= -1212.37776583682     Delta-E=       -0.000000018892 Rises=F Damp=F
 DIIS: error= 8.11D-06 at cycle  17 NSaved=  17.
 NSaved=17 IEnMin=17 EnMin= -1212.37776583682     IErMin=17 ErrMin= 8.11D-06
 ErrMax= 8.11D-06  0.00D+00 EMaxC= 1.00D-01 BMatC= 4.00D-08 BMatP= 8.96D-08
 IDIUse=1 WtCom= 1.00D+00 WtEn= 0.00D+00
 Coeff-Com:  0.250D-04-0.180D-04 0.479D-04 0.130D-05-0.108D-03 0.124D-04
 Coeff-Com: -0.508D-02-0.689D-02-0.307D-02-0.166D-01 0.422D-01-0.260D-01
 Coeff-Com: -0.850D-02 0.495D-01 0.922D-01 0.409D+00 0.473D+00
 Coeff:      0.250D-04-0.180D-04 0.479D-04 0.130D-05-0.108D-03 0.124D-04
 Coeff:     -0.508D-02-0.689D-02-0.307D-02-0.166D-01 0.422D-01-0.260D-01
 Coeff:     -0.850D-02 0.495D-01 0.922D-01 0.409D+00 0.473D+00
 Gap=     0.045 Goal=   None    Shift=    0.000
 RMSDP=8.85D-06 MaxDP=3.36D-04 DE=-1.89D-08 OVMax= 1.78D-03

 Cycle  18  Pass 1  IDiag  1:
 RMSU=  2.45D-07    CP:  9.77D-01  9.78D-01  7.35D-01  1.36D-01  8.50D-01
                    CP:  5.52D-01  3.00D+00  3.00D+00  3.00D+00  3.00D+00
                    CP:  3.00D+00  2.59D+00  1.29D+00  8.84D-01  7.28D-01
                    CP:  7.52D-01  7.64D-01
 E= -1212.37776605072     Delta-E=       -0.000000213900 Rises=F Damp=F
 DIIS: error= 1.65D-06 at cycle  18 NSaved=  18.
 NSaved=18 IEnMin=18 EnMin= -1212.37776605072     IErMin=18 ErrMin= 1.65D-06
 ErrMax= 1.65D-06  0.00D+00 EMaxC= 1.00D-01 BMatC= 2.04D-09 BMatP= 4.00D-08
 IDIUse=1 WtCom= 1.00D+00 WtEn= 0.00D+00
 Coeff-Com:  0.205D-05 0.183D-05 0.534D-04-0.942D-06 0.284D-04 0.131D-03
 Coeff-Com: -0.125D-02-0.219D-02-0.169D-02-0.108D-01 0.273D-01-0.457D-02
 Coeff-Com: -0.117D-01 0.948D-02 0.455D-02 0.184D+00 0.231D+00 0.576D+00
 Coeff:      0.205D-05 0.183D-05 0.534D-04-0.942D-06 0.284D-04 0.131D-03
 Coeff:     -0.125D-02-0.219D-02-0.169D-02-0.108D-01 0.273D-01-0.457D-02
 Coeff:     -0.117D-01 0.948D-02 0.455D-02 0.184D+00 0.231D+00 0.576D+00
 Gap=     0.045 Goal=   None    Shift=    0.000
 RMSDP=3.37D-06 MaxDP=1.28D-04 DE=-2.14D-07 OVMax= 6.77D-04

 Cycle  19  Pass 1  IDiag  1:
 RMSU=  9.10D-08    CP:  9.77D-01  9.77D-01  7.36D-01  1.36D-01  8.50D-01
                    CP:  5.53D-01  3.00D+00  3.00D+00  3.00D+00  3.00D+00
                    CP:  3.00D+00  2.57D+00  1.27D+00  8.87D-01  6.98D-01
                    CP:  7.83D-01  7.58D-01  9.25D-01
 E= -1212.37776606212     Delta-E=       -0.000000011400 Rises=F Damp=F
 DIIS: error= 6.22D-07 at cycle  19 NSaved=  19.
 NSaved=19 IEnMin=19 EnMin= -1212.37776606212     IErMin=19 ErrMin= 6.22D-07
 ErrMax= 6.22D-07  0.00D+00 EMaxC= 1.00D-01 BMatC= 2.46D-10 BMatP= 2.04D-09
 IDIUse=1 WtCom= 1.00D+00 WtEn= 0.00D+00
 Coeff-Com: -0.359D-05 0.594D-05 0.208D-04 0.173D-06 0.233D-04 0.620D-04
 Coeff-Com: -0.206D-03-0.544D-03-0.109D-02-0.642D-02 0.123D-01 0.110D-02
 Coeff-Com: -0.564D-02-0.329D-02-0.833D-02 0.443D-01 0.628D-01 0.346D+00
 Coeff-Com:  0.559D+00
 Coeff:     -0.359D-05 0.594D-05 0.208D-04 0.173D-06 0.233D-04 0.620D-04
 Coeff:     -0.206D-03-0.544D-03-0.109D-02-0.642D-02 0.123D-01 0.110D-02
 Coeff:     -0.564D-02-0.329D-02-0.833D-02 0.443D-01 0.628D-01 0.346D+00
 Coeff:      0.559D+00
 Gap=     0.045 Goal=   None    Shift=    0.000
 RMSDP=4.28D-07 MaxDP=1.60D-05 DE=-1.14D-08 OVMax= 8.38D-05

 Cycle  20  Pass 1  IDiag  1:
 RMSU=  2.53D-08    CP:  9.77D-01  9.77D-01  7.36D-01  1.36D-01  8.50D-01
                    CP:  5.53D-01  3.00D+00  3.00D+00  3.00D+00  3.00D+00
                    CP:  3.00D+00  2.57D+00  1.27D+00  8.86D-01  7.02D-01
                    CP:  7.88D-01  7.64D-01  9.81D-01  8.26D-01
 E= -1212.37776606289     Delta-E=       -0.000000000769 Rises=F Damp=F
 DIIS: error= 1.95D-07 at cycle  20 NSaved=  20.
 NSaved=20 IEnMin=20 EnMin= -1212.37776606289     IErMin=20 ErrMin= 1.95D-07
 ErrMax= 1.95D-07  0.00D+00 EMaxC= 1.00D-01 BMatC= 2.34D-11 BMatP= 2.46D-10
 IDIUse=1 WtCom= 1.00D+00 WtEn= 0.00D+00
 Coeff-Com: -0.256D-05 0.303D-05 0.656D-09-0.675D-07 0.347D-05 0.258D-04
 Coeff-Com:  0.100D-03 0.158D-04-0.381D-03-0.327D-02 0.362D-02 0.988D-03
 Coeff-Com: -0.636D-03-0.215D-02-0.222D-02 0.241D-02 0.638D-02 0.102D+00
 Coeff-Com:  0.232D+00 0.661D+00
 Coeff:     -0.256D-05 0.303D-05 0.656D-09-0.675D-07 0.347D-05 0.258D-04
 Coeff:      0.100D-03 0.158D-04-0.381D-03-0.327D-02 0.362D-02 0.988D-03
 Coeff:     -0.636D-03-0.215D-02-0.222D-02 0.241D-02 0.638D-02 0.102D+00
 Coeff:      0.232D+00 0.661D+00
 Gap=     0.045 Goal=   None    Shift=    0.000
 RMSDP=3.20D-07 MaxDP=1.21D-05 DE=-7.69D-10 OVMax= 6.45D-05

 Cycle  21  Pass 1  IDiag  1:
 Restarting incremental Fock formation.
 E= -1212.37776606295     Delta-E=       -0.000000000066 Rises=F Damp=F
 DIIS: error= 7.40D-08 at cycle  21 NSaved=  20.
 NSaved=20 IEnMin=20 EnMin= -1212.37776606295     IErMin=20 ErrMin= 7.40D-08
 ErrMax= 7.40D-08  0.00D+00 EMaxC= 1.00D-01 BMatC= 2.63D-12 BMatP= 2.34D-11
 IDIUse=1 WtCom= 1.00D+00 WtEn= 0.00D+00
 Coeff-Com: -0.118D-05 0.150D-05-0.876D-06 0.427D-06 0.658D-05 0.633D-04
 Coeff-Com:  0.439D-04-0.103D-03-0.102D-02 0.846D-03 0.501D-03 0.135D-04
 Coeff-Com: -0.115D-02-0.147D-02-0.277D-02-0.394D-02 0.321D-01 0.782D-01
 Coeff-Com:  0.380D+00 0.518D+00
 Coeff:     -0.118D-05 0.150D-05-0.876D-06 0.427D-06 0.658D-05 0.633D-04
 Coeff:      0.439D-04-0.103D-03-0.102D-02 0.846D-03 0.501D-03 0.135D-04
 Coeff:     -0.115D-02-0.147D-02-0.277D-02-0.394D-02 0.321D-01 0.782D-01
 Coeff:      0.380D+00 0.518D+00
 Gap=     0.045 Goal=   None    Shift=    0.000
 RMSDP=4.00D-08 MaxDP=1.52D-06 DE=-6.62D-11 OVMax= 8.14D-06

 Cycle  22  Pass 1  IDiag  1:
 RMSU=  4.00D-08    CP:  1.00D+00
 E= -1212.37776606293     Delta-E=        0.000000000028 Rises=F Damp=F
 DIIS: error= 4.02D-08 at cycle  22 NSaved=  20.
 NSaved=20 IEnMin=19 EnMin= -1212.37776606295     IErMin=20 ErrMin= 4.02D-08
 ErrMax= 4.02D-08  0.00D+00 EMaxC= 1.00D-01 BMatC= 6.28D-13 BMatP= 2.63D-12
 IDIUse=1 WtCom= 1.00D+00 WtEn= 0.00D+00
 Coeff-Com: -0.928D-07-0.652D-07 0.199D-06 0.185D-06 0.219D-04 0.180D-04
 Coeff-Com:  0.738D-05-0.512D-04-0.485D-04 0.102D-03 0.129D-03-0.172D-03
 Coeff-Com: -0.582D-03-0.107D-02-0.334D-02 0.252D-02 0.710D-03 0.106D+00
 Coeff-Com:  0.242D+00 0.654D+00
 Coeff:     -0.928D-07-0.652D-07 0.199D-06 0.185D-06 0.219D-04 0.180D-04
 Coeff:      0.738D-05-0.512D-04-0.485D-04 0.102D-03 0.129D-03-0.172D-03
 Coeff:     -0.582D-03-0.107D-02-0.334D-02 0.252D-02 0.710D-03 0.106D+00
 Coeff:      0.242D+00 0.654D+00
 Gap=     0.045 Goal=   None    Shift=    0.000
 RMSDP=4.53D-08 MaxDP=1.72D-06 DE= 2.80D-11 OVMax= 9.07D-06

 Cycle  23  Pass 1  IDiag  1:
 RMSU=  5.20D-09    CP:  1.00D+00  2.13D+00
 E= -1212.37776606295     Delta-E=       -0.000000000019 Rises=F Damp=F
 DIIS: error= 5.29D-09 at cycle  23 NSaved=  20.
 NSaved=20 IEnMin=18 EnMin= -1212.37776606295     IErMin=20 ErrMin= 5.29D-09
 ErrMax= 5.29D-09  0.00D+00 EMaxC= 1.00D-01 BMatC= 2.09D-14 BMatP= 6.28D-13
 IDIUse=1 WtCom= 1.00D+00 WtEn= 0.00D+00
 Coeff-Com:  0.197D-07 0.103D-06-0.305D-06 0.430D-05 0.437D-05 0.103D-04
 Coeff-Com:  0.779D-04-0.112D-03-0.312D-05 0.509D-04 0.943D-05-0.138D-03
 Coeff-Com: -0.256D-03-0.120D-02-0.191D-02-0.874D-02 0.748D-02 0.332D-01
 Coeff-Com:  0.313D+00 0.659D+00
 Coeff:      0.197D-07 0.103D-06-0.305D-06 0.430D-05 0.437D-05 0.103D-04
 Coeff:      0.779D-04-0.112D-03-0.312D-05 0.509D-04 0.943D-05-0.138D-03
 Coeff:     -0.256D-03-0.120D-02-0.191D-02-0.874D-02 0.748D-02 0.332D-01
 Coeff:      0.313D+00 0.659D+00
 Gap=     0.045 Goal=   None    Shift=    0.000
 RMSDP=1.25D-09 MaxDP=4.73D-08 DE=-1.89D-11 OVMax= 1.97D-07

 Error on total polarization charges =  0.01555
 SCF Done:  E(RB3LYP) =  -1212.37776606     A.U. after   23 cycles
            NFock= 23  Conv=0.13D-08     -V/T= 2.0050
 KE= 1.206336004482D+03 PE=-5.787585708327D+03 EE= 1.886171748698D+03
 Leave Link  502 at Sun Jul 18 16:15:41 2021, MaxMem=   104857600 cpu:            1339.7 elap:             344.2
 (Enter /dades/curu/g16A03_MST/g16/l601.exe)
 Copying SCF densities to generalized density rwf, IOpCl= 0 IROHF=0.

 **********************************************************************

            Population analysis using the SCF density.

 **********************************************************************

 Orbital symmetries:
       Occupied  (A) (A) (A) (A) (A) (A) (A) (A) (A) (A) (A) (A)
                 (A) (A) (A) (A) (A) (A) (A) (A) (A) (A) (A) (A)
                 (A) (A) (A) (A) (A) (A) (A) (A) (A) (A) (A) (A)
                 (A) (A) (A) (A) (A) (A) (A) (A) (A) (A) (A) (A)
                 (A) (A) (A) (A) (A) (A) (A) (A) (A) (A) (A) (A)
                 (A) (A) (A) (A) (A) (A) (A) (A) (A) (A) (A) (A)
       Virtual   (A) (A) (A) (A) (A) (A) (A) (A) (A) (A) (A) (A)
                 (A) (A) (A) (A) (A) (A) (A) (A) (A) (A) (A) (A)
                 (A) (A) (A) (A) (A) (A) (A) (A) (A) (A) (A) (A)
                 (A) (A) (A) (A) (A) (A) (A) (A) (A) (A) (A) (A)
                 (A) (A) (A) (A) (A) (A) (A) (A) (A) (A) (A) (A)
                 (A) (A) (A) (A) (A) (A) (A) (A) (A) (A) (A) (A)
                 (A) (A) (A) (A) (A) (A) (A) (A) (A) (A) (A) (A)
                 (A) (A) (A) (A) (A) (A) (A) (A) (A) (A) (A) (A)
                 (A) (A) (A) (A) (A) (A) (A) (A) (A) (A) (A) (A)
                 (A) (A) (A) (A) (A) (A) (A) (A) (A) (A) (A) (A)
                 (A) (A) (A) (A) (A) (A) (A) (A) (A) (A) (A) (A)
                 (A) (A) (A) (A) (A) (A) (A) (A) (A) (A) (A) (A)
                 (A) (A) (A) (A) (A) (A) (A) (A) (A) (A) (A) (A)
                 (A) (A) (A) (A) (A) (A) (A) (A) (A) (A) (A) (A)
                 (A) (A) (A) (A) (A) (A) (A) (A) (A) (A) (A) (A)
                 (A) (A) (A) (A) (A) (A) (A) (A) (A) (A) (A) (A)
                 (A) (A) (A) (A) (A) (A) (A) (A) (A) (A) (A) (A)
                 (A) (A) (A) (A) (A) (A) (A) (A) (A) (A) (A) (A)
                 (A) (A) (A) (A) (A) (A) (A) (A) (A) (A) (A) (A)
                 (A) (A) (A) (A) (A) (A) (A) (A) (A) (A) (A) (A)
                 (A) (A) (A) (A) (A)
 The electronic state is 1-A.
 Alpha  occ. eigenvalues --  -88.96318 -19.11279 -14.46538 -14.38881 -14.36568
 Alpha  occ. eigenvalues --  -14.36352 -14.34083 -10.33884 -10.33230 -10.28151
 Alpha  occ. eigenvalues --  -10.26624 -10.25748 -10.23701 -10.21571 -10.21039
 Alpha  occ. eigenvalues --  -10.20831 -10.20713 -10.20463 -10.18825  -8.02480
 Alpha  occ. eigenvalues --   -5.98829  -5.98506  -5.98227  -1.17515  -1.05674
 Alpha  occ. eigenvalues --   -1.03653  -0.99016  -0.95338  -0.90688  -0.88218
 Alpha  occ. eigenvalues --   -0.84848  -0.81256  -0.78714  -0.75882  -0.74232
 Alpha  occ. eigenvalues --   -0.71660  -0.68872  -0.64954  -0.63568  -0.61441
 Alpha  occ. eigenvalues --   -0.60358  -0.58240  -0.57559  -0.55424  -0.54973
 Alpha  occ. eigenvalues --   -0.52376  -0.50845  -0.49221  -0.48697  -0.48465
 Alpha  occ. eigenvalues --   -0.47473  -0.46823  -0.46022  -0.45462  -0.44429
 Alpha  occ. eigenvalues --   -0.42781  -0.41482  -0.41140  -0.40853  -0.39193
 Alpha  occ. eigenvalues --   -0.38256  -0.37918  -0.36489  -0.36429  -0.33020
 Alpha  occ. eigenvalues --   -0.32453  -0.29471  -0.28266  -0.25976  -0.24968
 Alpha  occ. eigenvalues --   -0.24449  -0.20950
 Alpha virt. eigenvalues --   -0.16487  -0.06859  -0.03636  -0.03021  -0.02364
 Alpha virt. eigenvalues --    0.02843   0.04187   0.04455   0.07332   0.08034
 Alpha virt. eigenvalues --    0.08855   0.09560   0.10697   0.12929   0.13424
 Alpha virt. eigenvalues --    0.13928   0.14622   0.15208   0.15859   0.16212
 Alpha virt. eigenvalues --    0.17129   0.17621   0.17950   0.18473   0.19066
 Alpha virt. eigenvalues --    0.22278   0.24787   0.25320   0.26498   0.28837
 Alpha virt. eigenvalues --    0.29225   0.29967   0.31395   0.32137   0.32420
 Alpha virt. eigenvalues --    0.33777   0.34448   0.36063   0.37233   0.38235
 Alpha virt. eigenvalues --    0.39628   0.39936   0.42260   0.44648   0.47175
 Alpha virt. eigenvalues --    0.48996   0.49215   0.50893   0.51410   0.52204
 Alpha virt. eigenvalues --    0.53013   0.53455   0.54267   0.55027   0.55527
 Alpha virt. eigenvalues --    0.56967   0.57220   0.57556   0.58526   0.58977
 Alpha virt. eigenvalues --    0.60035   0.60815   0.62046   0.63059   0.63898
 Alpha virt. eigenvalues --    0.64383   0.64460   0.65948   0.67109   0.69251
 Alpha virt. eigenvalues --    0.70324   0.70883   0.71950   0.72225   0.73343
 Alpha virt. eigenvalues --    0.73948   0.74903   0.76023   0.76665   0.77128
 Alpha virt. eigenvalues --    0.77798   0.78716   0.79384   0.79996   0.81655
 Alpha virt. eigenvalues --    0.81997   0.83097   0.84070   0.85012   0.85755
 Alpha virt. eigenvalues --    0.86301   0.86820   0.87174   0.87417   0.88480
 Alpha virt. eigenvalues --    0.89079   0.90306   0.90897   0.92195   0.92236
 Alpha virt. eigenvalues --    0.92798   0.93443   0.94825   0.95100   0.96125
 Alpha virt. eigenvalues --    0.97190   0.97817   0.98959   1.00490   1.01294
 Alpha virt. eigenvalues --    1.02045   1.03807   1.06185   1.06331   1.07503
 Alpha virt. eigenvalues --    1.09081   1.10867   1.13079   1.14800   1.15485
 Alpha virt. eigenvalues --    1.18575   1.21746   1.23354   1.24843   1.27977
 Alpha virt. eigenvalues --    1.29638   1.30203   1.31513   1.33333   1.35043
 Alpha virt. eigenvalues --    1.37806   1.38743   1.39463   1.39723   1.43169
 Alpha virt. eigenvalues --    1.46567   1.48269   1.49435   1.52276   1.53419
 Alpha virt. eigenvalues --    1.54134   1.55196   1.58159   1.61716   1.63567
 Alpha virt. eigenvalues --    1.64667   1.67125   1.71077   1.73213   1.74733
 Alpha virt. eigenvalues --    1.75438   1.77182   1.78639   1.79395   1.80342
 Alpha virt. eigenvalues --    1.81296   1.81935   1.84377   1.85376   1.86440
 Alpha virt. eigenvalues --    1.88453   1.90671   1.92516   1.93932   1.95064
 Alpha virt. eigenvalues --    1.96428   1.98913   1.99896   2.01522   2.03437
 Alpha virt. eigenvalues --    2.04879   2.08724   2.09463   2.10261   2.11859
 Alpha virt. eigenvalues --    2.14743   2.15767   2.17500   2.18770   2.19496
 Alpha virt. eigenvalues --    2.20952   2.21869   2.22547   2.23047   2.26327
 Alpha virt. eigenvalues --    2.27300   2.28794   2.29375   2.30860   2.33768
 Alpha virt. eigenvalues --    2.35372   2.37816   2.40383   2.43918   2.44968
 Alpha virt. eigenvalues --    2.47490   2.49196   2.51647   2.52607   2.53808
 Alpha virt. eigenvalues --    2.55117   2.57106   2.59107   2.60690   2.62402
 Alpha virt. eigenvalues --    2.63969   2.66822   2.68006   2.69219   2.71628
 Alpha virt. eigenvalues --    2.74015   2.76694   2.77606   2.79986   2.80498
 Alpha virt. eigenvalues --    2.81587   2.86523   2.95687   2.97246   3.00585
 Alpha virt. eigenvalues --    3.05661   3.07574   3.13172   3.21619   3.27992
 Alpha virt. eigenvalues --    3.43700   3.80924   3.88566   3.90004   4.02069
 Alpha virt. eigenvalues --    4.03383   4.06384   4.09315   4.13380   4.14481
 Alpha virt. eigenvalues --    4.16996   4.19469   4.24008   4.27933   4.29627
 Alpha virt. eigenvalues --    4.36676   4.43721   4.51452   4.54857   4.72363
          Condensed to atoms (all electrons):
               1          2          3          4          5          6
     1  C    5.395598   0.346881   0.354880   0.354484   0.344540  -0.086329
     2  H    0.346881   0.511315  -0.017446  -0.011916  -0.024366   0.005498
     3  H    0.354880  -0.017446   0.526231  -0.026771  -0.029922   0.001585
     4  H    0.354484  -0.011916  -0.026771   0.515505  -0.022829   0.000553
     5  C    0.344540  -0.024366  -0.029922  -0.022829   4.284671   0.659179
     6  O   -0.086329   0.005498   0.001585   0.000553   0.659179   8.072369
     7  N   -0.171148   0.008517   0.004830   0.000066   0.251460  -0.130184
     8  H    0.000582  -0.000052  -0.000354   0.001625  -0.022392   0.004179
     9  C    0.008288  -0.000207   0.000229  -0.000540  -0.016264   0.006237
    10  C    0.000465  -0.000001  -0.000030  -0.000017  -0.003302   0.006139
    11  C   -0.000002  -0.000000  -0.000001   0.000000   0.000254   0.000015
    12  C    0.000001  -0.000000  -0.000000   0.000000  -0.000026  -0.000013
    13  H    0.000000  -0.000000  -0.000000   0.000000  -0.000000  -0.000000
    14  H   -0.000000   0.000000   0.000000  -0.000000  -0.000008  -0.000002
    15  H   -0.000117   0.000008  -0.000027   0.000004   0.003526   0.002361
    16  C   -0.000447   0.000006  -0.000021   0.000120  -0.001758  -0.002210
    17  H   -0.000162   0.000003  -0.000005   0.000040   0.000107  -0.000093
    18  C   -0.000001  -0.000000   0.000001  -0.000002   0.000023  -0.000037
    19  C   -0.000000   0.000000   0.000000  -0.000000   0.000002   0.000001
    20  N    0.000000  -0.000000  -0.000000   0.000000   0.000000   0.000000
[...]
 Alpha virt. eigenvalues --    4.10527   4.15977   4.21341   4.94272
          Condensed to atoms (all electrons):
               1          2          3          4          5          6
     1  C    4.685502   0.396745   0.237939   0.332243  -0.004263  -0.053708
     2  H    0.396745   0.747458  -0.106207  -0.046528  -0.108522   0.024668
     3  H    0.237939  -0.106207   1.097679  -0.059872   0.208531  -0.003865
     4  H    0.332243  -0.046528  -0.059872   0.688746  -0.008089   0.003558
     5  C   -0.004263  -0.108522   0.208531  -0.008089   5.669577   0.133772
     6  O   -0.053708   0.024668  -0.003865   0.003558   0.133772   8.790438
     7  N   -0.064080   0.075613  -0.185304   0.042896   0.078190  -0.143899
     8  H   -0.076531  -0.009150   0.005348   0.002577  -0.090464  -0.010380
     9  C    0.246316   0.003540  -0.023311  -0.042433  -0.336402   0.205621
    10  C   -0.028849  -0.006572   0.025674   0.002427   0.228779   0.028554
    11  C   -0.003792   0.002801  -0.003747   0.003364  -0.016313  -0.072689
    12  C   -0.019104  -0.001096  -0.003216  -0.000731   0.051098   0.003712
    13  H   -0.000594  -0.000007  -0.000060  -0.000043  -0.009383   0.000580
    14  H    0.001736   0.000192   0.000062   0.000188   0.020528  -0.000866
    15  H   -0.021422  -0.002477   0.001857  -0.001875   0.123431  -0.085783
    16  C   -0.173499   0.003380  -0.043997   0.012836  -0.426562   0.017052
    17  H    0.041102   0.002042  -0.002251  -0.000036  -0.065177   0.011100
    18  C    0.038752  -0.000517   0.019168  -0.003964  -0.015034   0.014584
    19  C    0.000391   0.000525  -0.002644   0.000482   0.022471  -0.008425
    20  N   -0.000121   0.000007   0.000053   0.000004   0.003901  -0.000129
    21  C    0.001072  -0.000121   0.001018   0.000154   0.002883   0.000867
    22  H   -0.000417  -0.000012   0.000772  -0.000016   0.007165  -0.000447
    23  S    0.000025  -0.000008   0.000019  -0.000004  -0.000373   0.000034
    24  C   -0.000020   0.000029  -0.000192   0.000034   0.005034  -0.000227
    25  N   -0.000004  -0.000001  -0.000000  -0.000001  -0.000079   0.000002
    26  C    0.000004  -0.000000  -0.000001  -0.000000  -0.000054   0.000003
    27  N   -0.000000  -0.000000   0.000000  -0.000000  -0.000000   0.000000
    28  H    0.000000  -0.000000  -0.000000   0.000000   0.000000   0.000000
    29  H    0.000000  -0.000000   0.000000  -0.000000  -0.000001   0.000000
    30  N   -0.000000  -0.000000   0.000001  -0.000000  -0.000040   0.000001
    31  H   -0.000001  -0.000000   0.000000  -0.000000  -0.000021   0.000001
    32  H    0.000005  -0.000001  -0.000004   0.000005   0.000769  -0.000046
    33  H    0.000000   0.000000  -0.000001   0.000000   0.000027  -0.000000
               7          8          9         10         11         12
     1  C   -0.064080  -0.076531   0.246316  -0.028849  -0.003792  -0.019104
     2  H    0.075613  -0.009150   0.003540  -0.006572   0.002801  -0.001096
     3  H   -0.185304   0.005348  -0.023311   0.025674  -0.003747  -0.003216
     4  H    0.042896   0.002577  -0.042433   0.002427   0.003364  -0.000731
     5  C    0.078190  -0.090464  -0.336402   0.228779  -0.016313   0.051098
     6  O   -0.143899  -0.010380   0.205621   0.028554  -0.072689   0.003712
     7  N    8.125632   0.304601  -1.197657   0.904830  -0.288320   0.266103
     8  H    0.304601   0.969645  -0.206201  -0.155612  -0.004416   0.017043
     9  C   -1.197657  -0.206201  19.184485  -6.741152   4.218975  -3.930620
    10  C    0.904830  -0.155612  -6.741152  16.812372  -7.038119   3.399540
    11  C   -0.288320  -0.004416   4.218975  -7.038119  19.538761  -6.825704
    12  C    0.266103   0.017043  -3.930620   3.399540  -6.825704  22.194446
    13  H    0.000109  -0.004065  -0.025184  -0.236951   0.728792  -1.451299
    14  H   -0.004781  -0.000449  -0.361315   1.184719  -1.774556   0.959731
    15  H   -0.180313   0.010626   0.931299  -1.778293   0.808205  -0.243683
    16  C    0.637647   0.330828  -6.953855   2.860559  -4.586406  -1.748341
    17  H   -0.222715  -0.028544   0.709702  -0.239641   0.054644  -0.074219
    18  C   -0.592736  -0.058338   1.388189  -4.516365   1.810116  -6.262957
    19  C    0.057758   0.030628  -2.275916   0.626749  -0.701302   0.940696
    20  N   -0.004040   0.000088   0.208555  -0.069610  -0.018110  -0.145823
    21  C   -0.032208  -0.007280   1.257424  -0.315689   0.139067  -1.706308
    22  H   -0.001097  -0.003231  -0.056523  -0.022760   0.017148   0.126002
    23  S    0.001185   0.001281  -0.019386   0.021033  -0.028903   0.060115
    24  C   -0.002862   0.009083   0.229976  -0.119831   0.183551  -0.373963
    25  N    0.000339  -0.000010  -0.016637   0.009371  -0.027615   0.031119
    26  C   -0.000206   0.000161  -0.002975  -0.001728   0.043976  -0.025639
    27  N    0.000001  -0.000004  -0.000253   0.000372  -0.001513   0.000148
    28  H    0.000001   0.000004  -0.000007   0.000023   0.000409  -0.000148
    29  H   -0.000002  -0.000006  -0.000059   0.000044  -0.000063   0.000589
    30  N   -0.000089  -0.000099   0.001721  -0.001314  -0.029341  -0.005308
    31  H   -0.000026  -0.000013  -0.000052  -0.000208   0.005263   0.006101
    32  H    0.000766   0.000391  -0.005130   0.016675  -0.025032  -0.011857
    33  H    0.000028   0.000073   0.000868  -0.000116  -0.000175  -0.004128
              13         14         15         16         17         18
     1  C   -0.000594   0.001736  -0.021422  -0.173499   0.041102   0.038752
     2  H   -0.000007   0.000192  -0.002477   0.003380   0.002042  -0.000517
     3  H   -0.000060   0.000062   0.001857  -0.043997  -0.002251   0.019168
     4  H   -0.000043   0.000188  -0.001875   0.012836  -0.000036  -0.003964
     5  C   -0.009383   0.020528   0.123431  -0.426562  -0.065177  -0.015034
     6  O    0.000580  -0.000866  -0.085783   0.017052   0.011100   0.014584
     7  N    0.000109  -0.004781  -0.180313   0.637647  -0.222715  -0.592736
     8  H   -0.004065  -0.000449   0.010626   0.330828  -0.028544  -0.058338
     9  C   -0.025184  -0.361315   0.931299  -6.953855   0.709702   1.388189
    10  C   -0.236951   1.184719  -1.778293   2.860559  -0.239641  -4.516365
    11  C    0.728792  -1.774556   0.808205  -4.586406   0.054644   1.810116
    12  C   -1.451299   0.959731  -0.243683  -1.748341  -0.074219  -6.262957
    13  H    2.217958  -0.138254  -0.005864  -0.189584  -0.003586   0.750678
    14  H   -0.138254   1.892633  -0.104036   0.106835   0.011442  -0.260655
    15  H   -0.005864  -0.104036   2.370955  -0.122485  -0.036436  -0.034048
    16  C   -0.189584   0.106835  -0.122485  29.391075  -2.342307  -9.573231
    17  H   -0.003586   0.011442  -0.036436  -2.342307   2.563420   1.428794
    18  C    0.750678  -0.260655  -0.034048  -9.573231   1.428794  25.638418
    19  C    0.107101  -0.009112   0.014185  -0.330233  -0.200789  -9.187760
    20  N   -0.088561   0.005173   0.001103  -0.035279   0.012338   0.668794
    21  C    0.014395   0.004085   0.000060  -1.826463   0.285408   3.007426
    22  H    0.006324  -0.000689   0.002030   0.060806  -0.071489  -0.252980
    23  S    0.002190  -0.001140   0.000432  -0.006659  -0.010677  -0.322704
    24  C   -0.060129   0.006506  -0.002661  -0.233132  -0.054671   0.852322
    25  N    0.007586  -0.001381   0.000275   0.065463   0.003036  -0.272561
    26  C    0.002232   0.001530  -0.000187  -0.051084  -0.001514   0.023554
    27  N    0.002421  -0.000155   0.000010   0.001971   0.000167  -0.004861
    28  H   -0.000103   0.000018  -0.000003  -0.000474  -0.000041  -0.000176
    29  H   -0.000175  -0.000002   0.000001   0.000282   0.000093   0.000065
    30  N    0.001969  -0.000344   0.000077   0.019005   0.000496   0.034068
    31  H   -0.000576  -0.000109   0.000022   0.000511   0.000095  -0.009146
    32  H   -0.021697   0.004002  -0.000072   0.011169  -0.001750   0.037429
    33  H   -0.001081   0.000018   0.000000  -0.004091  -0.001347   0.013400
              19         20         21         22         23         24
     1  C    0.000391  -0.000121   0.001072  -0.000417   0.000025  -0.000020
     2  H    0.000525   0.000007  -0.000121  -0.000012  -0.000008   0.000029
     3  H   -0.002644   0.000053   0.001018   0.000772   0.000019  -0.000192
     4  H    0.000482   0.000004   0.000154  -0.000016  -0.000004   0.000034
     5  C    0.022471   0.003901   0.002883   0.007165  -0.000373   0.005034
     6  O   -0.008425  -0.000129   0.000867  -0.000447   0.000034  -0.000227
     7  N    0.057758  -0.004040  -0.032208  -0.001097   0.001185  -0.002862
     8  H    0.030628   0.000088  -0.007280  -0.003231   0.001281   0.009083
     9  C   -2.275916   0.208555   1.257424  -0.056523  -0.019386   0.229976
    10  C    0.626749  -0.069610  -0.315689  -0.022760   0.021033  -0.119831
    11  C   -0.701302  -0.018110   0.139067   0.017148  -0.028903   0.183551
    12  C    0.940696  -0.145823  -1.706308   0.126002   0.060115  -0.373963
    13  H    0.107101  -0.088561   0.014395   0.006324   0.002190  -0.060129
    14  H   -0.009112   0.005173   0.004085  -0.000689  -0.001140   0.006506
    15  H    0.014185   0.001103   0.000060   0.002030   0.000432  -0.002661
    16  C   -0.330233  -0.035279  -1.826463   0.060806  -0.006659  -0.233132
    17  H   -0.200789   0.012338   0.285408  -0.071489  -0.010677  -0.054671
    18  C   -9.187760   0.668794   3.007426  -0.252980  -0.322704   0.852322
    19  C   29.284639  -1.682641  -9.630319   1.041424   0.254651  -2.244403
    20  N   -1.682641   8.088365   0.760572   0.002159  -0.225452   0.365897
    21  C   -9.630319   0.760572  14.955514  -0.611776   0.092919  -0.652464
    22  H    1.041424   0.002159  -0.611776   1.659634  -0.245829  -0.037576
    23  S    0.254651  -0.225452   0.092919  -0.245829  15.896114   0.197484
    24  C   -2.244403   0.365897  -0.652464  -0.037576   0.197484   8.168553
    25  N    0.747757  -0.168763  -0.079370  -0.013502  -0.118291  -0.339506
    26  C    0.051631   0.058260  -0.193291  -0.008689  -0.055326  -0.337690
    27  N    0.030648   0.004562  -0.001777  -0.000198   0.005533   0.020775
    28  H    0.002702   0.003001  -0.003958  -0.000159  -0.000178  -0.015380
    29  H   -0.000773   0.000243   0.001081   0.000031  -0.002273  -0.026270
    30  N   -0.102502  -0.024917   0.086817   0.002960  -0.013688  -0.002382
    31  H    0.011423   0.000220   0.000835   0.000054  -0.000791   0.000027
    32  H   -0.040578  -0.016791  -0.053814  -0.003741   0.001398   0.008065
    33  H   -0.094599  -0.009904   0.002267   0.001548   0.019948  -0.095158
              25         26         27         28         29         30
     1  C   -0.000004   0.000004  -0.000000   0.000000   0.000000  -0.000000
     2  H   -0.000001  -0.000000  -0.000000  -0.000000  -0.000000  -0.000000
     3  H   -0.000000  -0.000001   0.000000  -0.000000   0.000000   0.000001
     4  H   -0.000001  -0.000000  -0.000000   0.000000  -0.000000  -0.000000
     5  C   -0.000079  -0.000054  -0.000000   0.000000  -0.000001  -0.000040
     6  O    0.000002   0.000003   0.000000   0.000000   0.000000   0.000001
     7  N    0.000339  -0.000206   0.000001   0.000001  -0.000002  -0.000089
     8  H   -0.000010   0.000161  -0.000004   0.000004  -0.000006  -0.000099
     9  C   -0.016637  -0.002975  -0.000253  -0.000007  -0.000059   0.001721
    10  C    0.009371  -0.001728   0.000372   0.000023   0.000044  -0.001314
    11  C   -0.027615   0.043976  -0.001513   0.000409  -0.000063  -0.029341
    12  C    0.031119  -0.025639   0.000148  -0.000148   0.000589  -0.005308
    13  H    0.007586   0.002232   0.002421  -0.000103  -0.000175   0.001969
    14  H   -0.001381   0.001530  -0.000155   0.000018  -0.000002  -0.000344
    15  H    0.000275  -0.000187   0.000010  -0.000003   0.000001   0.000077
    16  C    0.065463  -0.051084   0.001971  -0.000474   0.000282   0.019005
    17  H    0.003036  -0.001514   0.000167  -0.000041   0.000093   0.000496
    18  C   -0.272561   0.023554  -0.004861  -0.000176   0.000065   0.034068
    19  C    0.747757   0.051631   0.030648   0.002702  -0.000773  -0.102502
    20  N   -0.168763   0.058260   0.004562   0.003001   0.000243  -0.024917
    21  C   -0.079370  -0.193291  -0.001777  -0.003958   0.001081   0.086817
    22  H   -0.013502  -0.008689  -0.000198  -0.000159   0.000031   0.002960
    23  S   -0.118291  -0.055326   0.005533  -0.000178  -0.002273  -0.013688
    24  C   -0.339506  -0.337690   0.020775  -0.015380  -0.026270  -0.002382
    25  N    7.449152   0.178766  -0.103804  -0.023067   0.018720  -0.026021
    26  C    0.178766   5.176467   0.119649  -0.068540  -0.083703   0.172055
    27  N   -0.103804   0.119649   6.386777   0.459233   0.453216  -0.113432
    28  H   -0.023067  -0.068540   0.459233   0.787178  -0.145819  -0.017201
    29  H    0.018720  -0.083703   0.453216  -0.145819   0.782049   0.005222
    30  N   -0.026021   0.172055  -0.113432  -0.017201   0.005222   6.292124
    31  H    0.014790  -0.126845  -0.003235  -0.009256   0.002666   0.440830
    32  H   -0.039415  -0.112294   0.013386   0.002225   0.000310   0.409002
    33  H    0.429657  -0.096739  -0.008038   0.002788  -0.004348   0.010859
              31         32         33
     1  C   -0.000001   0.000005   0.000000
     2  H   -0.000000  -0.000001   0.000000
     3  H    0.000000  -0.000004  -0.000001
     4  H   -0.000000   0.000005   0.000000
     5  C   -0.000021   0.000769   0.000027
     6  O    0.000001  -0.000046  -0.000000
     7  N   -0.000026   0.000766   0.000028
     8  H   -0.000013   0.000391   0.000073
     9  C   -0.000052  -0.005130   0.000868
    10  C   -0.000208   0.016675  -0.000116
    11  C    0.005263  -0.025032  -0.000175
    12  C    0.006101  -0.011857  -0.004128
    13  H   -0.000576  -0.021697  -0.001081
    14  H   -0.000109   0.004002   0.000018
    15  H    0.000022  -0.000072   0.000000
    16  C    0.000511   0.011169  -0.004091
    17  H    0.000095  -0.001750  -0.001347
    18  C   -0.009146   0.037429   0.013400
    19  C    0.011423  -0.040578  -0.094599
    20  N    0.000220  -0.016791  -0.009904
    21  C    0.000835  -0.053814   0.002267
    22  H    0.000054  -0.003741   0.001548
    23  S   -0.000791   0.001398   0.019948
    24  C    0.000027   0.008065  -0.095158
    25  N    0.014790  -0.039415   0.429657
    26  C   -0.126845  -0.112294  -0.096739
    27  N   -0.003235   0.013386  -0.008038
    28  H   -0.009256   0.002225   0.002788
    29  H    0.002666   0.000310  -0.004348
    30  N    0.440830   0.409002   0.010859
    31  H    0.859035  -0.198358  -0.000891
    32  H   -0.198358   0.905338   0.002751
    33  H   -0.000891   0.002751   0.849837
 Mulliken charges:
               1
     1  C    0.464575
     2  H    0.024217
     3  H   -0.163449
     4  H    0.074079
     5  C    0.524620
     6  O   -0.854082
     7  N   -0.575362
     8  H   -0.027584
     9  C   -0.391602
    10  C    1.151091
    11  C   -0.108959
    12  C    0.777701
    13  H   -0.605139
    14  H   -0.541553
    15  H   -0.644930
    16  C    1.128262
    17  H   -0.766691
    18  C    1.642275
    19  C   -0.713864
    20  N   -0.693152
    21  C    0.500974
    22  H   -0.596927
    23  S    0.497323
    24  C    0.551180
    25  N   -0.726006
    26  C    1.338220
    27  N   -0.261597
    28  H    0.026930
    29  H   -0.001120
    30  N   -0.140525
    31  H    0.007653
    32  H    0.116895
    33  H   -0.013454
 Sum of Mulliken charges =   1.00000
 Mulliken charges with hydrogens summed into heavy atoms:
               1
     1  C    0.399422
     5  C    0.524620
     6  O   -0.854082
     7  N   -0.602946
     9  C   -0.391602
    10  C    0.506161
    11  C   -0.650512
    12  C    0.172562
    16  C    0.361571
    18  C    1.642275
    19  C   -0.713864
    20  N   -0.693152
    21  C   -0.095953
    23  S    0.497323
    24  C    0.551180
    25  N   -0.739460
    26  C    1.338220
    27  N   -0.235787
    30  N   -0.015977
 Electronic spatial extent (au):  <R**2>=           8733.4938
 Charge=              1.0000 electrons
 Dipole moment (field-independent basis, Debye):
    X=             19.9766    Y=             -0.8895    Z=              0.5976  Tot=             20.0053
 Quadrupole moment (field-independent basis, Debye-Ang):
   XX=             15.9666   YY=            -87.8842   ZZ=           -124.2954
   XY=             40.7250   XZ=              1.2743   YZ=              0.8235
 Traceless Quadrupole moment (field-independent basis, Debye-Ang):
   XX=             81.3710   YY=            -22.4799   ZZ=            -58.8911
   XY=             40.7250   XZ=              1.2743   YZ=              0.8235
 Octapole moment (field-independent basis, Debye-Ang**2):
  XXX=            736.9800  YYY=             35.6367  ZZZ=              2.0204  XYY=             83.3483
  XXY=             -6.7173  XXZ=             24.3275  XZZ=             -1.8529  YZZ=             -0.5847
  YYZ=              1.9338  XYZ=             10.1254
 Hexadecapole moment (field-independent basis, Debye-Ang**3):
 XXXX=          -4803.8680 YYYY=          -1273.1280 ZZZZ=           -152.5040 XXXY=           1414.7653
 XXXZ=             39.9227 YYYX=            246.1964 YYYZ=              7.5341 ZZZX=              1.2130
 ZZZY=              3.2169 XXYY=          -1446.1449 XXZZ=          -1702.1561 YYZZ=           -306.2540
 XXYZ=             36.4409 YYXZ=             20.0979 ZZXY=             17.1613
 N-N= 1.443104226699D+03 E-N=-5.706731999192D+03  KE= 1.206024103455D+03
 Leave Link  601 at Sun Jul 18 23:10:58 2021, MaxMem=   262144000 cpu:               0.5 elap:               0.6
 (Enter /dades/curu/g16A03_MST/g16/l9999.exe)
 1\1\GINC-PIRINEUS27\SP\RMP2-FC\Aug-CC-pVDZ\C12H14N5O1S1(1+)\UBATOR02\1
 8-Jul-2021\0\\#p mp2/aug-cc-pVDZ scf=tight maxdisk=180GB geom=allcheck
 \\SET_328_BBB321_conf1.geo_180_210_255 geometry\\1,1\C,0,0.8582049553,
 -6.0064696091,1.2744007786\H,0,1.7447705983,-6.545678828,1.6116827921\
 H,0,0.7805482968,-6.0851294726,0.1882463718\H,0,-0.015176403,-6.492587
 0846,1.7215668336\C,0,0.9389843393,-4.5778449066,1.7779774301\O,0,1.30
 36580502,-4.3157349575,2.9189937693\N,0,0.5521299358,-3.6286208872,0.8
 613385303\H,0,0.2708019383,-3.9737202792,-0.0495408661\C,0,0.467516574
 4,-2.2329970432,1.0238371469\C,0,0.8091340888,-1.5803218544,2.22002425
 05\C,0,0.6956930495,-0.1936630668,2.2913092816\C,0,0.2514635065,0.5566
 38196,1.2053588617\H,0,0.1595615797,1.6326885083,1.2741444925\H,0,0.95
 89585907,0.308485938,3.2164579248\H,0,1.1527646365,-2.1679492066,3.057
 2360706\C,0,0.0240413507,-1.4815856913,-0.0711251445\H,0,-0.2281245822
 ,-1.9878439093,-0.9973827776\C,0,-0.0908576987,-0.0883610533,0.0081081
 774\C,0,-0.5728532837,0.6908425099,-1.1451534747\N,0,-0.5448721298,2.0
 783733543,-1.0882835378\C,0,-1.0784787651,0.1856693663,-2.3109824078\H
 ,0,-1.2212923638,-0.8452368841,-2.5932401385\S,0,-1.5402062474,1.45929
 05394,-3.3978321324\C,0,-1.0146540905,2.6088004039,-2.1778722261\N,0,-
 1.1136961206,3.9713625212,-2.418294763\C,0,-0.7146479955,4.9768699443,
 -1.5813674799\N,0,-0.9070925103,6.227287082,-1.9888513096\H,0,-0.61690
 98585,7.0047886243,-1.4075593312\H,0,-1.3168175762,6.4274542018,-2.894
 1918394\N,0,-0.1601792605,4.7043936747,-0.4121481573\H,0,0.1421012027,
 5.4584045849,0.1945288235\H,0,-0.0353194062,3.7320868867,-0.1359718218
 \H,0,-1.5361544016,4.2743083979,-3.2914141277\\Version=ES64L-G16RevA.0
 3\State=1-A\HF=-1207.1555485\MP2=-1209.9716491\RMSD=7.025e-09\PG=C01 [
 X(C12H14N5O1S1)]\\@


 THE DIFFICULTY IN SCIENCE IS OFTEN NOT SO MUCH HOW
 TO MAKE A DISCOVERY BUT RATHER TO KNOW ONE HAS MADE IT.

                                                   -- J. D. BERNAL
 Job cpu time:       0 days  3 hours 14 minutes 28.8 seconds.
 Elapsed time:       0 days  1 hours 12 minutes 29.6 seconds.
 File lengths (MBytes):  RWF=  86283 Int=      0 D2E=      0 Chk=     27 Scr=      1
 Normal termination of Gaussian 16 at Sun Jul 18 23:11:00 2021.
