 Entering Gaussian System, Link 0=g16
 Input=SET_328_BBB321_conf1.geo_180_150_045_OCTANOL.dat
 Output=SET_328_BBB321_conf1.geo_180_150_045_OCTANOL.log
 Initial command:
 /dades/curu/g16A03_MST/g16/l1.exe "/tmp/ubator02/1839689/Gau-14077.inp" -scrdir="/tmp/ubator02/1839689/"
 Entering Link 1 = /dades/curu/g16A03_MST/g16/l1.exe PID=     14078.
  
 Copyright (c) 1988,1990,1992,1993,1995,1998,2003,2009,2016,
            Gaussian, Inc.  All Rights Reserved.
  
 This is part of the Gaussian(R) 16 program.  It is based on
 the Gaussian(R) 09 system (copyright 2009, Gaussian, Inc.),
 the Gaussian(R) 03 system (copyright 2003, Gaussian, Inc.),
 the Gaussian(R) 98 system (copyright 1998, Gaussian, Inc.),
 the Gaussian(R) 94 system (copyright 1995, Gaussian, Inc.),
 the Gaussian 92(TM) system (copyright 1992, Gaussian, Inc.),
 the Gaussian 90(TM) system (copyright 1990, Gaussian, Inc.),
 the Gaussian 88(TM) system (copyright 1988, Gaussian, Inc.),
 the Gaussian 86(TM) system (copyright 1986, Carnegie Mellon
 University), and the Gaussian 82(TM) system (copyright 1983,
 Carnegie Mellon University). Gaussian is a federally registered
 trademark of Gaussian, Inc.
  
 This software contains proprietary and confidential information,
 including trade secrets, belonging to Gaussian, Inc.
  
 This software is provided under written license and may be
 used, copied, transmitted, or stored only in accord with that
 written license.
  
 The following legend is applicable only to US Government
 contracts under FAR:
  
                    RESTRICTED RIGHTS LEGEND
  
 Use, reproduction and disclosure by the US Government is
 subject to restrictions as set forth in subparagraphs (a)
 and (c) of the Commercial Computer Software - Restricted
 Rights clause in FAR 52.227-19.
  
 Gaussian, Inc.
 340 Quinnipiac St., Bldg. 40, Wallingford CT 06492
  
  
 ---------------------------------------------------------------
 Warning -- This program may not be used in any manner that
 competes with the business of Gaussian, Inc. or will provide
 assistance to any competitor of Gaussian, Inc.  The licensee
 of this program is prohibited from giving any competitor of
 Gaussian, Inc. access to this program.  By using this program,
 the user acknowledges that Gaussian, Inc. is engaged in the
 business of creating and licensing software in the field of
 computational chemistry and represents and warrants to the
 licensee that it is not a competitor of Gaussian, Inc. and that
 it will not use this program in any manner prohibited above.
 ---------------------------------------------------------------
  

 Cite this work as:
 Gaussian 16, Revision A.03,
 M. J. Frisch, G. W. Trucks, H. B. Schlegel, G. E. Scuseria, 
 M. A. Robb, J. R. Cheeseman, G. Scalmani, V. Barone, 
 G. A. Petersson, H. Nakatsuji, X. Li, M. Caricato, A. V. Marenich, 
 J. Bloino, B. G. Janesko, R. Gomperts, B. Mennucci, H. P. Hratchian, 
 J. V. Ortiz, A. F. Izmaylov, J. L. Sonnenberg, D. Williams-Young, 
 F. Ding, F. Lipparini, F. Egidi, J. Goings, B. Peng, A. Petrone, 
 T. Henderson, D. Ranasinghe, V. G. Zakrzewski, J. Gao, N. Rega, 
 G. Zheng, W. Liang, M. Hada, M. Ehara, K. Toyota, R. Fukuda, 
 J. Hasegawa, M. Ishida, T. Nakajima, Y. Honda, O. Kitao, H. Nakai, 
 T. Vreven, K. Throssell, J. A. Montgomery, Jr., J. E. Peralta, 
 F. Ogliaro, M. J. Bearpark, J. J. Heyd, E. N. Brothers, K. N. Kudin, 
 V. N. Staroverov, T. A. Keith, R. Kobayashi, J. Normand, 
 K. Raghavachari, A. P. Rendell, J. C. Burant, S. S. Iyengar, 
 J. Tomasi, M. Cossi, J. M. Millam, M. Klene, C. Adamo, R. Cammi, 
 J. W. Ochterski, R. L. Martin, K. Morokuma, O. Farkas, 
 J. B. Foresman, and D. J. Fox, Gaussian, Inc., Wallingford CT, 2016.
 
 ******************************************
 Gaussian 16:  ES64L-G16RevA.03 25-Dec-2016
                18-Jul-2021 
 ******************************************
 %mem=800MB
 %nproc=4
 Will use up to    4 processors via shared memory.
 %chk=SET_328_BBB321_conf1.geo_180_150_045.chk
 ---------------------------------------------------------------
 #p b3lyp/6-31G(d) opt freq scrf=(iefpcm,read,solvent=n-octanol)
 ---------------------------------------------------------------
 1/18=20,19=15,26=3,38=1,40=2/1,3;
 2/9=110,12=2,17=6,18=5,40=1/2;
 3/5=1,6=6,7=1,11=2,25=1,30=1,70=2203,71=1,72=25,74=-5/1,2,3;
 4//1;
 5/5=2,38=5,53=25/2;
 6/7=2,8=2,9=2,10=2,28=1/1;
 7//1,2,3,16;
 1/18=20,19=15,26=3/3(2);
 2/9=110/2;
 99//99;
 2/9=110/2;
 3/5=1,6=6,7=1,11=2,25=1,30=1,70=2205,71=1,72=25,74=-5/1,2,3;
 4/5=5,16=3,69=1/1;
 5/5=2,38=5,53=25/2;
 7//1,2,3,16;
 1/18=20,19=15,26=3/3(-5);
 2/9=110/2;
 6/7=2,8=2,9=2,10=2,19=2,28=1/1;
 99/9=1/99;
 Leave Link    1 at Sun Jul 18 16:06:04 2021, MaxMem=   104857600 cpu:               0.1 elap:               0.0
 (Enter /dades/curu/g16A03_MST/g16/l101.exe)
 ---------------------------------------------
 SET_328_BBB321_conf1.geo_180_150_045 geometry
 ---------------------------------------------
 Symbolic Z-matrix:
 Charge =  1 Multiplicity = 1
 C                    -2.465     3.189     4.617 
 H                    -3.41      3.56      4.215 
 H                    -2.014     4.016     5.17 
 H                    -2.719     2.359     5.279 
 C                    -1.582     2.735     3.489 
 O                    -0.339     2.833     3.512 
 N                    -2.175     2.266     2.397 
 H                    -3.183     2.306     2.373 
 C                    -1.596     1.76      1.167 
 C                    -2.206     2.115    -0.009 
 C                    -1.825     1.701    -1.237 
 C                    -0.783     0.821    -1.301 
 H                    -0.421     0.28     -2.171 
 H                    -2.39      1.921    -2.139 
 H                    -3.08      2.755     0.076 
 C                    -0.575     0.9       1.092 
 H                    -0.089     0.508     1.981 
 C                    -0.174     0.33     -0.132 
 C                     0.904    -0.614    -0.302 
 N                     1.014    -1.614    -1.286 
 C                     1.993    -0.426     0.501 
 H                     2.25      0.281     1.279 
 S                     3.167    -1.568     0.026 
 C                     2.19     -2.232    -1.235 
 N                     2.716    -3.23     -1.958 
 C                     2.053    -3.721    -2.886 
 N                     2.119    -2.933    -3.931 
 H                     1.306    -2.327    -3.947 
 H                     2.181    -3.462    -4.794 
 N                     2.681    -4.731    -3.446 
 H                     2.848    -5.316    -2.635 
 H                     3.605    -4.463    -3.767 
 H                     3.632    -3.575    -1.753 
 
 ITRead=  0  0  0  0  0  0  0  0  0  0  0  0  0  0  0  0  0  0  0  0
 ITRead=  0  0  0  0  0  0  0  0  0  0  0  0  0
 MicOpt= -1 -1 -1 -1 -1 -1 -1 -1 -1 -1 -1 -1 -1 -1 -1 -1 -1 -1 -1 -1
 MicOpt= -1 -1 -1 -1 -1 -1 -1 -1 -1 -1 -1 -1 -1
 NAtoms=     33 NQM=       33 NQMF=       0 NMMI=      0 NMMIF=      0
                NMic=       0 NMicF=      0.
                    Isotopes and Nuclear Properties:
 (Nuclear quadrupole moments (NQMom) in fm**2, nuclear magnetic moments (NMagM)
  in nuclear magnetons)

  Atom         1           2           3           4           5           6           7           8           9          10
 IAtWgt=          12           1           1           1          12          16          14           1          12          12
 AtmWgt=  12.0000000   1.0078250   1.0078250   1.0078250  12.0000000  15.9949146  14.0030740   1.0078250  12.0000000  12.0000000
 NucSpn=           0           1           1           1           0           0           2           1           0           0
 AtZEff=  -0.0000000  -0.0000000  -0.0000000  -0.0000000  -0.0000000  -0.0000000  -0.0000000  -0.0000000  -0.0000000  -0.0000000
 NQMom=    0.0000000   0.0000000   0.0000000   0.0000000   0.0000000   0.0000000   2.0440000   0.0000000   0.0000000   0.0000000
 NMagM=    0.0000000   2.7928460   2.7928460   2.7928460   0.0000000   0.0000000   0.4037610   2.7928460   0.0000000   0.0000000
 AtZNuc=   6.0000000   1.0000000   1.0000000   1.0000000   6.0000000   8.0000000   7.0000000   1.0000000   6.0000000   6.0000000

  Atom        11          12          13          14          15          16          17          18          19          20
 IAtWgt=          12          12           1           1           1          12           1          12          12          14
 AtmWgt=  12.0000000  12.0000000   1.0078250   1.0078250   1.0078250  12.0000000   1.0078250  12.0000000  12.0000000  14.0030740
 NucSpn=           0           0           1           1           1           0           1           0           0           2
 AtZEff=  -0.0000000  -0.0000000  -0.0000000  -0.0000000  -0.0000000  -0.0000000  -0.0000000  -0.0000000  -0.0000000  -0.0000000
 NQMom=    0.0000000   0.0000000   0.0000000   0.0000000   0.0000000   0.0000000   0.0000000   0.0000000   0.0000000   2.0440000
 NMagM=    0.0000000   0.0000000   2.7928460   2.7928460   2.7928460   0.0000000   2.7928460   0.0000000   0.0000000   0.4037610
 AtZNuc=   6.0000000   6.0000000   1.0000000   1.0000000   1.0000000   6.0000000   1.0000000   6.0000000   6.0000000   7.0000000

  Atom        21          22          23          24          25          26          27          28          29          30
 IAtWgt=          12           1          32          12          14          12          14           1           1          14
 AtmWgt=  12.0000000   1.0078250  31.9720718  12.0000000  14.0030740  12.0000000  14.0030740   1.0078250   1.0078250  14.0030740
 NucSpn=           0           1           0           0           2           0           2           1           1           2
 AtZEff=  -0.0000000  -0.0000000  -0.0000000  -0.0000000  -0.0000000  -0.0000000  -0.0000000  -0.0000000  -0.0000000  -0.0000000
 NQMom=    0.0000000   0.0000000   0.0000000   0.0000000   2.0440000   0.0000000   2.0440000   0.0000000   0.0000000   2.0440000
 NMagM=    0.0000000   2.7928460   0.0000000   0.0000000   0.4037610   0.0000000   0.4037610   2.7928460   2.7928460   0.4037610
 AtZNuc=   6.0000000   1.0000000  16.0000000   6.0000000   7.0000000   6.0000000   7.0000000   1.0000000   1.0000000   7.0000000

  Atom        31          32          33
 IAtWgt=           1           1           1
 AtmWgt=   1.0078250   1.0078250   1.0078250
 NucSpn=           1           1           1
 AtZEff=  -0.0000000  -0.0000000  -0.0000000
 NQMom=    0.0000000   0.0000000   0.0000000
 NMagM=    2.7928460   2.7928460   2.7928460
 AtZNuc=   1.0000000   1.0000000   1.0000000
 Leave Link  101 at Sun Jul 18 16:06:05 2021, MaxMem=   104857600 cpu:               0.1 elap:               0.1
 (Enter /dades/curu/g16A03_MST/g16/l103.exe)

 GradGradGradGradGradGradGradGradGradGradGradGradGradGradGradGradGradGrad
 Berny optimization.
 Initialization pass.
                           ----------------------------
                           !    Initial Parameters    !
                           ! (Angstroms and Degrees)  !
 --------------------------                            --------------------------
 ! Name  Definition              Value          Derivative Info.                !
 --------------------------------------------------------------------------------
 ! R1    R(1,2)                  1.0919         estimate D2E/DX2                !
 ! R2    R(1,3)                  1.0923         estimate D2E/DX2                !
 ! R3    R(1,4)                  1.0916         estimate D2E/DX2                !
 ! R4    R(1,5)                  1.5027         estimate D2E/DX2                !
 ! R5    R(5,6)                  1.2471         estimate D2E/DX2                !
 ! R6    R(5,7)                  1.3282         estimate D2E/DX2                !
 ! R7    R(7,8)                  1.0091         estimate D2E/DX2                !
 ! R8    R(7,9)                  1.4506         estimate D2E/DX2                !
 ! R9    R(9,10)                 1.3715         estimate D2E/DX2                !
 ! R10   R(9,16)                 1.337          estimate D2E/DX2                !
 ! R11   R(10,11)                1.3508         estimate D2E/DX2                !
 ! R12   R(10,15)                1.0866         estimate D2E/DX2                !
 ! R13   R(11,12)                1.3654         estimate D2E/DX2                !
 ! R14   R(11,14)                1.0868         estimate D2E/DX2                !
 ! R15   R(12,13)                1.0866         estimate D2E/DX2                !
 ! R16   R(12,18)                1.4066         estimate D2E/DX2                !
 ! R17   R(16,17)                1.0864         estimate D2E/DX2                !
 ! R18   R(16,18)                1.4085         estimate D2E/DX2                !
 ! R19   R(18,19)                1.443          estimate D2E/DX2                !
 ! R20   R(19,20)                1.4073         estimate D2E/DX2                !
 ! R21   R(19,21)                1.366          estimate D2E/DX2                !
 ! R22   R(20,24)                1.3295         estimate D2E/DX2                !
 ! R23   R(21,22)                1.0822         estimate D2E/DX2                !
 ! R24   R(21,23)                1.7053         estimate D2E/DX2                !
 ! R25   R(23,24)                1.7279         estimate D2E/DX2                !
 ! R26   R(24,25)                1.3399         estimate D2E/DX2                !
 ! R27   R(25,26)                1.2417         estimate D2E/DX2                !
 ! R28   R(25,33)                1.0001         estimate D2E/DX2                !
 ! R29   R(26,27)                1.3105         estimate D2E/DX2                !
 ! R30   R(26,30)                1.3146         estimate D2E/DX2                !
 ! R31   R(27,28)                1.0141         estimate D2E/DX2                !
 ! R32   R(27,29)                1.0141         estimate D2E/DX2                !
 ! R33   R(30,31)                1.0138         estimate D2E/DX2                !
 ! R34   R(30,32)                1.0142         estimate D2E/DX2                !
 ! A1    A(2,1,3)              106.6472         estimate D2E/DX2                !
 ! A2    A(2,1,4)              106.2739         estimate D2E/DX2                !
 ! A3    A(2,1,5)              109.5625         estimate D2E/DX2                !
 ! A4    A(3,1,4)              111.3896         estimate D2E/DX2                !
 ! A5    A(3,1,5)              111.4782         estimate D2E/DX2                !
 ! A6    A(4,1,5)              111.2367         estimate D2E/DX2                !
 ! A7    A(1,5,6)              123.2364         estimate D2E/DX2                !
 ! A8    A(1,5,7)              117.4832         estimate D2E/DX2                !
 ! A9    A(6,5,7)              119.2046         estimate D2E/DX2                !
 ! A10   A(5,7,8)              116.8434         estimate D2E/DX2                !
 ! A11   A(5,7,9)              129.9499         estimate D2E/DX2                !
 ! A12   A(8,7,9)              113.103          estimate D2E/DX2                !
 ! A13   A(7,9,10)             117.3379         estimate D2E/DX2                !
 ! A14   A(7,9,16)             125.2214         estimate D2E/DX2                !
 ! A15   A(10,9,16)            117.2594         estimate D2E/DX2                !
 ! A16   A(9,10,11)            125.0807         estimate D2E/DX2                !
 ! A17   A(9,10,15)            116.3029         estimate D2E/DX2                !
 ! A18   A(11,10,15)           118.5886         estimate D2E/DX2                !
 ! A19   A(10,11,12)           117.0915         estimate D2E/DX2                !
 ! A20   A(10,11,14)           123.0814         estimate D2E/DX2                !
 ! A21   A(12,11,14)           119.2284         estimate D2E/DX2                !
 ! A22   A(11,12,13)           127.7839         estimate D2E/DX2                !
 ! A23   A(11,12,18)           121.0937         estimate D2E/DX2                !
 ! A24   A(13,12,18)           110.3279         estimate D2E/DX2                !
 ! A25   A(9,16,17)            121.8578         estimate D2E/DX2                !
 ! A26   A(9,16,18)            121.7659         estimate D2E/DX2                !
 ! A27   A(17,16,18)           115.96           estimate D2E/DX2                !
 ! A28   A(12,18,16)           117.2382         estimate D2E/DX2                !
 ! A29   A(12,18,19)           116.9946         estimate D2E/DX2                !
 ! A30   A(16,18,19)           125.4382         estimate D2E/DX2                !
 ! A31   A(18,19,20)           127.2766         estimate D2E/DX2                !
 ! A32   A(18,19,21)           115.8665         estimate D2E/DX2                !
 ! A33   A(20,19,21)           116.5202         estimate D2E/DX2                !
 ! A34   A(19,20,24)           111.8786         estimate D2E/DX2                !
 ! A35   A(19,21,22)           134.5726         estimate D2E/DX2                !
 ! A36   A(19,21,23)           107.0329         estimate D2E/DX2                !
 ! A37   A(22,21,23)           118.3104         estimate D2E/DX2                !
 ! A38   A(21,23,24)            94.0921         estimate D2E/DX2                !
 ! A39   A(20,24,23)           110.4581         estimate D2E/DX2                !
 ! A40   A(20,24,25)           132.281          estimate D2E/DX2                !
 ! A41   A(23,24,25)           117.2609         estimate D2E/DX2                !
 ! A42   A(24,25,26)           119.2207         estimate D2E/DX2                !
 ! A43   A(24,25,33)           120.3914         estimate D2E/DX2                !
 ! A44   A(26,25,33)           120.3879         estimate D2E/DX2                !
 ! A45   A(25,26,27)           109.3476         estimate D2E/DX2                !
 ! A46   A(25,26,30)           111.5371         estimate D2E/DX2                !
 ! A47   A(27,26,30)            95.6376         estimate D2E/DX2                !
 ! A48   A(26,27,28)           109.3613         estimate D2E/DX2                !
 ! A49   A(26,27,29)           111.5928         estimate D2E/DX2                !
 ! A50   A(28,27,29)           110.3216         estimate D2E/DX2                !
 ! A51   A(26,30,31)           100.4429         estimate D2E/DX2                !
 ! A52   A(26,30,32)           111.5329         estimate D2E/DX2                !
 ! A53   A(31,30,32)           104.8083         estimate D2E/DX2                !
 ! D1    D(2,1,5,6)            146.7622         estimate D2E/DX2                !
 ! D2    D(2,1,5,7)            -30.0413         estimate D2E/DX2                !
 ! D3    D(3,1,5,6)             28.9526         estimate D2E/DX2                !
 ! D4    D(3,1,5,7)           -147.8509         estimate D2E/DX2                !
 ! D5    D(4,1,5,6)            -96.0341         estimate D2E/DX2                !
 ! D6    D(4,1,5,7)             87.1624         estimate D2E/DX2                !
 ! D7    D(1,5,7,8)              4.1459         estimate D2E/DX2                !
 ! D8    D(1,5,7,9)           -179.8513         estimate D2E/DX2                !
 ! D9    D(6,5,7,8)           -172.7913         estimate D2E/DX2                !
 ! D10   D(6,5,7,9)              3.2115         estimate D2E/DX2                !
 ! D11   D(5,7,9,10)          -139.4257         estimate D2E/DX2                !
 ! D12   D(5,7,9,16)            45.6186         estimate D2E/DX2                !
 ! D13   D(8,7,9,10)            36.697          estimate D2E/DX2                !
 ! D14   D(8,7,9,16)          -138.2587         estimate D2E/DX2                !
 ! D15   D(7,9,10,11)         -177.864          estimate D2E/DX2                !
 ! D16   D(7,9,10,15)            0.1829         estimate D2E/DX2                !
 ! D17   D(16,9,10,11)          -2.4987         estimate D2E/DX2                !
 ! D18   D(16,9,10,15)         175.5481         estimate D2E/DX2                !
 ! D19   D(7,9,16,17)           -0.1478         estimate D2E/DX2                !
 ! D20   D(7,9,16,18)          172.147          estimate D2E/DX2                !
 ! D21   D(10,9,16,17)        -175.1071         estimate D2E/DX2                !
 ! D22   D(10,9,16,18)          -2.8122         estimate D2E/DX2                !
 ! D23   D(9,10,11,12)           2.6253         estimate D2E/DX2                !
 ! D24   D(9,10,11,14)         173.6699         estimate D2E/DX2                !
 ! D25   D(15,10,11,12)       -175.3806         estimate D2E/DX2                !
 ! D26   D(15,10,11,14)         -4.3361         estimate D2E/DX2                !
 ! D27   D(10,11,12,13)        171.2767         estimate D2E/DX2                !
 ! D28   D(10,11,12,18)          2.5119         estimate D2E/DX2                !
 ! D29   D(14,11,12,13)         -0.1276         estimate D2E/DX2                !
 ! D30   D(14,11,12,18)       -168.8924         estimate D2E/DX2                !
 ! D31   D(11,12,18,16)         -7.2993         estimate D2E/DX2                !
 ! D32   D(11,12,18,19)        178.9239         estimate D2E/DX2                !
 ! D33   D(13,12,18,16)       -177.8479         estimate D2E/DX2                !
 ! D34   D(13,12,18,19)          8.3753         estimate D2E/DX2                !
 ! D35   D(9,16,18,12)           7.4893         estimate D2E/DX2                !
 ! D36   D(9,16,18,19)        -179.3194         estimate D2E/DX2                !
 ! D37   D(17,16,18,12)       -179.7872         estimate D2E/DX2                !
 ! D38   D(17,16,18,19)         -6.5959         estimate D2E/DX2                !
 ! D39   D(12,18,19,20)        -35.9272         estimate D2E/DX2                !
 ! D40   D(12,18,19,21)        137.1295         estimate D2E/DX2                !
 ! D41   D(16,18,19,20)        150.8666         estimate D2E/DX2                !
 ! D42   D(16,18,19,21)        -36.0766         estimate D2E/DX2                !
 ! D43   D(18,19,20,24)        174.2768         estimate D2E/DX2                !
 ! D44   D(21,19,20,24)          1.2593         estimate D2E/DX2                !
 ! D45   D(18,19,21,22)          1.1724         estimate D2E/DX2                !
 ! D46   D(18,19,21,23)       -175.2991         estimate D2E/DX2                !
 ! D47   D(20,19,21,22)        175.001          estimate D2E/DX2                !
 ! D48   D(20,19,21,23)         -1.4705         estimate D2E/DX2                !
 ! D49   D(19,20,24,23)         -0.3839         estimate D2E/DX2                !
 ! D50   D(19,20,24,25)        179.578          estimate D2E/DX2                !
 ! D51   D(19,21,23,24)          1.0213         estimate D2E/DX2                !
 ! D52   D(22,21,23,24)       -176.1243         estimate D2E/DX2                !
 ! D53   D(21,23,24,20)         -0.3795         estimate D2E/DX2                !
 ! D54   D(21,23,24,25)        179.6522         estimate D2E/DX2                !
 ! D55   D(20,24,25,26)          1.0774         estimate D2E/DX2                !
 ! D56   D(20,24,25,33)       -178.9595         estimate D2E/DX2                !
 ! D57   D(23,24,25,26)       -178.9627         estimate D2E/DX2                !
 ! D58   D(23,24,25,33)          1.0004         estimate D2E/DX2                !
 ! D59   D(24,25,26,27)         78.8278         estimate D2E/DX2                !
 ! D60   D(24,25,26,30)       -176.6647         estimate D2E/DX2                !
 ! D61   D(33,25,26,27)       -101.1353         estimate D2E/DX2                !
 ! D62   D(33,25,26,30)          3.3723         estimate D2E/DX2                !
 ! D63   D(25,26,27,28)        -96.0433         estimate D2E/DX2                !
 ! D64   D(25,26,27,29)        141.6151         estimate D2E/DX2                !
 ! D65   D(30,26,27,28)        148.7662         estimate D2E/DX2                !
 ! D66   D(30,26,27,29)         26.4246         estimate D2E/DX2                !
 ! D67   D(25,26,30,31)         55.04           estimate D2E/DX2                !
 ! D68   D(25,26,30,32)        -55.5766         estimate D2E/DX2                !
 ! D69   D(27,26,30,31)        168.4218         estimate D2E/DX2                !
 ! D70   D(27,26,30,32)         57.8052         estimate D2E/DX2                !
 --------------------------------------------------------------------------------
 Trust Radius=3.00D-01 FncErr=1.00D-07 GrdErr=1.00D-06 EigMax=2.50D+02 EigMin=1.00D-04
 Number of steps in this run=    167 maximum allowed number of steps=    198.
 GradGradGradGradGradGradGradGradGradGradGradGradGradGradGradGradGradGrad

 Leave Link  103 at Sun Jul 18 16:06:05 2021, MaxMem=   104857600 cpu:               0.0 elap:               0.0
 (Enter /dades/curu/g16A03_MST/g16/l202.exe)
                          Input orientation:                          
 ---------------------------------------------------------------------
 Center     Atomic      Atomic             Coordinates (Angstroms)
 Number     Number       Type             X           Y           Z
 ---------------------------------------------------------------------
      1          6           0       -2.465000    3.189000    4.617000
      2          1           0       -3.410000    3.560000    4.215000
      3          1           0       -2.014000    4.016000    5.170000
      4          1           0       -2.719000    2.359000    5.279000
      5          6           0       -1.582000    2.735000    3.489000
      6          8           0       -0.339000    2.833000    3.512000
      7          7           0       -2.175000    2.266000    2.397000
      8          1           0       -3.183000    2.306000    2.373000
      9          6           0       -1.596000    1.760000    1.167000
     10          6           0       -2.206000    2.115000   -0.009000
     11          6           0       -1.825000    1.701000   -1.237000
     12          6           0       -0.783000    0.821000   -1.301000
     13          1           0       -0.421000    0.280000   -2.171000
     14          1           0       -2.390000    1.921000   -2.139000
     15          1           0       -3.080000    2.755000    0.076000
     16          6           0       -0.575000    0.900000    1.092000
     17          1           0       -0.089000    0.508000    1.981000
     18          6           0       -0.174000    0.330000   -0.132000
     19          6           0        0.904000   -0.614000   -0.302000
     20          7           0        1.014000   -1.614000   -1.286000
     21          6           0        1.993000   -0.426000    0.501000
     22          1           0        2.250000    0.281000    1.279000
     23         16           0        3.167000   -1.568000    0.026000
     24          6           0        2.190000   -2.232000   -1.235000
     25          7           0        2.716000   -3.230000   -1.958000
     26          6           0        2.053000   -3.721000   -2.886000
     27          7           0        2.119000   -2.933000   -3.931000
     28          1           0        1.306000   -2.327000   -3.947000
     29          1           0        2.181000   -3.462000   -4.794000
     30          7           0        2.681000   -4.731000   -3.446000
     31          1           0        2.848000   -5.316000   -2.635000
     32          1           0        3.605000   -4.463000   -3.767000
     33          1           0        3.632000   -3.575000   -1.753000
 ---------------------------------------------------------------------
                    Distance matrix (angstroms):
                    1          2          3          4          5
     1  C    0.000000
     2  H    1.091911   0.000000
     3  H    1.092309   1.751793   0.000000
     4  H    1.091632   1.746991   1.804039   0.000000
     5  C    1.502727   2.132905   2.157162   2.153659   0.000000
     6  O    2.422321   3.233230   2.637059   3.001894   1.247069
     7  N    2.421658   2.550448   3.282979   2.934367   1.328184
     8  H    2.516098   2.239868   3.480499   2.943287   1.998174
     9  C    3.834019   3.977549   4.613921   4.304471   2.518433
    10  C    4.756094   4.623831   5.520209   5.318425   3.606907
    11  C    6.073966   5.974313   6.815027   6.609876   4.843891
    12  C    6.592365   6.695484   7.321013   7.029220   5.219760
    13  H    7.662712   7.776472   8.389614   8.068801   6.277782
    14  H    6.874372   6.640786   7.612613   7.438199   5.743679
    15  H    4.602962   4.229450   5.354934   5.230521   3.727328
    16  C    4.608389   4.986577   5.330128   4.925077   3.182276
    17  H    4.447655   5.033339   5.116777   4.606507   3.076141
    18  C    5.997963   6.308804   6.714417   6.314490   4.569259
    19  C    7.071742   7.512400   7.739148   7.287827   5.636282
    20  N    8.367656   8.752317   9.085462   8.533419   6.960865
    21  C    7.062821   7.672966   7.588608   7.265566   5.630337
    22  H    6.467606   7.169905   6.875449   6.708878   5.058699
    23  S    8.684800   9.332793   9.191548   8.812510   7.284310
    24  C    9.235917   9.726755   9.886109   9.359902   7.824017
    25  N   10.548789  11.033490  11.210968  10.637214   9.150073
    26  C   11.155960  11.544762  11.887001  11.243025   9.774139
    27  N   11.469971  11.793482  12.173680  11.672001  10.043905
    28  H   10.862265  11.113760  11.592055  11.103076   9.447671
    29  H   12.425298  12.717305  13.145334  12.623762  11.007773
    30  N   12.418522  12.826998  13.144904  12.472118  11.045748
    31  H   12.375561  12.840111  13.101271  12.350243  11.042956
    32  H   12.872042  13.315070  13.540184  12.975468  11.461488
    33  H   11.113146  11.666834  11.722991  11.180187   9.720106
                    6          7          8          9         10
     6  O    0.000000
     7  N    2.221623   0.000000
     8  H    3.108599   1.009079   0.000000
     9  C    2.868868   1.450578   2.066669   0.000000
    10  C    4.049525   2.410933   2.581653   1.371532   0.000000
    11  C    5.103197   3.694277   3.904137   2.415603   1.350756
    12  C    5.235480   4.207243   4.632872   2.762918   2.317030
    13  H    6.230652   5.280846   5.690453   3.835788   3.350775
    14  H    6.080473   4.554179   4.597306   3.403820   2.146717
    15  H    4.396051   2.538737   2.342738   2.093457   1.086601
    16  C    3.106217   2.475678   3.227919   1.337036   2.312701
    17  H    2.795011   2.759532   3.599903   2.121591   3.320277
    18  C    4.423909   3.761374   4.385622   2.398830   2.707467
    19  C    5.288994   5.005921   5.690834   3.747511   4.147938
    20  N    6.680361   6.228050   6.809515   4.920689   5.089653
    21  C    5.012527   5.311676   6.144850   4.254771   4.934408
    22  H    4.266370   4.977025   5.900419   4.122099   4.987829
    23  S    6.619141   6.989861   7.799922   5.921455   6.514203
    24  C    7.388104   7.244077   7.904444   6.003288   6.302722
    25  N    8.718595   8.549498   9.176222   7.297881   7.522879
    26  C    9.466308   9.034946   9.560204   7.731971   7.776574
    27  N    9.730713   9.247249   9.762107   7.862257   7.718161
    28  H    9.217825   8.570843   9.030958   7.160878   6.897344
    29  H   10.722269  10.173259  10.649329   8.778869   8.558325
    30  N   10.712061  10.328572  10.852033   9.039114   9.086443
    31  H   10.693399  10.394146  10.933797   9.180093   9.362615
    32  H   11.034971  10.801978  11.384020   9.493181   9.547794
    33  H    9.195191   9.222854   9.902235   8.020013   8.336659
                   11         12         13         14         15
    11  C    0.000000
    12  C    1.365379   0.000000
    13  H    2.205179   1.086566   0.000000
    14  H    1.086844   2.120069   2.563370   0.000000
    15  H    2.099979   3.303437   4.271407   2.465336   0.000000
    16  C    2.761945   2.403321   3.324949   3.843960   3.278461
    17  H    3.846098   3.369144   4.171488   4.926010   4.198109
    18  C    2.413808   1.406600   2.054515   3.386737   3.790610
    19  C    3.698769   2.429649   2.459273   4.544362   5.231185
    20  N    4.364808   3.026328   2.535683   4.981069   6.140362
    21  C    4.703392   3.536720   3.669525   5.629272   6.002892
    22  H    4.995226   4.018344   4.363112   5.991821   5.998065
    23  S    6.099311   4.803202   4.595178   6.909457   7.597094
    24  C    5.620384   4.261912   3.742133   6.248282   7.373045
    25  N    6.742053   5.393074   4.712350   7.255122   8.576188
    26  C    6.867035   5.584343   4.758141   7.220140   8.778366
    27  N    6.654827   5.425036   4.457866   6.863211   8.685562
    28  H    5.776854   4.612498   3.596269   5.913948   7.826126
    29  H    7.440219   6.271398   5.258621   7.544518   9.489263
    30  N    8.158084   6.886583   6.029772   8.465955  10.081359
    31  H    8.545737   7.254411   6.497451   8.947448  10.374572
    32  H    8.595388   7.297695   6.422767   8.907630  10.562074
    33  H    7.607975   6.246707   5.609149   8.162077   9.405588
                   16         17         18         19         20
    16  C    0.000000
    17  H    1.086361   0.000000
    18  C    1.408502   2.122187   0.000000
    19  C    2.534339   2.730755   1.442955   0.000000
    20  N    3.807887   4.048800   2.553859   1.407251   0.000000
    21  C    2.949946   2.719831   2.380780   1.366043   2.358634
    22  H    2.898061   2.452601   2.805191   2.261040   3.420226
    23  S    4.607596   4.328203   3.845731   2.477674   2.521680
    24  C    4.782215   4.800427   3.656357   2.267644   1.329474
    25  N    6.098367   6.111987   4.935583   3.587358   2.441279
    26  C    6.639617   6.794137   5.380952   4.201274   2.842353
    27  N    6.868774   7.188010   5.507941   4.474777   3.155441
    28  H    6.272417   6.717472   4.878962   4.047468   2.770299
    29  H    7.827361   8.174009   6.454420   5.469908   4.133165
    30  N    7.931150   8.035692   6.689345   5.476509   4.142485
    31  H    8.015367   7.990770   6.875668   5.597395   4.346051
    32  H    8.357275   8.449614   7.104007   5.840927   4.580987
    33  H    6.768936   6.667795   5.688787   4.279592   3.304169
                   21         22         23         24         25
    21  C    0.000000
    22  H    1.082212   0.000000
    23  S    1.705305   2.414477   0.000000
    24  C    2.512795   3.555132   1.727873   0.000000
    25  N    3.798924   4.798171   2.627147   1.339929   0.000000
    26  C    4.725716   5.779450   3.788951   2.227485   1.241706
    27  N    5.093481   6.122994   4.315018   2.786549   2.082630
    28  H    4.885742   5.916407   4.452430   2.854019   2.599929
    29  H    6.106526   7.134153   5.271796   3.765563   2.895332
    30  N    5.880916   6.901560   4.721816   3.372626   2.113852
    31  H    5.871765   6.855903   4.607623   3.450220   2.197077
    32  H    6.091940   7.057172   4.791630   3.659318   2.362857
    33  H    4.205120   5.096242   2.721969   2.037483   1.000053
                   26         27         28         29         30
    26  C    0.000000
    27  N    1.310467   0.000000
    28  H    1.904460   1.014131   0.000000
    29  H    1.929748   1.014127   1.664710   0.000000
    30  N    1.314566   1.945218   2.814399   1.917672   0.000000
    31  H    1.799736   2.808869   3.610156   2.922924   1.013822
    32  H    1.932726   2.139157   3.143294   2.021016   1.014219
    33  H    1.948909   2.728556   3.432407   3.371328   2.259864
                   31         32         33
    31  H    0.000000
    32  H    1.606886   0.000000
    33  H    2.103250   2.201243   0.000000
 Stoichiometry    C12H14N5OS(1+)
 Framework group  C1[X(C12H14N5OS)]
 Deg. of freedom    93
 Full point group                 C1      NOp   1
 Largest Abelian subgroup         C1      NOp   1
 Largest concise Abelian subgroup C1      NOp   1
                         Standard orientation:                         
 ---------------------------------------------------------------------
 Center     Atomic      Atomic             Coordinates (Angstroms)
 Number     Number       Type             X           Y           Z
 ---------------------------------------------------------------------
      1          6           0        6.379360   -0.930472    0.764202
      2          1           0        6.847538    0.049377    0.878105
      3          1           0        7.019207   -1.506789    0.092195
      4          1           0        6.348965   -1.372802    1.761739
      5          6           0        4.996516   -0.764848    0.199844
      6          8           0        4.467286   -1.593990   -0.566720
      7          7           0        4.344898    0.354766    0.492987
      8          1           0        4.848657    1.049497    1.023850
      9          6           0        3.017137    0.789208    0.102489
     10          6           0        2.860785    2.108651   -0.237694
     11          6           0        1.690609    2.687643   -0.584099
     12          6           0        0.572730    1.904868   -0.540851
     13          1           0       -0.462306    2.215540   -0.654027
     14          1           0        1.584060    3.756252   -0.751286
     15          1           0        3.752856    2.727210   -0.189789
     16          6           0        1.916104    0.031531    0.138786
     17          1           0        1.941761   -1.001545    0.473865
     18          6           0        0.637046    0.570209   -0.101451
     19          6           0       -0.601741   -0.169021   -0.068839
     20          7           0       -1.878739    0.321790    0.260912
     21          6           0       -0.543116   -1.451210   -0.536419
     22          1           0        0.244346   -2.081167   -0.929152
     23         16           0       -2.135106   -2.062238   -0.519828
     24          6           0       -2.824629   -0.593708    0.074749
     25          7           0       -4.151277   -0.570072    0.261451
     26          6           0       -4.687556    0.473014    0.669139
     27          7           0       -4.815790    1.313633   -0.327977
     28          1           0       -4.034401    1.960073   -0.325351
     29          1           0       -5.692600    1.820759   -0.278172
     30          7           0       -5.976848    0.307894    0.865466
     31          1           0       -5.966515   -0.485664    1.496333
     32          1           0       -6.440220   -0.031502    0.029560
     33          1           0       -4.703114   -1.382778    0.074129
 ---------------------------------------------------------------------
 Rotational constants (GHZ):           0.8911746           0.1369003           0.1224452
 Leave Link  202 at Sun Jul 18 16:06:05 2021, MaxMem=   104857600 cpu:               0.1 elap:               0.0
 (Enter /dades/curu/g16A03_MST/g16/l301.exe)
 Standard basis: 6-31G(d) (6D, 7F)
 Ernie: Thresh=  0.10000D-02 Tol=  0.10000D-05 Strict=F.
 There are   317 symmetry adapted cartesian basis functions of A   symmetry.
 There are   317 symmetry adapted basis functions of A   symmetry.
   317 basis functions,   612 primitive gaussians,   317 cartesian basis functions
    72 alpha electrons       72 beta electrons
       nuclear repulsion energy      1467.8935273159 Hartrees.
 IExCor=  402 DFT=T Ex+Corr=B3LYP ExCW=0 ScaHFX=  0.200000
 ScaDFX=  0.800000  0.720000  1.000000  0.810000 ScalE2=  1.000000  1.000000
 IRadAn=      5 IRanWt=     -1 IRanGd=            0 ICorTp=0 IEmpDi=  4
 NAtoms=   33 NActive=   33 NUniq=   33 SFac= 1.00D+00 NAtFMM=   60 NAOKFM=F Big=F
 Integral buffers will be    131072 words long.
 Raffenetti 2 integral format.
 Two-electron integral symmetry is turned on.
 Using the following non-standard input for PCM:
 MSTModel=DFT cav MSTCharged
 --- end of non-standard input.
 MST model for solvation energy: B3LYP parametrization.
 MST cavity parameters:
 ISph   IAn     Re0     Alpha   Atom Type   QCorr
 ------------------------------------------------
   1      6     1.50     1.50      CH3        F
   2      1     1.20     1.50      CH3        F
   3      1     1.20     1.50      CH3        F
   4      1     1.20     1.50      CH3        F
   5      6     1.50     1.50      C          F
   6      8     1.40     1.50      O          F
   7      7     1.50     1.50      NH         F
   8      1     0.90     1.50      NH         F
   9      6     1.50     1.50      C          F
  10      6     1.50     1.50      CH         F
  11      6     1.50     1.50      CH         F
  12      6     1.50     1.50      CH         F
  13      1     1.20     1.50      CH         F
  14      1     1.20     1.50      CH         F
  15      1     1.20     1.50      CH         F
  16      6     1.50     1.50      CH         F
  17      1     1.20     1.50      CH         F
  18      6     1.50     1.50      C          F
  19      6     1.50     1.50      C          F
  20      7     1.50     1.50      Nc         F
  21      6     1.50     1.50      CH         F
  22      1     1.20     1.50      CH         F
  23     16     1.75     1.50      S          F
  24      6     1.50     1.50      C          F
  25      7     1.50     1.15      NH         T
  26      6     1.50     1.15      CN+        T
  27      7     1.50     1.15      NH+        T
  28      1     0.90     1.15      NH+        T
  29      1     0.90     1.15      NH+        T
  30      7     1.50     1.15      NH+        T
  31      1     0.90     1.15      NH+        T
  32      1     0.90     1.15      NH+        T
  33      1     0.90     1.15      NH         T
 ------------------------------------------------------------------------------
 Polarizable Continuum Model (PCM)
 =================================
 Model                : PCM.
 Atomic radii         : MST.
 Polarization charges : Total charges.
 Charge compensation  : None.
 Solution method      : On-the-fly selection.
 Cavity type          : Scaled VdW (van der Waals Surface) (Alpha=1.500).
 Cavity algorithm     : GePol (No added spheres)
                        Default sphere list used, NSphG=   33.
                        Lebedev-Laikov grids with approx.  5.0 points / Ang**2.
                        Smoothing algorithm: York/Karplus (Gamma=1.0000).
                        Polarization charges: spherical gaussians, with
                                              point-specific exponents (IZeta= 3).
                        Self-potential: point-specific (ISelfS= 7).
                        Self-field    : sphere-specific E.n sum rule (ISelfD= 2).
 1st derivatives      : Analytical E(r).r(x)/FMM algorithm (CHGder, D1EAlg=3).
                        Cavity 1st derivative terms included.
 Solvent              : n-Octanol, Eps=   9.862900 Eps(inf)=   2.043470
 ------------------------------------------------------------------------------
 GePol: Number of generator spheres                  =      33
 GePol: Total number of spheres                      =      33
 GePol: Number of exposed spheres                    =      33 (100.00%)
 GePol: Number of points                             =    3014
 GePol: Average weight of points                     =       0.12
 GePol: Minimum weight of points                     =   0.11D-09
 GePol: Maximum weight of points                     =    0.22065
 GePol: Number of points with low weight             =     173
 GePol: Fraction of low-weight points (<1% of avg)   =       5.74%
 GePol: Cavity surface area                          =    350.093 Ang**2
 GePol: Cavity volume                                =    388.709 Ang**3
 Surface areas from nonelectrostatic (unscaled) cavity and vdw tensions:
 Sphere =    1 Type =  CH3 Surf =        5.334 Tension =       -0.183
 Sphere =    2 Type =  CH3 Surf =        9.955 Tension =       -0.183
 Sphere =    3 Type =  CH3 Surf =       10.138 Tension =       -0.183
 Sphere =    4 Type =  CH3 Surf =       10.140 Tension =       -0.183
 Sphere =    5 Type =  C   Surf =        6.519 Tension =       -0.205
 Sphere =    6 Type =  O   Surf =       16.464 Tension =       -0.185
 Sphere =    7 Type =  NH  Surf =        9.617 Tension =       -0.234
 Sphere =    8 Type =  NH  Surf =        3.903 Tension =       -0.234
 Sphere =    9 Type =  C   Surf =        6.034 Tension =       -0.205
 Sphere =   10 Type =  CH  Surf =        7.242 Tension =       -0.195
 Sphere =   11 Type =  CH  Surf =        7.662 Tension =       -0.195
 Sphere =   12 Type =  CH  Surf =        7.603 Tension =       -0.195
 Sphere =   13 Type =  CH  Surf =        9.412 Tension =       -0.195
 Sphere =   14 Type =  CH  Surf =       10.243 Tension =       -0.195
 Sphere =   15 Type =  CH  Surf =       10.055 Tension =       -0.195
 Sphere =   16 Type =  CH  Surf =        7.449 Tension =       -0.195
 Sphere =   17 Type =  CH  Surf =       10.063 Tension =       -0.195
 Sphere =   18 Type =  C   Surf =        6.075 Tension =       -0.205
 Sphere =   19 Type =  C   Surf =        5.824 Tension =       -0.205
 Sphere =   20 Type =  Nc  Surf =       12.596 Tension =       -0.161
 Sphere =   21 Type =  CH  Surf =        7.377 Tension =       -0.195
 Sphere =   22 Type =  CH  Surf =       10.177 Tension =       -0.195
 Sphere =   23 Type =  S   Surf =       23.656 Tension =       -0.186
 Sphere =   24 Type =  C   Surf =        5.304 Tension =       -0.205
 Sphere =   25 Type =  NH  Surf =        8.158 Tension =       -0.234
 Sphere =   26 Type =  CN+ Surf =        6.717 Tension =       -0.227
 Sphere =   27 Type =  NH+ Surf =       12.995 Tension =       -0.274
 Sphere =   28 Type =  NH+ Surf =        3.939 Tension =       -0.274
 Sphere =   29 Type =  NH+ Surf =        3.615 Tension =       -0.274
 Sphere =   30 Type =  NH+ Surf =       12.942 Tension =       -0.274
 Sphere =   31 Type =  NH+ Surf =        3.829 Tension =       -0.274
 Sphere =   32 Type =  NH+ Surf =        3.882 Tension =       -0.274
 Sphere =   33 Type =  NH  Surf =        3.817 Tension =       -0.234
 PCM non-electrostatic energy =        -0.0204816814 Hartrees.
 Nuclear repulsion after PCM non-electrostatic terms =     1467.8730456345 Hartrees.
 Leave Link  301 at Sun Jul 18 16:06:05 2021, MaxMem=   104857600 cpu:               0.2 elap:               0.2
 (Enter /dades/curu/g16A03_MST/g16/l302.exe)
 NPDir=0 NMtPBC=     1 NCelOv=     1 NCel=       1 NClECP=     1 NCelD=      1
         NCelK=      1 NCelE2=     1 NClLst=     1 CellRange=     0.0.
 One-electron integrals computed using PRISM.
 One-electron integral symmetry used in STVInt
 NBasis=   317 RedAO= T EigKep=  3.56D-04  NBF=   317
 NBsUse=   317 1.00D-06 EigRej= -1.00D+00 NBFU=   317
 Precomputing XC quadrature grid using
 IXCGrd= 4 IRadAn=           5 IRanWt=          -1 IRanGd=           0 AccXCQ= 0.00D+00.
 Generated NRdTot=       0 NPtTot=           0 NUsed=           0 NTot=          32
 NSgBfM=   312   312   312   312   312 MxSgAt=    33 MxSgA2=    33.
 Leave Link  302 at Sun Jul 18 16:06:06 2021, MaxMem=   104857600 cpu:               4.9 elap:               1.3
 (Enter /dades/curu/g16A03_MST/g16/l303.exe)
 DipDrv:  MaxL=1.
 Leave Link  303 at Sun Jul 18 16:06:06 2021, MaxMem=   104857600 cpu:               0.1 elap:               0.0
 (Enter /dades/curu/g16A03_MST/g16/l401.exe)
 ExpMin= 1.17D-01 ExpMax= 2.19D+04 ExpMxC= 3.30D+03 IAcc=3 IRadAn=         5 AccDes= 0.00D+00
 Harris functional with IExCor=  402 and IRadAn=       5 diagonalized for initial guess.
 HarFok:  IExCor=  402 AccDes= 0.00D+00 IRadAn=         5 IDoV= 1 UseB2=F ITyADJ=14
 ICtDFT=  3500011 ScaDFX=  1.000000  1.000000  1.000000  1.000000
 FoFCou: FMM=F IPFlag=           0 FMFlag=      100000 FMFlg1=           0
         NFxFlg=           0 DoJE=T BraDBF=F KetDBF=T FulRan=T
         wScrn=  0.000000 ICntrl=       500 IOpCl=  0 I1Cent=   200000004 NGrid=           0
         NMat0=    1 NMatS0=      1 NMatT0=    0 NMatD0=    1 NMtDS0=    0 NMtDT0=    0
 Petite list used in FoFCou.
 Harris En= -1212.45005736712    
 JPrj=0 DoOrth=F DoCkMO=F.
 Leave Link  401 at Sun Jul 18 16:06:13 2021, MaxMem=   104857600 cpu:              25.2 elap:               6.4
 (Enter /dades/curu/g16A03_MST/g16/l502.exe)
 Integral symmetry usage will be decided dynamically.
 Closed shell SCF:
 Using DIIS extrapolation, IDIIS=  1040.
 NGot=   104857600 LenX=   104651201 LenY=   104550271
 Requested convergence on RMS density matrix=1.00D-08 within 128 cycles.
 Requested convergence on MAX density matrix=1.00D-06.
 Requested convergence on             energy=1.00D-06.
 No special actions if energy rises.
 Fock matrices will be formed incrementally for  20 cycles.

 Cycle   1  Pass 1  IDiag  1:
 FoFJK:  IHMeth= 1 ICntrl=       0 DoSepK=F KAlg= 0 I1Cent=           0 FoldK=F
 IRaf= 710000000 NMat=       1 IRICut=       1 DoRegI=T DoRafI=F ISym2E= 0 IDoP0=0 IntGTp=1.
 FoFCou: FMM=F IPFlag=           0 FMFlag=      100000 FMFlg1=           0
         NFxFlg=           0 DoJE=F BraDBF=F KetDBF=F FulRan=T
         wScrn=  0.000000 ICntrl=         0 IOpCl=  0 I1Cent=           0 NGrid=           0
         NMat0=    1 NMatS0=      1 NMatT0=    0 NMatD0=    1 NMtDS0=    0 NMtDT0=    0
 Symmetry not used in FoFCou.
 Inv3:  Mode=1 IEnd=    27252588.
 Iteration    1 A*A^-1 deviation from unit magnitude is 4.66D-15 for   3002.
 Iteration    1 A*A^-1 deviation from orthogonality  is 2.19D-15 for   1712    182.
 Iteration    1 A^-1*A deviation from unit magnitude is 4.88D-15 for   3002.
 Iteration    1 A^-1*A deviation from orthogonality  is 1.84D-15 for   2736   1083.
 E= -1212.04104369573    
 DIIS: error= 2.77D-02 at cycle   1 NSaved=   1.
 NSaved= 1 IEnMin= 1 EnMin= -1212.04104369573     IErMin= 1 ErrMin= 2.77D-02
 ErrMax= 2.77D-02  0.00D+00 EMaxC= 1.00D-01 BMatC= 5.45D-01 BMatP= 5.45D-01
 IDIUse=3 WtCom= 7.23D-01 WtEn= 2.77D-01
 Coeff-Com:  0.100D+01
 Coeff-En:   0.100D+01
 Coeff:      0.100D+01
 Gap=     0.086 Goal=   None    Shift=    0.000
 GapD=    0.086 DampG=0.500 DampE=0.500 DampFc=0.2500 IDamp=-1.
 Damping current iteration by 2.50D-01
 RMSDP=7.16D-03 MaxDP=3.60D-01              OVMax= 6.75D-01

 Cycle   2  Pass 1  IDiag  1:
 RMSU=  1.77D-03    CP:  9.88D-01
 E= -1212.15614600270     Delta-E=       -0.115102306962 Rises=F Damp=T
 DIIS: error= 1.40D-02 at cycle   2 NSaved=   2.
 NSaved= 2 IEnMin= 2 EnMin= -1212.15614600270     IErMin= 2 ErrMin= 1.40D-02
 ErrMax= 1.40D-02  0.00D+00 EMaxC= 1.00D-01 BMatC= 1.25D-01 BMatP= 5.45D-01
 IDIUse=3 WtCom= 8.60D-01 WtEn= 1.40D-01
 Coeff-Com: -0.313D+00 0.131D+01
 Coeff-En:   0.216D+00 0.784D+00
 Coeff:     -0.239D+00 0.124D+01
 Gap=    -0.219 Goal=   None    Shift=    0.000
 RMSDP=2.78D-03 MaxDP=1.19D-01 DE=-1.15D-01 OVMax= 7.81D-01

 Cycle   3  Pass 1  IDiag  1:
 RMSU=  2.75D-03    CP:  9.68D-01  1.02D+00
 E= -1212.22698304646     Delta-E=       -0.070837043763 Rises=F Damp=F
 DIIS: error= 4.76D-02 at cycle   3 NSaved=   3.
 NSaved= 3 IEnMin= 3 EnMin= -1212.22698304646     IErMin= 2 ErrMin= 1.40D-02
 ErrMax= 4.76D-02  0.00D+00 EMaxC= 1.00D-01 BMatC= 3.59D-01 BMatP= 1.25D-01
 IDIUse=2 WtCom= 0.00D+00 WtEn= 1.00D+00
 Coeff-En:   0.000D+00 0.427D+00 0.573D+00
 Coeff:      0.000D+00 0.427D+00 0.573D+00
 Gap=     0.081 Goal=   None    Shift=    0.000
 RMSDP=5.08D-03 MaxDP=3.79D-01 DE=-7.08D-02 OVMax= 9.57D-01

 Cycle   4  Pass 1  IDiag  1:
 RMSU=  2.14D-03    CP:  9.63D-01  2.53D+00 -3.62D-01
 E= -1210.82985811772     Delta-E=        1.397124928742 Rises=F Damp=F
 DIIS: error= 9.55D-02 at cycle   4 NSaved=   4.
 NSaved= 4 IEnMin= 3 EnMin= -1212.22698304646     IErMin= 2 ErrMin= 1.40D-02
 ErrMax= 9.55D-02  0.00D+00 EMaxC= 1.00D-01 BMatC= 1.09D+00 BMatP= 1.25D-01
 IDIUse=2 WtCom= 0.00D+00 WtEn= 1.00D+00
 EnCoef did     1 forward-backward iterations
 Coeff-En:   0.825D-01 0.000D+00 0.695D+00 0.223D+00
 Coeff:      0.825D-01 0.000D+00 0.695D+00 0.223D+00
 Gap=    -0.073 Goal=   None    Shift=    0.000
 RMSDP=4.57D-03 MaxDP=2.64D-01 DE= 1.40D+00 OVMax= 8.06D-01

 Cycle   5  Pass 1  IDiag  1:
 RMSU=  1.74D-03    CP:  9.79D-01  7.61D-01  3.71D-01  9.32D-02
 E= -1212.50986742015     Delta-E=       -1.680009302430 Rises=F Damp=F
 DIIS: error= 1.21D-02 at cycle   5 NSaved=   5.
 NSaved= 5 IEnMin= 5 EnMin= -1212.50986742015     IErMin= 5 ErrMin= 1.21D-02
 ErrMax= 1.21D-02  0.00D+00 EMaxC= 1.00D-01 BMatC= 4.93D-02 BMatP= 1.25D-01
 IDIUse=3 WtCom= 8.79D-01 WtEn= 1.21D-01
 Coeff-Com: -0.171D+00 0.417D+00 0.288D+00 0.157D-01 0.450D+00
 Coeff-En:   0.000D+00 0.000D+00 0.676D-01 0.000D+00 0.932D+00
 Coeff:     -0.150D+00 0.367D+00 0.261D+00 0.138D-01 0.508D+00
 Gap=     0.088 Goal=   None    Shift=    0.000
 RMSDP=1.01D-03 MaxDP=4.75D-02 DE=-1.68D+00 OVMax= 6.59D-02

 Cycle   6  Pass 1  IDiag  1:
 RMSU=  6.72D-04    CP:  9.76D-01  8.16D-01  5.36D-01  6.78D-02  6.63D-01
 E= -1212.53425696685     Delta-E=       -0.024389546706 Rises=F Damp=F
 DIIS: error= 1.04D-02 at cycle   6 NSaved=   6.
 NSaved= 6 IEnMin= 6 EnMin= -1212.53425696685     IErMin= 6 ErrMin= 1.04D-02
 ErrMax= 1.04D-02  0.00D+00 EMaxC= 1.00D-01 BMatC= 2.14D-02 BMatP= 4.93D-02
 IDIUse=3 WtCom= 8.96D-01 WtEn= 1.04D-01
 Coeff-Com: -0.143D+00 0.222D+00 0.505D-01-0.111D-01 0.344D+00 0.537D+00
 Coeff-En:   0.000D+00 0.000D+00 0.000D+00 0.000D+00 0.314D+00 0.686D+00
 Coeff:     -0.128D+00 0.199D+00 0.452D-01-0.993D-02 0.341D+00 0.553D+00
 Gap=     0.077 Goal=   None    Shift=    0.000
 RMSDP=4.81D-04 MaxDP=2.22D-02 DE=-2.44D-02 OVMax= 3.22D-02

 Cycle   7  Pass 1  IDiag  1:
 RMSU=  1.97D-04    CP:  9.77D-01  8.86D-01  4.87D-01  2.18D-02  8.53D-01
                    CP:  7.08D-01
 E= -1212.55258541847     Delta-E=       -0.018328451614 Rises=F Damp=F
 DIIS: error= 1.12D-03 at cycle   7 NSaved=   7.
 NSaved= 7 IEnMin= 7 EnMin= -1212.55258541847     IErMin= 7 ErrMin= 1.12D-03
 ErrMax= 1.12D-03  0.00D+00 EMaxC= 1.00D-01 BMatC= 7.17D-04 BMatP= 2.14D-02
 IDIUse=3 WtCom= 9.89D-01 WtEn= 1.12D-02
 Coeff-Com: -0.433D-01 0.585D-01-0.204D-01 0.437D-04 0.910D-01 0.265D+00
 Coeff-Com:  0.649D+00
 Coeff-En:   0.000D+00 0.000D+00 0.000D+00 0.000D+00 0.000D+00 0.000D+00
 Coeff-En:   0.100D+01
 Coeff:     -0.428D-01 0.579D-01-0.202D-01 0.432D-04 0.900D-01 0.262D+00
 Coeff:      0.653D+00
 Gap=     0.076 Goal=   None    Shift=    0.000
 RMSDP=1.27D-04 MaxDP=6.61D-03 DE=-1.83D-02 OVMax= 1.18D-02

 Cycle   8  Pass 1  IDiag  1:
 RMSU=  7.92D-05    CP:  9.77D-01  8.68D-01  4.72D-01  3.49D-02  8.68D-01
                    CP:  8.05D-01  8.23D-01
 E= -1212.55324095526     Delta-E=       -0.000655536790 Rises=F Damp=F
 DIIS: error= 3.37D-04 at cycle   8 NSaved=   8.
 NSaved= 8 IEnMin= 8 EnMin= -1212.55324095526     IErMin= 8 ErrMin= 3.37D-04
 ErrMax= 3.37D-04  0.00D+00 EMaxC= 1.00D-01 BMatC= 1.53D-04 BMatP= 7.17D-04
 IDIUse=3 WtCom= 9.97D-01 WtEn= 3.37D-03
 Coeff-Com: -0.721D-02 0.893D-02-0.253D-01 0.131D-02-0.114D-01 0.670D-01
 Coeff-Com:  0.417D+00 0.549D+00
 Coeff-En:   0.000D+00 0.000D+00 0.000D+00 0.000D+00 0.000D+00 0.000D+00
 Coeff-En:   0.242D-01 0.976D+00
 Coeff:     -0.718D-02 0.890D-02-0.252D-01 0.131D-02-0.114D-01 0.668D-01
 Coeff:      0.416D+00 0.551D+00
 Gap=     0.076 Goal=   None    Shift=    0.000
 RMSDP=5.30D-05 MaxDP=1.86D-03 DE=-6.56D-04 OVMax= 4.68D-03

 Cycle   9  Pass 1  IDiag  1:
 RMSU=  3.09D-05    CP:  9.77D-01  8.74D-01  4.67D-01  3.04D-02  8.78D-01
                    CP:  8.21D-01  9.41D-01  7.20D-01
 E= -1212.55340182889     Delta-E=       -0.000160873635 Rises=F Damp=F
 DIIS: error= 1.80D-04 at cycle   9 NSaved=   9.
 NSaved= 9 IEnMin= 9 EnMin= -1212.55340182889     IErMin= 9 ErrMin= 1.80D-04
 ErrMax= 1.80D-04  0.00D+00 EMaxC= 1.00D-01 BMatC= 1.04D-05 BMatP= 1.53D-04
 IDIUse=3 WtCom= 9.98D-01 WtEn= 1.80D-03
 Coeff-Com: -0.403D-03 0.110D-02-0.852D-02 0.462D-03-0.141D-01-0.147D-02
 Coeff-Com:  0.925D-01 0.246D+00 0.685D+00
 Coeff-En:   0.000D+00 0.000D+00 0.000D+00 0.000D+00 0.000D+00 0.000D+00
 Coeff-En:   0.000D+00 0.000D+00 0.100D+01
 Coeff:     -0.403D-03 0.110D-02-0.850D-02 0.461D-03-0.141D-01-0.147D-02
 Coeff:      0.923D-01 0.245D+00 0.685D+00
 Gap=     0.076 Goal=   None    Shift=    0.000
 RMSDP=1.74D-05 MaxDP=9.47D-04 DE=-1.61D-04 OVMax= 1.05D-03

 Cycle  10  Pass 1  IDiag  1:
 RMSU=  1.27D-05    CP:  9.77D-01  8.75D-01  4.66D-01  2.96D-02  8.79D-01
                    CP:  8.28D-01  9.62D-01  7.79D-01  7.34D-01
 E= -1212.55341085731     Delta-E=       -0.000009028420 Rises=F Damp=F
 DIIS: error= 3.93D-05 at cycle  10 NSaved=  10.
 NSaved=10 IEnMin=10 EnMin= -1212.55341085731     IErMin=10 ErrMin= 3.93D-05
 ErrMax= 3.93D-05  0.00D+00 EMaxC= 1.00D-01 BMatC= 1.83D-06 BMatP= 1.04D-05
 IDIUse=1 WtCom= 1.00D+00 WtEn= 0.00D+00
 Coeff-Com: -0.450D-03 0.110D-02-0.964D-03 0.702D-04-0.306D-02-0.543D-02
 Coeff-Com: -0.618D-02 0.491D-01 0.355D+00 0.611D+00
 Coeff:     -0.450D-03 0.110D-02-0.964D-03 0.702D-04-0.306D-02-0.543D-02
 Coeff:     -0.618D-02 0.491D-01 0.355D+00 0.611D+00
 Gap=     0.076 Goal=   None    Shift=    0.000
 RMSDP=7.96D-06 MaxDP=2.84D-04 DE=-9.03D-06 OVMax= 1.11D-03

 Cycle  11  Pass 1  IDiag  1:
 RMSU=  4.67D-06    CP:  9.77D-01  8.75D-01  4.66D-01  2.96D-02  8.80D-01
                    CP:  8.29D-01  9.59D-01  7.87D-01  8.59D-01  6.25D-01
 E= -1212.55341281477     Delta-E=       -0.000001957459 Rises=F Damp=F
 DIIS: error= 2.44D-05 at cycle  11 NSaved=  11.
 NSaved=11 IEnMin=11 EnMin= -1212.55341281477     IErMin=11 ErrMin= 2.44D-05
 ErrMax= 2.44D-05  0.00D+00 EMaxC= 1.00D-01 BMatC= 2.74D-07 BMatP= 1.83D-06
 IDIUse=1 WtCom= 1.00D+00 WtEn= 0.00D+00
 Coeff-Com: -0.110D-03 0.302D-03 0.167D-03-0.373D-06-0.506D-03-0.341D-02
 Coeff-Com: -0.136D-01 0.146D-02 0.125D+00 0.360D+00 0.530D+00
 Coeff:     -0.110D-03 0.302D-03 0.167D-03-0.373D-06-0.506D-03-0.341D-02
 Coeff:     -0.136D-01 0.146D-02 0.125D+00 0.360D+00 0.530D+00
 Gap=     0.076 Goal=   None    Shift=    0.000
 RMSDP=2.08D-06 MaxDP=8.85D-05 DE=-1.96D-06 OVMax= 1.32D-04

 Cycle  12  Pass 1  IDiag  1:
 RMSU=  1.23D-06    CP:  9.77D-01  8.75D-01  4.66D-01  2.97D-02  8.80D-01
                    CP:  8.29D-01  9.60D-01  7.93D-01  8.72D-01  7.01D-01
                    CP:  7.82D-01
 E= -1212.55341306943     Delta-E=       -0.000000254657 Rises=F Damp=F
 DIIS: error= 4.44D-06 at cycle  12 NSaved=  12.
 NSaved=12 IEnMin=12 EnMin= -1212.55341306943     IErMin=12 ErrMin= 4.44D-06
 ErrMax= 4.44D-06  0.00D+00 EMaxC= 1.00D-01 BMatC= 2.03D-08 BMatP= 2.74D-07
 IDIUse=1 WtCom= 1.00D+00 WtEn= 0.00D+00
 Coeff-Com: -0.122D-04 0.241D-04 0.221D-03-0.337D-05 0.223D-03-0.103D-02
 Coeff-Com: -0.616D-02-0.648D-02 0.182D-01 0.135D+00 0.261D+00 0.599D+00
 Coeff:     -0.122D-04 0.241D-04 0.221D-03-0.337D-05 0.223D-03-0.103D-02
 Coeff:     -0.616D-02-0.648D-02 0.182D-01 0.135D+00 0.261D+00 0.599D+00
 Gap=     0.076 Goal=   None    Shift=    0.000
 RMSDP=7.26D-07 MaxDP=3.05D-05 DE=-2.55D-07 OVMax= 9.69D-05

 Cycle  13  Pass 1  IDiag  1:
 RMSU=  4.64D-07    CP:  9.77D-01  8.75D-01  4.66D-01  2.97D-02  8.80D-01
                    CP:  8.29D-01  9.61D-01  7.94D-01  8.76D-01  7.16D-01
                    CP:  8.44D-01  7.89D-01
 E= -1212.55341308810     Delta-E=       -0.000000018675 Rises=F Damp=F
 DIIS: error= 2.04D-06 at cycle  13 NSaved=  13.
 NSaved=13 IEnMin=13 EnMin= -1212.55341308810     IErMin=13 ErrMin= 2.04D-06
 ErrMax= 2.04D-06  0.00D+00 EMaxC= 1.00D-01 BMatC= 4.11D-09 BMatP= 2.03D-08
 IDIUse=1 WtCom= 1.00D+00 WtEn= 0.00D+00
 Coeff-Com:  0.684D-05-0.113D-04 0.118D-03-0.204D-05 0.173D-03-0.212D-03
 Coeff-Com: -0.183D-02-0.389D-02-0.361D-02 0.434D-01 0.732D-01 0.342D+00
 Coeff-Com:  0.551D+00
 Coeff:      0.684D-05-0.113D-04 0.118D-03-0.204D-05 0.173D-03-0.212D-03
 Coeff:     -0.183D-02-0.389D-02-0.361D-02 0.434D-01 0.732D-01 0.342D+00
 Coeff:      0.551D+00
 Gap=     0.076 Goal=   None    Shift=    0.000
 RMSDP=2.73D-07 MaxDP=1.20D-05 DE=-1.87D-08 OVMax= 2.34D-05

 Cycle  14  Pass 1  IDiag  1:
 RMSU=  1.83D-07    CP:  9.77D-01  8.75D-01  4.66D-01  2.96D-02  8.80D-01
                    CP:  8.29D-01  9.61D-01  7.94D-01  8.76D-01  7.25D-01
                    CP:  8.49D-01  8.63D-01  7.71D-01
 E= -1212.55341309209     Delta-E=       -0.000000003992 Rises=F Damp=F
 DIIS: error= 1.47D-06 at cycle  14 NSaved=  14.
 NSaved=14 IEnMin=14 EnMin= -1212.55341309209     IErMin=14 ErrMin= 1.47D-06
 ErrMax= 1.47D-06  0.00D+00 EMaxC= 1.00D-01 BMatC= 7.25D-10 BMatP= 4.11D-09
 IDIUse=1 WtCom= 1.00D+00 WtEn= 0.00D+00
 Coeff-Com:  0.174D-04-0.221D-04 0.357D-04 0.308D-06 0.426D-04 0.271D-04
 Coeff-Com:  0.894D-04-0.112D-02-0.493D-02 0.637D-02-0.616D-02 0.102D+00
 Coeff-Com:  0.293D+00 0.612D+00
 Coeff:      0.174D-04-0.221D-04 0.357D-04 0.308D-06 0.426D-04 0.271D-04
 Coeff:      0.894D-04-0.112D-02-0.493D-02 0.637D-02-0.616D-02 0.102D+00
 Coeff:      0.293D+00 0.612D+00
 Gap=     0.076 Goal=   None    Shift=    0.000
 RMSDP=1.17D-07 MaxDP=3.66D-06 DE=-3.99D-09 OVMax= 1.43D-05

 Cycle  15  Pass 1  IDiag  1:
 RMSU=  7.15D-08    CP:  9.77D-01  8.75D-01  4.66D-01  2.96D-02  8.80D-01
                    CP:  8.29D-01  9.61D-01  7.95D-01  8.76D-01  7.28D-01
                    CP:  8.58D-01  8.93D-01  8.83D-01  7.90D-01
 E= -1212.55341309254     Delta-E=       -0.000000000450 Rises=F Damp=F
 DIIS: error= 4.69D-07 at cycle  15 NSaved=  15.
 NSaved=15 IEnMin=15 EnMin= -1212.55341309254     IErMin=15 ErrMin= 4.69D-07
 ErrMax= 4.69D-07  0.00D+00 EMaxC= 1.00D-01 BMatC= 1.70D-10 BMatP= 7.25D-10
 IDIUse=1 WtCom= 1.00D+00 WtEn= 0.00D+00
 Coeff-Com:  0.190D-04-0.273D-04-0.133D-05 0.848D-06-0.133D-04 0.617D-04
 Coeff-Com:  0.525D-03 0.998D-04-0.281D-02-0.518D-02-0.219D-01-0.655D-02
 Coeff-Com:  0.603D-01 0.366D+00 0.610D+00
 Coeff:      0.190D-04-0.273D-04-0.133D-05 0.848D-06-0.133D-04 0.617D-04
 Coeff:      0.525D-03 0.998D-04-0.281D-02-0.518D-02-0.219D-01-0.655D-02
 Coeff:      0.603D-01 0.366D+00 0.610D+00
 Gap=     0.076 Goal=   None    Shift=    0.000
 RMSDP=5.34D-08 MaxDP=1.73D-06 DE=-4.50D-10 OVMax= 3.26D-06

 Cycle  16  Pass 1  IDiag  1:
 RMSU=  2.57D-08    CP:  9.77D-01  8.75D-01  4.66D-01  2.96D-02  8.80D-01
                    CP:  8.30D-01  9.61D-01  7.95D-01  8.77D-01  7.29D-01
                    CP:  8.59D-01  9.07D-01  8.99D-01  9.27D-01  6.65D-01
 E= -1212.55341309268     Delta-E=       -0.000000000139 Rises=F Damp=F
 DIIS: error= 4.01D-07 at cycle  16 NSaved=  16.
 NSaved=16 IEnMin=16 EnMin= -1212.55341309268     IErMin=16 ErrMin= 4.01D-07
 ErrMax= 4.01D-07  0.00D+00 EMaxC= 1.00D-01 BMatC= 3.12D-11 BMatP= 1.70D-10
 IDIUse=1 WtCom= 1.00D+00 WtEn= 0.00D+00
 Coeff-Com:  0.783D-05-0.109D-04-0.225D-05 0.443D-06-0.922D-05 0.250D-04
 Coeff-Com:  0.255D-03 0.223D-03-0.486D-03-0.213D-02-0.835D-02-0.118D-01
 Coeff-Com: -0.865D-02 0.920D-01 0.304D+00 0.635D+00
 Coeff:      0.783D-05-0.109D-04-0.225D-05 0.443D-06-0.922D-05 0.250D-04
 Coeff:      0.255D-03 0.223D-03-0.486D-03-0.213D-02-0.835D-02-0.118D-01
 Coeff:     -0.865D-02 0.920D-01 0.304D+00 0.635D+00
 Gap=     0.076 Goal=   None    Shift=    0.000
 RMSDP=2.03D-08 MaxDP=7.21D-07 DE=-1.39D-10 OVMax= 1.48D-06

 Cycle  17  Pass 1  IDiag  1:
 RMSU=  8.94D-09    CP:  9.77D-01  8.75D-01  4.66D-01  2.96D-02  8.80D-01
                    CP:  8.29D-01  9.61D-01  7.95D-01  8.77D-01  7.29D-01
                    CP:  8.60D-01  9.10D-01  9.09D-01  9.40D-01  7.70D-01
                    CP:  8.07D-01
 E= -1212.55341309275     Delta-E=       -0.000000000070 Rises=F Damp=F
 DIIS: error= 1.37D-07 at cycle  17 NSaved=  17.
 NSaved=17 IEnMin=17 EnMin= -1212.55341309275     IErMin=17 ErrMin= 1.37D-07
 ErrMax= 1.37D-07  0.00D+00 EMaxC= 1.00D-01 BMatC= 4.69D-12 BMatP= 3.12D-11
 IDIUse=1 WtCom= 1.00D+00 WtEn= 0.00D+00
 Coeff-Com:  0.246D-05-0.314D-05-0.145D-05 0.132D-06-0.479D-05 0.865D-05
 Coeff-Com:  0.107D-03 0.166D-03 0.125D-03-0.763D-03-0.242D-02-0.762D-02
 Coeff-Com: -0.182D-01-0.365D-03 0.108D+00 0.383D+00 0.538D+00
 Coeff:      0.246D-05-0.314D-05-0.145D-05 0.132D-06-0.479D-05 0.865D-05
 Coeff:      0.107D-03 0.166D-03 0.125D-03-0.763D-03-0.242D-02-0.762D-02
 Coeff:     -0.182D-01-0.365D-03 0.108D+00 0.383D+00 0.538D+00
 Gap=     0.076 Goal=   None    Shift=    0.000
 RMSDP=8.66D-09 MaxDP=3.22D-07 DE=-7.05D-11 OVMax= 6.64D-07

 Error on total polarization charges =  0.01556
 SCF Done:  E(RB3LYP) =  -1212.55341309     A.U. after   17 cycles
            NFock= 17  Conv=0.87D-08     -V/T= 2.0059
 KE= 1.205442464489D+03 PE=-5.757768875397D+03 EE= 1.871899952181D+03
 Leave Link  502 at Sun Jul 18 16:10:22 2021, MaxMem=   104857600 cpu:             968.4 elap:             249.6
 (Enter /dades/curu/g16A03_MST/g16/l601.exe)
 Copying SCF densities to generalized density rwf, IOpCl= 0 IROHF=0.

 **********************************************************************

            Population analysis using the SCF density.

 **********************************************************************

 Orbital symmetries:
       Occupied  (A) (A) (A) (A) (A) (A) (A) (A) (A) (A) (A) (A)
                 (A) (A) (A) (A) (A) (A) (A) (A) (A) (A) (A) (A)
                 (A) (A) (A) (A) (A) (A) (A) (A) (A) (A) (A) (A)
                 (A) (A) (A) (A) (A) (A) (A) (A) (A) (A) (A) (A)
                 (A) (A) (A) (A) (A) (A) (A) (A) (A) (A) (A) (A)
                 (A) (A) (A) (A) (A) (A) (A) (A) (A) (A) (A) (A)
       Virtual   (A) (A) (A) (A) (A) (A) (A) (A) (A) (A) (A) (A)
                 (A) (A) (A) (A) (A) (A) (A) (A) (A) (A) (A) (A)
                 (A) (A) (A) (A) (A) (A) (A) (A) (A) (A) (A) (A)
                 (A) (A) (A) (A) (A) (A) (A) (A) (A) (A) (A) (A)
                 (A) (A) (A) (A) (A) (A) (A) (A) (A) (A) (A) (A)
                 (A) (A) (A) (A) (A) (A) (A) (A) (A) (A) (A) (A)
                 (A) (A) (A) (A) (A) (A) (A) (A) (A) (A) (A) (A)
                 (A) (A) (A) (A) (A) (A) (A) (A) (A) (A) (A) (A)
                 (A) (A) (A) (A) (A) (A) (A) (A) (A) (A) (A) (A)
                 (A) (A) (A) (A) (A) (A) (A) (A) (A) (A) (A) (A)
                 (A) (A) (A) (A) (A) (A) (A) (A) (A) (A) (A) (A)
                 (A) (A) (A) (A) (A) (A) (A) (A) (A) (A) (A) (A)
                 (A) (A) (A) (A) (A) (A) (A) (A) (A) (A) (A) (A)
                 (A) (A) (A) (A) (A) (A) (A) (A) (A) (A) (A) (A)
                 (A) (A) (A) (A) (A) (A) (A) (A) (A) (A) (A) (A)
                 (A) (A) (A) (A) (A) (A) (A) (A) (A) (A) (A) (A)
                 (A) (A) (A) (A) (A) (A) (A) (A) (A) (A) (A) (A)
                 (A) (A) (A) (A) (A) (A) (A) (A) (A) (A) (A) (A)
                 (A) (A) (A) (A) (A) (A) (A) (A) (A) (A) (A) (A)
                 (A) (A) (A) (A) (A) (A) (A) (A) (A) (A) (A) (A)
                 (A) (A) (A) (A) (A)
 The electronic state is 1-A.
 Alpha  occ. eigenvalues --  -88.94542 -19.11148 -14.44859 -14.38036 -14.37886
 Alpha  occ. eigenvalues --  -14.37390 -14.36771 -10.34930 -10.32920 -10.29652
 Alpha  occ. eigenvalues --  -10.26573 -10.25044 -10.24662 -10.21992 -10.20695
 Alpha  occ. eigenvalues --  -10.20380 -10.20197 -10.20179 -10.19761  -8.00878
 Alpha  occ. eigenvalues --   -5.97255  -5.96859  -5.96604  -1.13931  -1.03379
 Alpha  occ. eigenvalues --   -1.02260  -0.97379  -0.94255  -0.91522  -0.88439
 Alpha  occ. eigenvalues --   -0.84023  -0.81678  -0.78243  -0.76269  -0.74020
 Alpha  occ. eigenvalues --   -0.70912  -0.67430  -0.65391  -0.63378  -0.61564
 Alpha  occ. eigenvalues --   -0.59662  -0.59321  -0.58936  -0.55442  -0.55133
 Alpha  occ. eigenvalues --   -0.54869  -0.50716  -0.48930  -0.48602  -0.47398
 Alpha  occ. eigenvalues --   -0.47333  -0.46277  -0.45541  -0.44557  -0.43340
 Alpha  occ. eigenvalues --   -0.41774  -0.41315  -0.40376  -0.39684  -0.39591
 Alpha  occ. eigenvalues --   -0.37815  -0.37187  -0.35888  -0.35414  -0.31736
 Alpha  occ. eigenvalues --   -0.31488  -0.30722  -0.29910  -0.28313  -0.25526
 Alpha  occ. eigenvalues --   -0.25045  -0.23667
 Alpha virt. eigenvalues --   -0.16087  -0.05089  -0.02811  -0.01919  -0.00358
 Alpha virt. eigenvalues --    0.02368   0.04457   0.06519   0.07593   0.07766
 Alpha virt. eigenvalues --    0.09253   0.10456   0.10886   0.12077   0.12928
 Alpha virt. eigenvalues --    0.13315   0.14071   0.14865   0.14956   0.15652
 Alpha virt. eigenvalues --    0.16901   0.17382   0.18140   0.19473   0.20261
 Alpha virt. eigenvalues --    0.22076   0.23435   0.25557   0.26811   0.27622
 Alpha virt. eigenvalues --    0.28006   0.29673   0.30554   0.31765   0.33072
 Alpha virt. eigenvalues --    0.33925   0.34853   0.36063   0.36534   0.38792
 Alpha virt. eigenvalues --    0.39756   0.41051   0.43855   0.45261   0.47479
 Alpha virt. eigenvalues --    0.48885   0.49791   0.50816   0.52120   0.52313
 Alpha virt. eigenvalues --    0.52934   0.53574   0.53984   0.55298   0.55727
 Alpha virt. eigenvalues --    0.56757   0.56974   0.57922   0.58722   0.59446
 Alpha virt. eigenvalues --    0.60108   0.60735   0.61303   0.61795   0.63416
 Alpha virt. eigenvalues --    0.63812   0.64847   0.66107   0.67308   0.67965
 Alpha virt. eigenvalues --    0.68371   0.69546   0.71502   0.73420   0.73751
 Alpha virt. eigenvalues --    0.74288   0.74979   0.75509   0.76832   0.77726
 Alpha virt. eigenvalues --    0.78686   0.80516   0.80912   0.81476   0.81799
 Alpha virt. eigenvalues --    0.82471   0.83082   0.83626   0.84202   0.85006
 Alpha virt. eigenvalues --    0.85281   0.85869   0.86472   0.87818   0.88145
 Alpha virt. eigenvalues --    0.89631   0.90171   0.91143   0.91492   0.92249
 Alpha virt. eigenvalues --    0.92966   0.94311   0.94720   0.94806   0.96624
 Alpha virt. eigenvalues --    0.98160   0.99178   0.99746   1.00502   1.02368
 Alpha virt. eigenvalues --    1.03145   1.03930   1.05549   1.07197   1.07638
 Alpha virt. eigenvalues --    1.10822   1.12030   1.15215   1.15759   1.16608
 Alpha virt. eigenvalues --    1.17975   1.18937   1.23258   1.25478   1.26705
 Alpha virt. eigenvalues --    1.27392   1.29559   1.32143   1.32637   1.36622
 Alpha virt. eigenvalues --    1.37576   1.37971   1.39435   1.39899   1.42426
 Alpha virt. eigenvalues --    1.46204   1.47656   1.49175   1.49481   1.52045
 Alpha virt. eigenvalues --    1.54378   1.55595   1.57378   1.59078   1.60252
 Alpha virt. eigenvalues --    1.64207   1.65109   1.67505   1.70967   1.75184
 Alpha virt. eigenvalues --    1.76190   1.76335   1.77625   1.79317   1.80291
 Alpha virt. eigenvalues --    1.81982   1.83132   1.84612   1.85574   1.86498
 Alpha virt. eigenvalues --    1.88361   1.89675   1.90191   1.92789   1.93388
 Alpha virt. eigenvalues --    1.94928   1.96268   1.97879   2.00554   2.02690
 Alpha virt. eigenvalues --    2.05313   2.08888   2.10304   2.12725   2.12842
 Alpha virt. eigenvalues --    2.15061   2.15166   2.16334   2.17542   2.18585
 Alpha virt. eigenvalues --    2.19776   2.20171   2.21420   2.23195   2.24418
 Alpha virt. eigenvalues --    2.26380   2.29188   2.30222   2.30876   2.32326
 Alpha virt. eigenvalues --    2.34277   2.35259   2.36886   2.38370   2.41835
 Alpha virt. eigenvalues --    2.44164   2.46206   2.46555   2.48715   2.50589
 Alpha virt. eigenvalues --    2.54509   2.56972   2.58657   2.61186   2.62019
 Alpha virt. eigenvalues --    2.64137   2.64688   2.67288   2.68768   2.68971
 Alpha virt. eigenvalues --    2.73647   2.76388   2.77177   2.80545   2.81889
 Alpha virt. eigenvalues --    2.84335   2.88140   2.90943   2.93716   2.95824
 Alpha virt. eigenvalues --    2.97908   3.07733   3.13684   3.22036   3.27316
 Alpha virt. eigenvalues --    3.47471   3.76900   3.83813   3.92598   3.97680
 Alpha virt. eigenvalues --    4.07092   4.07784   4.10275   4.12161   4.13183
 Alpha virt. eigenvalues --    4.16552   4.17699   4.19286   4.26702   4.29649
 Alpha virt. eigenvalues --    4.34901   4.43161   4.50743   4.53698   4.76566
          Condensed to atoms (all electrons):
               1          2          3          4          5          6
     1  C    5.324456   0.343795   0.362936   0.360718   0.342052  -0.078632
     2  H    0.343795   0.554408  -0.026554  -0.026401  -0.026107   0.002650
     3  H    0.362936  -0.026554   0.504544  -0.018316  -0.019398   0.002228
     4  H    0.360718  -0.026401  -0.018316   0.506859  -0.018820   0.000220
     5  C    0.342052  -0.026107  -0.019398  -0.018820   4.319578   0.599137
     6  O   -0.078632   0.002650   0.002228   0.000220   0.599137   8.132372
     7  N   -0.118701   0.005698   0.003579   0.000207   0.253463  -0.114355
     8  H    0.001558   0.002382  -0.000136   0.000059  -0.017019   0.004075
     9  C    0.005859  -0.000039  -0.000092  -0.000130  -0.017275   0.003186
    10  C   -0.000421   0.000042   0.000003   0.000003   0.002659  -0.000212
    11  C    0.000001   0.000000  -0.000000   0.000000  -0.000063  -0.000010
    12  C    0.000000   0.000000   0.000000  -0.000000  -0.000008  -0.000002
    13  H    0.000000  -0.000000  -0.000000  -0.000000  -0.000000   0.000000
    14  H   -0.000000  -0.000000   0.000000   0.000000   0.000000   0.000000
    15  H   -0.000042   0.000009   0.000000   0.000001   0.000235  -0.000001
    16  C    0.000424  -0.000022   0.000002  -0.000008  -0.001353   0.005330
    17  H   -0.000013  -0.000000   0.000002  -0.000011   0.003406   0.004617
    18  C    0.000006  -0.000000  -0.000000  -0.000000   0.000307   0.000367
    19  C   -0.000000  -0.000000  -0.000000   0.000000   0.000001   0.000010
    20  N    0.000000  -0.000000  -0.000000  -0.000000   0.000000   0.000000
    21  C   -0.000000   0.000000   0.000000   0.000000  -0.000004  -0.000023
    22  H    0.000000  -0.000000   0.000000  -0.000000   0.000004   0.000050
    23  S   -0.000000  -0.000000   0.000000   0.000000  -0.000000  -0.000000
    24  C   -0.000000   0.000000   0.000000   0.000000  -0.000000  -0.000000
    25  N   -0.000000   0.000000   0.000000  -0.000000   0.000000  -0.000000
    26  C   -0.000000   0.000000  -0.000000   0.000000  -0.000000  -0.000000
    27  N   -0.000000   0.000000   0.000000  -0.000000  -0.000000  -0.000000
    28  H    0.000000  -0.000000  -0.000000  -0.000000   0.000000   0.000000
    29  H   -0.000000   0.000000  -0.000000   0.000000  -0.000000   0.000000
    30  N    0.000000   0.000000   0.000000   0.000000  -0.000000  -0.000000
    31  H    0.000000  -0.000000   0.000000  -0.000000   0.000000   0.000000
    32  H   -0.000000   0.000000   0.000000   0.000000  -0.000000  -0.000000
    33  H   -0.000000   0.000000   0.000000   0.000000  -0.000000  -0.000000
               7          8          9         10         11         12
     1  C   -0.118701   0.001558   0.005859  -0.000421   0.000001   0.000000
     2  H    0.005698   0.002382  -0.000039   0.000042   0.000000   0.000000
     3  H    0.003579  -0.000136  -0.000092   0.000003  -0.000000   0.000000
     4  H    0.000207   0.000059  -0.000130   0.000003   0.000000  -0.000000
     5  C    0.253463  -0.017019  -0.017275   0.002659  -0.000063  -0.000008
     6  O   -0.114355   0.004075   0.003186  -0.000212  -0.000010  -0.000002
     7  N    7.282303   0.293034   0.203106  -0.052658   0.006479   0.000305
     8  H    0.293034   0.375337  -0.022312  -0.004770  -0.000105   0.000011
     9  C    0.203106  -0.022312   4.535746   0.524757  -0.007293  -0.050159
    10  C   -0.052658  -0.004770   0.524757   4.990648   0.537476  -0.037447
    11  C    0.006479  -0.000105  -0.007293   0.537476   4.894396   0.490327
    12  C    0.000305   0.000011  -0.050159  -0.037447   0.490327   5.034427
    13  H    0.000006  -0.000000   0.000871   0.004736  -0.040591   0.352127
    14  H   -0.000103  -0.000007   0.003469  -0.034036   0.360356  -0.038581
    15  H   -0.008189   0.005116  -0.050043   0.350868  -0.042372   0.006181
    16  C   -0.057933   0.004175   0.534272  -0.068114  -0.061414  -0.049052
    17  H   -0.009816  -0.000061  -0.031498   0.007485   0.000054   0.007229
    18  C    0.003088   0.000026  -0.007473  -0.040075  -0.013534   0.517079
    19  C   -0.000151   0.000002   0.005835   0.001293   0.008957  -0.049581
    20  N    0.000000  -0.000000  -0.000064   0.000012   0.000241  -0.010437
    21  C    0.000009   0.000000   0.000218   0.000035  -0.000403   0.005659
    22  H   -0.000004   0.000000   0.000071   0.000001   0.000001  -0.000013
    23  S    0.000000   0.000000   0.000004  -0.000001   0.000017  -0.000103
    24  C   -0.000000   0.000000   0.000001   0.000000  -0.000001   0.000244
    25  N    0.000000  -0.000000  -0.000000  -0.000000  -0.000000   0.000001
    26  C   -0.000000   0.000000   0.000000   0.000000  -0.000000  -0.000006
    27  N   -0.000000   0.000000  -0.000000   0.000000  -0.000000  -0.000004
    28  H    0.000000  -0.000000  -0.000000   0.000000  -0.000000  -0.000034
    29  H    0.000000  -0.000000   0.000000  -0.000000   0.000000   0.000000
    30  N   -0.000000  -0.000000  -0.000000   0.000000   0.000000  -0.000000
    31  H    0.000000   0.000000   0.000000  -0.000000   0.000000   0.000000
    32  H   -0.000000   0.000000   0.000000   0.000000  -0.000000  -0.000000
    33  H   -0.000000   0.000000   0.000000   0.000000  -0.000000   0.000000
              13         14         15         16         17         18
     1  C    0.000000  -0.000000  -0.000042   0.000424  -0.000013   0.000006
     2  H   -0.000000  -0.000000   0.000009  -0.000022  -0.000000  -0.000000
     3  H   -0.000000   0.000000   0.000000   0.000002   0.000002  -0.000000
     4  H   -0.000000   0.000000   0.000001  -0.000008  -0.000011  -0.000000
     5  C   -0.000000   0.000000   0.000235  -0.001353   0.003406   0.000307
     6  O    0.000000   0.000000  -0.000001   0.005330   0.004617   0.000367
     7  N    0.000006  -0.000103  -0.008189  -0.057933  -0.009816   0.003088
     8  H   -0.000000  -0.000007   0.005116   0.004175  -0.000061   0.000026
     9  C    0.000871   0.003469  -0.050043   0.534272  -0.031498  -0.007473
    10  C    0.004736  -0.034036   0.350868  -0.068114   0.007485  -0.040075
    11  C   -0.040591   0.360356  -0.042372  -0.061414   0.000054  -0.013534
    12  C    0.352127  -0.038581   0.006181  -0.049052   0.007229   0.517079
    13  H    0.582889  -0.004379  -0.000181   0.006963  -0.000227  -0.051061
    14  H   -0.004379   0.556409  -0.006707   0.000946   0.000021   0.003089
    15  H   -0.000181  -0.006707   0.590427   0.008866  -0.000220   0.000616
    16  C    0.006963   0.000946   0.008866   5.098138   0.339389   0.497629
    17  H   -0.000227   0.000021  -0.000220   0.339389   0.577247  -0.048100
    18  C   -0.051061   0.003089   0.000616   0.497629  -0.048100   4.804338
    19  C   -0.016075  -0.000257   0.000002  -0.046469  -0.010796   0.335480
    20  N    0.014307  -0.000008   0.000000   0.003115  -0.000063  -0.049291
    21  C    0.001094   0.000002  -0.000000  -0.012919   0.007235  -0.059422
    22  H   -0.000031   0.000000  -0.000000   0.002142   0.001545  -0.007077
    23  S    0.000220  -0.000000  -0.000000   0.000643  -0.000222   0.007906
    24  C   -0.000557  -0.000000  -0.000000   0.000007  -0.000025   0.006372
    25  N   -0.000034   0.000000  -0.000000   0.000001  -0.000000  -0.000156
    26  C    0.000025   0.000000   0.000000  -0.000000   0.000000  -0.000029
    27  N   -0.000006  -0.000000   0.000000   0.000000   0.000000   0.000009
    28  H    0.000309  -0.000000  -0.000000   0.000000  -0.000000  -0.000007
    29  H    0.000000   0.000000   0.000000  -0.000000  -0.000000  -0.000000
    30  N    0.000000   0.000000  -0.000000   0.000000   0.000000  -0.000000
    31  H   -0.000000   0.000000   0.000000  -0.000000   0.000000  -0.000000
    32  H    0.000000   0.000000   0.000000   0.000000   0.000000   0.000000
    33  H   -0.000000   0.000000  -0.000000  -0.000000   0.000000   0.000001
              19         20         21         22         23         24
     1  C   -0.000000   0.000000  -0.000000   0.000000  -0.000000  -0.000000
     2  H   -0.000000  -0.000000   0.000000  -0.000000  -0.000000   0.000000
     3  H   -0.000000  -0.000000   0.000000   0.000000   0.000000   0.000000
     4  H    0.000000  -0.000000   0.000000  -0.000000   0.000000   0.000000
     5  C    0.000001   0.000000  -0.000004   0.000004  -0.000000  -0.000000
     6  O    0.000010   0.000000  -0.000023   0.000050  -0.000000  -0.000000
     7  N   -0.000151   0.000000   0.000009  -0.000004   0.000000  -0.000000
     8  H    0.000002  -0.000000   0.000000   0.000000   0.000000   0.000000
     9  C    0.005835  -0.000064   0.000218   0.000071   0.000004   0.000001
    10  C    0.001293   0.000012   0.000035   0.000001  -0.000001   0.000000
    11  C    0.008957   0.000241  -0.000403   0.000001   0.000017  -0.000001
[...]
 Alpha virt. eigenvalues --    3.77314   3.80437   3.82996   3.91091   3.93765
 Alpha virt. eigenvalues --    4.00514   4.09678   4.16921   4.21257   4.93568
          Condensed to atoms (all electrons):
               1          2          3          4          5          6
     1  C    4.883575   0.179445   0.388601   0.319830  -0.100472  -0.090544
     2  H    0.179445   1.074025  -0.105681  -0.055434   0.251989  -0.002750
     3  H    0.388601  -0.105681   0.758915  -0.039843  -0.106074   0.020944
     4  H    0.319830  -0.055434  -0.039843   0.699676   0.004127   0.001564
     5  C   -0.100472   0.251989  -0.106074   0.004127   5.813793   0.139283
     6  O   -0.090544  -0.002750   0.020944   0.001564   0.139283   8.805185
     7  N    0.011673  -0.167339   0.072925   0.024833   0.094880  -0.105992
     8  H   -0.077145   0.003079  -0.006575  -0.000911  -0.078071  -0.011234
     9  C   -0.009279  -0.043995  -0.007360  -0.020741  -0.753803   0.176956
    10  C   -0.122170  -0.046000   0.000967   0.003163  -0.625389   0.102605
    11  C   -0.027761  -0.001044  -0.001125  -0.000343  -0.060238   0.000535
    12  C    0.012951  -0.006207   0.000909   0.000336   0.168760  -0.005492
    13  H    0.000238  -0.000005  -0.000002  -0.000041  -0.005385   0.000489
    14  H   -0.001005   0.000073  -0.000049  -0.000020   0.006478  -0.000682
    15  H    0.010729  -0.001165   0.000809   0.000278  -0.004993   0.005285
    16  C    0.060211   0.052990   0.007078   0.001931   0.372459   0.011762
    17  H    0.004291   0.003418  -0.003699   0.000533   0.127644  -0.062130
    18  C   -0.023383   0.008856   0.000340  -0.004819   0.275825  -0.111568
    19  C    0.034407  -0.000009   0.001106   0.003175   0.000996   0.008312
    20  N    0.002051   0.000172  -0.000023   0.000180   0.029717  -0.000686
    21  C   -0.020960  -0.000302  -0.000209  -0.001821  -0.017368  -0.002565
    22  H   -0.001395   0.000109   0.000164  -0.000157   0.020092  -0.006058
    23  S   -0.000238   0.000024   0.000017  -0.000064   0.000381   0.001338
    24  C    0.000669  -0.000035   0.000049   0.000159   0.006157  -0.001575
    25  N    0.000001  -0.000002   0.000003  -0.000002  -0.000177   0.000046
    26  C   -0.000026  -0.000004   0.000002  -0.000003  -0.000559  -0.000026
    27  N   -0.000001   0.000001  -0.000001   0.000000   0.000151   0.000004
    28  H    0.000087  -0.000008   0.000007   0.000009   0.000285  -0.000026
    29  H   -0.000001   0.000000  -0.000000  -0.000000   0.000009  -0.000000
    30  N    0.000000   0.000000  -0.000000   0.000000   0.000001   0.000000
    31  H   -0.000000   0.000000  -0.000000  -0.000000  -0.000003  -0.000000
    32  H   -0.000000  -0.000000   0.000000   0.000000  -0.000003   0.000000
    33  H    0.000009   0.000001   0.000000   0.000001   0.000091   0.000003
               7          8          9         10         11         12
     1  C    0.011673  -0.077145  -0.009279  -0.122170  -0.027761   0.012951
     2  H   -0.167339   0.003079  -0.043995  -0.046000  -0.001044  -0.006207
     3  H    0.072925  -0.006575  -0.007360   0.000967  -0.001125   0.000909
     4  H    0.024833  -0.000911  -0.020741   0.003163  -0.000343   0.000336
     5  C    0.094880  -0.078071  -0.753803  -0.625389  -0.060238   0.168760
     6  O   -0.105992  -0.011234   0.176956   0.102605   0.000535  -0.005492
     7  N    8.105722   0.263299  -1.177029   1.152178  -0.600149   0.368049
     8  H    0.263299   0.996816   0.105043  -0.136149   0.032419   0.040195
     9  C   -1.177029   0.105043  20.974014  -9.324177   5.364137  -4.683947
    10  C    1.152178  -0.136149  -9.324177  20.246137  -6.031316   3.302702
    11  C   -0.600149   0.032419   5.364137  -6.031316  16.458624  -5.798762
    12  C    0.368049   0.040195  -4.683947   3.302702  -5.798762  21.980025
    13  H    0.002240  -0.003074   0.022524  -0.162355   0.450786  -1.565950
    14  H    0.007442   0.006807  -0.473949   0.631521  -1.222457   1.002144
    15  H   -0.244938   0.002632   1.742787  -2.082664   0.579535  -0.437666
    16  C    0.528446  -0.096812  -7.810299   4.174521  -5.351021  -0.212788
    17  H   -0.180650   0.003152   0.294287  -0.275446   0.121296  -0.116455
    18  C   -0.524943  -0.000012   2.356779  -6.039556   2.500387  -7.271493
    19  C    0.031819  -0.003998  -0.730380   0.612582  -1.107553  -1.483160
    20  N   -0.000457   0.001125  -0.105867   0.012424   0.039417   0.493055
    21  C   -0.018697   0.002897   0.517798  -0.440724   0.428003  -0.780224
    22  H   -0.003444   0.000969  -0.034496  -0.040056   0.025778   0.082657
    23  S    0.000837  -0.000280  -0.022973   0.021176  -0.038617   0.017856
    24  C   -0.006908   0.001020   0.123876  -0.059303   0.211947   0.010644
    25  N    0.000218  -0.000051  -0.010703   0.009067  -0.033024  -0.015737
    26  C   -0.000109  -0.000012   0.010954  -0.011381   0.002723  -0.117730
    27  N   -0.000025   0.000022   0.000520   0.004137   0.013082   0.037984
    28  H    0.000249   0.000051  -0.008944   0.006857  -0.000140   0.019458
    29  H   -0.000003  -0.000005   0.000371  -0.000315   0.003788   0.000576
    30  N    0.000000  -0.000000  -0.000363   0.000410  -0.001059   0.001253
    31  H   -0.000000   0.000000   0.000040  -0.000012   0.000108   0.000666
    32  H   -0.000001  -0.000000  -0.000035  -0.000035  -0.000441  -0.001023
    33  H    0.000002  -0.000001  -0.000400   0.000329  -0.000170  -0.003407
              13         14         15         16         17         18
     1  C    0.000238  -0.001005   0.010729   0.060211   0.004291  -0.023383
     2  H   -0.000005   0.000073  -0.001165   0.052990   0.003418   0.008856
     3  H   -0.000002  -0.000049   0.000809   0.007078  -0.003699   0.000340
     4  H   -0.000041  -0.000020   0.000278   0.001931   0.000533  -0.004819
     5  C   -0.005385   0.006478  -0.004993   0.372459   0.127644   0.275825
     6  O    0.000489  -0.000682   0.005285   0.011762  -0.062130  -0.111568
     7  N    0.002240   0.007442  -0.244938   0.528446  -0.180650  -0.524943
     8  H   -0.003074   0.006807   0.002632  -0.096812   0.003152  -0.000012
     9  C    0.022524  -0.473949   1.742787  -7.810299   0.294287   2.356779
    10  C   -0.162355   0.631521  -2.082664   4.174521  -0.275446  -6.039556
    11  C    0.450786  -1.222457   0.579535  -5.351021   0.121296   2.500387
    12  C   -1.565950   1.002144  -0.437666  -0.212788  -0.116455  -7.271493
    13  H    2.223604  -0.094627  -0.004695  -0.258789  -0.002929   0.991740
    14  H   -0.094627   1.750777  -0.096470   0.167421   0.009856  -0.191568
    15  H   -0.004695  -0.096470   2.229705   0.004494  -0.028653   0.017010
    16  C   -0.258789   0.167421   0.004494  24.352373  -1.913703  -9.140877
    17  H   -0.002929   0.009856  -0.028653  -1.913703   2.568943   1.219991
    18  C    0.991740  -0.191568   0.017010  -9.140877   1.219991  25.715301
    19  C    0.249666  -0.037290   0.027611   2.200792  -0.306520  -8.287671
    20  N   -0.150029   0.008394  -0.000545  -0.145031   0.015183   0.153142
    21  C    0.050171   0.004577  -0.005907  -2.161241   0.273687   3.393282
    22  H    0.003355  -0.000294   0.000589   0.110432  -0.059774  -0.319194
    23  S    0.000642  -0.001085   0.000649   0.132570   0.003041  -0.343517
    24  C   -0.060273   0.004688  -0.002267  -0.129331   0.007874   0.086521
    25  N    0.005005  -0.001354   0.000344   0.085810   0.000228  -0.203807
    26  C    0.007844   0.001612  -0.000292  -0.022095   0.000925   0.038683
    27  N   -0.003811  -0.000013  -0.000020  -0.008244  -0.000202  -0.001518
    28  H   -0.013339  -0.000480   0.000240   0.016816  -0.002252  -0.022941
    29  H   -0.000216  -0.000019  -0.000000  -0.000636   0.000097  -0.004227
    30  N    0.001956  -0.000142   0.000014   0.001973   0.000076  -0.001921
    31  H    0.000041   0.000004  -0.000001  -0.000320   0.000017   0.000386
    32  H   -0.000293   0.000002   0.000001   0.000306   0.000002  -0.000071
    33  H   -0.001231   0.000018   0.000011   0.001564  -0.000245   0.001181
              19         20         21         22         23         24
     1  C    0.034407   0.002051  -0.020960  -0.001395  -0.000238   0.000669
     2  H   -0.000009   0.000172  -0.000302   0.000109   0.000024  -0.000035
     3  H    0.001106  -0.000023  -0.000209   0.000164   0.000017   0.000049
     4  H    0.003175   0.000180  -0.001821  -0.000157  -0.000064   0.000159
     5  C    0.000996   0.029717  -0.017368   0.020092   0.000381   0.006157
     6  O    0.008312  -0.000686  -0.002565  -0.006058   0.001338  -0.001575
     7  N    0.031819  -0.000457  -0.018697  -0.003444   0.000837  -0.006908
     8  H   -0.003998   0.001125   0.002897   0.000969  -0.000280   0.001020
     9  C   -0.730380  -0.105867   0.517798  -0.034496  -0.022973   0.123876
    10  C    0.612582   0.012424  -0.440724  -0.040056   0.021176  -0.059303
    11  C   -1.107553   0.039417   0.428003   0.025778  -0.038617   0.211947
    12  C   -1.483160   0.493055  -0.780224   0.082657   0.017856   0.010644
    13  H    0.249666  -0.150029   0.050171   0.003355   0.000642  -0.060273
    14  H   -0.037290   0.008394   0.004577  -0.000294  -0.001085   0.004688
    15  H    0.027611  -0.000545  -0.005907   0.000589   0.000649  -0.002267
    16  C    2.200792  -0.145031  -2.161241   0.110432   0.132570  -0.129331
    17  H   -0.306520   0.015183   0.273687  -0.059774   0.003041   0.007874
    18  C   -8.287671   0.153142   3.393282  -0.319194  -0.343517   0.086521
    19  C   25.029817  -1.596787  -7.926374   0.733521   0.138467  -1.631476
    20  N   -1.596787   8.291038   0.612098   0.013506  -0.212685   0.422297
    21  C   -7.926374   0.612098  13.069804  -0.303146   0.154414  -1.006216
    22  H    0.733521   0.013506  -0.303146   1.529223  -0.217975   0.016459
    23  S    0.138467  -0.212685   0.154414  -0.217975  15.814550   0.282946
    24  C   -1.631476   0.422297  -1.006216   0.016459   0.282946   8.279561
    25  N    0.644204  -0.205723  -0.085956  -0.018317  -0.145510  -0.294896
    26  C    0.252712   0.046527  -0.132125  -0.009405  -0.081813  -0.641915
    27  N   -0.170341  -0.026639   0.069130   0.002923  -0.006941   0.084978
    28  H   -0.024440  -0.023489  -0.064611  -0.001523   0.003672   0.027270
    29  H    0.012794   0.000163   0.002757   0.000037  -0.001341  -0.003716
    30  N    0.017152  -0.000254  -0.002664  -0.000112   0.006369   0.048514
    31  H   -0.001044   0.000562   0.001955   0.000116  -0.002232  -0.025889
    32  H    0.004884   0.002093  -0.003714  -0.000191  -0.000249  -0.018598
    33  H   -0.069344  -0.016168  -0.001159   0.000878   0.024666  -0.113861
              25         26         27         28         29         30
     1  C    0.000001  -0.000026  -0.000001   0.000087  -0.000001   0.000000
     2  H   -0.000002  -0.000004   0.000001  -0.000008   0.000000   0.000000
     3  H    0.000003   0.000002  -0.000001   0.000007  -0.000000  -0.000000
     4  H   -0.000002  -0.000003   0.000000   0.000009  -0.000000   0.000000
     5  C   -0.000177  -0.000559   0.000151   0.000285   0.000009   0.000001
     6  O    0.000046  -0.000026   0.000004  -0.000026  -0.000000   0.000000
     7  N    0.000218  -0.000109  -0.000025   0.000249  -0.000003   0.000000
     8  H   -0.000051  -0.000012   0.000022   0.000051  -0.000005  -0.000000
     9  C   -0.010703   0.010954   0.000520  -0.008944   0.000371  -0.000363
    10  C    0.009067  -0.011381   0.004137   0.006857  -0.000315   0.000410
    11  C   -0.033024   0.002723   0.013082  -0.000140   0.003788  -0.001059
    12  C   -0.015737  -0.117730   0.037984   0.019458   0.000576   0.001253
    13  H    0.005005   0.007844  -0.003811  -0.013339  -0.000216   0.001956
    14  H   -0.001354   0.001612  -0.000013  -0.000480  -0.000019  -0.000142
    15  H    0.000344  -0.000292  -0.000020   0.000240  -0.000000   0.000014
    16  C    0.085810  -0.022095  -0.008244   0.016816  -0.000636   0.001973
    17  H    0.000228   0.000925  -0.000202  -0.002252   0.000097   0.000076
    18  C   -0.203807   0.038683  -0.001518  -0.022941  -0.004227  -0.001921
    19  C    0.644204   0.252712  -0.170341  -0.024440   0.012794   0.017152
    20  N   -0.205723   0.046527  -0.026639  -0.023489   0.000163  -0.000254
    21  C   -0.085956  -0.132125   0.069130  -0.064611   0.002757  -0.002664
    22  H   -0.018317  -0.009405   0.002923  -0.001523   0.000037  -0.000112
    23  S   -0.145510  -0.081813  -0.006941   0.003672  -0.001341   0.006369
    24  C   -0.294896  -0.641915   0.084978   0.027270  -0.003716   0.048514
    25  N    7.430950   0.210559  -0.038572  -0.029783   0.018686  -0.095706
    26  C    0.210559   5.384314   0.095267  -0.096316  -0.123515   0.085453
    27  N   -0.038572   0.095267   6.347934   0.422093   0.447236  -0.097474
    28  H   -0.029783  -0.096316   0.422093   0.842044  -0.204742   0.010261
    29  H    0.018686  -0.123515   0.447236  -0.204742   0.858838  -0.003237
    30  N   -0.095706   0.085453  -0.097474   0.010261  -0.003237   6.387872
    31  H    0.017618  -0.077433   0.004919  -0.002002   0.002738   0.449069
    32  H   -0.021222  -0.070415  -0.016088   0.004533  -0.009644   0.460283
    33  H    0.445876  -0.106818   0.014126   0.003351  -0.000731  -0.004210
              31         32         33
     1  C   -0.000000  -0.000000   0.000009
     2  H    0.000000  -0.000000   0.000001
     3  H   -0.000000   0.000000   0.000000
     4  H   -0.000000   0.000000   0.000001
     5  C   -0.000003  -0.000003   0.000091
     6  O   -0.000000   0.000000   0.000003
     7  N   -0.000000  -0.000001   0.000002
     8  H    0.000000  -0.000000  -0.000001
     9  C    0.000040  -0.000035  -0.000400
    10  C   -0.000012  -0.000035   0.000329
    11  C    0.000108  -0.000441  -0.000170
    12  C    0.000666  -0.001023  -0.003407
    13  H    0.000041  -0.000293  -0.001231
    14  H    0.000004   0.000002   0.000018
    15  H   -0.000001   0.000001   0.000011
    16  C   -0.000320   0.000306   0.001564
    17  H    0.000017   0.000002  -0.000245
    18  C    0.000386  -0.000071   0.001181
    19  C   -0.001044   0.004884  -0.069344
    20  N    0.000562   0.002093  -0.016168
    21  C    0.001955  -0.003714  -0.001159
    22  H    0.000116  -0.000191   0.000878
    23  S   -0.002232  -0.000249   0.024666
    24  C   -0.025889  -0.018598  -0.113861
    25  N    0.017618  -0.021222   0.445876
    26  C   -0.077433  -0.070415  -0.106818
    27  N    0.004919  -0.016088   0.014126
    28  H   -0.002002   0.004533   0.003351
    29  H    0.002738  -0.009644  -0.000731
    30  N    0.449069   0.460283  -0.004210
    31  H    0.777985  -0.143664  -0.004116
    32  H   -0.143664   0.783428   0.002332
    33  H   -0.004116   0.002332   0.843366
 Mulliken charges:
               1
     1  C    0.565614
     2  H   -0.144202
     3  H    0.017803
     4  H    0.064400
     5  C    0.439417
     6  O   -0.872986
     7  N   -0.634131
     8  H   -0.045197
     9  C   -0.471345
    10  C    1.116275
    11  C    0.042656
    12  C    0.959821
    13  H   -0.683258
    14  H   -0.480309
    15  H   -0.712444
    16  C    0.967238
    17  H   -0.701883
    18  C    1.733662
    19  C   -0.627631
    20  N   -0.658759
    21  C    0.395411
    22  H   -0.525271
    23  S    0.471903
    24  C    0.380629
    25  N   -0.668072
    26  C    1.354418
    27  N   -0.174621
    28  H    0.137751
    29  H    0.004258
    30  N   -0.263516
    31  H    0.000493
    32  H    0.027820
    33  H   -0.015945
 Sum of Mulliken charges =   1.00000
 Mulliken charges with hydrogens summed into heavy atoms:
               1
     1  C    0.503615
     5  C    0.439417
     6  O   -0.872986
     7  N   -0.679328
     9  C   -0.471345
    10  C    0.403831
    11  C   -0.437654
    12  C    0.276563
    16  C    0.265355
    18  C    1.733662
    19  C   -0.627631
    20  N   -0.658759
    21  C   -0.129860
    23  S    0.471903
    24  C    0.380629
    25  N   -0.684017
    26  C    1.354418
    27  N   -0.032612
    30  N   -0.235202
 Electronic spatial extent (au):  <R**2>=           8029.3951
 Charge=              1.0000 electrons
 Dipole moment (field-independent basis, Debye):
    X=            -16.1911    Y=              4.3219    Z=              1.4434  Tot=             16.8201
 Quadrupole moment (field-independent basis, Debye-Ang):
   XX=             41.0207   YY=            -96.0962   ZZ=           -122.3519
   XY=              1.7610   XZ=             -9.9827   YZ=              4.5408
 Traceless Quadrupole moment (field-independent basis, Debye-Ang):
   XX=            100.1631   YY=            -36.9537   ZZ=            -63.2094
   XY=              1.7610   XZ=             -9.9827   YZ=              4.5408
 Octapole moment (field-independent basis, Debye-Ang**2):
  XXX=           -476.9825  YYY=             42.9799  ZZZ=             11.4871  XYY=            -75.6261
  XXY=            105.1021  XXZ=             84.7405  XZZ=             -8.1410  YZZ=             -4.8375
  YYZ=             -1.7764  XYZ=            -16.8519
 Hexadecapole moment (field-independent basis, Debye-Ang**3):
 XXXX=          -2659.1153 YYYY=          -1533.5310 ZZZZ=           -233.9527 XXXY=           -243.3433
 XXXZ=           -336.6149 YYYX=            -55.3955 YYYZ=             27.3227 ZZZX=             10.8488
 ZZZY=              6.1504 XXYY=          -1351.8831 XXZZ=          -1480.7364 YYZZ=           -343.0049
 XXYZ=             99.7620 YYXZ=            -67.8450 ZZXY=            -45.9763
 N-N= 1.457801419043D+03 E-N=-5.736470985640D+03  KE= 1.206022275965D+03
 Leave Link  601 at Sun Jul 18 20:12:20 2021, MaxMem=   262144000 cpu:               0.8 elap:               0.7
 (Enter /dades/curu/g16A03_MST/g16/l9999.exe)
 1\1\GINC-PIRINEUS39\SP\RMP2-FC\Aug-CC-pVDZ\C12H14N5O1S1(1+)\UBATOR02\1
 8-Jul-2021\0\\#p mp2/aug-cc-pVDZ scf=tight maxdisk=180GB geom=allcheck
 \\SET_328_BBB321_conf1.geo_180_150_045 geometry\\1,1\C,0,-2.5060779548
 ,3.1709724509,4.4249225163\H,0,-3.1709352004,3.8983903083,3.9550696515
 \H,0,-1.8430403302,3.6857027945,5.1217545889\H,0,-3.1132488496,2.46904
 6886,5.002877237\C,0,-1.6608264495,2.3910797298,3.4366105525\O,0,-0.67
 33389799,1.7559112222,3.7923089121\N,0,-2.1115707214,2.4420943722,2.13
 97227953\H,0,-2.9410970333,3.0012546687,1.9766952461\C,0,-1.5935926188
 ,1.8038902219,0.9966515979\C,0,-2.2623721388,2.0194544086,-0.220146674
 1\C,0,-1.8081737041,1.4088927082,-1.3831919734\C,0,-0.6887092163,0.580
 6561539,-1.3583159584\H,0,-0.3280488412,0.1130115763,-2.2653579052\H,0
 ,-2.3317774918,1.5830945352,-2.3168418688\H,0,-3.1381508053,2.66024849
 23,-0.2483372276\C,0,-0.4686478125,0.9720888846,1.0266349123\H,0,0.024
 3146992,0.7961008608,1.9717530348\C,0,-0.0131255894,0.3633261461,-0.15
 15280291\C,0,1.1798153175,-0.500721562,-0.1199451705\N,0,1.4120568441,
 -1.3818529087,-1.1689019667\C,0,2.1320135664,-0.5283489912,0.861044413
 3\H,0,2.1960527684,0.0715069379,1.7543853024\S,0,3.3695019399,-1.69068
 17961,0.4974100746\C,0,2.5027480349,-2.0647979714,-0.9833641863\N,0,2.
 9836659749,-3.0387873597,-1.847529933\C,0,2.3809926431,-3.4770625751,-
 2.9939415946\N,0,1.2319004201,-2.9609450977,-3.3972099262\H,0,0.791284
 1947,-2.2288322171,-2.8427838377\H,0,0.7936132573,-3.3024783294,-4.245
 2296764\N,0,2.9989676194,-4.4295799258,-3.6859227318\H,0,3.852741198,-
 4.8558243517,-3.3428980964\H,0,2.5755339283,-4.805085153,-4.5269281087
 \H,0,3.8605313311,-3.4977251197,-1.61446597\\Version=ES64L-G16RevA.03\
 State=1-A\HF=-1207.1610198\MP2=-1209.977103\RMSD=7.810e-09\PG=C01 [X(C
 12H14N5O1S1)]\\@


 Change starts when someone sees the next step.
                            -- William Drayton
 Job cpu time:       0 days  3 hours  2 minutes 38.3 seconds.
 Elapsed time:       0 days  1 hours  7 minutes 23.9 seconds.
 File lengths (MBytes):  RWF=  87404 Int=      0 D2E=      0 Chk=     27 Scr=      1
 Normal termination of Gaussian 16 at Sun Jul 18 20:12:22 2021.
