 Entering Gaussian System, Link 0=g16
 Input=SET_328_BBB256_conf1.geo_180_075_075_OCTANOL.dat
 Output=SET_328_BBB256_conf1.geo_180_075_075_OCTANOL.log
 Initial command:
 /dades/curu/g16A03_MST/g16/l1.exe "/tmp/ubator02/1839538/Gau-64318.inp" -scrdir="/tmp/ubator02/1839538/"
 Entering Link 1 = /dades/curu/g16A03_MST/g16/l1.exe PID=     64319.
  
 Copyright (c) 1988,1990,1992,1993,1995,1998,2003,2009,2016,
            Gaussian, Inc.  All Rights Reserved.
  
 This is part of the Gaussian(R) 16 program.  It is based on
 the Gaussian(R) 09 system (copyright 2009, Gaussian, Inc.),
 the Gaussian(R) 03 system (copyright 2003, Gaussian, Inc.),
 the Gaussian(R) 98 system (copyright 1998, Gaussian, Inc.),
 the Gaussian(R) 94 system (copyright 1995, Gaussian, Inc.),
 the Gaussian 92(TM) system (copyright 1992, Gaussian, Inc.),
 the Gaussian 90(TM) system (copyright 1990, Gaussian, Inc.),
 the Gaussian 88(TM) system (copyright 1988, Gaussian, Inc.),
 the Gaussian 86(TM) system (copyright 1986, Carnegie Mellon
 University), and the Gaussian 82(TM) system (copyright 1983,
 Carnegie Mellon University). Gaussian is a federally registered
 trademark of Gaussian, Inc.
  
 This software contains proprietary and confidential information,
 including trade secrets, belonging to Gaussian, Inc.
  
 This software is provided under written license and may be
 used, copied, transmitted, or stored only in accord with that
 written license.
  
 The following legend is applicable only to US Government
 contracts under FAR:
  
                    RESTRICTED RIGHTS LEGEND
  
 Use, reproduction and disclosure by the US Government is
 subject to restrictions as set forth in subparagraphs (a)
 and (c) of the Commercial Computer Software - Restricted
 Rights clause in FAR 52.227-19.
  
 Gaussian, Inc.
 340 Quinnipiac St., Bldg. 40, Wallingford CT 06492
  
  
 ---------------------------------------------------------------
 Warning -- This program may not be used in any manner that
 competes with the business of Gaussian, Inc. or will provide
 assistance to any competitor of Gaussian, Inc.  The licensee
 of this program is prohibited from giving any competitor of
 Gaussian, Inc. access to this program.  By using this program,
 the user acknowledges that Gaussian, Inc. is engaged in the
 business of creating and licensing software in the field of
 computational chemistry and represents and warrants to the
 licensee that it is not a competitor of Gaussian, Inc. and that
 it will not use this program in any manner prohibited above.
 ---------------------------------------------------------------
  

 Cite this work as:
 Gaussian 16, Revision A.03,
 M. J. Frisch, G. W. Trucks, H. B. Schlegel, G. E. Scuseria, 
 M. A. Robb, J. R. Cheeseman, G. Scalmani, V. Barone, 
 G. A. Petersson, H. Nakatsuji, X. Li, M. Caricato, A. V. Marenich, 
 J. Bloino, B. G. Janesko, R. Gomperts, B. Mennucci, H. P. Hratchian, 
 J. V. Ortiz, A. F. Izmaylov, J. L. Sonnenberg, D. Williams-Young, 
 F. Ding, F. Lipparini, F. Egidi, J. Goings, B. Peng, A. Petrone, 
 T. Henderson, D. Ranasinghe, V. G. Zakrzewski, J. Gao, N. Rega, 
 G. Zheng, W. Liang, M. Hada, M. Ehara, K. Toyota, R. Fukuda, 
 J. Hasegawa, M. Ishida, T. Nakajima, Y. Honda, O. Kitao, H. Nakai, 
 T. Vreven, K. Throssell, J. A. Montgomery, Jr., J. E. Peralta, 
 F. Ogliaro, M. J. Bearpark, J. J. Heyd, E. N. Brothers, K. N. Kudin, 
 V. N. Staroverov, T. A. Keith, R. Kobayashi, J. Normand, 
 K. Raghavachari, A. P. Rendell, J. C. Burant, S. S. Iyengar, 
 J. Tomasi, M. Cossi, J. M. Millam, M. Klene, C. Adamo, R. Cammi, 
 J. W. Ochterski, R. L. Martin, K. Morokuma, O. Farkas, 
 J. B. Foresman, and D. J. Fox, Gaussian, Inc., Wallingford CT, 2016.
 
 ******************************************
 Gaussian 16:  ES64L-G16RevA.03 25-Dec-2016
                18-Jul-2021 
 ******************************************
 %mem=800MB
 %nproc=4
 Will use up to    4 processors via shared memory.
 %chk=SET_328_BBB256_conf1.geo_180_075_075.chk
 ---------------------------------------------------------------
 #p b3lyp/6-31G(d) opt freq scrf=(iefpcm,read,solvent=n-octanol)
 ---------------------------------------------------------------
 1/18=20,19=15,26=3,38=1,40=2/1,3;
 2/9=110,12=2,17=6,18=5,40=1/2;
 3/5=1,6=6,7=1,11=2,25=1,30=1,70=2203,71=1,72=25,74=-5/1,2,3;
 4//1;
 5/5=2,38=5,53=25/2;
 6/7=2,8=2,9=2,10=2,28=1/1;
 7//1,2,3,16;
 1/18=20,19=15,26=3/3(2);
 2/9=110/2;
 99//99;
 2/9=110/2;
 3/5=1,6=6,7=1,11=2,25=1,30=1,70=2205,71=1,72=25,74=-5/1,2,3;
 4/5=5,16=3,69=1/1;
 5/5=2,38=5,53=25/2;
 7//1,2,3,16;
 1/18=20,19=15,26=3/3(-5);
 2/9=110/2;
 6/7=2,8=2,9=2,10=2,19=2,28=1/1;
 99/9=1/99;
 Leave Link    1 at Sun Jul 18 13:38:24 2021, MaxMem=   104857600 cpu:               0.0 elap:               0.0
 (Enter /dades/curu/g16A03_MST/g16/l101.exe)
 ---------------------------------------------
 SET_328_BBB256_conf1.geo_180_075_075 geometry
 ---------------------------------------------
 Symbolic Z-matrix:
 Charge =  1 Multiplicity = 1
 C                     2.821    -0.379     1.879 
 H                     3.269     0.47      1.355 
 H                     3.543    -1.178     1.694 
 H                     2.824     0.01      2.9 
 N                     1.466    -0.573     1.507 
 H                     1.02      0.32      1.451 
 C                     1.3      -1.25      0.243 
 H                     1.673    -2.275     0.306 
 H                     1.823    -0.69     -0.536 
 C                    -0.131    -1.457    -0.107 
 H                    -0.718    -1.849     0.726 
 H                    -0.262    -2.233    -0.865 
 C                    -0.807    -0.218    -0.587 
 N                    -0.468     0.214    -1.837 
 C                    -1.268     1.217    -2.344 
 H                    -1.238     1.474    -3.401 
 C                    -2.278     1.881    -1.605 
 H                    -2.912     2.601    -2.117 
 C                    -2.544     1.493    -0.266 
 H                    -3.342     1.968     0.298 
 C                    -1.768     0.434     0.209 
 H                    -1.946     0.04      1.206 
 H                     1.014    -1.111     2.218 
 
 ITRead=  0  0  0  0  0  0  0  0  0  0  0  0  0  0  0  0  0  0  0  0
 ITRead=  0  0  0
 MicOpt= -1 -1 -1 -1 -1 -1 -1 -1 -1 -1 -1 -1 -1 -1 -1 -1 -1 -1 -1 -1
 MicOpt= -1 -1 -1
 NAtoms=     23 NQM=       23 NQMF=       0 NMMI=      0 NMMIF=      0
                NMic=       0 NMicF=      0.
                    Isotopes and Nuclear Properties:
 (Nuclear quadrupole moments (NQMom) in fm**2, nuclear magnetic moments (NMagM)
  in nuclear magnetons)

  Atom         1           2           3           4           5           6           7           8           9          10
 IAtWgt=          12           1           1           1          14           1          12           1           1          12
 AtmWgt=  12.0000000   1.0078250   1.0078250   1.0078250  14.0030740   1.0078250  12.0000000   1.0078250   1.0078250  12.0000000
 NucSpn=           0           1           1           1           2           1           0           1           1           0
 AtZEff=  -0.0000000  -0.0000000  -0.0000000  -0.0000000  -0.0000000  -0.0000000  -0.0000000  -0.0000000  -0.0000000  -0.0000000
 NQMom=    0.0000000   0.0000000   0.0000000   0.0000000   2.0440000   0.0000000   0.0000000   0.0000000   0.0000000   0.0000000
 NMagM=    0.0000000   2.7928460   2.7928460   2.7928460   0.4037610   2.7928460   0.0000000   2.7928460   2.7928460   0.0000000
 AtZNuc=   6.0000000   1.0000000   1.0000000   1.0000000   7.0000000   1.0000000   6.0000000   1.0000000   1.0000000   6.0000000

  Atom        11          12          13          14          15          16          17          18          19          20
 IAtWgt=           1           1          12          14          12           1          12           1          12           1
 AtmWgt=   1.0078250   1.0078250  12.0000000  14.0030740  12.0000000   1.0078250  12.0000000   1.0078250  12.0000000   1.0078250
 NucSpn=           1           1           0           2           0           1           0           1           0           1
 AtZEff=  -0.0000000  -0.0000000  -0.0000000  -0.0000000  -0.0000000  -0.0000000  -0.0000000  -0.0000000  -0.0000000  -0.0000000
 NQMom=    0.0000000   0.0000000   0.0000000   2.0440000   0.0000000   0.0000000   0.0000000   0.0000000   0.0000000   0.0000000
 NMagM=    2.7928460   2.7928460   0.0000000   0.4037610   0.0000000   2.7928460   0.0000000   2.7928460   0.0000000   2.7928460
 AtZNuc=   1.0000000   1.0000000   6.0000000   7.0000000   6.0000000   1.0000000   6.0000000   1.0000000   6.0000000   1.0000000

  Atom        21          22          23
 IAtWgt=          12           1           1
 AtmWgt=  12.0000000   1.0078250   1.0078250
 NucSpn=           0           1           1
 AtZEff=  -0.0000000  -0.0000000  -0.0000000
 NQMom=    0.0000000   0.0000000   0.0000000
 NMagM=    0.0000000   2.7928460   2.7928460
 AtZNuc=   6.0000000   1.0000000   1.0000000
 Leave Link  101 at Sun Jul 18 13:38:24 2021, MaxMem=   104857600 cpu:               0.1 elap:               0.1
 (Enter /dades/curu/g16A03_MST/g16/l103.exe)

 GradGradGradGradGradGradGradGradGradGradGradGradGradGradGradGradGradGrad
 Berny optimization.
 Initialization pass.
                           ----------------------------
                           !    Initial Parameters    !
                           ! (Angstroms and Degrees)  !
 --------------------------                            --------------------------
 ! Name  Definition              Value          Derivative Info.                !
 --------------------------------------------------------------------------------
 ! R1    R(1,2)                  1.0937         estimate D2E/DX2                !
 ! R2    R(1,3)                  1.0927         estimate D2E/DX2                !
 ! R3    R(1,4)                  1.0926         estimate D2E/DX2                !
 ! R4    R(1,5)                  1.4185         estimate D2E/DX2                !
 ! R5    R(5,6)                  0.9998         estimate D2E/DX2                !
 ! R6    R(5,7)                  1.4435         estimate D2E/DX2                !
 ! R7    R(5,23)                 0.9996         estimate D2E/DX2                !
 ! R8    R(7,8)                  1.0926         estimate D2E/DX2                !
 ! R9    R(7,9)                  1.0927         estimate D2E/DX2                !
 ! R10   R(7,10)                 1.4877         estimate D2E/DX2                !
 ! R11   R(10,11)                1.0918         estimate D2E/DX2                !
 ! R12   R(10,12)                1.0927         estimate D2E/DX2                !
 ! R13   R(10,13)                1.4908         estimate D2E/DX2                !
 ! R14   R(13,14)                1.3653         estimate D2E/DX2                !
 ! R15   R(13,21)                1.4079         estimate D2E/DX2                !
 ! R16   R(14,15)                1.3795         estimate D2E/DX2                !
 ! R17   R(15,16)                1.0882         estimate D2E/DX2                !
 ! R18   R(15,17)                1.4167         estimate D2E/DX2                !
 ! R19   R(17,18)                1.0874         estimate D2E/DX2                !
 ! R20   R(17,19)                1.4192         estimate D2E/DX2                !
 ! R21   R(19,20)                1.0865         estimate D2E/DX2                !
 ! R22   R(19,21)                1.3962         estimate D2E/DX2                !
 ! R23   R(21,22)                1.0867         estimate D2E/DX2                !
 ! A1    A(2,1,3)              102.4662         estimate D2E/DX2                !
 ! A2    A(2,1,4)               99.8006         estimate D2E/DX2                !
 ! A3    A(2,1,5)              111.8283         estimate D2E/DX2                !
 ! A4    A(3,1,4)              114.6294         estimate D2E/DX2                !
 ! A5    A(3,1,5)              119.1301         estimate D2E/DX2                !
 ! A6    A(4,1,5)              107.2407         estimate D2E/DX2                !
 ! A7    A(1,5,6)              108.583          estimate D2E/DX2                !
 ! A8    A(1,5,7)              113.8066         estimate D2E/DX2                !
 ! A9    A(1,5,23)             108.6031         estimate D2E/DX2                !
 ! A10   A(6,5,7)              108.577          estimate D2E/DX2                !
 ! A11   A(6,5,23)             108.5936         estimate D2E/DX2                !
 ! A12   A(7,5,23)             108.5669         estimate D2E/DX2                !
 ! A13   A(5,7,8)              110.5026         estimate D2E/DX2                !
 ! A14   A(5,7,9)              109.2004         estimate D2E/DX2                !
 ! A15   A(5,7,10)             112.4516         estimate D2E/DX2                !
 ! A16   A(8,7,9)              111.0083         estimate D2E/DX2                !
 ! A17   A(8,7,10)             102.2056         estimate D2E/DX2                !
 ! A18   A(9,7,10)             111.3455         estimate D2E/DX2                !
 ! A19   A(7,10,11)            112.806          estimate D2E/DX2                !
 ! A20   A(7,10,12)            112.1701         estimate D2E/DX2                !
 ! A21   A(7,10,13)            113.3462         estimate D2E/DX2                !
 ! A22   A(11,10,12)           102.1122         estimate D2E/DX2                !
 ! A23   A(11,10,13)           107.4723         estimate D2E/DX2                !
 ! A24   A(12,10,13)           108.2109         estimate D2E/DX2                !
 ! A25   A(10,13,14)           116.4338         estimate D2E/DX2                !
 ! A26   A(10,13,21)           120.8203         estimate D2E/DX2                !
 ! A27   A(14,13,21)           122.7229         estimate D2E/DX2                !
 ! A28   A(13,14,15)           114.9955         estimate D2E/DX2                !
 ! A29   A(14,15,16)           120.8441         estimate D2E/DX2                !
 ! A30   A(14,15,17)           124.2279         estimate D2E/DX2                !
 ! A31   A(16,15,17)           114.559          estimate D2E/DX2                !
 ! A32   A(15,17,18)           118.7095         estimate D2E/DX2                !
 ! A33   A(15,17,19)           119.8427         estimate D2E/DX2                !
 ! A34   A(18,17,19)           121.0615         estimate D2E/DX2                !
 ! A35   A(17,19,20)           120.5228         estimate D2E/DX2                !
 ! A36   A(17,19,21)           115.0986         estimate D2E/DX2                !
 ! A37   A(20,19,21)           124.2783         estimate D2E/DX2                !
 ! A38   A(13,21,19)           122.567          estimate D2E/DX2                !
 ! A39   A(13,21,22)           117.5553         estimate D2E/DX2                !
 ! A40   A(19,21,22)           119.7423         estimate D2E/DX2                !
 ! D1    D(2,1,5,6)            -41.7956         estimate D2E/DX2                !
 ! D2    D(2,1,5,7)             79.248          estimate D2E/DX2                !
 ! D3    D(2,1,5,23)          -159.7068         estimate D2E/DX2                !
 ! D4    D(3,1,5,6)           -161.0981         estimate D2E/DX2                !
 ! D5    D(3,1,5,7)            -40.0545         estimate D2E/DX2                !
 ! D6    D(3,1,5,23)            80.9906         estimate D2E/DX2                !
 ! D7    D(4,1,5,6)             66.6433         estimate D2E/DX2                !
 ! D8    D(4,1,5,7)           -172.3131         estimate D2E/DX2                !
 ! D9    D(4,1,5,23)           -51.2679         estimate D2E/DX2                !
 ! D10   D(1,5,7,8)             65.5781         estimate D2E/DX2                !
 ! D11   D(1,5,7,9)            -56.8007         estimate D2E/DX2                !
 ! D12   D(1,5,7,10)           179.0781         estimate D2E/DX2                !
 ! D13   D(6,5,7,8)           -173.375          estimate D2E/DX2                !
 ! D14   D(6,5,7,9)             64.2462         estimate D2E/DX2                !
 ! D15   D(6,5,7,10)           -59.875          estimate D2E/DX2                !
 ! D16   D(23,5,7,8)           -55.4873         estimate D2E/DX2                !
 ! D17   D(23,5,7,9)          -177.8661         estimate D2E/DX2                !
 ! D18   D(23,5,7,10)           58.0127         estimate D2E/DX2                !
 ! D19   D(5,7,10,11)          -46.5512         estimate D2E/DX2                !
 ! D20   D(5,7,10,12)         -161.2049         estimate D2E/DX2                !
 ! D21   D(5,7,10,13)           75.8771         estimate D2E/DX2                !
 ! D22   D(8,7,10,11)           71.9465         estimate D2E/DX2                !
 ! D23   D(8,7,10,12)          -42.7072         estimate D2E/DX2                !
 ! D24   D(8,7,10,13)         -165.6252         estimate D2E/DX2                !
 ! D25   D(9,7,10,11)         -169.4762         estimate D2E/DX2                !
 ! D26   D(9,7,10,12)           75.87           estimate D2E/DX2                !
 ! D27   D(9,7,10,13)          -47.0479         estimate D2E/DX2                !
 ! D28   D(7,10,13,14)          72.744          estimate D2E/DX2                !
 ! D29   D(7,10,13,21)        -108.9527         estimate D2E/DX2                !
 ! D30   D(11,10,13,14)       -161.9138         estimate D2E/DX2                !
 ! D31   D(11,10,13,21)         16.3895         estimate D2E/DX2                !
 ! D32   D(12,10,13,14)        -52.3333         estimate D2E/DX2                !
 ! D33   D(12,10,13,21)        125.97           estimate D2E/DX2                !
 ! D34   D(10,13,14,15)        169.2928         estimate D2E/DX2                !
 ! D35   D(21,13,14,15)         -8.9752         estimate D2E/DX2                !
 ! D36   D(10,13,21,19)       -171.703          estimate D2E/DX2                !
 ! D37   D(10,13,21,22)          4.0504         estimate D2E/DX2                !
 ! D38   D(14,13,21,19)          6.4911         estimate D2E/DX2                !
 ! D39   D(14,13,21,22)       -177.7555         estimate D2E/DX2                !
 ! D40   D(13,14,15,16)       -165.7539         estimate D2E/DX2                !
 ! D41   D(13,14,15,17)          6.8856         estimate D2E/DX2                !
 ! D42   D(14,15,17,18)       -174.9482         estimate D2E/DX2                !
 ! D43   D(14,15,17,19)         -2.0054         estimate D2E/DX2                !
 ! D44   D(16,15,17,18)         -1.8942         estimate D2E/DX2                !
 ! D45   D(16,15,17,19)        171.0486         estimate D2E/DX2                !
 ! D46   D(15,17,19,20)       -177.5892         estimate D2E/DX2                !
 ! D47   D(15,17,19,21)         -1.0791         estimate D2E/DX2                !
 ! D48   D(18,17,19,20)         -4.8158         estimate D2E/DX2                !
 ! D49   D(18,17,19,21)        171.6943         estimate D2E/DX2                !
 ! D50   D(17,19,21,13)         -1.0269         estimate D2E/DX2                !
 ! D51   D(17,19,21,22)       -176.6906         estimate D2E/DX2                !
 ! D52   D(20,19,21,13)        175.3347         estimate D2E/DX2                !
 ! D53   D(20,19,21,22)         -0.329          estimate D2E/DX2                !
 --------------------------------------------------------------------------------
 Trust Radius=3.00D-01 FncErr=1.00D-07 GrdErr=1.00D-06 EigMax=2.50D+02 EigMin=1.00D-04
 Number of steps in this run=    126 maximum allowed number of steps=    138.
 GradGradGradGradGradGradGradGradGradGradGradGradGradGradGradGradGradGrad

 Leave Link  103 at Sun Jul 18 13:38:24 2021, MaxMem=   104857600 cpu:               0.0 elap:               0.0
 (Enter /dades/curu/g16A03_MST/g16/l202.exe)
                          Input orientation:                          
 ---------------------------------------------------------------------
 Center     Atomic      Atomic             Coordinates (Angstroms)
 Number     Number       Type             X           Y           Z
 ---------------------------------------------------------------------
      1          6           0        2.821000   -0.379000    1.879000
      2          1           0        3.269000    0.470000    1.355000
      3          1           0        3.543000   -1.178000    1.694000
      4          1           0        2.824000    0.010000    2.900000
      5          7           0        1.466000   -0.573000    1.507000
      6          1           0        1.020000    0.320000    1.451000
      7          6           0        1.300000   -1.250000    0.243000
      8          1           0        1.673000   -2.275000    0.306000
      9          1           0        1.823000   -0.690000   -0.536000
     10          6           0       -0.131000   -1.457000   -0.107000
     11          1           0       -0.718000   -1.849000    0.726000
     12          1           0       -0.262000   -2.233000   -0.865000
     13          6           0       -0.807000   -0.218000   -0.587000
     14          7           0       -0.468000    0.214000   -1.837000
     15          6           0       -1.268000    1.217000   -2.344000
     16          1           0       -1.238000    1.474000   -3.401000
     17          6           0       -2.278000    1.881000   -1.605000
     18          1           0       -2.912000    2.601000   -2.117000
     19          6           0       -2.544000    1.493000   -0.266000
     20          1           0       -3.342000    1.968000    0.298000
     21          6           0       -1.768000    0.434000    0.209000
     22          1           0       -1.946000    0.040000    1.206000
     23          1           0        1.014000   -1.111000    2.218000
 ---------------------------------------------------------------------
                    Distance matrix (angstroms):
                    1          2          3          4          5
     1  C    0.000000
     2  H    1.093655   0.000000
     3  H    1.092662   1.704670   0.000000
     4  H    1.092598   1.672319   1.839223   0.000000
     5  N    1.418466   2.088483   2.171387   2.030887   0.000000
     6  H    1.978733   2.256040   2.944246   2.334549   0.999750
     7  C    2.397619   2.841110   2.672384   3.312073   1.443461
     8  H    2.717913   3.344046   2.574267   3.643468   2.093336
     9  H    2.631530   2.648093   2.858224   3.646656   2.077255
    10  C    3.717605   4.172622   4.101185   4.463873   2.436567
    11  H    4.001853   4.655059   4.420790   4.552793   2.647261
    12  H    4.524571   4.970168   4.705266   5.360007   3.371642
    13  C    4.389699   4.567109   5.004704   5.039376   3.110850
    14  N    4.997782   4.921338   5.522114   5.772179   3.942342
    15  C    6.091048   5.901269   6.722142   6.760240   5.050649
    16  H    6.912850   6.628771   7.473292   7.638438   5.965760
    17  C    6.576143   6.443736   7.356964   7.058758   5.451990
    18  H    7.597085   7.402750   8.394736   8.048929   6.509573
    19  C    6.073601   6.120877   6.930181   6.406112   4.846853
    20  H    6.781632   6.860508   7.697360   6.973071   5.570927
    21  C    4.950635   5.165848   5.745476   5.339262   3.627342
    22  H    4.832471   5.234819   5.643650   5.061960   3.479672
    23  H    1.978887   2.886062   2.583584   2.235591   0.999634
                    6          7          8          9         10
     6  H    0.000000
     7  C    2.000641   0.000000
     8  H    2.910577   1.092576   0.000000
     9  H    2.369194   1.092689   1.801024   0.000000
    10  C    2.628668   1.487653   2.023390   2.142533   0.000000
    11  H    2.872426   2.159725   2.464702   3.064736   1.091843
    12  H    3.677661   2.152626   2.262130   2.614635   1.092658
    13  C    2.789412   2.488649   3.343516   2.672505   1.490804
    14  N    3.610585   3.097664   3.920644   2.785408   2.428726
    15  C    4.521236   4.401509   5.278830   4.057067   3.667044
    16  H    5.474686   5.209641   6.022522   4.718140   4.546058
    17  C    4.759481   5.101015   6.044391   4.956915   4.242152
    18  H    5.778772   6.175819   7.118183   5.979169   5.314266
    19  C    4.126271   4.749681   5.684021   4.889691   3.814492
    20  H    4.803369   5.648603   6.569120   5.868368   4.712236
    21  C    3.054260   3.499948   4.380476   3.835842   2.521013
    22  H    2.989244   3.623256   4.389349   4.215783   2.694291
    23  H    1.623603   2.000435   2.333435   2.901075   2.614645
                   11         12         13         14         15
    11  H    0.000000
    12  H    1.699021   0.000000
    13  C    2.095722   2.105833   0.000000
    14  N    3.299612   2.641028   1.365300   0.000000
    15  C    4.373529   3.886126   2.314907   1.379514   0.000000
    16  H    5.323989   4.596273   3.311679   2.150952   1.088209
    17  C    4.666911   4.640781   2.757892   2.471601   1.416728
    18  H    5.718285   5.653102   3.836494   3.427726   2.160954
    19  C    3.935391   4.410148   2.459213   2.900631   2.454065
    20  H    4.651672   5.337356   3.462376   3.986805   3.441750
    21  C    2.565517   3.245674   1.407921   2.434033   2.716781
    22  H    2.303629   3.505913   2.139798   3.387419   3.800988
    23  H    2.402193   3.520220   3.461433   4.516079   5.607045
                   16         17         18         19         20
    16  H    0.000000
    17  C    2.114915   0.000000
    18  H    2.391874   1.087428   0.000000
    19  C    3.396207   1.419233   2.188444   0.000000
    20  H    4.284093   2.181989   2.533340   1.086520   0.000000
    21  C    3.794022   2.375817   3.378595   1.396167   2.199671
    22  H    4.876686   3.376570   4.305137   2.153044   2.547639
    23  H    6.582316   5.865548   6.927095   5.060675   5.669337
                   21         22         23
    21  C    0.000000
    22  H    1.086706   0.000000
    23  H    3.763327   3.333248   0.000000
 Stoichiometry    C8H13N2(1+)
 Framework group  C1[X(C8H13N2)]
 Deg. of freedom    63
 Full point group                 C1      NOp   1
 Largest Abelian subgroup         C1      NOp   1
 Largest concise Abelian subgroup C1      NOp   1
                         Standard orientation:                         
 ---------------------------------------------------------------------
 Center     Atomic      Atomic             Coordinates (Angstroms)
 Number     Number       Type             X           Y           Z
 ---------------------------------------------------------------------
      1          6           0        3.540017    0.423032   -0.955045
      2          1           0        3.268199    0.160109   -1.981235
      3          1           0        4.307194   -0.317729   -0.717091
      4          1           0        3.918772    1.435089   -1.116463
      5          7           0        2.399692    0.529401   -0.118151
      6          1           0        1.678297    1.004519   -0.621493
      7          6           0        1.885891   -0.742555    0.330977
      8          1           0        2.608272   -1.238070    0.983935
      9          1           0        1.653033   -1.363060   -0.537770
     10          6           0        0.704752   -0.595096    1.223321
     11          1           0        0.850515    0.161662    1.996751
     12          1           0        0.520054   -1.494966    1.814947
     13          6           0       -0.548692   -0.252577    0.492531
     14          7           0       -1.114740   -1.252374   -0.245059
     15          6           0       -2.382059   -0.981874   -0.718125
     16          1           0       -3.011580   -1.776757   -1.113172
     17          6           0       -3.024922    0.275154   -0.600973
     18          1           0       -4.056825    0.366959   -0.931500
     19          6           0       -2.374906    1.340572    0.074737
     20          1           0       -2.873436    2.297128    0.205097
     21          6           0       -1.120097    1.029515    0.601975
     22          1           0       -0.579137    1.773244    1.180905
     23          1           0        2.642071    1.075655    0.683177
 ---------------------------------------------------------------------
 Rotational constants (GHZ):           2.8692123           0.6940844           0.6575700
 Leave Link  202 at Sun Jul 18 13:38:24 2021, MaxMem=   104857600 cpu:               0.0 elap:               0.0
 (Enter /dades/curu/g16A03_MST/g16/l301.exe)
 Standard basis: 6-31G(d) (6D, 7F)
 Ernie: Thresh=  0.10000D-02 Tol=  0.10000D-05 Strict=F.
 There are   176 symmetry adapted cartesian basis functions of A   symmetry.
 There are   176 symmetry adapted basis functions of A   symmetry.
   176 basis functions,   332 primitive gaussians,   176 cartesian basis functions
    37 alpha electrons       37 beta electrons
       nuclear repulsion energy       517.4396079744 Hartrees.
 IExCor=  402 DFT=T Ex+Corr=B3LYP ExCW=0 ScaHFX=  0.200000
 ScaDFX=  0.800000  0.720000  1.000000  0.810000 ScalE2=  1.000000  1.000000
 IRadAn=      5 IRanWt=     -1 IRanGd=            0 ICorTp=0 IEmpDi=  4
 NAtoms=   23 NActive=   23 NUniq=   23 SFac= 1.00D+00 NAtFMM=   60 NAOKFM=F Big=F
 Integral buffers will be    131072 words long.
 Raffenetti 2 integral format.
 Two-electron integral symmetry is turned on.
 Using the following non-standard input for PCM:
 MSTModel=DFT cav MSTCharged
 --- end of non-standard input.
 MST model for solvation energy: B3LYP parametrization.
 MST cavity parameters:
 ISph   IAn     Re0     Alpha   Atom Type   QCorr
 ------------------------------------------------
   1      6     1.50     1.50      CN+        F
   2      1     1.20     1.50      CN+        F
   3      1     1.20     1.50      CN+        F
   4      1     1.20     1.50      CN+        F
   5      7     1.50     1.15      NH+        T
   6      1     0.90     1.15      NH+        T
   7      6     1.50     1.50      CN+        F
   8      1     1.20     1.50      CN+        F
   9      1     1.20     1.50      CN+        F
  10      6     1.50     1.50      CH2        F
  11      1     1.20     1.50      CH2        F
  12      1     1.20     1.50      CH2        F
  13      6     1.50     1.50      C          F
  14      7     1.50     1.50      Nc         F
  15      6     1.50     1.50      CH         F
  16      1     1.20     1.50      CH         F
  17      6     1.50     1.50      CH         F
  18      1     1.20     1.50      CH         F
  19      6     1.50     1.50      CH         F
  20      1     1.20     1.50      CH         F
  21      6     1.50     1.50      CH         F
  22      1     1.20     1.50      CH         F
  23      1     0.90     1.15      NH+        T
 ------------------------------------------------------------------------------
 Polarizable Continuum Model (PCM)
 =================================
 Model                : PCM.
 Atomic radii         : MST.
 Polarization charges : Total charges.
 Charge compensation  : None.
 Solution method      : On-the-fly selection.
 Cavity type          : Scaled VdW (van der Waals Surface) (Alpha=1.500).
 Cavity algorithm     : GePol (No added spheres)
                        Default sphere list used, NSphG=   23.
                        Lebedev-Laikov grids with approx.  5.0 points / Ang**2.
                        Smoothing algorithm: York/Karplus (Gamma=1.0000).
                        Polarization charges: spherical gaussians, with
                                              point-specific exponents (IZeta= 3).
                        Self-potential: point-specific (ISelfS= 7).
                        Self-field    : sphere-specific E.n sum rule (ISelfD= 2).
 1st derivatives      : Analytical E(r).r(x)/FMM algorithm (CHGder, D1EAlg=3).
                        Cavity 1st derivative terms included.
 Solvent              : n-Octanol, Eps=   9.862900 Eps(inf)=   2.043470
 ------------------------------------------------------------------------------
 GePol: Number of generator spheres                  =      23
 GePol: Total number of spheres                      =      23
 GePol: Number of exposed spheres                    =      23 (100.00%)
 GePol: Number of points                             =    2333
 GePol: Average weight of points                     =       0.11
 GePol: Minimum weight of points                     =   0.27D-11
 GePol: Maximum weight of points                     =    0.20969
 GePol: Number of points with low weight             =     137
 GePol: Fraction of low-weight points (<1% of avg)   =       5.87%
 GePol: Cavity surface area                          =    247.714 Ang**2
 GePol: Cavity volume                                =    261.791 Ang**3
 Surface areas from nonelectrostatic (unscaled) cavity and vdw tensions:
 Sphere =    1 Type =  CN+ Surf =        5.013 Tension =       -0.227
 Sphere =    2 Type =  CN+ Surf =        9.959 Tension =       -0.227
 Sphere =    3 Type =  CN+ Surf =       10.155 Tension =       -0.227
 Sphere =    4 Type =  CN+ Surf =        9.973 Tension =       -0.227
 Sphere =    5 Type =  NH+ Surf =        7.659 Tension =       -0.274
 Sphere =    6 Type =  NH+ Surf =        3.837 Tension =       -0.274
 Sphere =    7 Type =  CN+ Surf =        3.527 Tension =       -0.227
 Sphere =    8 Type =  CN+ Surf =        9.808 Tension =       -0.227
 Sphere =    9 Type =  CN+ Surf =        9.973 Tension =       -0.227
 Sphere =   10 Type =  CH2 Surf =        3.417 Tension =       -0.194
 Sphere =   11 Type =  CH2 Surf =        9.553 Tension =       -0.194
 Sphere =   12 Type =  CH2 Surf =        9.909 Tension =       -0.194
 Sphere =   13 Type =  C   Surf =        5.808 Tension =       -0.205
 Sphere =   14 Type =  Nc  Surf =       12.958 Tension =       -0.161
 Sphere =   15 Type =  CH  Surf =        7.716 Tension =       -0.195
 Sphere =   16 Type =  CH  Surf =       10.196 Tension =       -0.195
 Sphere =   17 Type =  CH  Surf =        7.927 Tension =       -0.195
 Sphere =   18 Type =  CH  Surf =       10.242 Tension =       -0.195
 Sphere =   19 Type =  CH  Surf =        8.058 Tension =       -0.195
 Sphere =   20 Type =  CH  Surf =       10.279 Tension =       -0.195
 Sphere =   21 Type =  CH  Surf =        7.632 Tension =       -0.195
 Sphere =   22 Type =  CH  Surf =        9.953 Tension =       -0.195
 Sphere =   23 Type =  NH+ Surf =        3.835 Tension =       -0.274
 PCM non-electrostatic energy =        -0.0127514662 Hartrees.
 Nuclear repulsion after PCM non-electrostatic terms =      517.4268565082 Hartrees.
 Leave Link  301 at Sun Jul 18 13:38:24 2021, MaxMem=   104857600 cpu:               0.1 elap:               0.1
 (Enter /dades/curu/g16A03_MST/g16/l302.exe)
 NPDir=0 NMtPBC=     1 NCelOv=     1 NCel=       1 NClECP=     1 NCelD=      1
         NCelK=      1 NCelE2=     1 NClLst=     1 CellRange=     0.0.
 One-electron integrals computed using PRISM.
 One-electron integral symmetry used in STVInt
 NBasis=   176 RedAO= T EigKep=  9.52D-04  NBF=   176
 NBsUse=   176 1.00D-06 EigRej= -1.00D+00 NBFU=   176
 Precomputing XC quadrature grid using
 IXCGrd= 4 IRadAn=           5 IRanWt=          -1 IRanGd=           0 AccXCQ= 0.00D+00.
 Generated NRdTot=       0 NPtTot=           0 NUsed=           0 NTot=          32
 NSgBfM=   176   176   176   176   176 MxSgAt=    23 MxSgA2=    23.
 Leave Link  302 at Sun Jul 18 13:38:26 2021, MaxMem=   104857600 cpu:               1.8 elap:               1.8
 (Enter /dades/curu/g16A03_MST/g16/l303.exe)
 DipDrv:  MaxL=1.
 Leave Link  303 at Sun Jul 18 13:38:26 2021, MaxMem=   104857600 cpu:               0.1 elap:               0.1
 (Enter /dades/curu/g16A03_MST/g16/l401.exe)
 ExpMin= 1.61D-01 ExpMax= 4.17D+03 ExpMxC= 6.27D+02 IAcc=3 IRadAn=         5 AccDes= 0.00D+00
 Harris functional with IExCor=  402 and IRadAn=       5 diagonalized for initial guess.
 HarFok:  IExCor=  402 AccDes= 0.00D+00 IRadAn=         5 IDoV= 1 UseB2=F ITyADJ=14
 ICtDFT=  3500011 ScaDFX=  1.000000  1.000000  1.000000  1.000000
 FoFCou: FMM=F IPFlag=           0 FMFlag=      100000 FMFlg1=           0
         NFxFlg=           0 DoJE=T BraDBF=F KetDBF=T FulRan=T
         wScrn=  0.000000 ICntrl=       500 IOpCl=  0 I1Cent=   200000004 NGrid=           0
         NMat0=    1 NMatS0=      1 NMatT0=    0 NMatD0=    1 NMtDS0=    0 NMtDT0=    0
 Petite list used in FoFCou.
 Harris En= -421.956012567058    
 JPrj=0 DoOrth=F DoCkMO=F.
 Leave Link  401 at Sun Jul 18 13:38:39 2021, MaxMem=   104857600 cpu:              12.7 elap:              12.6
 (Enter /dades/curu/g16A03_MST/g16/l502.exe)
 Integral symmetry usage will be decided dynamically.
 Closed shell SCF:
 Using DIIS extrapolation, IDIIS=  1040.
 NGot=   104857600 LenX=   104792409 LenY=   104760992
 Requested convergence on RMS density matrix=1.00D-08 within 128 cycles.
 Requested convergence on MAX density matrix=1.00D-06.
 Requested convergence on             energy=1.00D-06.
 No special actions if energy rises.
 Fock matrices will be formed incrementally for  20 cycles.

 Cycle   1  Pass 1  IDiag  1:
 FoFJK:  IHMeth= 1 ICntrl=       0 DoSepK=F KAlg= 0 I1Cent=           0 FoldK=F
 IRaf= 910000000 NMat=       1 IRICut=       1 DoRegI=T DoRafI=F ISym2E= 0 IDoP0=0 IntGTp=1.
 FoFCou: FMM=F IPFlag=           0 FMFlag=      100000 FMFlg1=           0
         NFxFlg=           0 DoJE=F BraDBF=F KetDBF=F FulRan=T
         wScrn=  0.000000 ICntrl=         0 IOpCl=  0 I1Cent=           0 NGrid=           0
         NMat0=    1 NMatS0=      1 NMatT0=    0 NMatD0=    1 NMtDS0=    0 NMtDT0=    0
 Symmetry not used in FoFCou.
 Inv3:  Mode=1 IEnd=    16328667.
 Iteration    1 A*A^-1 deviation from unit magnitude is 4.55D-15 for   2322.
 Iteration    1 A*A^-1 deviation from orthogonality  is 2.54D-15 for   2292   1347.
 Iteration    1 A^-1*A deviation from unit magnitude is 4.55D-15 for   2322.
 Iteration    1 A^-1*A deviation from orthogonality  is 1.12D-14 for   1999   1983.
 E= -421.834754349768    
 DIIS: error= 2.17D-02 at cycle   1 NSaved=   1.
 NSaved= 1 IEnMin= 1 EnMin= -421.834754349768     IErMin= 1 ErrMin= 2.17D-02
 ErrMax= 2.17D-02  0.00D+00 EMaxC= 1.00D-01 BMatC= 1.77D-01 BMatP= 1.77D-01
 IDIUse=3 WtCom= 7.83D-01 WtEn= 2.17D-01
 Coeff-Com:  0.100D+01
 Coeff-En:   0.100D+01
 Coeff:      0.100D+01
 Gap=     0.217 Goal=   None    Shift=    0.000
 GapD=    0.217 DampG=1.000 DampE=0.500 DampFc=0.5000 IDamp=-1.
 Damping current iteration by 5.00D-01
 RMSDP=4.93D-03 MaxDP=1.10D-01              OVMax= 1.64D-01

 Cycle   2  Pass 1  IDiag  1:
 RMSU=  2.40D-03    CP:  9.77D-01
 E= -421.925960326090     Delta-E=       -0.091205976322 Rises=F Damp=T
 DIIS: error= 5.76D-03 at cycle   2 NSaved=   2.
 NSaved= 2 IEnMin= 2 EnMin= -421.925960326090     IErMin= 2 ErrMin= 5.76D-03
 ErrMax= 5.76D-03  0.00D+00 EMaxC= 1.00D-01 BMatC= 1.10D-02 BMatP= 1.77D-01
 IDIUse=3 WtCom= 9.42D-01 WtEn= 5.76D-02
 Coeff-Com: -0.386D-01 0.104D+01
 Coeff-En:   0.000D+00 0.100D+01
 Coeff:     -0.364D-01 0.104D+01
 Gap=     0.223 Goal=   None    Shift=    0.000
 RMSDP=1.13D-03 MaxDP=1.93D-02 DE=-9.12D-02 OVMax= 9.02D-02

 Cycle   3  Pass 1  IDiag  1:
 RMSU=  1.12D-03    CP:  9.72D-01  1.04D+00
 E= -422.014990398730     Delta-E=       -0.089030072640 Rises=F Damp=F
 DIIS: error= 3.20D-03 at cycle   3 NSaved=   3.
 NSaved= 3 IEnMin= 3 EnMin= -422.014990398730     IErMin= 3 ErrMin= 3.20D-03
 ErrMax= 3.20D-03  0.00D+00 EMaxC= 1.00D-01 BMatC= 3.99D-03 BMatP= 1.10D-02
 IDIUse=3 WtCom= 9.68D-01 WtEn= 3.20D-02
 Coeff-Com: -0.588D-01 0.378D+00 0.681D+00
 Coeff-En:   0.000D+00 0.000D+00 0.100D+01
 Coeff:     -0.569D-01 0.366D+00 0.691D+00
 Gap=     0.225 Goal=   None    Shift=    0.000
 RMSDP=5.89D-04 MaxDP=1.50D-02 DE=-8.90D-02 OVMax= 5.31D-02

 Cycle   4  Pass 1  IDiag  1:
 RMSU=  4.88D-04    CP:  9.73D-01  1.06D+00  7.09D-01
 E= -422.016873363842     Delta-E=       -0.001882965113 Rises=F Damp=F
 DIIS: error= 2.51D-03 at cycle   4 NSaved=   4.
 NSaved= 4 IEnMin= 4 EnMin= -422.016873363842     IErMin= 4 ErrMin= 2.51D-03
 ErrMax= 2.51D-03  0.00D+00 EMaxC= 1.00D-01 BMatC= 2.09D-03 BMatP= 3.99D-03
 IDIUse=3 WtCom= 9.75D-01 WtEn= 2.51D-02
 Coeff-Com: -0.299D-01 0.118D+00 0.442D+00 0.470D+00
 Coeff-En:   0.000D+00 0.000D+00 0.372D+00 0.628D+00
 Coeff:     -0.291D-01 0.115D+00 0.440D+00 0.474D+00
 Gap=     0.218 Goal=   None    Shift=    0.000
 RMSDP=3.15D-04 MaxDP=7.03D-03 DE=-1.88D-03 OVMax= 2.35D-02

 Cycle   5  Pass 1  IDiag  1:
 RMSU=  1.16D-04    CP:  9.72D-01  1.07D+00  8.05D-01  4.47D-01
 E= -422.019105496339     Delta-E=       -0.002232132497 Rises=F Damp=F
 DIIS: error= 5.63D-04 at cycle   5 NSaved=   5.
 NSaved= 5 IEnMin= 5 EnMin= -422.019105496339     IErMin= 5 ErrMin= 5.63D-04
 ErrMax= 5.63D-04  0.00D+00 EMaxC= 1.00D-01 BMatC= 9.30D-05 BMatP= 2.09D-03
 IDIUse=3 WtCom= 9.94D-01 WtEn= 5.63D-03
 Coeff-Com: -0.968D-02 0.280D-01 0.172D+00 0.247D+00 0.562D+00
 Coeff-En:   0.000D+00 0.000D+00 0.000D+00 0.000D+00 0.100D+01
 Coeff:     -0.963D-02 0.278D-01 0.171D+00 0.246D+00 0.565D+00
 Gap=     0.217 Goal=   None    Shift=    0.000
 RMSDP=6.34D-05 MaxDP=2.57D-03 DE=-2.23D-03 OVMax= 5.23D-03

 Cycle   6  Pass 1  IDiag  1:
 RMSU=  3.77D-05    CP:  9.72D-01  1.07D+00  8.02D-01  5.09D-01  6.48D-01
 E= -422.019180469778     Delta-E=       -0.000074973439 Rises=F Damp=F
 DIIS: error= 2.06D-04 at cycle   6 NSaved=   6.
 NSaved= 6 IEnMin= 6 EnMin= -422.019180469778     IErMin= 6 ErrMin= 2.06D-04
 ErrMax= 2.06D-04  0.00D+00 EMaxC= 1.00D-01 BMatC= 1.66D-05 BMatP= 9.30D-05
 IDIUse=3 WtCom= 9.98D-01 WtEn= 2.06D-03
 Coeff-Com: -0.294D-02 0.520D-02 0.606D-01 0.104D+00 0.348D+00 0.485D+00
 Coeff-En:   0.000D+00 0.000D+00 0.000D+00 0.000D+00 0.113D+00 0.887D+00
 Coeff:     -0.294D-02 0.519D-02 0.605D-01 0.103D+00 0.348D+00 0.486D+00
 Gap=     0.218 Goal=   None    Shift=    0.000
 RMSDP=1.98D-05 MaxDP=8.67D-04 DE=-7.50D-05 OVMax= 1.32D-03

 Cycle   7  Pass 1  IDiag  1:
 RMSU=  7.45D-06    CP:  9.72D-01  1.07D+00  8.05D-01  5.08D-01  6.97D-01
                    CP:  5.52D-01
 E= -422.019194805336     Delta-E=       -0.000014335558 Rises=F Damp=F
 DIIS: error= 2.10D-05 at cycle   7 NSaved=   7.
 NSaved= 7 IEnMin= 7 EnMin= -422.019194805336     IErMin= 7 ErrMin= 2.10D-05
 ErrMax= 2.10D-05  0.00D+00 EMaxC= 1.00D-01 BMatC= 2.71D-07 BMatP= 1.66D-05
 IDIUse=1 WtCom= 1.00D+00 WtEn= 0.00D+00
 Coeff-Com: -0.918D-03 0.125D-02 0.207D-01 0.360D-01 0.130D+00 0.216D+00
 Coeff-Com:  0.597D+00
 Coeff:     -0.918D-03 0.125D-02 0.207D-01 0.360D-01 0.130D+00 0.216D+00
 Coeff:      0.597D+00
 Gap=     0.218 Goal=   None    Shift=    0.000
 RMSDP=3.78D-06 MaxDP=9.86D-05 DE=-1.43D-05 OVMax= 1.39D-04

 Cycle   8  Pass 1  IDiag  1:
 RMSU=  2.53D-06    CP:  9.72D-01  1.07D+00  8.06D-01  5.09D-01  6.98D-01
                    CP:  5.67D-01  6.69D-01
 E= -422.019195037778     Delta-E=       -0.000000232442 Rises=F Damp=F
 DIIS: error= 6.89D-06 at cycle   8 NSaved=   8.
 NSaved= 8 IEnMin= 8 EnMin= -422.019195037778     IErMin= 8 ErrMin= 6.89D-06
 ErrMax= 6.89D-06  0.00D+00 EMaxC= 1.00D-01 BMatC= 2.64D-08 BMatP= 2.71D-07
 IDIUse=1 WtCom= 1.00D+00 WtEn= 0.00D+00
 Coeff-Com: -0.307D-04-0.147D-03 0.190D-02 0.318D-02 0.150D-01 0.412D-01
 Coeff-Com:  0.269D+00 0.670D+00
 Coeff:     -0.307D-04-0.147D-03 0.190D-02 0.318D-02 0.150D-01 0.412D-01
 Coeff:      0.269D+00 0.670D+00
 Gap=     0.218 Goal=   None    Shift=    0.000
 RMSDP=9.95D-07 MaxDP=2.96D-05 DE=-2.32D-07 OVMax= 4.28D-05

 Cycle   9  Pass 1  IDiag  1:
 RMSU=  5.95D-07    CP:  9.72D-01  1.07D+00  8.06D-01  5.09D-01  6.99D-01
                    CP:  5.71D-01  7.24D-01  7.45D-01
 E= -422.019195061649     Delta-E=       -0.000000023871 Rises=F Damp=F
 DIIS: error= 1.79D-06 at cycle   9 NSaved=   9.
 NSaved= 9 IEnMin= 9 EnMin= -422.019195061649     IErMin= 9 ErrMin= 1.79D-06
 ErrMax= 1.79D-06  0.00D+00 EMaxC= 1.00D-01 BMatC= 1.76D-09 BMatP= 2.64D-08
 IDIUse=1 WtCom= 1.00D+00 WtEn= 0.00D+00
 Coeff-Com:  0.348D-04-0.133D-03-0.156D-03-0.462D-03-0.512D-04 0.838D-02
 Coeff-Com:  0.868D-01 0.291D+00 0.614D+00
 Coeff:      0.348D-04-0.133D-03-0.156D-03-0.462D-03-0.512D-04 0.838D-02
 Coeff:      0.868D-01 0.291D+00 0.614D+00
 Gap=     0.218 Goal=   None    Shift=    0.000
 RMSDP=2.86D-07 MaxDP=8.05D-06 DE=-2.39D-08 OVMax= 1.67D-05

 Cycle  10  Pass 1  IDiag  1:
 RMSU=  1.96D-07    CP:  9.72D-01  1.07D+00  8.06D-01  5.09D-01  6.99D-01
                    CP:  5.73D-01  7.34D-01  7.79D-01  7.50D-01
 E= -422.019195063141     Delta-E=       -0.000000001491 Rises=F Damp=F
 DIIS: error= 8.43D-07 at cycle  10 NSaved=  10.
 NSaved=10 IEnMin=10 EnMin= -422.019195063141     IErMin=10 ErrMin= 8.43D-07
 ErrMax= 8.43D-07  0.00D+00 EMaxC= 1.00D-01 BMatC= 2.89D-10 BMatP= 1.76D-09
 IDIUse=1 WtCom= 1.00D+00 WtEn= 0.00D+00
 Coeff-Com:  0.239D-04-0.526D-04-0.330D-03-0.704D-03-0.210D-02-0.336D-03
 Coeff-Com:  0.120D-01 0.691D-01 0.321D+00 0.601D+00
 Coeff:      0.239D-04-0.526D-04-0.330D-03-0.704D-03-0.210D-02-0.336D-03
 Coeff:      0.120D-01 0.691D-01 0.321D+00 0.601D+00
 Gap=     0.218 Goal=   None    Shift=    0.000
 RMSDP=1.00D-07 MaxDP=2.36D-06 DE=-1.49D-09 OVMax= 6.46D-06

 Cycle  11  Pass 1  IDiag  1:
 RMSU=  5.88D-08    CP:  9.72D-01  1.07D+00  8.06D-01  5.09D-01  6.99D-01
                    CP:  5.73D-01  7.33D-01  7.85D-01  8.24D-01  7.04D-01
 E= -422.019195063419     Delta-E=       -0.000000000279 Rises=F Damp=F
 DIIS: error= 2.11D-07 at cycle  11 NSaved=  11.
 NSaved=11 IEnMin=11 EnMin= -422.019195063419     IErMin=11 ErrMin= 2.11D-07
 ErrMax= 2.11D-07  0.00D+00 EMaxC= 1.00D-01 BMatC= 1.62D-11 BMatP= 2.89D-10
 IDIUse=1 WtCom= 1.00D+00 WtEn= 0.00D+00
 Coeff-Com:  0.824D-05-0.142D-04-0.128D-03-0.277D-03-0.935D-03-0.550D-03
 Coeff-Com: -0.162D-02 0.815D-02 0.978D-01 0.253D+00 0.644D+00
 Coeff:      0.824D-05-0.142D-04-0.128D-03-0.277D-03-0.935D-03-0.550D-03
 Coeff:     -0.162D-02 0.815D-02 0.978D-01 0.253D+00 0.644D+00
 Gap=     0.218 Goal=   None    Shift=    0.000
 RMSDP=3.06D-08 MaxDP=7.31D-07 DE=-2.79D-10 OVMax= 1.89D-06

 Cycle  12  Pass 1  IDiag  1:
 RMSU=  2.38D-08    CP:  9.72D-01  1.07D+00  8.06D-01  5.09D-01  6.99D-01
                    CP:  5.73D-01  7.34D-01  7.88D-01  8.29D-01  7.52D-01
                    CP:  7.75D-01
 E= -422.019195063427     Delta-E=       -0.000000000008 Rises=F Damp=F
 DIIS: error= 1.03D-07 at cycle  12 NSaved=  12.
 NSaved=12 IEnMin=12 EnMin= -422.019195063427     IErMin=12 ErrMin= 1.03D-07
 ErrMax= 1.03D-07  0.00D+00 EMaxC= 1.00D-01 BMatC= 4.30D-12 BMatP= 1.62D-11
 IDIUse=1 WtCom= 1.00D+00 WtEn= 0.00D+00
 Coeff-Com:  0.152D-05-0.104D-05-0.240D-04-0.586D-04-0.233D-03-0.145D-03
 Coeff-Com: -0.242D-02-0.425D-02 0.131D-01 0.581D-01 0.379D+00 0.556D+00
 Coeff:      0.152D-05-0.104D-05-0.240D-04-0.586D-04-0.233D-03-0.145D-03
 Coeff:     -0.242D-02-0.425D-02 0.131D-01 0.581D-01 0.379D+00 0.556D+00
 Gap=     0.218 Goal=   None    Shift=    0.000
 RMSDP=1.40D-08 MaxDP=3.88D-07 DE=-7.50D-12 OVMax= 1.35D-06

 Cycle  13  Pass 1  IDiag  1:
 RMSU=  6.61D-09    CP:  9.72D-01  1.07D+00  8.06D-01  5.09D-01  6.99D-01
                    CP:  5.73D-01  7.34D-01  7.88D-01  8.35D-01  7.57D-01
                    CP:  8.71D-01  5.74D-01
 E= -422.019195063436     Delta-E=       -0.000000000009 Rises=F Damp=F
 DIIS: error= 2.59D-08 at cycle  13 NSaved=  13.
 NSaved=13 IEnMin=13 EnMin= -422.019195063436     IErMin=13 ErrMin= 2.59D-08
 ErrMax= 2.59D-08  0.00D+00 EMaxC= 1.00D-01 BMatC= 2.96D-13 BMatP= 4.30D-12
 IDIUse=1 WtCom= 1.00D+00 WtEn= 0.00D+00
 Coeff-Com: -0.151D-06 0.970D-06 0.284D-05 0.279D-05-0.111D-04 0.149D-05
 Coeff-Com: -0.104D-02-0.304D-02-0.497D-02-0.430D-02 0.868D-01 0.251D+00
 Coeff-Com:  0.676D+00
 Coeff:     -0.151D-06 0.970D-06 0.284D-05 0.279D-05-0.111D-04 0.149D-05
 Coeff:     -0.104D-02-0.304D-02-0.497D-02-0.430D-02 0.868D-01 0.251D+00
 Coeff:      0.676D+00
 Gap=     0.218 Goal=   None    Shift=    0.000
 RMSDP=3.53D-09 MaxDP=9.78D-08 DE=-8.87D-12 OVMax= 2.33D-07

 Error on total polarization charges =  0.00629
 SCF Done:  E(RB3LYP) =  -422.019195063     A.U. after   13 cycles
            NFock= 13  Conv=0.35D-08     -V/T= 2.0097
 KE= 4.179802308348D+02 PE=-1.999699078361D+03 EE= 6.422727959551D+02
 Leave Link  502 at Sun Jul 18 13:43:25 2021, MaxMem=   104857600 cpu:             320.6 elap:             285.8
 (Enter /dades/curu/g16A03_MST/g16/l601.exe)
 Copying SCF densities to generalized density rwf, IOpCl= 0 IROHF=0.

 **********************************************************************

            Population analysis using the SCF density.

 **********************************************************************

 Orbital symmetries:
       Occupied  (A) (A) (A) (A) (A) (A) (A) (A) (A) (A) (A) (A)
                 (A) (A) (A) (A) (A) (A) (A) (A) (A) (A) (A) (A)
                 (A) (A) (A) (A) (A) (A) (A) (A) (A) (A) (A) (A)
                 (A)
       Virtual   (A) (A) (A) (A) (A) (A) (A) (A) (A) (A) (A) (A)
                 (A) (A) (A) (A) (A) (A) (A) (A) (A) (A) (A) (A)
                 (A) (A) (A) (A) (A) (A) (A) (A) (A) (A) (A) (A)
                 (A) (A) (A) (A) (A) (A) (A) (A) (A) (A) (A) (A)
                 (A) (A) (A) (A) (A) (A) (A) (A) (A) (A) (A) (A)
                 (A) (A) (A) (A) (A) (A) (A) (A) (A) (A) (A) (A)
                 (A) (A) (A) (A) (A) (A) (A) (A) (A) (A) (A) (A)
                 (A) (A) (A) (A) (A) (A) (A) (A) (A) (A) (A) (A)
                 (A) (A) (A) (A) (A) (A) (A) (A) (A) (A) (A) (A)
                 (A) (A) (A) (A) (A) (A) (A) (A) (A) (A) (A) (A)
                 (A) (A) (A) (A) (A) (A) (A) (A) (A) (A) (A) (A)
                 (A) (A) (A) (A) (A) (A) (A)
 The electronic state is 1-A.
 Alpha  occ. eigenvalues --  -14.48708 -14.35700 -10.27236 -10.26572 -10.25233
 Alpha  occ. eigenvalues --  -10.24557 -10.22962 -10.22329 -10.21877 -10.21735
 Alpha  occ. eigenvalues --   -1.07262  -0.94967  -0.84354  -0.81602  -0.77738
 Alpha  occ. eigenvalues --   -0.74546  -0.69871  -0.65002  -0.64721  -0.61974
 Alpha  occ. eigenvalues --   -0.56567  -0.55521  -0.53172  -0.50071  -0.48970
 Alpha  occ. eigenvalues --   -0.46485  -0.46274  -0.44139  -0.42970  -0.42334
 Alpha  occ. eigenvalues --   -0.40810  -0.40031  -0.39408  -0.37111  -0.30237
 Alpha  occ. eigenvalues --   -0.27937  -0.27207
 Alpha virt. eigenvalues --   -0.05433  -0.03007   0.03270   0.06598   0.08128
 Alpha virt. eigenvalues --    0.08493   0.09491   0.10422   0.11130   0.11928
 Alpha virt. eigenvalues --    0.12826   0.13405   0.14359   0.15520   0.16431
 Alpha virt. eigenvalues --    0.16696   0.18070   0.18670   0.21656   0.23149
 Alpha virt. eigenvalues --    0.24550   0.29091   0.30306   0.31449   0.42999
 Alpha virt. eigenvalues --    0.43309   0.45550   0.47612   0.48888   0.49880
 Alpha virt. eigenvalues --    0.51100   0.51891   0.54266   0.56087   0.57178
 Alpha virt. eigenvalues --    0.57610   0.58054   0.59025   0.59802   0.62354
 Alpha virt. eigenvalues --    0.62997   0.63996   0.67167   0.68659   0.70238
 Alpha virt. eigenvalues --    0.72141   0.73301   0.77419   0.79124   0.80703
 Alpha virt. eigenvalues --    0.81646   0.82389   0.82574   0.83309   0.84198
 Alpha virt. eigenvalues --    0.84348   0.86029   0.86631   0.88997   0.90006
 Alpha virt. eigenvalues --    0.90696   0.92622   0.93166   0.93914   0.97056
 Alpha virt. eigenvalues --    0.97922   1.01012   1.05411   1.06780   1.10106
 Alpha virt. eigenvalues --    1.14914   1.17194   1.24583   1.25412   1.29929
 Alpha virt. eigenvalues --    1.33439   1.36296   1.38579   1.42386   1.43135
 Alpha virt. eigenvalues --    1.47934   1.48667   1.56593   1.57587   1.59061
 Alpha virt. eigenvalues --    1.67449   1.69236   1.71521   1.78097   1.80281
 Alpha virt. eigenvalues --    1.86000   1.87313   1.88807   1.90094   1.91185
 Alpha virt. eigenvalues --    1.92983   1.94804   1.97654   1.98928   2.00502
 Alpha virt. eigenvalues --    2.04852   2.08743   2.11264   2.12842   2.14497
 Alpha virt. eigenvalues --    2.17028   2.19802   2.22622   2.26722   2.26864
 Alpha virt. eigenvalues --    2.29064   2.32203   2.37105   2.39652   2.41506
 Alpha virt. eigenvalues --    2.47514   2.53338   2.55168   2.57264   2.61799
 Alpha virt. eigenvalues --    2.64911   2.67526   2.69212   2.72150   2.74903
 Alpha virt. eigenvalues --    2.77322   2.82096   3.05464   3.31016   3.89514
 Alpha virt. eigenvalues --    4.03057   4.07767   4.11792   4.16426   4.21141
 Alpha virt. eigenvalues --    4.26457   4.37177   4.47043   4.58320
          Condensed to atoms (all electrons):
               1          2          3          4          5          6
     1  C    5.062342   0.382492   0.384418   0.380758   0.263366  -0.022684
     2  H    0.382492   0.487580  -0.029941  -0.032283  -0.030346  -0.004968
     3  H    0.384418  -0.029941   0.451637  -0.015698  -0.027175   0.002852
     4  H    0.380758  -0.032283  -0.015698   0.483427  -0.033885  -0.000241
     5  N    0.263366  -0.030346  -0.027175  -0.033885   6.665359   0.298117
     6  H   -0.022684  -0.004968   0.002852  -0.000241   0.298117   0.290657
     7  C   -0.047489  -0.003119  -0.001271   0.004925   0.240501  -0.026381
     8  H   -0.003236  -0.000206   0.003051   0.000070  -0.036819   0.004446
     9  H    0.000455   0.002800  -0.000660  -0.000035  -0.038569  -0.003079
    10  C    0.005312  -0.000045   0.000086  -0.000271  -0.051143  -0.003670
    11  H    0.000108  -0.000003   0.000006   0.000001  -0.005958  -0.000232
    12  H   -0.000114   0.000001  -0.000007   0.000003   0.003823   0.000141
    13  C   -0.000105   0.000024  -0.000005   0.000006  -0.003733   0.010339
    14  N   -0.000012  -0.000003   0.000000   0.000000  -0.000074   0.000181
    15  C   -0.000000  -0.000000   0.000000   0.000000   0.000005  -0.000049
    16  H    0.000000  -0.000000  -0.000000  -0.000000   0.000000  -0.000000
    17  C    0.000000  -0.000000   0.000000  -0.000000   0.000001  -0.000036
    18  H    0.000000   0.000000   0.000000  -0.000000  -0.000000  -0.000000
    19  C    0.000000  -0.000000   0.000000   0.000000  -0.000005   0.000127
    20  H   -0.000000  -0.000000  -0.000000  -0.000000   0.000000  -0.000001
    21  C   -0.000007   0.000005  -0.000001   0.000002   0.000216   0.004472
    22  H    0.000004  -0.000000  -0.000000  -0.000001  -0.000002   0.000071
    23  H   -0.025132   0.003820  -0.001423  -0.005197   0.306723  -0.012574
               7          8          9         10         11         12
     1  C   -0.047489  -0.003236   0.000455   0.005312   0.000108  -0.000114
     2  H   -0.003119  -0.000206   0.002800  -0.000045  -0.000003   0.000001
     3  H   -0.001271   0.003051  -0.000660   0.000086   0.000006  -0.000007
     4  H    0.004925   0.000070  -0.000035  -0.000271   0.000001   0.000003
     5  N    0.240501  -0.036819  -0.038569  -0.051143  -0.005958   0.003823
     6  H   -0.026381   0.004446  -0.003079  -0.003670  -0.000232   0.000141
     7  C    5.046327   0.382076   0.380645   0.344910  -0.033921  -0.026488
     8  H    0.382076   0.501582  -0.022528  -0.040730  -0.002069  -0.005236
     9  H    0.380645  -0.022528   0.480317  -0.037349   0.004454  -0.000026
    10  C    0.344910  -0.040730  -0.037349   5.206050   0.369010   0.365193
    11  H   -0.033921  -0.002069   0.004454   0.369010   0.540937  -0.029770
    12  H   -0.026488  -0.005236  -0.000026   0.365193  -0.029770   0.505525
    13  C   -0.039364   0.005116  -0.008031   0.356815  -0.043275  -0.024619
    14  N   -0.005632  -0.000038   0.010634  -0.077601   0.003797  -0.000652
    15  C    0.000130   0.000005  -0.000172   0.004839  -0.000235   0.000456
    16  H    0.000005  -0.000000  -0.000006  -0.000249   0.000003  -0.000010
    17  C   -0.000022   0.000000   0.000017   0.000554   0.000010   0.000049
    18  H    0.000000   0.000000  -0.000000   0.000010  -0.000001  -0.000001
    19  C   -0.000181   0.000003   0.000023   0.005031   0.000414  -0.000144
    20  H    0.000001  -0.000000   0.000000  -0.000135  -0.000008   0.000004
    21  C   -0.001126  -0.000180   0.000969  -0.069344   0.002205   0.002852
    22  H    0.000061  -0.000020  -0.000043  -0.006301   0.004153  -0.000030
    23  H   -0.024240  -0.003668   0.004007   0.000200   0.004728  -0.000038
              13         14         15         16         17         18
     1  C   -0.000105  -0.000012  -0.000000   0.000000   0.000000   0.000000
     2  H    0.000024  -0.000003  -0.000000  -0.000000  -0.000000   0.000000
     3  H   -0.000005   0.000000   0.000000  -0.000000   0.000000   0.000000
     4  H    0.000006   0.000000   0.000000  -0.000000  -0.000000  -0.000000
     5  N   -0.003733  -0.000074   0.000005   0.000000   0.000001  -0.000000
     6  H    0.010339   0.000181  -0.000049  -0.000000  -0.000036  -0.000000
     7  C   -0.039364  -0.005632   0.000130   0.000005  -0.000022   0.000000
     8  H    0.005116  -0.000038   0.000005  -0.000000   0.000000   0.000000
     9  H   -0.008031   0.010634  -0.000172  -0.000006   0.000017  -0.000000
    10  C    0.356815  -0.077601   0.004839  -0.000249   0.000554   0.000010
    11  H   -0.043275   0.003797  -0.000235   0.000003   0.000010  -0.000001
    12  H   -0.024619  -0.000652   0.000456  -0.000010   0.000049  -0.000001
    13  C    4.690294   0.416615  -0.056861   0.003977  -0.034015   0.000406
    14  N    0.416615   6.849824   0.433008  -0.044137  -0.028426   0.004079
    15  C   -0.056861   0.433008   4.811708   0.374896   0.505407  -0.034779
    16  H    0.003977  -0.044137   0.374896   0.558324  -0.059287  -0.002702
    17  C   -0.034015  -0.028426   0.505407  -0.059287   4.952570   0.355995
    18  H    0.000406   0.004079  -0.034779  -0.002702   0.355995   0.554476
    19  C   -0.029989  -0.038355  -0.031693   0.003670   0.531378  -0.040267
    20  H    0.003505  -0.000181   0.004316  -0.000163  -0.040828  -0.004410
    21  C    0.514979  -0.040371  -0.041461   0.000785  -0.037701   0.005252
    22  H   -0.041271   0.005028   0.000249   0.000023   0.005427  -0.000128
    23  H   -0.000648   0.000008  -0.000001   0.000000  -0.000000  -0.000000
              19         20         21         22         23
     1  C    0.000000  -0.000000  -0.000007   0.000004  -0.025132
     2  H   -0.000000  -0.000000   0.000005  -0.000000   0.003820
     3  H    0.000000  -0.000000  -0.000001  -0.000000  -0.001423
     4  H    0.000000  -0.000000   0.000002  -0.000001  -0.005197
     5  N   -0.000005   0.000000   0.000216  -0.000002   0.306723
     6  H    0.000127  -0.000001   0.004472   0.000071  -0.012574
     7  C   -0.000181   0.000001  -0.001126   0.000061  -0.024240
     8  H    0.000003  -0.000000  -0.000180  -0.000020  -0.003668
     9  H    0.000023   0.000000   0.000969  -0.000043   0.004007
    10  C    0.005031  -0.000135  -0.069344  -0.006301   0.000200
    11  H    0.000414  -0.000008   0.002205   0.004153   0.004728
    12  H   -0.000144   0.000004   0.002852  -0.000030  -0.000038
    13  C   -0.029989   0.003505   0.514979  -0.041271  -0.000648
    14  N   -0.038355  -0.000181  -0.040371   0.005028   0.000008
    15  C   -0.031693   0.004316  -0.041461   0.000249  -0.000001
    16  H    0.003670  -0.000163   0.000785   0.000023   0.000000
    17  C    0.531378  -0.040828  -0.037701   0.005427  -0.000000
    18  H   -0.040267  -0.004410   0.005252  -0.000128  -0.000000
    19  C    4.844152   0.366097   0.528650  -0.042518   0.000002
    20  H    0.366097   0.538153  -0.037814  -0.004821  -0.000000
    21  C    0.528650  -0.037814   4.996249   0.351932   0.000206
    22  H   -0.042518  -0.004821   0.351932   0.577976   0.000163
    23  H    0.000002  -0.000000   0.000206   0.000163   0.286593
 Mulliken charges:
               1
     1  C   -0.380476
     2  H    0.224193
     3  H    0.234130
     4  H    0.218419
     5  N   -0.550403
     6  H    0.462511
     7  C   -0.190344
     8  H    0.218381
     9  H    0.226177
    10  C   -0.371174
    11  H    0.185642
    12  H    0.209086
    13  C    0.279837
    14  N   -0.487694
    15  C    0.030234
    16  H    0.164869
    17  C   -0.151094
    18  H    0.162070
    19  C   -0.096395
    20  H    0.176282
    21  C   -0.180770
    22  H    0.150048
    23  H    0.466471
 Sum of Mulliken charges =   1.00000
 Mulliken charges with hydrogens summed into heavy atoms:
               1
     1  C    0.296266
     5  N    0.378579
     7  C    0.254213
    10  C    0.023555
    13  C    0.279837
    14  N   -0.487694
    15  C    0.195103
    17  C    0.010976
    19  C    0.079887
    21  C   -0.030722
 Electronic spatial extent (au):  <R**2>=           1834.6162
 Charge=              1.0000 electrons
 Dipole moment (field-independent basis, Debye):
    X=              9.4486    Y=              4.2890    Z=              0.1292  Tot=             10.3773
 Quadrupole moment (field-independent basis, Debye-Ang):
   XX=            -17.7016   YY=            -53.2108   ZZ=            -53.8217
   XY=              3.0338   XZ=              0.0545   YZ=             -0.1463
 Traceless Quadrupole moment (field-independent basis, Debye-Ang):
   XX=             23.8764   YY=            -11.6327   ZZ=            -12.2437
   XY=              3.0338   XZ=              0.0545   YZ=             -0.1463
 Octapole moment (field-independent basis, Debye-Ang**2):
  XXX=             76.4911  YYY=             16.6249  ZZZ=              0.7529  XYY=             10.8619
  XXY=             19.0346  XXZ=            -22.0422  XZZ=             19.6853  YZZ=              0.1542
  YYZ=              3.0764  XYZ=             -5.3383
 Hexadecapole moment (field-independent basis, Debye-Ang**3):
 XXXX=          -1351.8129 YYYY=           -341.4292 ZZZZ=           -245.1889 XXXY=             33.8243
 XXXZ=             -7.3450 YYYX=              2.7923 YYYZ=              1.1481 ZZZX=            -11.0126
 ZZZY=             -3.4598 XXYY=           -296.5354 XXZZ=           -308.5553 YYZZ=            -93.2999
 XXYZ=              4.5314 YYXZ=              1.0687 ZZXY=             11.5894
 N-N= 5.174268565082D+02 E-N=-1.999699077371D+03  KE= 4.179802308348D+02
 No NMR shielding tensors so no spin-rotation constants.
 Leave Link  601 at Sun Jul 18 13:43:25 2021, MaxMem=   104857600 cpu:               0.4 elap:               0.4
 (Enter /dades/curu/g16A03_MST/g16/l701.exe)
 ... and contract with generalized density number  0.
 Compute integral first derivatives.
 D1PCM: PCM CHGder 1st derivatives, ID1Alg=3 FixD1E=F DoIter=F DoCFld=F I1PDM=0.
 GePol: Maximum number of non-zero 1st derivatives   =     269
 Leave Link  701 at Sun Jul 18 13:43:33 2021, MaxMem=   104857600 cpu:               8.0 elap:               8.0
 (Enter /dades/curu/g16A03_MST/g16/l702.exe)
 L702 exits ... SP integral derivatives will be done elsewhere.
 Leave Link  702 at Sun Jul 18 13:43:33 2021, MaxMem=   104857600 cpu:               0.0 elap:               0.0
 (Enter /dades/curu/g16A03_MST/g16/l703.exe)
 Integral derivatives from FoFJK, PRISM(SPDF).
 Compute integral first derivatives, UseDBF=F ICtDFT=           0.
 Calling FoFJK, ICntrl=      2127 FMM=F ISym2X=0 I1Cent= 0 IOpClX= 0 NMat=1 NMatS=1 NMatT=0.
 FoFJK:  IHMeth= 1 ICntrl=    2127 DoSepK=F KAlg= 0 I1Cent=           0 FoldK=F
 IRaf=         0 NMat=       1 IRICut=       1 DoRegI=T DoRafI=F ISym2E= 0 IDoP0=0 IntGTp=1.
 FoFCou: FMM=F IPFlag=           0 FMFlag=      100000 FMFlg1=         800
         NFxFlg=           0 DoJE=F BraDBF=F KetDBF=F FulRan=T
         wScrn=  0.000000 ICntrl=      2127 IOpCl=  0 I1Cent=           0 NGrid=           0
         NMat0=    1 NMatS0=      1 NMatT0=    0 NMatD0=    1 NMtDS0=    0 NMtDT0=    0
 Symmetry not used in FoFCou.
 Leave Link  703 at Sun Jul 18 13:44:10 2021, MaxMem=   104857600 cpu:              37.2 elap:              37.3
 (Enter /dades/curu/g16A03_MST/g16/l716.exe)
 Dipole        = 3.71737998D+00 1.68740441D+00 5.08461556D-02
 ***** Axes restored to original set *****
 -------------------------------------------------------------------
 Center     Atomic                   Forces (Hartrees/Bohr)
 Number     Number              X              Y              Z
 -------------------------------------------------------------------
      1        6           0.062801716    0.042040862    0.018888691
      2        1          -0.007798531   -0.000626133   -0.009999236
      3        1          -0.015198404   -0.009767325    0.006703189
      4        1           0.004348688   -0.013324398    0.004599203
      5        7          -0.000878364   -0.015613082   -0.011805080
      6        1          -0.015722326    0.023380378    0.005027119
      7        6           0.003030224   -0.033995396   -0.033418520
      8        1           0.016452655    0.006192420    0.005619504
      9        1           0.000367587   -0.002313005    0.001716003
     10        6          -0.029760316    0.002931306   -0.003659491
     11        1           0.003884136    0.000398912    0.006934291
     12        1           0.009337346    0.001764097   -0.003915420
     13        6          -0.007747432    0.028197562   -0.019037031
     14        7          -0.033903029    0.014201433   -0.002142271
     15        6          -0.005179661   -0.008435265    0.025011950
     16        1           0.014828662   -0.002977918    0.000858666
     17        6           0.001249722   -0.015666434    0.006926135
     18        1           0.003151424    0.001150564    0.002144036
     19        6           0.016480804    0.001110933   -0.029984203
     20        1           0.003876543   -0.002416574    0.002232781
     21        6          -0.006156168   -0.005329116    0.007832942
     22        1          -0.000530614   -0.000639628   -0.000970534
     23        1          -0.016934664   -0.010264191    0.020437276
 -------------------------------------------------------------------
 Cartesian Forces:  Max     0.062801716 RMS     0.016017521
 Leave Link  716 at Sun Jul 18 13:44:10 2021, MaxMem=   104857600 cpu:               0.0 elap:               0.0
 (Enter /dades/curu/g16A03_MST/g16/l103.exe)

 GradGradGradGradGradGradGradGradGradGradGradGradGradGradGradGradGradGrad
 Berny optimization.
 FormGI is forming the generalized inverse of G from B-inverse, IUseBI=4.
 Internal  Forces:  Max     0.049972035 RMS     0.010397215
 Search for a local minimum.
 Step number   1 out of a maximum of  126
 All quantities printed in internal units (Hartrees-Bohrs-Radians)
 RMS Force = .10397D-01 SwitMx=.10000D-02 MixMth= 1
 Mixed Optimization -- RFO/linear search
 Second derivative matrix not updated -- first step.
 ITU=  0
     Eigenvalues ---    0.00888   0.00929   0.01117   0.01448   0.01532
     Eigenvalues ---    0.01864   0.01902   0.01934   0.01995   0.02035
     Eigenvalues ---    0.02061   0.02104   0.04163   0.04169   0.04241
     Eigenvalues ---    0.05158   0.05441   0.05474   0.05530   0.06560
     Eigenvalues ---    0.08468   0.08889   0.09952   0.12235   0.12502
     Eigenvalues ---    0.13111   0.15864   0.15937   0.15956   0.15975
     Eigenvalues ---    0.16000   0.16000   0.16000   0.21764   0.22011
     Eigenvalues ---    0.22024   0.22064   0.22372   0.24293   0.24992
     Eigenvalues ---    0.33362   0.33708   0.34394   0.34504   0.34507
     Eigenvalues ---    0.34507   0.34514   0.34517   0.34600   0.35020
     Eigenvalues ---    0.35112   0.35196   0.35218   0.39114   0.39909
     Eigenvalues ---    0.41568   0.42692   0.43723   0.45091   0.47732
     Eigenvalues ---    0.47753   0.48335   0.50741
 RFO step:  Lambda=-4.17156586D-02 EMin= 8.87591052D-03
 Linear search not attempted -- first point.
 Maximum step size (   0.300) exceeded in Quadratic search.
    -- Step size scaled by   0.874
 Iteration  1 RMS(Cart)=  0.08077480 RMS(Int)=  0.00332741
 Iteration  2 RMS(Cart)=  0.00400086 RMS(Int)=  0.00053557
 Iteration  3 RMS(Cart)=  0.00000947 RMS(Int)=  0.00053549
 Iteration  4 RMS(Cart)=  0.00000001 RMS(Int)=  0.00053549
 ITry= 1 IFail=0 DXMaxC= 3.54D-01 DCOld= 1.00D+10 DXMaxT= 3.00D-01 DXLimC= 3.00D+00 Rises=F
 Variable       Old X    -DE/DX   Delta X   Delta X   Delta X     New X
                                 (Linear)    (Quad)   (Total)
    R1        2.06671   0.00111   0.00000   0.00251   0.00251   2.06922
    R2        2.06483  -0.00405   0.00000  -0.00914  -0.00914   2.05569
    R3        2.06471  -0.00042   0.00000  -0.00095  -0.00095   2.06376
    R4        2.68051   0.04997   0.00000   0.09316   0.09316   2.77367
    R5        1.88925   0.02763   0.00000   0.04650   0.04650   1.93575
    R6        2.72775   0.03837   0.00000   0.07743   0.07743   2.80518
    R7        1.88904   0.02772   0.00000   0.04664   0.04664   1.93568
    R8        2.06467   0.00013   0.00000   0.00030   0.00030   2.06497
    R9        2.06488  -0.00225   0.00000  -0.00508  -0.00508   2.05980
   R10        2.81126   0.02912   0.00000   0.06717   0.06717   2.87842
   R11        2.06328   0.00308   0.00000   0.00693   0.00693   2.07022
   R12        2.06482   0.00033   0.00000   0.00076   0.00076   2.06558
   R13        2.81721   0.01624   0.00000   0.03780   0.03780   2.85502
   R14        2.58004  -0.01889   0.00000  -0.02941  -0.02950   2.55055
   R15        2.66058  -0.00974   0.00000  -0.01592  -0.01602   2.64456
   R16        2.60690  -0.03619   0.00000  -0.06085  -0.06087   2.54603
   R17        2.05642  -0.00112   0.00000  -0.00249  -0.00249   2.05393
   R18        2.67723  -0.01955   0.00000  -0.03796  -0.03787   2.63936
   R19        2.05494  -0.00209   0.00000  -0.00464  -0.00464   2.05030
   R20        2.68196  -0.01949   0.00000  -0.03641  -0.03630   2.64566
   R21        2.05322  -0.00276   0.00000  -0.00612  -0.00612   2.04710
   R22        2.63837  -0.00637   0.00000  -0.00935  -0.00934   2.62904
   R23        2.05358  -0.00058   0.00000  -0.00130  -0.00130   2.05228
    A1        1.78837   0.01640   0.00000   0.07043   0.06871   1.85708
    A2        1.74185   0.00880   0.00000   0.07093   0.07087   1.81272
    A3        1.95177  -0.00981   0.00000  -0.02997  -0.03093   1.92084
    A4        2.00066  -0.00148   0.00000  -0.02745  -0.02889   1.97177
    A5        2.07921  -0.02043   0.00000  -0.10207  -0.10379   1.97542
    A6        1.87170   0.01083   0.00000   0.04680   0.04590   1.91761
    A7        1.89513  -0.00033   0.00000  -0.00261  -0.00262   1.89251
    A8        1.98630  -0.00066   0.00000   0.00274   0.00268   1.98898
    A9        1.89548   0.00164   0.00000   0.01071   0.01064   1.90612
   A10        1.89503   0.00173   0.00000   0.00892   0.00893   1.90396
   A11        1.89532  -0.00348   0.00000  -0.02918  -0.02914   1.86617
   A12        1.89485   0.00090   0.00000   0.00745   0.00737   1.90222
   A13        1.92863  -0.01015   0.00000  -0.05223  -0.05408   1.87455
   A14        1.90591  -0.00010   0.00000  -0.01374  -0.01423   1.89168
   A15        1.96265   0.00350   0.00000   0.01749   0.01747   1.98012
   A16        1.93746  -0.00195   0.00000  -0.02158  -0.02296   1.91450
   A17        1.78382   0.01300   0.00000   0.09090   0.09156   1.87538
   A18        1.94335  -0.00396   0.00000  -0.01729  -0.01696   1.92638
   A19        1.96884  -0.00534   0.00000  -0.02059  -0.02116   1.94768
   A20        1.95774  -0.01038   0.00000  -0.05905  -0.05918   1.89856
   A21        1.97826   0.01004   0.00000   0.03117   0.03129   2.00955
   A22        1.78219   0.00636   0.00000   0.03534   0.03461   1.81681
   A23        1.87575  -0.00019   0.00000   0.01646   0.01652   1.89227
   A24        1.88864  -0.00060   0.00000  -0.00067  -0.00037   1.88827
   A25        2.03215  -0.00365   0.00000  -0.01257  -0.01251   2.01964
   A26        2.10871   0.00494   0.00000   0.01311   0.01316   2.12187
   A27        2.14192  -0.00126   0.00000  -0.00017  -0.00036   2.14156
   A28        2.00705   0.00992   0.00000   0.02680   0.02659   2.03364
   A29        2.10913  -0.01321   0.00000  -0.05276  -0.05338   2.05574
   A30        2.16819   0.00074   0.00000  -0.00146  -0.00197   2.16621
   A31        1.99943   0.01292   0.00000   0.06067   0.06018   2.05961
   A32        2.07187   0.00211   0.00000   0.00943   0.00905   2.08092
   A33        2.09165  -0.00383   0.00000  -0.01369  -0.01379   2.07786
   A34        2.11292   0.00205   0.00000   0.00911   0.00876   2.12168
   A35        2.10352  -0.00026   0.00000   0.00123   0.00104   2.10455
   A36        2.00885   0.00852   0.00000   0.03334   0.03330   2.04215
   A37        2.16907  -0.00812   0.00000  -0.03283  -0.03303   2.13603
   A38        2.13920  -0.01359   0.00000  -0.03786  -0.03805   2.10115
   A39        2.05173   0.00656   0.00000   0.01852   0.01849   2.07022
   A40        2.08990   0.00713   0.00000   0.02091   0.02088   2.11078
    D1       -0.72947  -0.00663   0.00000  -0.05720  -0.05676  -0.78623
    D2        1.38314  -0.00509   0.00000  -0.04588  -0.04547   1.33767
    D3       -2.78741  -0.00320   0.00000  -0.02688  -0.02643  -2.81384
    D4       -2.81169  -0.00503   0.00000  -0.04976  -0.04985  -2.86154
    D5       -0.69908  -0.00349   0.00000  -0.03844  -0.03856  -0.73764
    D6        1.41355  -0.00160   0.00000  -0.01944  -0.01951   1.39404
    D7        1.16315   0.00485   0.00000   0.03670   0.03635   1.19950
    D8       -3.00743   0.00639   0.00000   0.04801   0.04765  -2.95978
    D9       -0.89479   0.00828   0.00000   0.06701   0.06669  -0.82810
   D10        1.14455  -0.00620   0.00000  -0.04570  -0.04482   1.09974
   D11       -0.99136   0.00290   0.00000   0.02432   0.02383  -0.96752
   D12        3.12550   0.00564   0.00000   0.04445   0.04406  -3.11362
   D13       -3.02596  -0.00581   0.00000  -0.04082  -0.03992  -3.06589
   D14        1.12131   0.00329   0.00000   0.02919   0.02873   1.15003
   D15       -1.04502   0.00602   0.00000   0.04933   0.04895  -0.99606
   D16       -0.96844  -0.00850   0.00000  -0.06652  -0.06565  -1.03409
   D17       -3.10435   0.00060   0.00000   0.00350   0.00300  -3.10135
   D18        1.01251   0.00334   0.00000   0.02364   0.02322   1.03574
   D19       -0.81247  -0.00137   0.00000  -0.02298  -0.02327  -0.83574
   D20       -2.81356   0.00077   0.00000  -0.01595  -0.01679  -2.83034
   D21        1.32431   0.00197   0.00000   0.00705   0.00646   1.33077
   D22        1.25570  -0.00407   0.00000  -0.02297  -0.02210   1.23360
   D23       -0.74538  -0.00192   0.00000  -0.01594  -0.01561  -0.76100
   D24       -2.89070  -0.00073   0.00000   0.00706   0.00763  -2.88307
   D25       -2.95792  -0.00085   0.00000  -0.00495  -0.00469  -2.96261
   D26        1.32418   0.00129   0.00000   0.00208   0.00179   1.32597
   D27       -0.82114   0.00249   0.00000   0.02507   0.02504  -0.79610
   D28        1.26962  -0.00407   0.00000  -0.05163  -0.05175   1.21787
   D29       -1.90158  -0.00319   0.00000  -0.03761  -0.03788  -1.93947
   D30       -2.82593  -0.00416   0.00000  -0.04425  -0.04401  -2.86994
   D31        0.28605  -0.00327   0.00000  -0.03023  -0.03015   0.25590
   D32       -0.91339   0.00277   0.00000   0.00352   0.00362  -0.90977
   D33        2.19859   0.00365   0.00000   0.01754   0.01749   2.21608
   D34        2.95472   0.00454   0.00000   0.07009   0.07066   3.02538
   D35       -0.15665   0.00353   0.00000   0.05554   0.05638  -0.10027
   D36       -2.99678  -0.00418   0.00000  -0.05566  -0.05541  -3.05219
   D37        0.07069  -0.00224   0.00000  -0.02995  -0.02988   0.04082
   D38        0.11329  -0.00328   0.00000  -0.04093  -0.04075   0.07254
   D39       -3.10242  -0.00134   0.00000  -0.01522  -0.01522  -3.11764
   D40       -2.89295  -0.00842   0.00000  -0.11264  -0.11067  -3.00362
   D41        0.12018  -0.00298   0.00000  -0.04439  -0.04469   0.07548
   D42       -3.05342  -0.00184   0.00000  -0.03085  -0.03143  -3.08486
   D43       -0.03500   0.00124   0.00000   0.01401   0.01366  -0.02134
   D44       -0.03306   0.00161   0.00000   0.02630   0.02718  -0.00588
   D45        2.98536   0.00469   0.00000   0.07116   0.07227   3.05763
   D46       -3.09952  -0.00144   0.00000  -0.02106  -0.02136  -3.12087
   D47       -0.01883   0.00066   0.00000   0.00800   0.00815  -0.01068
   D48       -0.08405   0.00171   0.00000   0.02485   0.02479  -0.05926
   D49        2.99663   0.00380   0.00000   0.05392   0.05430   3.05093
   D50       -0.01792   0.00012   0.00000   0.00433   0.00438  -0.01354
   D51       -3.08383  -0.00181   0.00000  -0.02175  -0.02157  -3.10540
   D52        3.06017   0.00265   0.00000   0.03610   0.03587   3.09604
   D53       -0.00574   0.00072   0.00000   0.01003   0.00992   0.00418
         Item               Value     Threshold  Converged?
 Maximum Force            0.049972     0.000450     NO 
 RMS     Force            0.010397     0.000300     NO 
 Maximum Displacement     0.354368     0.001800     NO 
 RMS     Displacement     0.080145     0.001200     NO 
 Predicted change in Energy=-2.408964D-02
 Lowest energy point so far.  Saving SCF results.
 GradGradGradGradGradGradGradGradGradGradGradGradGradGradGradGradGradGrad

 Leave Link  103 at Sun Jul 18 13:44:10 2021, MaxMem=   104857600 cpu:               0.2 elap:               0.2
 (Enter /dades/curu/g16A03_MST/g16/l202.exe)
                          Input orientation:                          
 ---------------------------------------------------------------------
 Center     Atomic      Atomic             Coordinates (Angstroms)
 Number     Number       Type             X           Y           Z
 ---------------------------------------------------------------------
      1          6           0        2.917291   -0.345479    1.867984
      2          1           0        3.304992    0.494120    1.281682
      3          1           0        3.552672   -1.198574    1.640202
      4          1           0        3.011524   -0.007924    2.902317
      5          7           0        1.504045   -0.574977    1.544883
      6          1           0        1.024753    0.330158    1.527038
      7          6           0        1.286356   -1.265200    0.248828
      8          1           0        1.740923   -2.255921    0.325742
      9          1           0        1.784175   -0.692404   -0.533591
     10          6           0       -0.184736   -1.462877   -0.093134
     11          1           0       -0.743787   -1.874836    0.754154
     12          1           0       -0.266221   -2.232326   -0.865199
     13          6           0       -0.901768   -0.226255   -0.582190
     14          7           0       -0.540367    0.215057   -1.805423
     15          6           0       -1.263163    1.230854   -2.316250
     16          1           0       -1.077661    1.515706   -3.348618
     17          6           0       -2.282615    1.891176   -1.626738
     18          1           0       -2.850197    2.664621   -2.133495
     19          6           0       -2.608399    1.473122   -0.330914
     20          1           0       -3.407572    1.955083    0.219116
     21          6           0       -1.889590    0.400064    0.186164
     22          1           0       -2.112180    0.002002    1.171779
     23          1           0        1.072521   -1.126191    2.292662
 ---------------------------------------------------------------------
                    Distance matrix (angstroms):
                    1          2          3          4          5
     1  C    0.000000
     2  H    1.094983   0.000000
     3  H    1.087826   1.747883   0.000000
     4  H    1.092094   1.721810   1.817532   0.000000
     5  N    1.467762   2.110842   2.143556   2.106340   0.000000
     6  H    2.038241   2.299255   2.956383   2.439867   1.024357
     7  C    2.475378   2.869998   2.660178   3.405576   1.484438
     8  H    2.722524   3.304975   2.475525   3.647829   2.089973
     9  H    2.678034   2.648762   2.847660   3.712191   2.100551
    10  C    3.836291   4.230622   4.128260   4.615809   2.514647
    11  H    4.121048   4.720471   4.438690   4.711934   2.714339
    12  H    4.600568   4.979575   4.682907   5.466786   3.418939
    13  C    4.539028   4.657230   5.072126   5.244360   3.230168
    14  N    5.075777   4.939117   5.533864   5.901564   4.003539
    15  C    6.121179   5.861394   6.689387   6.858641   5.082009
    16  H    6.829098   6.456854   7.327730   7.623455   5.914602
    17  C    6.652422   6.452289   7.366819   7.221276   5.520859
[...]
 IMap=  21  22  23  24  25  26  27
 Actual    scratch disk usage=  1381134754 words.
 JobTyp=1 Pass  1:  I=   1 to  27 NPSUse=  4 ParTrn=T ParDer=T DoDerP=F.
 Spin components of T(2) and E(2):
     alpha-alpha T2 =       0.6924051901D-01 E2=     -0.1860300831D+00
     alpha-beta  T2 =       0.3758868090D+00 E2=     -0.1085651612D+01
     beta-beta   T2 =       0.6924051901D-01 E2=     -0.1860300831D+00
 The integrals were generated   1 times.
 ANorm=    0.1230596541D+01
 E2 =    -0.1457711778D+01 EUMP2 =    -0.42071625481314D+03
 Leave Link  906 at Sun Jul 18 15:58:57 2021, MaxMem=   262144000 cpu:             555.9 elap:             147.1
 (Enter /dades/curu/g16A03_MST/g16/l601.exe)
 Copying SCF densities to generalized density rwf, IOpCl= 0 IROHF=0.

 **********************************************************************

            Population analysis using the SCF density.

 **********************************************************************

 Orbital symmetries:
       Occupied  (A) (A) (A) (A) (A) (A) (A) (A) (A) (A) (A) (A)
                 (A) (A) (A) (A) (A) (A) (A) (A) (A) (A) (A) (A)
                 (A) (A) (A) (A) (A) (A) (A) (A) (A) (A) (A) (A)
                 (A)
       Virtual   (A) (A) (A) (A) (A) (A) (A) (A) (A) (A) (A) (A)
                 (A) (A) (A) (A) (A) (A) (A) (A) (A) (A) (A) (A)
                 (A) (A) (A) (A) (A) (A) (A) (A) (A) (A) (A) (A)
                 (A) (A) (A) (A) (A) (A) (A) (A) (A) (A) (A) (A)
                 (A) (A) (A) (A) (A) (A) (A) (A) (A) (A) (A) (A)
                 (A) (A) (A) (A) (A) (A) (A) (A) (A) (A) (A) (A)
                 (A) (A) (A) (A) (A) (A) (A) (A) (A) (A) (A) (A)
                 (A) (A) (A) (A) (A) (A) (A) (A) (A) (A) (A) (A)
                 (A) (A) (A) (A) (A) (A) (A) (A) (A) (A) (A) (A)
                 (A) (A) (A) (A) (A) (A) (A) (A) (A) (A) (A) (A)
                 (A) (A) (A) (A) (A) (A) (A) (A) (A) (A) (A) (A)
                 (A) (A) (A) (A) (A) (A) (A) (A) (A) (A) (A) (A)
                 (A) (A) (A) (A) (A) (A) (A) (A) (A) (A) (A) (A)
                 (A) (A) (A) (A) (A) (A) (A) (A) (A) (A) (A) (A)
                 (A) (A) (A) (A) (A) (A) (A) (A) (A) (A) (A) (A)
                 (A) (A) (A) (A) (A) (A) (A) (A) (A) (A) (A) (A)
                 (A) (A) (A) (A) (A) (A) (A) (A) (A) (A) (A) (A)
                 (A) (A) (A) (A) (A) (A) (A) (A) (A) (A) (A) (A)
                 (A) (A) (A) (A) (A) (A) (A) (A) (A) (A) (A) (A)
                 (A) (A) (A) (A) (A) (A) (A) (A) (A) (A) (A) (A)
                 (A) (A) (A) (A) (A) (A) (A) (A) (A) (A) (A) (A)
                 (A) (A) (A) (A) (A) (A) (A) (A) (A) (A) (A) (A)
                 (A) (A) (A) (A) (A) (A) (A) (A) (A) (A) (A) (A)
                 (A) (A) (A) (A) (A) (A) (A) (A) (A) (A) (A) (A)
                 (A) (A) (A) (A) (A) (A) (A) (A) (A) (A) (A) (A)
                 (A) (A) (A) (A) (A) (A) (A) (A) (A) (A)
 The electronic state is 1-A.
 Alpha  occ. eigenvalues --  -15.87097 -15.69865 -11.46143 -11.45470 -11.41739
 Alpha  occ. eigenvalues --  -11.40112 -11.39748 -11.38180 -11.36766 -11.36121
 Alpha  occ. eigenvalues --   -1.49197  -1.38951  -1.22955  -1.20788  -1.15539
 Alpha  occ. eigenvalues --   -1.12215  -1.04878  -0.98301  -0.95690  -0.94706
 Alpha  occ. eigenvalues --   -0.85442  -0.83333  -0.82886  -0.78856  -0.77002
 Alpha  occ. eigenvalues --   -0.75073  -0.74946  -0.73936  -0.71219  -0.70345
 Alpha  occ. eigenvalues --   -0.67929  -0.67820  -0.64864  -0.63287  -0.54452
 Alpha  occ. eigenvalues --   -0.50225  -0.46250
 Alpha virt. eigenvalues --   -0.09127  -0.06705  -0.06469  -0.05405  -0.04015
 Alpha virt. eigenvalues --   -0.03774  -0.03454  -0.03083  -0.02977  -0.02431
 Alpha virt. eigenvalues --   -0.01575  -0.01261  -0.00972  -0.00487   0.00385
 Alpha virt. eigenvalues --    0.00635   0.01873   0.02471   0.02794   0.03551
 Alpha virt. eigenvalues --    0.03676   0.04329   0.04743   0.05048   0.05204
 Alpha virt. eigenvalues --    0.05606   0.06169   0.06305   0.06586   0.06949
 Alpha virt. eigenvalues --    0.07293   0.07919   0.08053   0.08311   0.08873
 Alpha virt. eigenvalues --    0.09115   0.09940   0.10759   0.10811   0.11114
 Alpha virt. eigenvalues --    0.11278   0.12034   0.12809   0.13405   0.13784
 Alpha virt. eigenvalues --    0.15251   0.16150   0.17191   0.17617   0.18340
 Alpha virt. eigenvalues --    0.18793   0.18939   0.19427   0.20706   0.21116
 Alpha virt. eigenvalues --    0.21434   0.21958   0.22288   0.22790   0.23308
 Alpha virt. eigenvalues --    0.24002   0.24642   0.25343   0.26232   0.26469
 Alpha virt. eigenvalues --    0.27432   0.28250   0.28549   0.28654   0.29581
 Alpha virt. eigenvalues --    0.30677   0.31085   0.31821   0.32142   0.32469
 Alpha virt. eigenvalues --    0.32877   0.33504   0.33917   0.34199   0.35230
 Alpha virt. eigenvalues --    0.35349   0.35928   0.37072   0.37933   0.38326
 Alpha virt. eigenvalues --    0.38965   0.39736   0.40217   0.41089   0.41477
 Alpha virt. eigenvalues --    0.41773   0.42739   0.43598   0.44023   0.44240
 Alpha virt. eigenvalues --    0.45746   0.46209   0.47049   0.47455   0.47695
 Alpha virt. eigenvalues --    0.48135   0.48803   0.49794   0.50241   0.50707
 Alpha virt. eigenvalues --    0.51211   0.51561   0.52184   0.53020   0.53738
 Alpha virt. eigenvalues --    0.54670   0.55270   0.55560   0.56707   0.57019
 Alpha virt. eigenvalues --    0.57593   0.58421   0.58737   0.59330   0.59812
 Alpha virt. eigenvalues --    0.60782   0.61089   0.62180   0.62441   0.63676
 Alpha virt. eigenvalues --    0.64149   0.64672   0.65366   0.65653   0.66494
 Alpha virt. eigenvalues --    0.66972   0.68084   0.68824   0.70540   0.71072
 Alpha virt. eigenvalues --    0.72264   0.73282   0.74167   0.74552   0.76148
 Alpha virt. eigenvalues --    0.76663   0.76884   0.77223   0.78870   0.79328
 Alpha virt. eigenvalues --    0.80096   0.80115   0.82030   0.82835   0.84075
 Alpha virt. eigenvalues --    0.84655   0.85679   0.85810   0.86229   0.87685
 Alpha virt. eigenvalues --    0.88424   0.89015   0.90051   0.90732   0.91354
 Alpha virt. eigenvalues --    0.92758   0.93514   0.94232   0.95398   0.97760
 Alpha virt. eigenvalues --    0.98097   0.99307   1.00615   1.02522   1.04077
 Alpha virt. eigenvalues --    1.05044   1.07667   1.08481   1.10624   1.10916
 Alpha virt. eigenvalues --    1.13388   1.15521   1.16353   1.17847   1.19897
 Alpha virt. eigenvalues --    1.23954   1.25497   1.26624   1.28425   1.30077
 Alpha virt. eigenvalues --    1.32854   1.34354   1.35034   1.36742   1.40115
 Alpha virt. eigenvalues --    1.40675   1.43402   1.44746   1.45849   1.47456
 Alpha virt. eigenvalues --    1.48359   1.49895   1.51488   1.52144   1.54862
 Alpha virt. eigenvalues --    1.55059   1.56930   1.57718   1.58816   1.60147
 Alpha virt. eigenvalues --    1.61317   1.62668   1.63627   1.64753   1.67589
 Alpha virt. eigenvalues --    1.68519   1.69146   1.70140   1.71320   1.72494
 Alpha virt. eigenvalues --    1.73666   1.73945   1.75934   1.77660   1.79994
 Alpha virt. eigenvalues --    1.80407   1.81553   1.83311   1.83728   1.84519
 Alpha virt. eigenvalues --    1.86063   1.88833   1.91161   1.91494   1.93184
 Alpha virt. eigenvalues --    1.93457   1.94215   1.94856   1.97525   1.98673
 Alpha virt. eigenvalues --    2.00197   2.01931   2.03384   2.04207   2.06885
 Alpha virt. eigenvalues --    2.07918   2.09491   2.10098   2.10555   2.11116
 Alpha virt. eigenvalues --    2.13140   2.15364   2.15774   2.16741   2.18387
 Alpha virt. eigenvalues --    2.19701   2.21310   2.21956   2.23110   2.23177
 Alpha virt. eigenvalues --    2.26703   2.28722   2.28939   2.30388   2.30984
 Alpha virt. eigenvalues --    2.32500   2.36188   2.36769   2.39143   2.39763
 Alpha virt. eigenvalues --    2.41661   2.43705   2.45157   2.49565   2.51775
 Alpha virt. eigenvalues --    2.52760   2.54166   2.56166   2.59123   2.60948
 Alpha virt. eigenvalues --    2.61837   2.63571   2.66378   2.69560   2.70286
 Alpha virt. eigenvalues --    2.71084   2.71865   2.72913   2.76466   2.76855
 Alpha virt. eigenvalues --    2.79581   2.80937   2.83079   2.85989   2.88639
 Alpha virt. eigenvalues --    2.89275   2.91659   2.93078   2.98082   3.00093
 Alpha virt. eigenvalues --    3.02252   3.03541   3.06543   3.07708   3.12339
 Alpha virt. eigenvalues --    3.21051   3.24317   3.26671   3.34904   3.44881
 Alpha virt. eigenvalues --    3.47169   3.50788   3.60742   3.85423   4.37134
          Condensed to atoms (all electrons):
               1          2          3          4          5          6
     1  C    4.037216   0.356694   0.332943   0.479964   0.156925  -0.018022
     2  H    0.356694   1.035441  -0.095002  -0.203629  -0.010403  -0.024163
     3  H    0.332943  -0.095002   1.045767  -0.206981  -0.023126   0.017449
     4  H    0.479964  -0.203629  -0.206981   1.160590  -0.095084   0.000786
     5  N    0.156925  -0.010403  -0.023126  -0.095084   6.920178   0.426595
     6  H   -0.018022  -0.024163   0.017449   0.000786   0.426595   0.540826
     7  C   -0.000044  -0.041540   0.005714   0.020196  -0.087396  -0.072607
     8  H   -0.027662  -0.013862   0.002298   0.002713  -0.056461   0.019065
     9  H    0.001874   0.006149  -0.006183   0.001752  -0.051127  -0.041202
    10  C   -0.033339   0.035530   0.006801  -0.034860   0.091709  -0.040237
    11  H   -0.011602  -0.000077   0.004037  -0.004023  -0.009809  -0.006383
    12  H    0.006796   0.001012  -0.000688  -0.000378   0.015753   0.004297
    13  C    0.017917  -0.008741   0.010633   0.005028  -0.203220  -0.014339
    14  N   -0.004981   0.001812  -0.000941  -0.001057   0.080464   0.033356
    15  C   -0.002889  -0.004013   0.001962  -0.000265  -0.043205   0.000570
    16  H   -0.000532   0.000000  -0.000013  -0.000182   0.002595  -0.002062
    17  C   -0.004439   0.002512  -0.001002  -0.001168   0.040081   0.004765
    18  H    0.000016  -0.000101  -0.000015   0.000046  -0.000430  -0.000580
    19  C    0.001793  -0.002788   0.000953   0.000824  -0.024624  -0.000195
    20  H    0.000032  -0.000047   0.000017   0.000019  -0.000468  -0.000660
    21  C   -0.016584   0.008850  -0.005986  -0.002864   0.120044   0.022520
    22  H    0.002319  -0.000064   0.000094   0.000267   0.001173   0.000542
    23  H   -0.040222   0.019295  -0.027680  -0.002698   0.442437  -0.068967
               7          8          9         10         11         12
     1  C   -0.000044  -0.027662   0.001874  -0.033339  -0.011602   0.006796
     2  H   -0.041540  -0.013862   0.006149   0.035530  -0.000077   0.001012
     3  H    0.005714   0.002298  -0.006183   0.006801   0.004037  -0.000688
     4  H    0.020196   0.002713   0.001752  -0.034860  -0.004023  -0.000378
     5  N   -0.087396  -0.056461  -0.051127   0.091709  -0.009809   0.015753
     6  H   -0.072607   0.019065  -0.041202  -0.040237  -0.006383   0.004297
     7  C    4.944569   0.191855   0.137027   0.122080  -0.247646   0.056929
     8  H    0.191855   1.354749  -0.185740   0.022964  -0.015209  -0.075567
     9  H    0.137027  -0.185740   1.279035  -0.120094   0.078930  -0.010718
    10  C    0.122080   0.022964  -0.120094   6.194418   0.079199   0.152815
    11  H   -0.247646  -0.015209   0.078930   0.079199   1.344992  -0.166192
    12  H    0.056929  -0.075567  -0.010718   0.152815  -0.166192   0.914394
    13  C    0.220254   0.010067   0.099174  -0.575206   0.328222  -0.058761
    14  N   -0.103040   0.004365  -0.040133   0.137304  -0.013583  -0.029435
    15  C   -0.008812   0.001737   0.053259  -0.247720   0.038233  -0.051055
    16  H    0.000260   0.001495  -0.004992   0.033016   0.001971  -0.000578
    17  C   -0.045636   0.001568  -0.034229   0.277477  -0.031766   0.024519
    18  H    0.003753   0.000147   0.000497  -0.014291  -0.000942   0.000019
    19  C    0.017923   0.000335   0.029552  -0.346553   0.058528  -0.027408
    20  H   -0.002703  -0.000038   0.001251   0.048387   0.004460   0.000548
    21  C   -0.305968   0.018919  -0.063221   0.106926  -0.223551   0.150783
    22  H    0.058862   0.000541  -0.000516  -0.079901  -0.053685   0.007855
    23  H   -0.032865  -0.060788   0.028250  -0.040782   0.006257   0.005052
              13         14         15         16         17         18
     1  C    0.017917  -0.004981  -0.002889  -0.000532  -0.004439   0.000016
     2  H   -0.008741   0.001812  -0.004013   0.000000   0.002512  -0.000101
     3  H    0.010633  -0.000941   0.001962  -0.000013  -0.001002  -0.000015
     4  H    0.005028  -0.001057  -0.000265  -0.000182  -0.001168   0.000046
     5  N   -0.203220   0.080464  -0.043205   0.002595   0.040081  -0.000430
     6  H   -0.014339   0.033356   0.000570  -0.002062   0.004765  -0.000580
     7  C    0.220254  -0.103040  -0.008812   0.000260  -0.045636   0.003753
     8  H    0.010067   0.004365   0.001737   0.001495   0.001568   0.000147
     9  H    0.099174  -0.040133   0.053259  -0.004992  -0.034229   0.000497
    10  C   -0.575206   0.137304  -0.247720   0.033016   0.277477  -0.014291
    11  H    0.328222  -0.013583   0.038233   0.001971  -0.031766  -0.000942
    12  H   -0.058761  -0.029435  -0.051055  -0.000578   0.024519   0.000019
    13  C    8.455112  -0.218899   0.383091   0.171645  -1.137426  -0.026069
    14  N   -0.218899   7.732489   0.194525  -0.191776   0.159754  -0.017703
    15  C    0.383091   0.194525   6.340008   0.074767  -0.984194   0.109113
    16  H    0.171645  -0.191776   0.074767   1.376785  -0.008959  -0.051213
    17  C   -1.137426   0.159754  -0.984194  -0.008959   6.739512  -0.364414
    18  H   -0.026069  -0.017703   0.109113  -0.051213  -0.364414   1.521240
    19  C    1.227450  -0.415567   1.112364   0.044417  -1.261826   0.345743
    20  H   -0.121545   0.019578  -0.138612  -0.006626   0.258233  -0.061201
    21  C   -2.988878   0.383758  -1.277666  -0.076165   1.495384  -0.033860
    22  H    0.405758  -0.024989   0.038684  -0.000402  -0.089327  -0.008320
    23  H   -0.001388  -0.010269  -0.005057   0.000702   0.001863  -0.000152
              19         20         21         22         23
     1  C    0.001793   0.000032  -0.016584   0.002319  -0.040222
     2  H   -0.002788  -0.000047   0.008850  -0.000064   0.019295
     3  H    0.000953   0.000017  -0.005986   0.000094  -0.027680
     4  H    0.000824   0.000019  -0.002864   0.000267  -0.002698
     5  N   -0.024624  -0.000468   0.120044   0.001173   0.442437
     6  H   -0.000195  -0.000660   0.022520   0.000542  -0.068967
     7  C    0.017923  -0.002703  -0.305968   0.058862  -0.032865
     8  H    0.000335  -0.000038   0.018919   0.000541  -0.060788
     9  H    0.029552   0.001251  -0.063221  -0.000516   0.028250
    10  C   -0.346553   0.048387   0.106926  -0.079901  -0.040782
    11  H    0.058528   0.004460  -0.223551  -0.053685   0.006257
    12  H   -0.027408   0.000548   0.150783   0.007855   0.005052
    13  C    1.227450  -0.121545  -2.988878   0.405758  -0.001388
    14  N   -0.415567   0.019578   0.383758  -0.024989  -0.010269
    15  C    1.112364  -0.138612  -1.277666   0.038684  -0.005057
    16  H    0.044417  -0.006626  -0.076165  -0.000402   0.000702
    17  C   -1.261826   0.258233   1.495384  -0.089327   0.001863
    18  H    0.345743  -0.061201  -0.033860  -0.008320  -0.000152
    19  C    7.774164  -0.446839  -2.168546   0.299638  -0.000825
    20  H   -0.446839   1.559953   0.370063  -0.091763   0.000178
    21  C   -2.168546   0.370063  10.245903  -0.810929   0.012241
    22  H    0.299638  -0.091763  -0.810929   1.906624  -0.001197
    23  H   -0.000825   0.000178   0.012241  -0.001197   0.602696
 Mulliken charges:
               1
     1  C    0.765826
     2  H   -0.062870
     3  H   -0.061051
     4  H   -0.118996
     5  N   -0.692601
     6  H    0.218647
     7  C    1.168833
     8  H   -0.197490
     9  H   -0.158594
    10  C    0.224356
    11  H   -0.160361
    12  H    0.080006
    13  C    0.020121
    14  N   -0.675031
    15  C    0.415175
    16  H   -0.364154
    17  C    0.958719
    18  H   -0.401285
    19  C   -0.218515
    20  H   -0.392217
    21  C    1.038824
    22  H   -0.561263
    23  H    0.173920
 Sum of Mulliken charges =   1.00000
 Mulliken charges with hydrogens summed into heavy atoms:
               1
     1  C    0.522909
     5  N   -0.300034
     7  C    0.812750
    10  C    0.144001
    13  C    0.020121
    14  N   -0.675031
    15  C    0.051021
    17  C    0.557434
    19  C   -0.610732
    21  C    0.477561
 Electronic spatial extent (au):  <R**2>=           1804.3713
 Charge=              1.0000 electrons
 Dipole moment (field-independent basis, Debye):
    X=              7.4080    Y=              0.4717    Z=             -3.0114  Tot=              8.0106
 Quadrupole moment (field-independent basis, Debye-Ang):
   XX=            -16.9761   YY=            -49.8498   ZZ=            -55.4350
   XY=             -0.0231   XZ=             -2.5116   YZ=             -0.1136
 Traceless Quadrupole moment (field-independent basis, Debye-Ang):
   XX=             23.7775   YY=             -9.0962   ZZ=            -14.6813
   XY=             -0.0231   XZ=             -2.5116   YZ=             -0.1136
 Octapole moment (field-independent basis, Debye-Ang**2):
  XXX=             76.4731  YYY=             -3.8237  ZZZ=             -6.3818  XYY=              6.9181
  XXY=            -19.0129  XXZ=            -30.9453  XZZ=             19.4461  YZZ=              3.5674
  YYZ=             -1.0266  XYZ=              8.5723
 Hexadecapole moment (field-independent basis, Debye-Ang**3):
 XXXX=          -1282.8193 YYYY=           -377.0748 ZZZZ=           -217.1064 XXXY=            -20.7009
 XXXZ=             -4.4927 YYYX=              3.9778 YYYZ=            -13.1507 ZZZX=            -19.5011
 ZZZY=              6.3484 XXYY=           -299.8685 XXZZ=           -292.6542 YYZZ=            -95.4159
 XXYZ=             -4.0729 YYXZ=             -7.4705 ZZXY=             -5.4414
 N-N= 5.177423977431D+02 E-N=-2.000242346928D+03  KE= 4.186870184913D+02
 Leave Link  601 at Sun Jul 18 15:58:57 2021, MaxMem=   262144000 cpu:               0.2 elap:               0.1
 (Enter /dades/curu/g16A03_MST/g16/l9999.exe)
 1\1\GINC-PIRINEUS32\SP\RMP2-FC\Aug-CC-pVDZ\C8H13N2(1+)\UBATOR02\18-Jul
 -2021\0\\#p mp2/aug-cc-pVDZ scf=tight maxdisk=180GB geom=allcheck\\SET
 _328_BBB256_conf1.geo_180_075_075 geometry\\1,1\C,0,3.0443143775,-0.24
 340227,1.5110182982\H,0,3.4073113001,0.1619180417,0.5686242141\H,0,3.5
 028420298,-1.2109581008,1.7067049077\H,0,3.2532741894,0.4460528465,2.3
 264157159\N,0,1.5627734501,-0.4342306684,1.404254742\H,0,1.108330761,0
 .4765600107,1.2604341333\C,0,1.1817161776,-1.3828788462,0.2954867512\H
 ,0,1.6550048636,-2.3350117332,0.5313450796\H,0,1.6091279806,-0.9731414
 983,-0.6178742347\C,0,-0.3241030086,-1.5280417911,0.1399183205\H,0,-0.
 7964368765,-1.8388150109,1.077588211\H,0,-0.4798213643,-2.3541181986,-
 0.5657567192\C,0,-0.9911274349,-0.2792517137,-0.4041336567\N,0,-0.2882
 734292,0.4246002655,-1.3056538211\C,0,-0.8557894772,1.5163588452,-1.83
 36389489\H,0,-0.2561490325,2.0621565794,-2.5583079548\C,0,-2.133948568
 ,1.9594460063,-1.4971880728\H,0,-2.5438697545,2.8518726053,-1.95637178
 08\C,0,-2.8552422837,1.2301708023,-0.553419269\H,0,-3.8494962661,1.542
 3082562,-0.2534040548\C,0,-2.2743712682,0.0939526735,0.0054320911\H,0,
 -2.8022064686,-0.4958350145,0.745726977\H,0,1.1971401026,-0.780712087,
 2.2997990711\\Version=ES64L-G16RevA.03\State=1-A\HF=-419.258543\MP2=-4
 20.7162548\RMSD=6.099e-09\PG=C01 [X(C8H13N2)]\\@


 DON'T WORRY CHARLIE BROWN...WE LEARN MORE FROM LOSING 
 THAN WE DO FROM WINNING.
 THEN THAT MAKES ME THE SMARTEST PERSON IN THE WORLD...
 CHARLES SCHULZ 'PEANUTS'
 Job cpu time:       0 days  0 hours 29 minutes 22.1 seconds.
 Elapsed time:       0 days  0 hours  7 minutes 32.4 seconds.
 File lengths (MBytes):  RWF=  10607 Int=      0 D2E=      0 Chk=     13 Scr=      1
 Normal termination of Gaussian 16 at Sun Jul 18 15:58:58 2021.
