 Entering Gaussian System, Link 0=g16
 Input=SET_328_BBB272_conf1.geo_015_090_180_OCTANOL.dat
 Output=SET_328_BBB272_conf1.geo_015_090_180_OCTANOL.log
 Initial command:
 /dades/curu/g16A03_MST/g16/l1.exe "/tmp/ubator02/1839566/Gau-127630.inp" -scrdir="/tmp/ubator02/1839566/"
 Entering Link 1 = /dades/curu/g16A03_MST/g16/l1.exe PID=    127633.
  
 Copyright (c) 1988,1990,1992,1993,1995,1998,2003,2009,2016,
            Gaussian, Inc.  All Rights Reserved.
  
 This is part of the Gaussian(R) 16 program.  It is based on
 the Gaussian(R) 09 system (copyright 2009, Gaussian, Inc.),
 the Gaussian(R) 03 system (copyright 2003, Gaussian, Inc.),
 the Gaussian(R) 98 system (copyright 1998, Gaussian, Inc.),
 the Gaussian(R) 94 system (copyright 1995, Gaussian, Inc.),
 the Gaussian 92(TM) system (copyright 1992, Gaussian, Inc.),
 the Gaussian 90(TM) system (copyright 1990, Gaussian, Inc.),
 the Gaussian 88(TM) system (copyright 1988, Gaussian, Inc.),
 the Gaussian 86(TM) system (copyright 1986, Carnegie Mellon
 University), and the Gaussian 82(TM) system (copyright 1983,
 Carnegie Mellon University). Gaussian is a federally registered
 trademark of Gaussian, Inc.
  
 This software contains proprietary and confidential information,
 including trade secrets, belonging to Gaussian, Inc.
  
 This software is provided under written license and may be
 used, copied, transmitted, or stored only in accord with that
 written license.
  
 The following legend is applicable only to US Government
 contracts under FAR:
  
                    RESTRICTED RIGHTS LEGEND
  
 Use, reproduction and disclosure by the US Government is
 subject to restrictions as set forth in subparagraphs (a)
 and (c) of the Commercial Computer Software - Restricted
 Rights clause in FAR 52.227-19.
  
 Gaussian, Inc.
 340 Quinnipiac St., Bldg. 40, Wallingford CT 06492
  
  
 ---------------------------------------------------------------
 Warning -- This program may not be used in any manner that
 competes with the business of Gaussian, Inc. or will provide
 assistance to any competitor of Gaussian, Inc.  The licensee
 of this program is prohibited from giving any competitor of
 Gaussian, Inc. access to this program.  By using this program,
 the user acknowledges that Gaussian, Inc. is engaged in the
 business of creating and licensing software in the field of
 computational chemistry and represents and warrants to the
 licensee that it is not a competitor of Gaussian, Inc. and that
 it will not use this program in any manner prohibited above.
 ---------------------------------------------------------------
  

 Cite this work as:
 Gaussian 16, Revision A.03,
 M. J. Frisch, G. W. Trucks, H. B. Schlegel, G. E. Scuseria, 
 M. A. Robb, J. R. Cheeseman, G. Scalmani, V. Barone, 
 G. A. Petersson, H. Nakatsuji, X. Li, M. Caricato, A. V. Marenich, 
 J. Bloino, B. G. Janesko, R. Gomperts, B. Mennucci, H. P. Hratchian, 
 J. V. Ortiz, A. F. Izmaylov, J. L. Sonnenberg, D. Williams-Young, 
 F. Ding, F. Lipparini, F. Egidi, J. Goings, B. Peng, A. Petrone, 
 T. Henderson, D. Ranasinghe, V. G. Zakrzewski, J. Gao, N. Rega, 
 G. Zheng, W. Liang, M. Hada, M. Ehara, K. Toyota, R. Fukuda, 
 J. Hasegawa, M. Ishida, T. Nakajima, Y. Honda, O. Kitao, H. Nakai, 
 T. Vreven, K. Throssell, J. A. Montgomery, Jr., J. E. Peralta, 
 F. Ogliaro, M. J. Bearpark, J. J. Heyd, E. N. Brothers, K. N. Kudin, 
 V. N. Staroverov, T. A. Keith, R. Kobayashi, J. Normand, 
 K. Raghavachari, A. P. Rendell, J. C. Burant, S. S. Iyengar, 
 J. Tomasi, M. Cossi, J. M. Millam, M. Klene, C. Adamo, R. Cammi, 
 J. W. Ochterski, R. L. Martin, K. Morokuma, O. Farkas, 
 J. B. Foresman, and D. J. Fox, Gaussian, Inc., Wallingford CT, 2016.
 
 ******************************************
 Gaussian 16:  ES64L-G16RevA.03 25-Dec-2016
                18-Jul-2021 
 ******************************************
 %mem=800MB
 %nproc=4
 Will use up to    4 processors via shared memory.
 %chk=SET_328_BBB272_conf1.geo_015_090_180.chk
 ---------------------------------------------------------------
 #p b3lyp/6-31G(d) opt freq scrf=(iefpcm,read,solvent=n-octanol)
 ---------------------------------------------------------------
 1/18=20,19=15,26=3,38=1,40=2/1,3;
 2/9=110,12=2,17=6,18=5,40=1/2;
 3/5=1,6=6,7=1,11=2,25=1,30=1,70=2203,71=1,72=25,74=-5/1,2,3;
 4//1;
 5/5=2,38=5,53=25/2;
 6/7=2,8=2,9=2,10=2,28=1/1;
 7//1,2,3,16;
 1/18=20,19=15,26=3/3(2);
 2/9=110/2;
 99//99;
 2/9=110/2;
 3/5=1,6=6,7=1,11=2,25=1,30=1,70=2205,71=1,72=25,74=-5/1,2,3;
 4/5=5,16=3,69=1/1;
 5/5=2,38=5,53=25/2;
 7//1,2,3,16;
 1/18=20,19=15,26=3/3(-5);
 2/9=110/2;
 6/7=2,8=2,9=2,10=2,19=2,28=1/1;
 99/9=1/99;
 Leave Link    1 at Sun Jul 18 13:43:40 2021, MaxMem=   104857600 cpu:               0.1 elap:               0.0
 (Enter /dades/curu/g16A03_MST/g16/l101.exe)
 ---------------------------------------------
 SET_328_BBB272_conf1.geo_015_090_180 geometry
 ---------------------------------------------
 Symbolic Z-matrix:
 Charge = -1 Multiplicity = 1
 C                     2.205     0.292    -2.693 
 H                     1.531     0.09     -3.528 
 H                     2.727    -0.638    -2.459 
 H                     2.971     0.995    -3.029 
 C                     1.371     0.809    -1.599 
 O                     1.596     1.809    -0.997 
 O                     0.548    -0.183    -1.219 
 C                    -0.337    -0.021    -0.226 
 C                    -0.07     -0.353     1.073 
 C                     1.234    -1.11      1.432 
 O                     1.113    -1.839     2.5 
 O                     2.312    -0.921     0.929 
 C                    -1.13     -0.238     1.989 
 H                    -1.085    -0.469     3.05 
 C                    -2.366     0.302     1.651 
 H                    -3.129     0.525     2.392 
 C                    -2.579     0.669     0.359 
 H                    -3.575     0.988     0.063 
 C                    -1.602     0.418    -0.621 
 H                    -1.874     0.707    -1.633 
 
 ITRead=  0  0  0  0  0  0  0  0  0  0  0  0  0  0  0  0  0  0  0  0
 MicOpt= -1 -1 -1 -1 -1 -1 -1 -1 -1 -1 -1 -1 -1 -1 -1 -1 -1 -1 -1 -1
 NAtoms=     20 NQM=       20 NQMF=       0 NMMI=      0 NMMIF=      0
                NMic=       0 NMicF=      0.
                    Isotopes and Nuclear Properties:
 (Nuclear quadrupole moments (NQMom) in fm**2, nuclear magnetic moments (NMagM)
  in nuclear magnetons)

  Atom         1           2           3           4           5           6           7           8           9          10
 IAtWgt=          12           1           1           1          12          16          16          12          12          12
 AtmWgt=  12.0000000   1.0078250   1.0078250   1.0078250  12.0000000  15.9949146  15.9949146  12.0000000  12.0000000  12.0000000
 NucSpn=           0           1           1           1           0           0           0           0           0           0
 AtZEff=  -0.0000000  -0.0000000  -0.0000000  -0.0000000  -0.0000000  -0.0000000  -0.0000000  -0.0000000  -0.0000000  -0.0000000
 NQMom=    0.0000000   0.0000000   0.0000000   0.0000000   0.0000000   0.0000000   0.0000000   0.0000000   0.0000000   0.0000000
 NMagM=    0.0000000   2.7928460   2.7928460   2.7928460   0.0000000   0.0000000   0.0000000   0.0000000   0.0000000   0.0000000
 AtZNuc=   6.0000000   1.0000000   1.0000000   1.0000000   6.0000000   8.0000000   8.0000000   6.0000000   6.0000000   6.0000000

  Atom        11          12          13          14          15          16          17          18          19          20
 IAtWgt=          16          16          12           1          12           1          12           1          12           1
 AtmWgt=  15.9949146  15.9949146  12.0000000   1.0078250  12.0000000   1.0078250  12.0000000   1.0078250  12.0000000   1.0078250
 NucSpn=           0           0           0           1           0           1           0           1           0           1
 AtZEff=  -0.0000000  -0.0000000  -0.0000000  -0.0000000  -0.0000000  -0.0000000  -0.0000000  -0.0000000  -0.0000000  -0.0000000
 NQMom=    0.0000000   0.0000000   0.0000000   0.0000000   0.0000000   0.0000000   0.0000000   0.0000000   0.0000000   0.0000000
 NMagM=    0.0000000   0.0000000   0.0000000   2.7928460   0.0000000   2.7928460   0.0000000   2.7928460   0.0000000   2.7928460
 AtZNuc=   8.0000000   8.0000000   6.0000000   1.0000000   6.0000000   1.0000000   6.0000000   1.0000000   6.0000000   1.0000000
 Leave Link  101 at Sun Jul 18 13:43:40 2021, MaxMem=   104857600 cpu:               0.2 elap:               0.1
 (Enter /dades/curu/g16A03_MST/g16/l103.exe)

 GradGradGradGradGradGradGradGradGradGradGradGradGradGradGradGradGradGrad
 Berny optimization.
 Initialization pass.
                           ----------------------------
                           !    Initial Parameters    !
                           ! (Angstroms and Degrees)  !
 --------------------------                            --------------------------
 ! Name  Definition              Value          Derivative Info.                !
 --------------------------------------------------------------------------------
 ! R1    R(1,2)                  1.0919         estimate D2E/DX2                !
 ! R2    R(1,3)                  1.0919         estimate D2E/DX2                !
 ! R3    R(1,4)                  1.0926         estimate D2E/DX2                !
 ! R4    R(1,5)                  1.4696         estimate D2E/DX2                !
 ! R5    R(5,6)                  1.1887         estimate D2E/DX2                !
 ! R6    R(5,7)                  1.3438         estimate D2E/DX2                !
 ! R7    R(7,8)                  1.34           estimate D2E/DX2                !
 ! R8    R(8,9)                  1.3671         estimate D2E/DX2                !
 ! R9    R(8,19)                 1.3961         estimate D2E/DX2                !
 ! R10   R(9,10)                 1.55           estimate D2E/DX2                !
 ! R11   R(9,13)                 1.4057         estimate D2E/DX2                !
 ! R12   R(10,11)                1.2987         estimate D2E/DX2                !
 ! R13   R(10,12)                1.2045         estimate D2E/DX2                !
 ! R14   R(13,14)                1.0868         estimate D2E/DX2                !
 ! R15   R(13,15)                1.3905         estimate D2E/DX2                !
 ! R16   R(15,16)                1.0867         estimate D2E/DX2                !
 ! R17   R(15,17)                1.3599         estimate D2E/DX2                !
 ! R18   R(17,18)                1.0869         estimate D2E/DX2                !
 ! R19   R(17,19)                1.4064         estimate D2E/DX2                !
 ! R20   R(19,20)                1.087          estimate D2E/DX2                !
 ! A1    A(2,1,3)              107.5428         estimate D2E/DX2                !
 ! A2    A(2,1,4)              108.4574         estimate D2E/DX2                !
 ! A3    A(2,1,5)              106.502          estimate D2E/DX2                !
 ! A4    A(3,1,4)              106.1863         estimate D2E/DX2                !
 ! A5    A(3,1,5)              114.2945         estimate D2E/DX2                !
 ! A6    A(4,1,5)              113.6049         estimate D2E/DX2                !
 ! A7    A(1,5,6)              124.4394         estimate D2E/DX2                !
 ! A8    A(1,5,7)              107.36           estimate D2E/DX2                !
 ! A9    A(6,5,7)              126.4221         estimate D2E/DX2                !
 ! A10   A(5,7,8)              121.6552         estimate D2E/DX2                !
 ! A11   A(7,8,9)              123.0795         estimate D2E/DX2                !
 ! A12   A(7,8,19)             115.2648         estimate D2E/DX2                !
 ! A13   A(9,8,19)             121.4791         estimate D2E/DX2                !
 ! A14   A(8,9,10)             120.1993         estimate D2E/DX2                !
 ! A15   A(8,9,13)             116.8753         estimate D2E/DX2                !
 ! A16   A(10,9,13)            121.5642         estimate D2E/DX2                !
 ! A17   A(9,10,11)            112.7205         estimate D2E/DX2                !
 ! A18   A(9,10,12)            125.4224         estimate D2E/DX2                !
 ! A19   A(11,10,12)           120.9888         estimate D2E/DX2                !
 ! A20   A(9,13,14)            125.9851         estimate D2E/DX2                !
 ! A21   A(9,13,15)            122.9337         estimate D2E/DX2                !
 ! A22   A(14,13,15)           110.895          estimate D2E/DX2                !
 ! A23   A(13,15,16)           122.5498         estimate D2E/DX2                !
 ! A24   A(13,15,17)           118.3572         estimate D2E/DX2                !
 ! A25   A(16,15,17)           118.8468         estimate D2E/DX2                !
 ! A26   A(15,17,18)           118.7811         estimate D2E/DX2                !
 ! A27   A(15,17,19)           120.3351         estimate D2E/DX2                !
 ! A28   A(18,17,19)           119.9466         estimate D2E/DX2                !
 ! A29   A(8,19,17)            119.2378         estimate D2E/DX2                !
 ! A30   A(8,19,20)            125.0116         estimate D2E/DX2                !
 ! A31   A(17,19,20)           115.3055         estimate D2E/DX2                !
 ! D1    D(2,1,5,6)           -129.1357         estimate D2E/DX2                !
 ! D2    D(2,1,5,7)             65.2515         estimate D2E/DX2                !
 ! D3    D(3,1,5,6)            112.2677         estimate D2E/DX2                !
 ! D4    D(3,1,5,7)            -53.3452         estimate D2E/DX2                !
 ! D5    D(4,1,5,6)             -9.8075         estimate D2E/DX2                !
 ! D6    D(4,1,5,7)           -175.4203         estimate D2E/DX2                !
 ! D7    D(1,5,7,8)            179.5944         estimate D2E/DX2                !
 ! D8    D(6,5,7,8)             14.3482         estimate D2E/DX2                !
 ! D9    D(5,7,8,9)            -93.3693         estimate D2E/DX2                !
 ! D10   D(5,7,8,19)            91.4007         estimate D2E/DX2                !
 ! D11   D(7,8,9,10)            -7.7338         estimate D2E/DX2                !
 ! D12   D(7,8,9,13)          -174.6242         estimate D2E/DX2                !
 ! D13   D(19,8,9,10)          167.2074         estimate D2E/DX2                !
 ! D14   D(19,8,9,13)            0.317          estimate D2E/DX2                !
 ! D15   D(7,8,19,17)         -177.3903         estimate D2E/DX2                !
 ! D16   D(7,8,19,20)           -5.4207         estimate D2E/DX2                !
 ! D17   D(9,8,19,17)            7.296          estimate D2E/DX2                !
 ! D18   D(9,8,19,20)          179.2656         estimate D2E/DX2                !
 ! D19   D(8,9,10,11)         -152.2044         estimate D2E/DX2                !
 ! D20   D(8,9,10,12)           38.4389         estimate D2E/DX2                !
 ! D21   D(13,9,10,11)          14.0598         estimate D2E/DX2                !
 ! D22   D(13,9,10,12)        -155.2969         estimate D2E/DX2                !
 ! D23   D(8,9,13,14)          179.4924         estimate D2E/DX2                !
 ! D24   D(8,9,13,15)           -5.9257         estimate D2E/DX2                !
 ! D25   D(10,9,13,14)          12.7935         estimate D2E/DX2                !
 ! D26   D(10,9,13,15)        -172.6246         estimate D2E/DX2                !
 ! D27   D(9,13,15,16)        -170.6506         estimate D2E/DX2                !
 ! D28   D(9,13,15,17)           3.5785         estimate D2E/DX2                !
 ! D29   D(14,13,15,16)          4.6583         estimate D2E/DX2                !
 ! D30   D(14,13,15,17)        178.8875         estimate D2E/DX2                !
 ! D31   D(13,15,17,18)        173.2941         estimate D2E/DX2                !
 ! D32   D(13,15,17,19)          4.3764         estimate D2E/DX2                !
 ! D33   D(16,15,17,18)        -12.2587         estimate D2E/DX2                !
 ! D34   D(16,15,17,19)        178.8236         estimate D2E/DX2                !
 ! D35   D(15,17,19,8)          -9.7324         estimate D2E/DX2                !
 ! D36   D(15,17,19,20)        177.5386         estimate D2E/DX2                !
 ! D37   D(18,17,19,8)        -178.521          estimate D2E/DX2                !
 ! D38   D(18,17,19,20)          8.7501         estimate D2E/DX2                !
 --------------------------------------------------------------------------------
 Trust Radius=3.00D-01 FncErr=1.00D-07 GrdErr=1.00D-06 EigMax=2.50D+02 EigMin=1.00D-04
 Number of steps in this run=     99 maximum allowed number of steps=    120.
 GradGradGradGradGradGradGradGradGradGradGradGradGradGradGradGradGradGrad

 Leave Link  103 at Sun Jul 18 13:43:40 2021, MaxMem=   104857600 cpu:               0.0 elap:               0.0
 (Enter /dades/curu/g16A03_MST/g16/l202.exe)
                          Input orientation:                          
 ---------------------------------------------------------------------
 Center     Atomic      Atomic             Coordinates (Angstroms)
 Number     Number       Type             X           Y           Z
 ---------------------------------------------------------------------
      1          6           0        2.205000    0.292000   -2.693000
      2          1           0        1.531000    0.090000   -3.528000
      3          1           0        2.727000   -0.638000   -2.459000
      4          1           0        2.971000    0.995000   -3.029000
      5          6           0        1.371000    0.809000   -1.599000
      6          8           0        1.596000    1.809000   -0.997000
      7          8           0        0.548000   -0.183000   -1.219000
      8          6           0       -0.337000   -0.021000   -0.226000
      9          6           0       -0.070000   -0.353000    1.073000
     10          6           0        1.234000   -1.110000    1.432000
     11          8           0        1.113000   -1.839000    2.500000
     12          8           0        2.312000   -0.921000    0.929000
     13          6           0       -1.130000   -0.238000    1.989000
     14          1           0       -1.085000   -0.469000    3.050000
     15          6           0       -2.366000    0.302000    1.651000
     16          1           0       -3.129000    0.525000    2.392000
     17          6           0       -2.579000    0.669000    0.359000
     18          1           0       -3.575000    0.988000    0.063000
     19          6           0       -1.602000    0.418000   -0.621000
     20          1           0       -1.874000    0.707000   -1.633000
 ---------------------------------------------------------------------
                    Distance matrix (angstroms):
                    1          2          3          4          5
     1  C    0.000000
     2  H    1.091927   0.000000
     3  H    1.091852   1.761579   0.000000
     4  H    1.092639   1.772463   1.746747   0.000000
     5  C    1.469585   2.064849   2.161515   2.153949   0.000000
     6  O    2.355544   3.060253   3.066662   2.585004   1.188709
     7  O    2.268028   2.524341   2.548071   3.245722   1.343798
     8  C    3.556096   3.795385   3.841233   4.453305   2.343351
     9  C    4.446842   4.891692   4.514361   5.281211   3.250586
    10  C    4.463639   5.111732   4.194248   5.229600   3.590027
    11  O    5.718468   6.342913   5.351549   6.484872   4.886744
    12  O    3.821217   4.636478   3.425034   4.446471   3.204554
    13  C    5.772716   6.133987   5.900945   6.596879   4.497216
    14  H    6.662227   7.101128   6.701417   7.453098   5.410954
    15  C    6.305908   6.484874   6.611683   7.132056   4.978425
    16  H    7.373132   7.546604   7.692692   8.174236   6.021523
    17  C    5.687134   5.686485   6.148415   6.510555   4.410880
    18  H    6.441145   6.306578   6.979940   7.239519   5.220843
    19  C    4.336163   4.286481   4.820127   5.200358   3.154060
    20  H    4.234863   3.945344   4.864206   5.050325   3.246781
                    6          7          8          9         10
     6  O    0.000000
     7  O    2.261781   0.000000
     8  C    2.771251   1.339969   0.000000
     9  C    3.425595   2.379934   1.367082   0.000000
    10  C    3.814662   2.890973   2.530400   1.549950   0.000000
    11  O    5.076436   4.110051   3.583113   2.375713   1.298732
    12  O    3.416875   2.875803   3.026752   2.453015   1.204497
    13  C    4.531830   3.620770   2.362660   1.405660   2.580529
    14  H    5.362393   4.579612   3.390042   2.225356   2.899408
    15  C    4.998039   4.118680   2.782858   2.456568   3.873203
    16  H    5.954797   5.202011   3.866174   3.445015   4.757162
    17  C    4.535302   3.604735   2.417621   2.801671   4.342250
    18  H    5.341992   4.473689   3.403858   3.886310   5.422384
    19  C    3.507629   2.311126   1.396056   2.410623   3.820012
    20  H    3.695917   2.613347   2.207261   3.420592   4.728147
                   11         12         13         14         15
    11  O    0.000000
    12  O    2.179075   0.000000
    13  C    2.802743   3.665713   0.000000
    14  H    2.647755   4.030205   1.086787   0.000000
    15  C    4.172304   4.888834   1.390518   2.047585   0.000000
    16  H    4.857440   5.816852   2.177287   2.366207   1.086729
    17  C    4.950233   5.174445   2.362022   3.281549   1.359898
    18  H    5.992349   6.249080   3.345232   4.152724   2.110455
    19  C    4.712315   4.417558   2.732255   3.811863   2.399820
    20  H    5.699647   5.170766   3.816470   4.892442   3.345257
                   16         17         18         19         20
    16  H    0.000000
    17  C    2.111001   0.000000
    18  H    2.416097   1.086919   0.000000
    19  C    3.379548   1.406389   2.164598   0.000000
    20  H    4.220044   2.113417   2.418425   1.087037   0.000000
 Stoichiometry    C9H7O4(1-)
 Framework group  C1[X(C9H7O4)]
 Deg. of freedom    54
 Full point group                 C1      NOp   1
 Largest Abelian subgroup         C1      NOp   1
 Largest concise Abelian subgroup C1      NOp   1
                         Standard orientation:                         
 ---------------------------------------------------------------------
 Center     Atomic      Atomic             Coordinates (Angstroms)
 Number     Number       Type             X           Y           Z
 ---------------------------------------------------------------------
      1          6           0       -3.403846   -0.419591   -0.449477
      2          1           0       -3.494835   -1.232383   -1.172938
      3          1           0       -3.466999    0.520571   -1.001064
      4          1           0       -4.274413   -0.444693    0.210330
      5          6           0       -2.128419   -0.625107    0.251044
      6          8           0       -2.005183   -0.637651    1.433281
      7          8           0       -1.145440   -0.469977   -0.651996
      8          6           0        0.145604   -0.589192   -0.313601
      9          6           0        0.923532    0.475209    0.048049
     10          6           0        0.380231    1.920305   -0.089318
     11          8           0        1.322338    2.794953   -0.274068
     12          8           0       -0.750373    2.265926    0.141101
     13          6           0        2.288678    0.219888    0.265006
     14          1           0        3.038491    0.953891    0.548072
     15          6           0        2.830938   -1.060372    0.244316
     16          1           0        3.850835   -1.268486    0.556528
     17          6           0        2.015368   -2.102267   -0.069726
     18          1           0        2.452487   -3.089344   -0.196217
     19          6           0        0.682455   -1.870258   -0.453712
     20          1           0        0.116460   -2.757246   -0.726753
 ---------------------------------------------------------------------
 Rotational constants (GHZ):           1.1017739           0.7567106           0.4953512
 Leave Link  202 at Sun Jul 18 13:43:40 2021, MaxMem=   104857600 cpu:               0.0 elap:               0.0
 (Enter /dades/curu/g16A03_MST/g16/l301.exe)
 Standard basis: 6-31G(d) (6D, 7F)
 Ernie: Thresh=  0.10000D-02 Tol=  0.10000D-05 Strict=F.
 There are   209 symmetry adapted cartesian basis functions of A   symmetry.
 There are   209 symmetry adapted basis functions of A   symmetry.
   209 basis functions,   392 primitive gaussians,   209 cartesian basis functions
    47 alpha electrons       47 beta electrons
       nuclear repulsion energy       766.7748793363 Hartrees.
 IExCor=  402 DFT=T Ex+Corr=B3LYP ExCW=0 ScaHFX=  0.200000
 ScaDFX=  0.800000  0.720000  1.000000  0.810000 ScalE2=  1.000000  1.000000
 IRadAn=      5 IRanWt=     -1 IRanGd=            0 ICorTp=0 IEmpDi=  4
 NAtoms=   20 NActive=   20 NUniq=   20 SFac= 1.00D+00 NAtFMM=   60 NAOKFM=F Big=F
 Integral buffers will be    131072 words long.
 Raffenetti 2 integral format.
 Two-electron integral symmetry is turned on.
 Using the following non-standard input for PCM:
 MSTModel=DFT cav MSTCharged
 --- end of non-standard input.
 MST model for solvation energy: B3LYP parametrization.
 MST cavity parameters:
 ISph   IAn     Re0     Alpha   Atom Type   QCorr
 ------------------------------------------------
   1      6     1.50     1.50      CH3        F
   2      1     1.20     1.50      CH3        F
   3      1     1.20     1.50      CH3        F
   4      1     1.20     1.50      CH3        F
   5      6     1.50     1.50      C          F
   6      8     1.40     1.50      O          F
   7      8     1.40     1.50      O          F
   8      6     1.50     1.50      C          F
   9      6     1.50     1.50      C          F
  10      6     1.50     1.15      C          T
  11      8     1.40     1.15      O          T
  12      8     1.40     1.15      O          T
  13      6     1.50     1.50      CH         F
  14      1     1.20     1.50      CH         F
  15      6     1.50     1.50      CH         F
  16      1     1.20     1.50      CH         F
  17      6     1.50     1.50      CH         F
  18      1     1.20     1.50      CH         F
  19      6     1.50     1.50      CH         F
  20      1     1.20     1.50      CH         F
 ------------------------------------------------------------------------------
 Polarizable Continuum Model (PCM)
 =================================
 Model                : PCM.
 Atomic radii         : MST.
 Polarization charges : Total charges.
 Charge compensation  : None.
 Solution method      : On-the-fly selection.
 Cavity type          : Scaled VdW (van der Waals Surface) (Alpha=1.500).
 Cavity algorithm     : GePol (No added spheres)
                        Default sphere list used, NSphG=   20.
                        Lebedev-Laikov grids with approx.  5.0 points / Ang**2.
                        Smoothing algorithm: York/Karplus (Gamma=1.0000).
                        Polarization charges: spherical gaussians, with
                                              point-specific exponents (IZeta= 3).
                        Self-potential: point-specific (ISelfS= 7).
                        Self-field    : sphere-specific E.n sum rule (ISelfD= 2).
 1st derivatives      : Analytical E(r).r(x)/FMM algorithm (CHGder, D1EAlg=3).
                        Cavity 1st derivative terms included.
 Solvent              : n-Octanol, Eps=   9.862900 Eps(inf)=   2.043470
 ------------------------------------------------------------------------------
 Spheres list:
 ISph  on   Nord     Re0    Alpha      Xe            Ye            Ze
    1   C      1    1.5000  1.500     -3.403846     -0.419591     -0.449477
    2   H      2    1.2000  1.500     -3.494835     -1.232383     -1.172938
    3   H      3    1.2000  1.500     -3.466999      0.520571     -1.001064
    4   H      4    1.2000  1.500     -4.274413     -0.444693      0.210330
    5   C      5    1.5000  1.500     -2.128419     -0.625107      0.251044
    6   O      6    1.4000  1.500     -2.005183     -0.637651      1.433281
    7   O      7    1.4000  1.500     -1.145440     -0.469977     -0.651996
    8   C      8    1.5000  1.500      0.145604     -0.589192     -0.313601
    9   C      9    1.5000  1.500      0.923532      0.475209      0.048049
   10   C     10    1.5000  1.150      0.380231      1.920305     -0.089318
   11   O     11    1.4000  1.150      1.322338      2.794953     -0.274068
   12   O     12    1.4000  1.150     -0.750373      2.265926      0.141101
   13   C     13    1.5000  1.500      2.288678      0.219888      0.265006
   14   H     14    1.2000  1.500      3.038491      0.953891      0.548072
   15   C     15    1.5000  1.500      2.830938     -1.060372      0.244316
   16   H     16    1.2000  1.500      3.850835     -1.268486      0.556528
   17   C     17    1.5000  1.500      2.015368     -2.102267     -0.069726
   18   H     18    1.2000  1.500      2.452487     -3.089344     -0.196217
   19   C     19    1.5000  1.500      0.682455     -1.870258     -0.453712
   20   H     20    1.2000  1.500      0.116460     -2.757246     -0.726753
 ------------------------------------------------------------------------------
 GePol: Number of generator spheres                  =      20
 GePol: Total number of spheres                      =      20
 GePol: Number of exposed spheres                    =      20 (100.00%)
 GePol: Number of points                             =    2131
 GePol: Average weight of points                     =       0.12
 GePol: Minimum weight of points                     =   0.46D-10
 GePol: Maximum weight of points                     =    0.21044
 GePol: Number of points with low weight             =     102
 GePol: Fraction of low-weight points (<1% of avg)   =       4.79%
 GePol: Cavity surface area                          =    246.481 Ang**2
 GePol: Cavity volume                                =    258.619 Ang**3
 Surface areas from nonelectrostatic (unscaled) cavity and vdw tensions:
 Sphere =    1 Type =  CH3 Surf =        5.079 Tension =       -0.183
 Sphere =    2 Type =  CH3 Surf =       10.004 Tension =       -0.183
 Sphere =    3 Type =  CH3 Surf =       10.113 Tension =       -0.183
 Sphere =    4 Type =  CH3 Surf =       10.124 Tension =       -0.183
 Sphere =    5 Type =  C   Surf =        6.927 Tension =       -0.205
 Sphere =    6 Type =  O   Surf =       16.258 Tension =       -0.185
 Sphere =    7 Type =  O   Surf =        9.449 Tension =       -0.185
 Sphere =    8 Type =  C   Surf =        6.059 Tension =       -0.205
 Sphere =    9 Type =  C   Surf =        6.514 Tension =       -0.205
 Sphere =   10 Type =  C   Surf =        7.432 Tension =       -0.205
 Sphere =   11 Type =  O   Surf =       16.518 Tension =       -0.185
 Sphere =   12 Type =  O   Surf =       16.394 Tension =       -0.185
 Sphere =   13 Type =  CH  Surf =        7.627 Tension =       -0.195
 Sphere =   14 Type =  CH  Surf =       10.129 Tension =       -0.195
 Sphere =   15 Type =  CH  Surf =        7.628 Tension =       -0.195
 Sphere =   16 Type =  CH  Surf =       10.220 Tension =       -0.195
 Sphere =   17 Type =  CH  Surf =        7.657 Tension =       -0.195
 Sphere =   18 Type =  CH  Surf =       10.211 Tension =       -0.195
 Sphere =   19 Type =  CH  Surf =        7.752 Tension =       -0.195
 Sphere =   20 Type =  CH  Surf =       10.209 Tension =       -0.195
 PCM non-electrostatic energy =        -0.0094181535 Hartrees.
 Nuclear repulsion after PCM non-electrostatic terms =      766.7654611828 Hartrees.
 Leave Link  301 at Sun Jul 18 13:43:41 2021, MaxMem=   104857600 cpu:               0.1 elap:               0.9
 (Enter /dades/curu/g16A03_MST/g16/l302.exe)
 NPDir=0 NMtPBC=     1 NCelOv=     1 NCel=       1 NClECP=     1 NCelD=      1
         NCelK=      1 NCelE2=     1 NClLst=     1 CellRange=     0.0.
 One-electron integrals computed using PRISM.
 One-electron integral symmetry used in STVInt
 NBasis=   209 RedAO= T EigKep=  4.60D-04  NBF=   209
 NBsUse=   209 1.00D-06 EigRej= -1.00D+00 NBFU=   209
 Precomputing XC quadrature grid using
 IXCGrd= 4 IRadAn=           5 IRanWt=          -1 IRanGd=           0 AccXCQ= 0.00D+00.
 Generated NRdTot=       0 NPtTot=           0 NUsed=           0 NTot=          32
 NSgBfM=   208   208   208   208   208 MxSgAt=    20 MxSgA2=    20.
 Leave Link  302 at Sun Jul 18 13:43:41 2021, MaxMem=   104857600 cpu:               2.5 elap:               0.7
 (Enter /dades/curu/g16A03_MST/g16/l303.exe)
 DipDrv:  MaxL=1.
 Leave Link  303 at Sun Jul 18 13:43:41 2021, MaxMem=   104857600 cpu:               0.1 elap:               0.0
 (Enter /dades/curu/g16A03_MST/g16/l401.exe)
 ExpMin= 1.61D-01 ExpMax= 5.48D+03 ExpMxC= 8.25D+02 IAcc=3 IRadAn=         5 AccDes= 0.00D+00
 Harris functional with IExCor=  402 and IRadAn=       5 diagonalized for initial guess.
 HarFok:  IExCor=  402 AccDes= 0.00D+00 IRadAn=         5 IDoV= 1 UseB2=F ITyADJ=14
 ICtDFT=  3500011 ScaDFX=  1.000000  1.000000  1.000000  1.000000
 FoFCou: FMM=F IPFlag=           0 FMFlag=      100000 FMFlg1=           0
         NFxFlg=           0 DoJE=T BraDBF=F KetDBF=T FulRan=T
         wScrn=  0.000000 ICntrl=       500 IOpCl=  0 I1Cent=   200000004 NGrid=           0
         NMat0=    1 NMatS0=      1 NMatT0=    0 NMatD0=    1 NMtDS0=    0 NMtDT0=    0
 Petite list used in FoFCou.
 Harris En= -648.339456971922    
 JPrj=0 DoOrth=F DoCkMO=F.
 Leave Link  401 at Sun Jul 18 13:43:45 2021, MaxMem=   104857600 cpu:              14.0 elap:               3.5
 (Enter /dades/curu/g16A03_MST/g16/l502.exe)
 Integral symmetry usage will be decided dynamically.
 Closed shell SCF:
 Using DIIS extrapolation, IDIIS=  1040.
 NGot=   104857600 LenX=   104766663 LenY=   104722541
 Requested convergence on RMS density matrix=1.00D-08 within 128 cycles.
 Requested convergence on MAX density matrix=1.00D-06.
 Requested convergence on             energy=1.00D-06.
 No special actions if energy rises.
 Fock matrices will be formed incrementally for  20 cycles.

 Cycle   1  Pass 1  IDiag  1:
 FoFJK:  IHMeth= 1 ICntrl=       0 DoSepK=F KAlg= 0 I1Cent=           0 FoldK=F
 IRaf= 890000000 NMat=       1 IRICut=       1 DoRegI=T DoRafI=F ISym2E= 0 IDoP0=0 IntGTp=1.
 FoFCou: FMM=F IPFlag=           0 FMFlag=      100000 FMFlg1=           0
         NFxFlg=           0 DoJE=F BraDBF=F KetDBF=F FulRan=T
         wScrn=  0.000000 ICntrl=         0 IOpCl=  0 I1Cent=           0 NGrid=           0
         NMat0=    1 NMatS0=      1 NMatT0=    0 NMatD0=    1 NMtDS0=    0 NMtDT0=    0
 Symmetry not used in FoFCou.
 Inv3:  Mode=1 IEnd=    13623483.
 Iteration    1 A*A^-1 deviation from unit magnitude is 7.33D-15 for    504.
 Iteration    1 A*A^-1 deviation from orthogonality  is 3.22D-15 for   2119    443.
 Iteration    1 A^-1*A deviation from unit magnitude is 6.66D-15 for    504.
 Iteration    1 A^-1*A deviation from orthogonality  is 2.82D-15 for   2111    624.
 E= -647.798317620960    
 DIIS: error= 2.93D-02 at cycle   1 NSaved=   1.
 NSaved= 1 IEnMin= 1 EnMin= -647.798317620960     IErMin= 1 ErrMin= 2.93D-02
 ErrMax= 2.93D-02  0.00D+00 EMaxC= 1.00D-01 BMatC= 4.76D-01 BMatP= 4.76D-01
 IDIUse=3 WtCom= 7.07D-01 WtEn= 2.93D-01
 Coeff-Com:  0.100D+01
 Coeff-En:   0.100D+01
 Coeff:      0.100D+01
 Gap=     0.242 Goal=   None    Shift=    0.000
 GapD=    0.242 DampG=1.000 DampE=0.500 DampFc=0.5000 IDamp=-1.
 Damping current iteration by 5.00D-01
 RMSDP=7.97D-03 MaxDP=1.98D-01              OVMax= 1.93D-01

 Cycle   2  Pass 1  IDiag  1:
 RMSU=  3.97D-03    CP:  9.85D-01
 E= -647.936171435859     Delta-E=       -0.137853814899 Rises=F Damp=T
 DIIS: error= 1.14D-02 at cycle   2 NSaved=   2.
 NSaved= 2 IEnMin= 2 EnMin= -647.936171435859     IErMin= 2 ErrMin= 1.14D-02
 ErrMax= 1.14D-02  0.00D+00 EMaxC= 1.00D-01 BMatC= 5.30D-02 BMatP= 4.76D-01
 IDIUse=3 WtCom= 8.86D-01 WtEn= 1.14D-01
 Coeff-Com:  0.178D+00 0.822D+00
 Coeff-En:   0.275D+00 0.725D+00
 Coeff:      0.189D+00 0.811D+00
 Gap=     0.182 Goal=   None    Shift=    0.000
 RMSDP=2.18D-03 MaxDP=5.92D-02 DE=-1.38D-01 OVMax= 1.48D-01

 Cycle   3  Pass 1  IDiag  1:
 RMSU=  1.98D-03    CP:  9.75D-01  7.78D-01
 E= -648.158650106725     Delta-E=       -0.222478670866 Rises=F Damp=F
 DIIS: error= 1.10D-02 at cycle   3 NSaved=   3.
 NSaved= 3 IEnMin= 3 EnMin= -648.158650106725     IErMin= 3 ErrMin= 1.10D-02
 ErrMax= 1.10D-02  0.00D+00 EMaxC= 1.00D-01 BMatC= 4.69D-02 BMatP= 5.30D-02
 IDIUse=3 WtCom= 8.90D-01 WtEn= 1.10D-01
 Coeff-Com:  0.560D-01 0.483D+00 0.461D+00
 Coeff-En:   0.000D+00 0.000D+00 0.100D+01
 Coeff:      0.499D-01 0.430D+00 0.520D+00
 Gap=     0.183 Goal=   None    Shift=    0.000
 RMSDP=1.36D-03 MaxDP=4.80D-02 DE=-2.22D-01 OVMax= 8.66D-02

 Cycle   4  Pass 1  IDiag  1:
 RMSU=  8.23D-04    CP:  9.79D-01  8.33D-01  4.66D-01
 E= -648.193289242461     Delta-E=       -0.034639135736 Rises=F Damp=F
 DIIS: error= 4.46D-03 at cycle   4 NSaved=   4.
 NSaved= 4 IEnMin= 4 EnMin= -648.193289242461     IErMin= 4 ErrMin= 4.46D-03
 ErrMax= 4.46D-03  0.00D+00 EMaxC= 1.00D-01 BMatC= 8.86D-03 BMatP= 4.69D-02
 IDIUse=3 WtCom= 9.55D-01 WtEn= 4.46D-02
 Coeff-Com:  0.133D-01 0.113D+00 0.313D+00 0.561D+00
 Coeff-En:   0.000D+00 0.000D+00 0.162D+00 0.838D+00
 Coeff:      0.127D-01 0.108D+00 0.306D+00 0.573D+00
 Gap=     0.176 Goal=   None    Shift=    0.000
 RMSDP=4.53D-04 MaxDP=1.76D-02 DE=-3.46D-02 OVMax= 2.95D-02

 Cycle   5  Pass 1  IDiag  1:
 RMSU=  2.33D-04    CP:  9.79D-01  8.07D-01  5.96D-01  6.68D-01
 E= -648.199671421474     Delta-E=       -0.006382179013 Rises=F Damp=F
 DIIS: error= 2.17D-03 at cycle   5 NSaved=   5.
 NSaved= 5 IEnMin= 5 EnMin= -648.199671421474     IErMin= 5 ErrMin= 2.17D-03
 ErrMax= 2.17D-03  0.00D+00 EMaxC= 1.00D-01 BMatC= 8.18D-04 BMatP= 8.86D-03
 IDIUse=3 WtCom= 9.78D-01 WtEn= 2.17D-02
 Coeff-Com:  0.295D-02 0.775D-02 0.126D+00 0.346D+00 0.518D+00
 Coeff-En:   0.000D+00 0.000D+00 0.000D+00 0.157D-01 0.984D+00
 Coeff:      0.289D-02 0.759D-02 0.123D+00 0.338D+00 0.528D+00
 Gap=     0.178 Goal=   None    Shift=    0.000
 RMSDP=1.40D-04 MaxDP=4.93D-03 DE=-6.38D-03 OVMax= 5.47D-03

 Cycle   6  Pass 1  IDiag  1:
 RMSU=  7.44D-05    CP:  9.78D-01  8.10D-01  5.98D-01  6.97D-01  5.02D-01
 E= -648.200276817567     Delta-E=       -0.000605396094 Rises=F Damp=F
 DIIS: error= 2.74D-04 at cycle   6 NSaved=   6.
 NSaved= 6 IEnMin= 6 EnMin= -648.200276817567     IErMin= 6 ErrMin= 2.74D-04
 ErrMax= 2.74D-04  0.00D+00 EMaxC= 1.00D-01 BMatC= 4.36D-05 BMatP= 8.18D-04
 IDIUse=3 WtCom= 9.97D-01 WtEn= 2.74D-03
 Coeff-Com:  0.787D-03-0.221D-02 0.455D-01 0.136D+00 0.279D+00 0.540D+00
 Coeff-En:   0.000D+00 0.000D+00 0.000D+00 0.000D+00 0.000D+00 0.100D+01
 Coeff:      0.785D-03-0.220D-02 0.454D-01 0.136D+00 0.278D+00 0.542D+00
 Gap=     0.177 Goal=   None    Shift=    0.000
 RMSDP=3.68D-05 MaxDP=1.22D-03 DE=-6.05D-04 OVMax= 2.01D-03

 Cycle   7  Pass 1  IDiag  1:
 RMSU=  2.04D-05    CP:  9.78D-01  8.10D-01  5.98D-01  7.02D-01  5.68D-01
                    CP:  6.49D-01
 E= -648.200310356770     Delta-E=       -0.000033539203 Rises=F Damp=F
 DIIS: error= 9.96D-05 at cycle   7 NSaved=   7.
 NSaved= 7 IEnMin= 7 EnMin= -648.200310356770     IErMin= 7 ErrMin= 9.96D-05
 ErrMax= 9.96D-05  0.00D+00 EMaxC= 1.00D-01 BMatC= 3.78D-06 BMatP= 4.36D-05
 IDIUse=1 WtCom= 1.00D+00 WtEn= 0.00D+00
 Coeff-Com:  0.252D-03-0.198D-02 0.148D-01 0.459D-01 0.113D+00 0.301D+00
 Coeff-Com:  0.527D+00
 Coeff:      0.252D-03-0.198D-02 0.148D-01 0.459D-01 0.113D+00 0.301D+00
 Coeff:      0.527D+00
 Gap=     0.177 Goal=   None    Shift=    0.000
 RMSDP=1.10D-05 MaxDP=3.37D-04 DE=-3.35D-05 OVMax= 7.06D-04

 Cycle   8  Pass 1  IDiag  1:
 RMSU=  6.93D-06    CP:  9.78D-01  8.10D-01  5.99D-01  7.02D-01  5.66D-01
                    CP:  6.81D-01  6.09D-01
 E= -648.200313570920     Delta-E=       -0.000003214150 Rises=F Damp=F
 DIIS: error= 3.66D-05 at cycle   8 NSaved=   8.
 NSaved= 8 IEnMin= 8 EnMin= -648.200313570920     IErMin= 8 ErrMin= 3.66D-05
 ErrMax= 3.66D-05  0.00D+00 EMaxC= 1.00D-01 BMatC= 3.89D-07 BMatP= 3.78D-06
 IDIUse=1 WtCom= 1.00D+00 WtEn= 0.00D+00
 Coeff-Com:  0.861D-04-0.875D-03 0.388D-02 0.120D-01 0.368D-01 0.116D+00
 Coeff-Com:  0.299D+00 0.534D+00
 Coeff:      0.861D-04-0.875D-03 0.388D-02 0.120D-01 0.368D-01 0.116D+00
 Coeff:      0.299D+00 0.534D+00
 Gap=     0.177 Goal=   None    Shift=    0.000
 RMSDP=3.80D-06 MaxDP=1.37D-04 DE=-3.21D-06 OVMax= 2.27D-04

 Cycle   9  Pass 1  IDiag  1:
 RMSU=  2.08D-06    CP:  9.78D-01  8.10D-01  5.99D-01  7.02D-01  5.68D-01
                    CP:  6.79D-01  6.56D-01  5.83D-01
 E= -648.200313887942     Delta-E=       -0.000000317022 Rises=F Damp=F
 DIIS: error= 1.01D-05 at cycle   9 NSaved=   9.
 NSaved= 9 IEnMin= 9 EnMin= -648.200313887942     IErMin= 9 ErrMin= 1.01D-05
 ErrMax= 1.01D-05  0.00D+00 EMaxC= 1.00D-01 BMatC= 3.74D-08 BMatP= 3.89D-07
 IDIUse=1 WtCom= 1.00D+00 WtEn= 0.00D+00
 Coeff-Com:  0.179D-04-0.220D-03 0.108D-03 0.103D-03 0.451D-02 0.199D-01
 Coeff-Com:  0.821D-01 0.279D+00 0.614D+00
 Coeff:      0.179D-04-0.220D-03 0.108D-03 0.103D-03 0.451D-02 0.199D-01
 Coeff:      0.821D-01 0.279D+00 0.614D+00
 Gap=     0.177 Goal=   None    Shift=    0.000
 RMSDP=1.17D-06 MaxDP=4.14D-05 DE=-3.17D-07 OVMax= 7.22D-05

 Cycle  10  Pass 1  IDiag  1:
 RMSU=  8.80D-07    CP:  9.78D-01  8.10D-01  5.99D-01  7.02D-01  5.68D-01
                    CP:  6.81D-01  6.67D-01  6.59D-01  7.76D-01
 E= -648.200313910235     Delta-E=       -0.000000022293 Rises=F Damp=F
 DIIS: error= 4.76D-06 at cycle  10 NSaved=  10.
 NSaved=10 IEnMin=10 EnMin= -648.200313910235     IErMin=10 ErrMin= 4.76D-06
 ErrMax= 4.76D-06  0.00D+00 EMaxC= 1.00D-01 BMatC= 8.55D-09 BMatP= 3.74D-08
 IDIUse=1 WtCom= 1.00D+00 WtEn= 0.00D+00
 Coeff-Com:  0.455D-05-0.479D-04-0.294D-03-0.111D-02-0.847D-03 0.431D-03
 Coeff-Com:  0.197D-01 0.123D+00 0.393D+00 0.466D+00
 Coeff:      0.455D-05-0.479D-04-0.294D-03-0.111D-02-0.847D-03 0.431D-03
 Coeff:      0.197D-01 0.123D+00 0.393D+00 0.466D+00
 Gap=     0.177 Goal=   None    Shift=    0.000
 RMSDP=4.89D-07 MaxDP=1.30D-05 DE=-2.23D-08 OVMax= 3.23D-05

 Cycle  11  Pass 1  IDiag  1:
 RMSU=  2.19D-07    CP:  9.78D-01  8.10D-01  5.99D-01  7.02D-01  5.68D-01
                    CP:  6.82D-01  6.66D-01  6.66D-01  8.24D-01  5.50D-01
 E= -648.200313917869     Delta-E=       -0.000000007634 Rises=F Damp=F
 DIIS: error= 7.43D-07 at cycle  11 NSaved=  11.
 NSaved=11 IEnMin=11 EnMin= -648.200313917869     IErMin=11 ErrMin= 7.43D-07
 ErrMax= 7.43D-07  0.00D+00 EMaxC= 1.00D-01 BMatC= 2.55D-10 BMatP= 8.55D-09
 IDIUse=1 WtCom= 1.00D+00 WtEn= 0.00D+00
 Coeff-Com:  0.373D-06-0.139D-05-0.124D-03-0.460D-03-0.699D-03-0.142D-02
 Coeff-Com:  0.134D-02 0.289D-01 0.103D+00 0.199D+00 0.670D+00
 Coeff:      0.373D-06-0.139D-05-0.124D-03-0.460D-03-0.699D-03-0.142D-02
 Coeff:      0.134D-02 0.289D-01 0.103D+00 0.199D+00 0.670D+00
 Gap=     0.177 Goal=   None    Shift=    0.000
 RMSDP=9.50D-08 MaxDP=3.95D-06 DE=-7.63D-09 OVMax= 7.44D-06

 Cycle  12  Pass 1  IDiag  1:
 RMSU=  6.81D-08    CP:  9.78D-01  8.10D-01  5.99D-01  7.02D-01  5.68D-01
                    CP:  6.82D-01  6.67D-01  6.69D-01  8.33D-01  5.99D-01
                    CP:  8.22D-01
 E= -648.200313918103     Delta-E=       -0.000000000234 Rises=F Damp=F
 DIIS: error= 3.06D-07 at cycle  12 NSaved=  12.
 NSaved=12 IEnMin=12 EnMin= -648.200313918103     IErMin=12 ErrMin= 3.06D-07
 ErrMax= 3.06D-07  0.00D+00 EMaxC= 1.00D-01 BMatC= 4.97D-11 BMatP= 2.55D-10
 IDIUse=1 WtCom= 1.00D+00 WtEn= 0.00D+00
 Coeff-Com: -0.440D-06 0.481D-05-0.418D-04-0.151D-03-0.335D-03-0.958D-03
 Coeff-Com: -0.168D-02 0.264D-02 0.120D-01 0.619D-01 0.375D+00 0.551D+00
 Coeff:     -0.440D-06 0.481D-05-0.418D-04-0.151D-03-0.335D-03-0.958D-03
 Coeff:     -0.168D-02 0.264D-02 0.120D-01 0.619D-01 0.375D+00 0.551D+00
 Gap=     0.177 Goal=   None    Shift=    0.000
 RMSDP=3.42D-08 MaxDP=1.64D-06 DE=-2.34D-10 OVMax= 1.80D-06

 Cycle  13  Pass 1  IDiag  1:
 RMSU=  1.81D-08    CP:  9.78D-01  8.10D-01  5.99D-01  7.02D-01  5.68D-01
                    CP:  6.82D-01  6.67D-01  6.70D-01  8.35D-01  6.07D-01
                    CP:  8.80D-01  6.91D-01
 E= -648.200313918128     Delta-E=       -0.000000000026 Rises=F Damp=F
 DIIS: error= 3.87D-08 at cycle  13 NSaved=  13.
 NSaved=13 IEnMin=13 EnMin= -648.200313918128     IErMin=13 ErrMin= 3.87D-08
 ErrMax= 3.87D-08  0.00D+00 EMaxC= 1.00D-01 BMatC= 7.30D-13 BMatP= 4.97D-11
 IDIUse=1 WtCom= 1.00D+00 WtEn= 0.00D+00
 Coeff-Com: -0.138D-06 0.111D-05-0.191D-06-0.482D-06-0.281D-04-0.138D-03
 Coeff-Com: -0.539D-03-0.154D-02-0.617D-02 0.543D-03 0.448D-01 0.124D+00
 Coeff-Com:  0.839D+00
 Coeff:     -0.138D-06 0.111D-05-0.191D-06-0.482D-06-0.281D-04-0.138D-03
 Coeff:     -0.539D-03-0.154D-02-0.617D-02 0.543D-03 0.448D-01 0.124D+00
 Coeff:      0.839D+00
 Gap=     0.177 Goal=   None    Shift=    0.000
 RMSDP=7.95D-09 MaxDP=1.78D-07 DE=-2.56D-11 OVMax= 4.82D-07

 Error on total polarization charges =  0.00455
 SCF Done:  E(RB3LYP) =  -648.200313918     A.U. after   13 cycles
            NFock= 13  Conv=0.79D-08     -V/T= 2.0080
 KE= 6.430254882624D+02 PE=-3.064827933796D+03 EE= 1.006836670433D+03
 Leave Link  502 at Sun Jul 18 13:45:26 2021, MaxMem=   104857600 cpu:             389.1 elap:             101.1
 (Enter /dades/curu/g16A03_MST/g16/l601.exe)
 Copying SCF densities to generalized density rwf, IOpCl= 0 IROHF=0.

 **********************************************************************

            Population analysis using the SCF density.

 **********************************************************************

 Orbital symmetries:
       Occupied  (A) (A) (A) (A) (A) (A) (A) (A) (A) (A) (A) (A)
                 (A) (A) (A) (A) (A) (A) (A) (A) (A) (A) (A) (A)
                 (A) (A) (A) (A) (A) (A) (A) (A) (A) (A) (A) (A)
                 (A) (A) (A) (A) (A) (A) (A) (A) (A) (A) (A)
       Virtual   (A) (A) (A) (A) (A) (A) (A) (A) (A) (A) (A) (A)
                 (A) (A) (A) (A) (A) (A) (A) (A) (A) (A) (A) (A)
                 (A) (A) (A) (A) (A) (A) (A) (A) (A) (A) (A) (A)
                 (A) (A) (A) (A) (A) (A) (A) (A) (A) (A) (A) (A)
                 (A) (A) (A) (A) (A) (A) (A) (A) (A) (A) (A) (A)
                 (A) (A) (A) (A) (A) (A) (A) (A) (A) (A) (A) (A)
                 (A) (A) (A) (A) (A) (A) (A) (A) (A) (A) (A) (A)
                 (A) (A) (A) (A) (A) (A) (A) (A) (A) (A) (A) (A)
                 (A) (A) (A) (A) (A) (A) (A) (A) (A) (A) (A) (A)
                 (A) (A) (A) (A) (A) (A) (A) (A) (A) (A) (A) (A)
                 (A) (A) (A) (A) (A) (A) (A) (A) (A) (A) (A) (A)
                 (A) (A) (A) (A) (A) (A) (A) (A) (A) (A) (A) (A)
                 (A) (A) (A) (A) (A) (A) (A) (A) (A) (A) (A) (A)
                 (A) (A) (A) (A) (A) (A)
 The electronic state is 1-A.
 Alpha  occ. eigenvalues --  -19.18326 -19.12792 -19.05668 -19.03261 -10.30728
 Alpha  occ. eigenvalues --  -10.23851 -10.23189 -10.17703 -10.17651 -10.17534
 Alpha  occ. eigenvalues --  -10.17515 -10.17454 -10.16957  -1.11406  -1.02717
 Alpha  occ. eigenvalues --   -0.99865  -0.88134  -0.84516  -0.77231  -0.73487
 Alpha  occ. eigenvalues --   -0.71960  -0.63543  -0.60988  -0.55428  -0.50765
 Alpha  occ. eigenvalues --   -0.48538  -0.48098  -0.47508  -0.45445  -0.43859
 Alpha  occ. eigenvalues --   -0.41780  -0.40086  -0.39970  -0.38792  -0.37206
 Alpha  occ. eigenvalues --   -0.36829  -0.36205  -0.34947  -0.33686  -0.33363
 Alpha  occ. eigenvalues --   -0.29845  -0.26820  -0.23815  -0.23160  -0.21034
 Alpha  occ. eigenvalues --   -0.20452  -0.17972
 Alpha virt. eigenvalues --   -0.00246   0.01381   0.02236   0.10850   0.10996
 Alpha virt. eigenvalues --    0.12849   0.15588   0.16353   0.17901   0.18549
 Alpha virt. eigenvalues --    0.19554   0.20872   0.23280   0.26818   0.28235
 Alpha virt. eigenvalues --    0.29421   0.32190   0.34033   0.35554   0.36138
 Alpha virt. eigenvalues --    0.38984   0.42220   0.42999   0.51229   0.52607
 Alpha virt. eigenvalues --    0.54292   0.55446   0.55700   0.57376   0.58140
 Alpha virt. eigenvalues --    0.58530   0.59859   0.60548   0.61377   0.62577
 Alpha virt. eigenvalues --    0.62856   0.63924   0.64928   0.66294   0.66906
 Alpha virt. eigenvalues --    0.70301   0.71292   0.72569   0.74976   0.75195
 Alpha virt. eigenvalues --    0.78401   0.80781   0.82971   0.83282   0.84954
 Alpha virt. eigenvalues --    0.85663   0.85999   0.89210   0.89781   0.90634
 Alpha virt. eigenvalues --    0.92216   0.92558   0.93942   0.96461   0.97013
 Alpha virt. eigenvalues --    0.99252   1.00847   1.02693   1.02954   1.06567
 Alpha virt. eigenvalues --    1.07121   1.10208   1.12576   1.13332   1.16057
 Alpha virt. eigenvalues --    1.17321   1.19178   1.21374   1.23793   1.25147
 Alpha virt. eigenvalues --    1.29375   1.30949   1.33917   1.38636   1.40185
 Alpha virt. eigenvalues --    1.43423   1.47736   1.49031   1.50560   1.51732
 Alpha virt. eigenvalues --    1.53626   1.57717   1.58488   1.60739   1.67888
 Alpha virt. eigenvalues --    1.71377   1.74520   1.75855   1.76975   1.78509
 Alpha virt. eigenvalues --    1.81528   1.83046   1.84838   1.87481   1.88522
 Alpha virt. eigenvalues --    1.89469   1.91654   1.92774   1.93475   1.94738
 Alpha virt. eigenvalues --    1.97437   1.97995   1.99864   2.02039   2.04353
 Alpha virt. eigenvalues --    2.09104   2.10201   2.12222   2.12679   2.15859
 Alpha virt. eigenvalues --    2.17128   2.19071   2.20285   2.22943   2.27754
 Alpha virt. eigenvalues --    2.29375   2.33272   2.35039   2.35935   2.40836
 Alpha virt. eigenvalues --    2.42434   2.50252   2.52027   2.57397   2.62120
 Alpha virt. eigenvalues --    2.63750   2.64814   2.69135   2.70183   2.71074
 Alpha virt. eigenvalues --    2.75190   2.77635   2.83047   2.83999   2.88312
 Alpha virt. eigenvalues --    2.90560   2.96974   2.98826   3.05400   3.14219
 Alpha virt. eigenvalues --    3.16688   3.21481   3.27293   3.46217   3.91753
 Alpha virt. eigenvalues --    4.06435   4.10647   4.11372   4.13421   4.21378
 Alpha virt. eigenvalues --    4.25523   4.33213   4.37658   4.46137   4.49817
 Alpha virt. eigenvalues --    4.59984   4.79096
          Condensed to atoms (all electrons):
               1          2          3          4          5          6
     1  C    5.296589   0.339158   0.360396   0.359394   0.371405  -0.082497
     2  H    0.339158   0.545059  -0.021575  -0.023072  -0.019826   0.002592
     3  H    0.360396  -0.021575   0.502012  -0.026235  -0.017693   0.000068
     4  H    0.359394  -0.023072  -0.026235   0.535088  -0.023170   0.001828
     5  C    0.371405  -0.019826  -0.017693  -0.023170   4.263855   0.599614
     6  O   -0.082497   0.002592   0.000068   0.001828   0.599614   8.011642
     7  O   -0.109479   0.003428   0.000626   0.004005   0.225051  -0.077156
     8  C    0.003084  -0.000367   0.000200  -0.000058  -0.009079   0.013570
     9  C    0.000203  -0.000030  -0.000111  -0.000000  -0.004228   0.001911
    10  C   -0.000478   0.000010   0.000262   0.000007   0.000709  -0.000687
    11  O   -0.000001   0.000000   0.000002   0.000000   0.000050  -0.000001
    12  O   -0.001259   0.000017   0.001854   0.000005   0.013099  -0.001285
    13  C    0.000015  -0.000000  -0.000002  -0.000000   0.000072  -0.000013
    14  H   -0.000000   0.000000  -0.000000   0.000000  -0.000006   0.000000
    15  C   -0.000001   0.000000   0.000000  -0.000000   0.000022   0.000005
    16  H    0.000000  -0.000000   0.000000  -0.000000   0.000000   0.000000
    17  C    0.000005   0.000001   0.000000  -0.000000  -0.000020  -0.000070
    18  H   -0.000000  -0.000000  -0.000000   0.000000  -0.000014   0.000000
    19  C   -0.000255   0.000146   0.000004   0.000012  -0.004172  -0.000619
    20  H   -0.000266   0.000093   0.000002   0.000004   0.001264  -0.000042
               7          8          9         10         11         12
     1  C   -0.109479   0.003084   0.000203  -0.000478  -0.000001  -0.001259
     2  H    0.003428  -0.000367  -0.000030   0.000010   0.000000   0.000017
     3  H    0.000626   0.000200  -0.000111   0.000262   0.000002   0.001854
     4  H    0.004005  -0.000058  -0.000000   0.000007   0.000000   0.000005
     5  C    0.225051  -0.009079  -0.004228   0.000709   0.000050   0.013099
     6  O   -0.077156   0.013570   0.001911  -0.000687  -0.000001  -0.001285
     7  O    8.377166   0.175125  -0.049083  -0.005308   0.000019  -0.003657
     8  C    0.175125   4.689140   0.474295  -0.026303   0.001528  -0.001448
     9  C   -0.049083   0.474295   5.283245   0.202205  -0.150578  -0.108111
    10  C   -0.005308  -0.026303   0.202205   4.386685   0.510566   0.518123
    11  O    0.000019   0.001528  -0.150578   0.510566   8.454953  -0.126550
    12  O   -0.003657  -0.001448  -0.108111   0.518123  -0.126550   8.304761
    13  C    0.004807  -0.028450   0.452127  -0.039942   0.013051   0.004470
    14  H   -0.000048   0.004081  -0.037279  -0.003270   0.010769   0.000195
    15  C    0.000085  -0.043518  -0.023340   0.006082   0.001451  -0.000035
    16  H    0.000003   0.000587   0.003767  -0.000050   0.000004   0.000000
    17  C    0.004790  -0.008397  -0.043618  -0.000613  -0.000028  -0.000009
    18  H   -0.000080   0.004019   0.000762   0.000007   0.000000  -0.000000
    19  C   -0.058821   0.501382  -0.056843   0.005151  -0.000087   0.000167
    20  H   -0.002563  -0.042132   0.005963  -0.000011   0.000001   0.000005
              13         14         15         16         17         18
     1  C    0.000015  -0.000000  -0.000001   0.000000   0.000005  -0.000000
     2  H   -0.000000   0.000000   0.000000  -0.000000   0.000001  -0.000000
     3  H   -0.000002  -0.000000   0.000000   0.000000   0.000000  -0.000000
     4  H   -0.000000   0.000000  -0.000000  -0.000000  -0.000000   0.000000
     5  C    0.000072  -0.000006   0.000022   0.000000  -0.000020  -0.000014
     6  O   -0.000013   0.000000   0.000005   0.000000  -0.000070   0.000000
     7  O    0.004807  -0.000048   0.000085   0.000003   0.004790  -0.000080
     8  C   -0.028450   0.004081  -0.043518   0.000587  -0.008397   0.004019
     9  C    0.452127  -0.037279  -0.023340   0.003767  -0.043618   0.000762
    10  C   -0.039942  -0.003270   0.006082  -0.000050  -0.000613   0.000007
    11  O    0.013051   0.010769   0.001451   0.000004  -0.000028   0.000000
    12  O    0.004470   0.000195  -0.000035   0.000000  -0.000009  -0.000000
    13  C    5.102517   0.353858   0.452952  -0.039910  -0.016049   0.005406
    14  H    0.353858   0.590396  -0.052701  -0.006721   0.006589  -0.000313
    15  C    0.452952  -0.052701   4.966099   0.362301   0.528618  -0.044738
    16  H   -0.039910  -0.006721   0.362301   0.594835  -0.047047  -0.006266
    17  C   -0.016049   0.006589   0.528618  -0.047047   4.908722   0.352392
    18  H    0.005406  -0.000313  -0.044738  -0.006266   0.352392   0.603368
    19  C   -0.055388   0.000744  -0.033654   0.005494   0.502478  -0.037709
    20  H    0.000071   0.000016   0.006236  -0.000209  -0.043490  -0.006619
              19         20
     1  C   -0.000255  -0.000266
     2  H    0.000146   0.000093
     3  H    0.000004   0.000002
     4  H    0.000012   0.000004
     5  C   -0.004172   0.001264
     6  O   -0.000619  -0.000042
     7  O   -0.058821  -0.002563
     8  C    0.501382  -0.042132
     9  C   -0.056843   0.005963
    10  C    0.005151  -0.000011
    11  O   -0.000087   0.000001
    12  O    0.000167   0.000005
    13  C   -0.055388   0.000071
    14  H    0.000744   0.000016
    15  C   -0.033654   0.006236
    16  H    0.005494  -0.000209
    17  C    0.502478  -0.043490
    18  H   -0.037709  -0.006619
    19  C    5.058528   0.353031
    20  H    0.353031   0.594909
 Mulliken charges:
               1
     1  C   -0.536013
     2  H    0.174367
     3  H    0.200189
     4  H    0.172194
     5  C    0.603066
     6  O   -0.468861
     7  O   -0.488910
     8  C    0.292742
     9  C    0.048743
    10  C    0.446853
    11  O   -0.715150
    12  O   -0.600343
    13  C   -0.209594
    14  H    0.133691
    15  C   -0.125863
    16  H    0.133211
    17  C   -0.144254
    18  H    0.129785
    19  C   -0.179590
    20  H    0.133737
 Sum of Mulliken charges =  -1.00000
 Mulliken charges with hydrogens summed into heavy atoms:
               1
     1  C    0.010736
     5  C    0.603066
     6  O   -0.468861
     7  O   -0.488910
     8  C    0.292742
     9  C    0.048743
    10  C    0.446853
    11  O   -0.715150
    12  O   -0.600343
    13  C   -0.075902
    15  C    0.007348
    17  C   -0.014469
    19  C   -0.045853
 Electronic spatial extent (au):  <R**2>=           2282.9038
 Charge=             -1.0000 electrons
 Dipole moment (field-independent basis, Debye):
    X=             -1.3990    Y=            -12.3285    Z=             -1.7047  Tot=             12.5242
 Quadrupole moment (field-independent basis, Debye-Ang):
   XX=            -73.6024   YY=           -104.8173   ZZ=            -80.0547
   XY=             -7.1100   XZ=              8.1826   YZ=              3.9381
 Traceless Quadrupole moment (field-independent basis, Debye-Ang):
   XX=             12.5557   YY=            -18.6592   ZZ=              6.1034
   XY=             -7.1100   XZ=              8.1826   YZ=              3.9381
 Octapole moment (field-independent basis, Debye-Ang**2):
  XXX=            -27.3787  YYY=           -103.1663  ZZZ=             -4.2561  XYY=            -24.0348
  XXY=            -21.9573  XXZ=             -3.7107  XZZ=             -0.6829  YZZ=              7.8521
  YYZ=              2.0936  XYZ=              1.6083
 Hexadecapole moment (field-independent basis, Debye-Ang**3):
 XXXX=          -1561.1161 YYYY=          -1302.6858 ZZZZ=           -202.7294 XXXY=            -23.9446
 XXXZ=             44.0401 YYYX=            -71.5514 YYYZ=             25.9939 ZZZX=              7.1230
 ZZZY=              1.5545 XXYY=           -495.9725 XXZZ=           -338.8080 YYZZ=           -215.0267
 XXYZ=              9.0935 YYXZ=             15.3232 ZZXY=              1.1304
 N-N= 7.667654611828D+02 E-N=-3.064827936627D+03  KE= 6.430254882624D+02
 No NMR shielding tensors so no spin-rotation constants.
 Leave Link  601 at Sun Jul 18 13:45:26 2021, MaxMem=   104857600 cpu:               0.5 elap:               0.2
 (Enter /dades/curu/g16A03_MST/g16/l701.exe)
 ... and contract with generalized density number  0.
 Compute integral first derivatives.
 D1PCM: PCM CHGder 1st derivatives, ID1Alg=3 FixD1E=F DoIter=F DoCFld=F I1PDM=0.
 GePol: Maximum number of non-zero 1st derivatives   =     232
 Leave Link  701 at Sun Jul 18 13:45:29 2021, MaxMem=   104857600 cpu:               9.5 elap:               2.4
 (Enter /dades/curu/g16A03_MST/g16/l702.exe)
 L702 exits ... SP integral derivatives will be done elsewhere.
 Leave Link  702 at Sun Jul 18 13:45:29 2021, MaxMem=   104857600 cpu:               0.1 elap:               0.0
 (Enter /dades/curu/g16A03_MST/g16/l703.exe)
 Integral derivatives from FoFJK, PRISM(SPDF).
 Compute integral first derivatives, UseDBF=F ICtDFT=           0.
 Calling FoFJK, ICntrl=      2127 FMM=F ISym2X=0 I1Cent= 0 IOpClX= 0 NMat=1 NMatS=1 NMatT=0.
 FoFJK:  IHMeth= 1 ICntrl=    2127 DoSepK=F KAlg= 0 I1Cent=           0 FoldK=F
 IRaf=         0 NMat=       1 IRICut=       1 DoRegI=T DoRafI=F ISym2E= 0 IDoP0=0 IntGTp=1.
 FoFCou: FMM=F IPFlag=           0 FMFlag=      100000 FMFlg1=         800
         NFxFlg=           0 DoJE=F BraDBF=F KetDBF=F FulRan=T
         wScrn=  0.000000 ICntrl=      2127 IOpCl=  0 I1Cent=           0 NGrid=           0
         NMat0=    1 NMatS0=      1 NMatT0=    0 NMatD0=    1 NMtDS0=    0 NMtDT0=    0
 Symmetry not used in FoFCou.
 Leave Link  703 at Sun Jul 18 13:45:42 2021, MaxMem=   104857600 cpu:              52.4 elap:              13.2
 (Enter /dades/curu/g16A03_MST/g16/l716.exe)
 Dipole        =-5.50392521D-01-4.85041622D+00-6.70675066D-01
 ***** Axes restored to original set *****
 -------------------------------------------------------------------
 Center     Atomic                   Forces (Hartrees/Bohr)
 Number     Number              X              Y              Z
 -------------------------------------------------------------------
      1        6           0.009413562   -0.001265115   -0.037386714
      2        1           0.003355603   -0.004361314   -0.006159791
      3        1          -0.006263492   -0.001309031    0.006734340
      4        1          -0.004720473    0.004163537    0.003165092
      5        6           0.035505613   -0.032675324    0.012456486
      6        8          -0.012876011    0.038840728    0.017279621
      7        8           0.010094873   -0.014935144   -0.026875737
      8        6          -0.043194551    0.020197559   -0.007305047
      9        6           0.010756184   -0.028073331    0.017434282
     10        6          -0.045804511   -0.018588024    0.096123366
     11        8          -0.015201335    0.005428078   -0.020707258
     12        8           0.053200326    0.021967251   -0.058638474
     13        6          -0.007505085    0.008257155    0.020059187
     14        1           0.018181803   -0.008006952   -0.004185886
     15        6           0.009746751    0.004949512    0.015577581
     16        1           0.002432442   -0.006440832    0.002712888
     17        6          -0.010639832   -0.008550031   -0.038588687
     18        1           0.003322798    0.005158331   -0.002841429
     19        6          -0.020288186    0.020731511    0.013679062
     20        1           0.010483521   -0.005488563   -0.002532881
 -------------------------------------------------------------------
 Cartesian Forces:  Max     0.096123366 RMS     0.023842090
 Leave Link  716 at Sun Jul 18 13:45:42 2021, MaxMem=   104857600 cpu:               0.1 elap:               0.0
 (Enter /dades/curu/g16A03_MST/g16/l103.exe)

 GradGradGradGradGradGradGradGradGradGradGradGradGradGradGradGradGradGrad
 Berny optimization.
 FormGI is forming the generalized inverse of G from B-inverse, IUseBI=4.
 Internal  Forces:  Max     0.075522099 RMS     0.015107349
 Search for a local minimum.
 Step number   1 out of a maximum of   99
 All quantities printed in internal units (Hartrees-Bohrs-Radians)
 RMS Force = .15107D-01 SwitMx=.10000D-02 MixMth= 1
 Mixed Optimization -- RFO/linear search
 Second derivative matrix not updated -- first step.
 ITU=  0
     Eigenvalues ---    0.00230   0.00450   0.01168   0.01723   0.01735
     Eigenvalues ---    0.02092   0.02103   0.02125   0.02276   0.02336
     Eigenvalues ---    0.02403   0.02409   0.02435   0.02457   0.02486
     Eigenvalues ---    0.06951   0.07750   0.15687   0.15879   0.15920
     Eigenvalues ---    0.15958   0.16000   0.16000   0.16000   0.21920
     Eigenvalues ---    0.22445   0.24260   0.24288   0.24420   0.24923
     Eigenvalues ---    0.25000   0.25000   0.25000   0.25000   0.27655
     Eigenvalues ---    0.34509   0.34591   0.34600   0.35157   0.35171
     Eigenvalues ---    0.35187   0.35193   0.35790   0.41038   0.43818
     Eigenvalues ---    0.44608   0.46788   0.49551   0.52401   0.56362
     Eigenvalues ---    0.57212   0.67546   1.02595   1.10708
 RFO step:  Lambda=-5.52927832D-02 EMin= 2.30000000D-03
 Linear search not attempted -- first point.
 Maximum step size (   0.300) exceeded in Quadratic search.
    -- Step size scaled by   0.915
 Iteration  1 RMS(Cart)=  0.07633200 RMS(Int)=  0.00681702
 Iteration  2 RMS(Cart)=  0.00815188 RMS(Int)=  0.00334027
 Iteration  3 RMS(Cart)=  0.00008038 RMS(Int)=  0.00333959
 Iteration  4 RMS(Cart)=  0.00000097 RMS(Int)=  0.00333959
 ITry= 1 IFail=0 DXMaxC= 2.58D-01 DCOld= 1.00D+10 DXMaxT= 3.00D-01 DXLimC= 3.00D+00 Rises=F
 Variable       Old X    -DE/DX   Delta X   Delta X   Delta X     New X
                                 (Linear)    (Quad)   (Total)
    R1        2.06344   0.00341   0.00000   0.00777   0.00777   2.07122
    R2        2.06330  -0.00042   0.00000  -0.00096  -0.00096   2.06234
    R3        2.06479  -0.00159   0.00000  -0.00363  -0.00363   2.06116
    R4        2.77711   0.02702   0.00000   0.05981   0.05981   2.83693
    R5        2.24633   0.03900   0.00000   0.03069   0.03069   2.27702
    R6        2.53941   0.01863   0.00000   0.02753   0.02753   2.56694
    R7        2.53218   0.04700   0.00000   0.06851   0.06851   2.60068
    R8        2.58341   0.03520   0.00000   0.05597   0.05595   2.63937
    R9        2.63816   0.00288   0.00000   0.00484   0.00481   2.64297
   R10        2.92898  -0.00701   0.00000  -0.01933  -0.01933   2.90965
   R11        2.65631  -0.00858   0.00000  -0.01585  -0.01584   2.64048
   R12        2.45425  -0.01864   0.00000  -0.02333  -0.02333   2.43092
   R13        2.27617   0.07552   0.00000   0.06388   0.06388   2.34005
   R14        2.05373  -0.00164   0.00000  -0.00369  -0.00369   2.05004
   R15        2.62770   0.00790   0.00000   0.01391   0.01393   2.64163
   R16        2.05362  -0.00118   0.00000  -0.00266  -0.00266   2.05096
   R17        2.56983   0.03935   0.00000   0.06195   0.06196   2.63180
   R18        2.05398  -0.00075   0.00000  -0.00168  -0.00168   2.05230
   R19        2.65769  -0.00902   0.00000  -0.01620  -0.01620   2.64149
   R20        2.05420  -0.00171   0.00000  -0.00384  -0.00384   2.05036
    A1        1.87698  -0.00152   0.00000  -0.00642  -0.00555   1.87142
    A2        1.89294  -0.00114   0.00000   0.00089   0.00123   1.89417
    A3        1.85881   0.01375   0.00000   0.06152   0.06215   1.92096
    A4        1.85330   0.00995   0.00000   0.03722   0.03596   1.88926
    A5        1.99481  -0.01283   0.00000  -0.05746  -0.05771   1.93711
    A6        1.98278  -0.00785   0.00000  -0.03365  -0.03415   1.94863
    A7        2.17188   0.00953   0.00000   0.04113   0.03444   2.20632
    A8        1.87379   0.01331   0.00000   0.05222   0.04535   1.91913
    A9        2.20648  -0.01851   0.00000  -0.04311  -0.05016   2.15632
   A10        2.12328  -0.00716   0.00000  -0.02146  -0.02146   2.10182
   A11        2.14814  -0.01395   0.00000  -0.04122  -0.04121   2.10694
   A12        2.01175   0.01140   0.00000   0.03482   0.03480   2.04655
   A13        2.12021   0.00257   0.00000   0.00691   0.00692   2.12713
   A14        2.09787   0.00565   0.00000   0.02046   0.02020   2.11807
   A15        2.03986   0.00294   0.00000   0.01095   0.01061   2.05047
   A16        2.12170  -0.00780   0.00000  -0.02090  -0.02140   2.10029
   A17        1.96734  -0.00061   0.00000   0.01275  -0.00316   1.96419
   A18        2.18903  -0.03117   0.00000  -0.07888  -0.09475   2.09428
   A19        2.11165   0.03467   0.00000   0.11866   0.10256   2.21421
   A20        2.19885  -0.01664   0.00000  -0.07403  -0.07422   2.12464
   A21        2.14560  -0.00739   0.00000  -0.02385  -0.02392   2.12167
   A22        1.93548   0.02417   0.00000   0.09984   0.09982   2.03530
   A23        2.13890  -0.00904   0.00000  -0.03568  -0.03584   2.10306
   A24        2.06572   0.00659   0.00000   0.02387   0.02376   2.08948
   A25        2.07427   0.00264   0.00000   0.01421   0.01416   2.08843
   A26        2.07312   0.00649   0.00000   0.02759   0.02717   2.10029
   A27        2.10024  -0.00359   0.00000  -0.00893  -0.00953   2.09071
   A28        2.09346  -0.00205   0.00000  -0.00891  -0.00939   2.08407
   A29        2.08109  -0.00045   0.00000  -0.00056  -0.00078   2.08031
   A30        2.18186  -0.01160   0.00000  -0.04883  -0.04915   2.13271
   A31        2.01246   0.01243   0.00000   0.05390   0.05381   2.06627
    D1       -2.25384   0.00578   0.00000   0.08493   0.08634  -2.16750
    D2        1.13885  -0.00849   0.00000  -0.10716  -0.10900   1.02986
    D3        1.95944   0.00587   0.00000   0.08488   0.08734   2.04678
    D4       -0.93105  -0.00840   0.00000  -0.10721  -0.10799  -1.03904
    D5       -0.17117   0.00895   0.00000   0.10741   0.10840  -0.06277
    D6       -3.06166  -0.00532   0.00000  -0.08469  -0.08694   3.13459
    D7        3.13451   0.00665   0.00000   0.06818   0.06350  -3.08517
    D8        0.25042  -0.01332   0.00000  -0.14484  -0.14016   0.11027
    D9       -1.62960  -0.00010   0.00000  -0.00073  -0.00060  -1.63020
   D10        1.59524  -0.00068   0.00000  -0.00813  -0.00827   1.58698
   D11       -0.13498   0.00173   0.00000   0.03002   0.03044  -0.10454
   D12       -3.04777  -0.00094   0.00000  -0.01689  -0.01766  -3.06543
   D13        2.91832   0.00268   0.00000   0.03896   0.03961   2.95793
   D14        0.00553   0.00002   0.00000  -0.00795  -0.00849  -0.00296
   D15       -3.09604  -0.00279   0.00000  -0.02764  -0.02739  -3.12344
   D16       -0.09461   0.00157   0.00000   0.01726   0.01652  -0.07809
   D17        0.12734  -0.00249   0.00000  -0.03237  -0.03267   0.09467
   D18        3.12877   0.00187   0.00000   0.01253   0.01124   3.14002
   D19       -2.65647   0.00853   0.00000   0.13667   0.13541  -2.52105
   D20        0.67089  -0.01323   0.00000  -0.19622  -0.19516   0.47573
   D21        0.24539   0.01287   0.00000   0.19041   0.18935   0.43474
   D22       -2.71044  -0.00890   0.00000  -0.14248  -0.14122  -2.85167
   D23        3.13273  -0.00056   0.00000  -0.00122  -0.00009   3.13265
   D24       -0.10342   0.00266   0.00000   0.03229   0.03217  -0.07126
   D25        0.22329  -0.00517   0.00000  -0.05470  -0.05346   0.16983
   D26       -3.01287  -0.00196   0.00000  -0.02119  -0.02121  -3.03408
   D27       -2.97842  -0.00320   0.00000  -0.03894  -0.03887  -3.01728
   D28        0.06246  -0.00072   0.00000  -0.00994  -0.00982   0.05264
   D29        0.08130  -0.00216   0.00000  -0.01749  -0.01627   0.06504
   D30        3.12218   0.00031   0.00000   0.01151   0.01278   3.13496
   D31        3.02455   0.00206   0.00000   0.02159   0.02133   3.04589
   D32        0.07638  -0.00267   0.00000  -0.03449  -0.03476   0.04163
   D33       -0.21395   0.00374   0.00000   0.04652   0.04718  -0.16677
   D34        3.12106  -0.00099   0.00000  -0.00956  -0.00891   3.11215
   D35       -0.16986   0.00502   0.00000   0.05706   0.05676  -0.11311
   D36        3.09863   0.00286   0.00000   0.02407   0.02243   3.12106
   D37       -3.11578  -0.00072   0.00000  -0.00372  -0.00287  -3.11865
   D38        0.15272  -0.00287   0.00000  -0.03671  -0.03720   0.11552
         Item               Value     Threshold  Converged?
 Maximum Force            0.075522     0.000450     NO 
 RMS     Force            0.015107     0.000300     NO 
 Maximum Displacement     0.257533     0.001800     NO 
 RMS     Displacement     0.077604     0.001200     NO 
 Predicted change in Energy=-3.588279D-02
 Lowest energy point so far.  Saving SCF results.
 GradGradGradGradGradGradGradGradGradGradGradGradGradGradGradGradGradGrad

 Leave Link  103 at Sun Jul 18 13:45:42 2021, MaxMem=   104857600 cpu:               0.1 elap:               0.1
 (Enter /dades/curu/g16A03_MST/g16/l202.exe)
                          Input orientation:                          
 ---------------------------------------------------------------------
 Center     Atomic      Atomic             Coordinates (Angstroms)
 Number     Number       Type             X           Y           Z
 ---------------------------------------------------------------------
      1          6           0        2.264481    0.302036   -2.722425
      2          1           0        1.637274    0.016049   -3.574557
      3          1           0        2.852337   -0.574667   -2.445210
      4          1           0        2.951199    1.085613   -3.045055
      5          6           0        1.404052    0.755978   -1.579049
      6          8           0        1.471172    1.816141   -1.010324
      7          8           0        0.557776   -0.240898   -1.211343
      8          6           0       -0.376451   -0.032722   -0.222470
      9          6           0       -0.093946   -0.358628    1.105959
     10          6           0        1.208125   -1.083218    1.493680
     11          8           0        1.041383   -1.911716    2.463513
     12          8           0        2.220729   -0.954078    0.792719
     13          6           0       -1.122229   -0.207025    2.039791
     14          1           0       -0.980982   -0.447632    3.088132
     15          6           0       -2.361627    0.331738    1.682410
     16          1           0       -3.107179    0.548712    2.440698
     17          6           0       -2.609739    0.671695    0.354838
     18          1           0       -3.596560    1.007184    0.049719
     19          6           0       -1.637054    0.425721   -0.618438
     20          1           0       -1.861761    0.681717   -1.648587
 ---------------------------------------------------------------------
                    Distance matrix (angstroms):
                    1          2          3          4          5
     1  C    0.000000
     2  H    1.096041   0.000000
     3  H    1.091344   1.760894   0.000000
     4  H    1.090718   1.775032   1.768083   0.000000
     5  C    1.501236   2.141014   2.149042   2.156733   0.000000
     6  O    2.419327   3.137390   3.111668   2.619978   1.204948
     7  O    2.343286   2.610769   2.626564   3.294026   1.358364
     8  C    3.651898   3.910748   3.957189   4.504544   2.373298
     9  C    4.544797   5.004472   4.619314   5.346930   3.270415
    10  C    4.561837   5.203805   4.298477   5.323744   3.586459
    11  O    5.769802   6.366291   5.400261   6.555586   4.856998
    12  O    3.733092   4.511615   3.320703   4.407090   3.035875
    13  C    5.865803   6.259834   6.003962   6.642242   4.517241
    14  H    6.697582   7.173680   6.732632   7.445057   5.377698
    15  C    6.387826   6.612607   6.711500   7.151459   4.999743
    16  H    7.454758   7.679639   7.787804   8.190585   6.045868
    17  C    5.776177   5.822984   6.263223   6.531052   4.456181
    18  H    6.521795   6.442883   7.093320   7.242715   5.265179
    19  C    4.434415   4.430315   4.948990   5.232208   3.206270
    20  H    4.280556   4.049163   4.943261   5.027707   3.267397
                    6          7          8          9         10
     6  O    0.000000
     7  O    2.259671   0.000000
     8  C    2.729967   1.376222   0.000000
     9  C    3.414362   2.410082   1.396692   0.000000
    10  C    3.839989   2.906821   2.561171   1.539723   0.000000
    11  O    5.113627   4.065720   3.571468   2.354572   1.286386
    12  O    3.389235   2.700057   2.936810   2.410477   1.238301
    13  C    4.485769   3.659704   2.388387   1.397280   2.548823
    14  H    5.285363   4.571214   3.390825   2.173422   2.781804
    15  C    4.913716   4.150257   2.775306   2.439524   3.844587
    16  H    5.871730   5.233811   3.858420   3.418240   4.709765
    17  C    4.452781   3.649507   2.411859   2.820455   4.353478
    18  H    5.240230   4.517354   3.394789   3.905047   5.435053
    19  C    3.427522   2.369219   1.398600   2.443345   3.851361
    20  H    3.578091   2.626130   2.179535   3.434386   4.734240
                   11         12         13         14         15
    11  O    0.000000
    12  O    2.258202   0.000000
    13  C    2.786885   3.645358   0.000000
    14  H    2.573645   3.971946   1.084833   0.000000
    15  C    4.150143   4.841782   1.397889   2.118880   0.000000
    16  H    4.823359   5.775881   2.161456   2.435690   1.085323
    17  C    4.944817   5.115496   2.413276   3.372927   1.392687
    18  H    5.988063   6.183805   3.399559   4.264938   2.155682
    19  C    4.704898   4.333325   2.780574   3.864174   2.414071
    20  H    5.662464   5.030161   3.865345   4.948505   3.386427
                   16         17         18         19         20
    16  H    0.000000
    17  C    2.147878   0.000000
    18  H    2.483238   1.086032   0.000000
    19  C    3.396278   1.397815   2.150394   0.000000
    20  H    4.276798   2.138524   2.449428   1.085003   0.000000
 Stoichiometry    C9H7O4(1-)
 Framework group  C1[X(C9H7O4)]
 Deg. of freedom    54
 Full point group                 C1      NOp   1
 RotChk:  IX=0 Diff= 3.68D-02
 Largest Abelian subgroup         C1      NOp   1
 Largest concise Abelian subgroup C1      NOp   1
                         Standard orientation:                         
 ---------------------------------------------------------------------
 Center     Atomic      Atomic             Coordinates (Angstroms)
 Number     Number       Type             X           Y           Z
 ---------------------------------------------------------------------
      1          6           0       -3.487407   -0.365611   -0.396777
      2          1           0       -3.621145   -1.095423   -1.203494
      3          1           0       -3.574391    0.627220   -0.841469
      4          1           0       -4.298696   -0.490377    0.321491
      5          6           0       -2.144072   -0.550433    0.247430
      6          8           0       -1.932715   -0.745431    1.417560
      7          8           0       -1.161206   -0.396741   -0.677506
      8          6           0        0.157180   -0.587236   -0.331736
      9          6           0        0.951863    0.488569    0.070594
     10          6           0        0.429914    1.935969    0.012715
     11          8           0        1.348976    2.779378   -0.301569
     12          8           0       -0.784504    2.160192    0.103833
     13          6           0        2.303802    0.235142    0.316413
     14          1           0        2.984970    1.021421    0.624044
     15          6           0        2.829814   -1.058259    0.249199
     16          1           0        3.852958   -1.253291    0.554263
     17          6           0        2.010081   -2.118071   -0.130820
     18          1           0        2.427207   -3.110738   -0.272532
     19          6           0        0.681494   -1.874106   -0.490297
     20          1           0        0.068678   -2.713776   -0.801174
 ---------------------------------------------------------------------
 Rotational constants (GHZ):           1.1184719           0.7463671           0.4946667
 Leave Link  202 at Sun Jul 18 13:45:42 2021, MaxMem=   104857600 cpu:               0.0 elap:               0.0
 (Enter /dades/curu/g16A03_MST/g16/l301.exe)
 Standard basis: 6-31G(d) (6D, 7F)
 Ernie: Thresh=  0.10000D-02 Tol=  0.10000D-05 Strict=F.
 There are   209 symmetry adapted cartesian basis functions of A   symmetry.
 There are   209 symmetry adapted basis functions of A   symmetry.
   209 basis functions,   392 primitive gaussians,   209 cartesian basis functions
    47 alpha electrons       47 beta electrons
       nuclear repulsion energy       763.9601955739 Hartrees.
 IExCor=  402 DFT=T Ex+Corr=B3LYP ExCW=0 ScaHFX=  0.200000
 ScaDFX=  0.800000  0.720000  1.000000  0.810000 ScalE2=  1.000000  1.000000
 IRadAn=      5 IRanWt=     -1 IRanGd=            0 ICorTp=0 IEmpDi=  4
 NAtoms=   20 NActive=   20 NUniq=   20 SFac= 1.00D+00 NAtFMM=   60 NAOKFM=F Big=F
 Integral buffers will be    131072 words long.
 Raffenetti 2 integral format.
 Two-electron integral symmetry is turned on.
 ------------------------------------------------------------------------------
 Polarizable Continuum Model (PCM)
 =================================
 Model                : PCM.
 Atomic radii         : MST.
 Polarization charges : Total charges.
 Charge compensation  : None.
 Solution method      : On-the-fly selection.
 Cavity type          : Scaled VdW (van der Waals Surface) (Alpha=1.500).
 Cavity algorithm     : GePol (No added spheres)
                        Default sphere list used, NSphG=   20.
                        Lebedev-Laikov grids with approx.  5.0 points / Ang**2.
                        Smoothing algorithm: York/Karplus (Gamma=1.0000).
                        Polarization charges: spherical gaussians, with
                                              point-specific exponents (IZeta= 3).
                        Self-potential: point-specific (ISelfS= 7).
                        Self-field    : sphere-specific E.n sum rule (ISelfD= 2).
[...]
      8          6           0       -0.487430    0.022946   -0.311486
      9          6           0       -0.131868   -0.392090    0.980175
     10          6           0        1.231413   -1.007230    1.356768
     11          8           0        1.274114   -1.583627    2.478976
     12          8           0        2.179831   -0.897883    0.530980
     13          6           0       -1.111292   -0.254848    1.974299
     14          1           0       -0.855871   -0.592965    2.971818
     15          6           0       -2.368577    0.285092    1.709817
     16          1           0       -3.097977    0.385897    2.507340
     17          6           0       -2.691023    0.684217    0.414165
     18          1           0       -3.671390    1.087034    0.187579
     19          6           0       -1.743345    0.546399   -0.600259
     20          1           0       -1.969884    0.823534   -1.624688
 ---------------------------------------------------------------------
                    Distance matrix (angstroms):
                    1          2          3          4          5
     1  C    0.000000
     2  H    1.091275   0.000000
     3  H    1.093136   1.771718   0.000000
     4  H    1.089124   1.784226   1.788238   0.000000
     5  C    1.502470   2.145342   2.109212   2.139111   0.000000
     6  O    2.422456   3.143696   3.078355   2.593919   1.210596
     7  O    2.349929   2.586605   2.617605   3.287744   1.366032
     8  C    3.653832   3.964920   3.868468   4.483463   2.365575
     9  C    4.400824   4.924087   4.338557   5.173358   3.180366
    10  C    4.289765   5.003691   3.894118   4.982157   3.418580
    11  O    5.493818   6.212950   4.993217   6.155522   4.676676
    12  O    3.326236   4.149883   2.797315   3.940141   2.786223
    13  C    5.758655   6.239759   5.740011   6.501263   4.453614
    14  H    6.481419   7.049074   6.333545   7.187980   5.244568
    15  C    6.395283   6.722358   6.561339   7.140145   5.009251
    16  H    7.474056   7.805218   7.629429   8.200144   6.074952
    17  C    5.897104   6.047723   6.247395   6.647141   4.533885
    18  H    6.697812   6.742146   7.137515   7.419585   5.363569
    19  C    4.572485   4.662957   4.987753   5.352427   3.277609
    20  H    4.475242   4.347562   5.056177   5.220251   3.348662
                    6          7          8          9         10
     6  O    0.000000
     7  O    2.275331   0.000000
     8  C    2.712521   1.397932   0.000000
     9  C    3.363368   2.431407   1.402522   0.000000
    10  C    3.695425   2.988781   2.607443   1.542321   0.000000
    11  O    4.882864   4.207745   3.670258   2.375490   1.262302
    12  O    3.210915   2.725768   2.944819   2.408642   1.262291
    13  C    4.443129   3.678548   2.385621   1.402280   2.536866
    14  H    5.197715   4.549588   3.360831   2.128655   2.671470
    15  C    4.924950   4.167772   2.773644   2.448228   3.841180
    16  H    5.919996   5.252956   3.859076   3.425682   4.691294
    17  C    4.507578   3.665209   2.412399   2.833386   4.374356
    18  H    5.292576   4.529208   3.393957   3.917171   5.458059
    19  C    3.438384   2.379922   1.390940   2.444461   3.884958
    20  H    3.584315   2.568228   2.136143   3.411943   4.742265
                   11         12         13         14         15
    11  O    0.000000
    12  O    2.255051   0.000000
    13  C    2.776782   3.650774   0.000000
    14  H    2.400237   3.907192   1.083794   0.000000
    15  C    4.165684   4.845317   1.393647   2.156830   0.000000
    16  H    4.795312   5.780082   2.154439   2.490172   1.085463
    17  C    5.012871   5.122685   2.410686   3.397141   1.393551
    18  H    6.069673   6.188263   3.398104   4.301341   2.158156
    19  C    4.808717   4.330930   2.769447   3.852986   2.407415
    20  H    5.758299   4.983003   3.853932   4.937142   3.401146
                   16         17         18         19         20
    16  H    0.000000
    17  C    2.153134   0.000000
    18  H    2.490318   1.083846   0.000000
    19  C    3.393813   1.395043   2.151821   0.000000
    20  H    4.305552   2.167112   2.499773   1.085163   0.000000
 Stoichiometry    C9H7O4(1-)
 Framework group  C1[X(C9H7O4)]
 Deg. of freedom    54
 Full point group                 C1      NOp   1
 RotChk:  IX=0 Diff= 2.86D-15
 Largest Abelian subgroup         C1      NOp   1
 Largest concise Abelian subgroup C1      NOp   1
                         Standard orientation:                         
 ---------------------------------------------------------------------
 Center     Atomic      Atomic             Coordinates (Angstroms)
 Number     Number       Type             X           Y           Z
 ---------------------------------------------------------------------
      1          6           0       -3.395662   -0.502849   -0.354281
      2          1           0       -3.589177   -1.251621   -1.124200
      3          1           0       -3.403598    0.484483   -0.823385
      4          1           0       -4.164466   -0.556965    0.415267
      5          6           0       -2.036853   -0.707910    0.253176
      6          8           0       -1.796892   -0.864541    1.429368
      7          8           0       -1.086828   -0.730163   -0.728149
      8          6           0        0.253955   -0.677359   -0.336067
      9          6           0        0.866218    0.553267   -0.057209
     10          6           0        0.137020    1.912320   -0.055622
     11          8           0        0.885493    2.928622   -0.073656
     12          8           0       -1.125212    1.908108   -0.044143
     13          6           0        2.243134    0.522623    0.206516
     14          1           0        2.731721    1.470215    0.401350
     15          6           0        2.972077   -0.665150    0.215983
     16          1           0        4.035111   -0.651339    0.435068
     17          6           0        2.333558   -1.870540   -0.069167
     18          1           0        2.890002   -2.800490   -0.086046
     19          6           0        0.967207   -1.871416   -0.350644
     20          1           0        0.443984   -2.788408   -0.601524
 ---------------------------------------------------------------------
 Rotational constants (GHZ):           1.1454877           0.7547995           0.5003158
 Leave Link  202 at Sun Jul 18 16:12:33 2021, MaxMem=   104857600 cpu:               0.1 elap:               0.0
 (Enter /dades/curu/g16A03_MST/g16/l601.exe)
 Copying SCF densities to generalized density rwf, IOpCl= 0 IROHF=0.

 **********************************************************************

            Population analysis using the SCF density.

 **********************************************************************

 Orbital symmetries:
       Occupied  (A) (A) (A) (A) (A) (A) (A) (A) (A) (A) (A) (A)
                 (A) (A) (A) (A) (A) (A) (A) (A) (A) (A) (A) (A)
                 (A) (A) (A) (A) (A) (A) (A) (A) (A) (A) (A) (A)
                 (A) (A) (A) (A) (A) (A) (A) (A) (A) (A) (A)
       Virtual   (A) (A) (A) (A) (A) (A) (A) (A) (A) (A) (A) (A)
                 (A) (A) (A) (A) (A) (A) (A) (A) (A) (A) (A) (A)
                 (A) (A) (A) (A) (A) (A) (A) (A) (A) (A) (A) (A)
                 (A) (A) (A) (A) (A) (A) (A) (A) (A) (A) (A) (A)
                 (A) (A) (A) (A) (A) (A) (A) (A) (A) (A) (A) (A)
                 (A) (A) (A) (A) (A) (A) (A) (A) (A) (A) (A) (A)
                 (A) (A) (A) (A) (A) (A) (A) (A) (A) (A) (A) (A)
                 (A) (A) (A) (A) (A) (A) (A) (A) (A) (A) (A) (A)
                 (A) (A) (A) (A) (A) (A) (A) (A) (A) (A) (A) (A)
                 (A) (A) (A) (A) (A) (A) (A) (A) (A) (A) (A) (A)
                 (A) (A) (A) (A) (A) (A) (A) (A) (A) (A) (A) (A)
                 (A) (A) (A) (A) (A) (A) (A) (A) (A) (A) (A) (A)
                 (A) (A) (A) (A) (A) (A) (A) (A) (A) (A) (A) (A)
                 (A) (A) (A) (A) (A) (A)
 The electronic state is 1-A.
 Alpha  occ. eigenvalues --  -19.17364 -19.11930 -19.05305 -19.05245 -10.30427
 Alpha  occ. eigenvalues --  -10.24390 -10.23227 -10.18085 -10.17756 -10.17651
 Alpha  occ. eigenvalues --  -10.17492 -10.17201 -10.17103  -1.08531  -1.00156
 Alpha  occ. eigenvalues --   -0.98466  -0.89633  -0.83831  -0.75430  -0.73418
 Alpha  occ. eigenvalues --   -0.71354  -0.61887  -0.59988  -0.55294  -0.50693
 Alpha  occ. eigenvalues --   -0.47523  -0.46798  -0.45962  -0.44870  -0.43284
 Alpha  occ. eigenvalues --   -0.41498  -0.40105  -0.39491  -0.38391  -0.36893
 Alpha  occ. eigenvalues --   -0.36629  -0.36119  -0.34708  -0.33611  -0.33092
 Alpha  occ. eigenvalues --   -0.28949  -0.25835  -0.23560  -0.22931  -0.21396
 Alpha  occ. eigenvalues --   -0.20922  -0.19494
 Alpha virt. eigenvalues --   -0.00250   0.01499   0.03156   0.10964   0.11108
 Alpha virt. eigenvalues --    0.13388   0.16021   0.16883   0.18694   0.19143
 Alpha virt. eigenvalues --    0.19671   0.20067   0.21787   0.25757   0.27884
 Alpha virt. eigenvalues --    0.29403   0.32504   0.34136   0.34565   0.35981
 Alpha virt. eigenvalues --    0.37287   0.40347   0.44247   0.51973   0.53372
 Alpha virt. eigenvalues --    0.55212   0.56001   0.57007   0.57213   0.57469
 Alpha virt. eigenvalues --    0.58859   0.59216   0.61082   0.61535   0.62175
 Alpha virt. eigenvalues --    0.62798   0.63806   0.63949   0.65599   0.67572
 Alpha virt. eigenvalues --    0.68225   0.70691   0.71482   0.73652   0.76416
 Alpha virt. eigenvalues --    0.78363   0.81311   0.83504   0.84821   0.85340
 Alpha virt. eigenvalues --    0.86103   0.86175   0.89199   0.89318   0.91184
 Alpha virt. eigenvalues --    0.91644   0.93919   0.94574   0.96544   0.97882
 Alpha virt. eigenvalues --    0.99541   1.00316   1.04079   1.04397   1.06901
 Alpha virt. eigenvalues --    1.07660   1.10462   1.13483   1.14270   1.16586
 Alpha virt. eigenvalues --    1.19313   1.20737   1.24022   1.26374   1.29674
 Alpha virt. eigenvalues --    1.32792   1.38142   1.40378   1.41467   1.43678
 Alpha virt. eigenvalues --    1.44730   1.46546   1.48589   1.48975   1.51270
 Alpha virt. eigenvalues --    1.51593   1.53155   1.53611   1.60358   1.68659
 Alpha virt. eigenvalues --    1.70372   1.73095   1.75179   1.77633   1.79228
 Alpha virt. eigenvalues --    1.81904   1.82872   1.84200   1.87540   1.89483
 Alpha virt. eigenvalues --    1.90273   1.91497   1.92072   1.92903   1.96824
 Alpha virt. eigenvalues --    1.98617   2.00134   2.00984   2.02548   2.04723
 Alpha virt. eigenvalues --    2.05676   2.08487   2.10468   2.12596   2.15266
 Alpha virt. eigenvalues --    2.17742   2.18247   2.21281   2.22586   2.25825
 Alpha virt. eigenvalues --    2.29764   2.30811   2.32933   2.36905   2.37595
 Alpha virt. eigenvalues --    2.43182   2.47397   2.52205   2.55717   2.62067
 Alpha virt. eigenvalues --    2.63465   2.63974   2.66247   2.69297   2.71397
 Alpha virt. eigenvalues --    2.76560   2.76900   2.79788   2.84104   2.86581
 Alpha virt. eigenvalues --    2.89722   2.96732   2.98053   3.02006   3.11691
 Alpha virt. eigenvalues --    3.14197   3.15787   3.25142   3.45507   3.92008
 Alpha virt. eigenvalues --    4.09002   4.10439   4.12841   4.13701   4.20350
 Alpha virt. eigenvalues --    4.25293   4.33864   4.41622   4.46459   4.50873
 Alpha virt. eigenvalues --    4.59231   4.78839
          Condensed to atoms (all electrons):
               1          2          3          4          5          6
     1  C    5.283434   0.349074   0.349054   0.357179   0.363922  -0.074137
     2  H    0.349074   0.533500  -0.021062  -0.024099  -0.018471   0.001373
     3  H    0.349054  -0.021062   0.503924  -0.020489  -0.020482   0.000694
     4  H    0.357179  -0.024099  -0.020489   0.533719  -0.023916   0.003174
     5  C    0.363922  -0.018471  -0.020482  -0.023916   4.263549   0.579737
     6  O   -0.074137   0.001373   0.000694   0.003174   0.579737   8.053856
     7  O   -0.093668   0.002820   0.000931   0.003595   0.215699  -0.078931
     8  C    0.002619   0.000004  -0.000004  -0.000073  -0.006214   0.014675
     9  C    0.000251  -0.000030  -0.000024  -0.000001  -0.006027  -0.000297
    10  C   -0.000439   0.000018   0.000158   0.000010   0.003054   0.000428
    11  O   -0.000002   0.000000   0.000007   0.000000   0.000091  -0.000001
    12  O   -0.005070   0.000142   0.008552   0.000065   0.024203  -0.003852
    13  C    0.000011  -0.000000  -0.000002  -0.000000  -0.000159  -0.000169
    14  H   -0.000000  -0.000000  -0.000000   0.000000  -0.000015   0.000000
    15  C   -0.000000   0.000000   0.000000  -0.000000   0.000034   0.000024
    16  H    0.000000   0.000000   0.000000  -0.000000   0.000000   0.000000
    17  C    0.000008  -0.000000  -0.000000  -0.000000   0.000101  -0.000085
    18  H   -0.000000  -0.000000  -0.000000   0.000000  -0.000008  -0.000000
    19  C   -0.000193   0.000038   0.000010   0.000007  -0.003926   0.000237
    20  H   -0.000134   0.000022   0.000002   0.000002   0.000883  -0.000068
               7          8          9         10         11         12
     1  C   -0.093668   0.002619   0.000251  -0.000439  -0.000002  -0.005070
     2  H    0.002820   0.000004  -0.000030   0.000018   0.000000   0.000142
     3  H    0.000931  -0.000004  -0.000024   0.000158   0.000007   0.008552
     4  H    0.003595  -0.000073  -0.000001   0.000010   0.000000   0.000065
     5  C    0.215699  -0.006214  -0.006027   0.003054   0.000091   0.024203
     6  O   -0.078931   0.014675  -0.000297   0.000428  -0.000001  -0.003852
     7  O    8.409583   0.170448  -0.045440  -0.009859  -0.000019  -0.009194
     8  C    0.170448   4.737489   0.465899  -0.034985   0.002155  -0.006410
     9  C   -0.045440   0.465899   5.272870   0.198038  -0.150824  -0.120391
    10  C   -0.009859  -0.034985   0.198038   4.393292   0.518403   0.485410
    11  O   -0.000019   0.002155  -0.150824   0.518403   8.362133  -0.093545
    12  O   -0.009194  -0.006410  -0.120391   0.485410  -0.093545   8.370267
    13  C    0.005216  -0.043112   0.457516  -0.038830   0.004340   0.004945
    14  H   -0.000054   0.005405  -0.042655  -0.006434   0.023722   0.000409
    15  C   -0.000042  -0.042202  -0.025830   0.006184   0.001307  -0.000033
    16  H    0.000002   0.000620   0.003777  -0.000050   0.000002   0.000000
    17  C    0.004519  -0.006691  -0.041890  -0.000776  -0.000024  -0.000020
    18  H   -0.000064   0.003633   0.000637   0.000006   0.000000  -0.000000
    19  C   -0.055304   0.501473  -0.039591   0.006395  -0.000047   0.000414
    20  H   -0.001896  -0.040414   0.006454  -0.000008   0.000001   0.000011
              13         14         15         16         17         18
     1  C    0.000011  -0.000000  -0.000000   0.000000   0.000008  -0.000000
     2  H   -0.000000  -0.000000   0.000000   0.000000  -0.000000  -0.000000
     3  H   -0.000002  -0.000000   0.000000   0.000000  -0.000000  -0.000000
     4  H   -0.000000   0.000000  -0.000000  -0.000000  -0.000000   0.000000
     5  C   -0.000159  -0.000015   0.000034   0.000000   0.000101  -0.000008
     6  O   -0.000169   0.000000   0.000024   0.000000  -0.000085  -0.000000
     7  O    0.005216  -0.000054  -0.000042   0.000002   0.004519  -0.000064
     8  C   -0.043112   0.005405  -0.042202   0.000620  -0.006691   0.003633
     9  C    0.457516  -0.042655  -0.025830   0.003777  -0.041890   0.000637
    10  C   -0.038830  -0.006434   0.006184  -0.000050  -0.000776   0.000006
    11  O    0.004340   0.023722   0.001307   0.000002  -0.000024   0.000000
    12  O    0.004945   0.000409  -0.000033   0.000000  -0.000020  -0.000000
    13  C    5.123346   0.341571   0.463104  -0.040248  -0.017899   0.004162
    14  H    0.341571   0.584020  -0.043857  -0.005384   0.004683  -0.000179
    15  C    0.463104  -0.043857   4.952204   0.361462   0.527932  -0.041776
    16  H   -0.040248  -0.005384   0.361462   0.594960  -0.044974  -0.005105
    17  C   -0.017899   0.004683   0.527932  -0.044974   4.919471   0.356865
    18  H    0.004162  -0.000179  -0.041776  -0.005105   0.356865   0.587821
    19  C   -0.054061   0.000518  -0.031678   0.004725   0.497135  -0.036720
    20  H    0.000149   0.000018   0.005120  -0.000164  -0.043895  -0.005728
              19         20
     1  C   -0.000193  -0.000134
     2  H    0.000038   0.000022
     3  H    0.000010   0.000002
     4  H    0.000007   0.000002
     5  C   -0.003926   0.000883
     6  O    0.000237  -0.000068
     7  O   -0.055304  -0.001896
     8  C    0.501473  -0.040414
     9  C   -0.039591   0.006454
    10  C    0.006395  -0.000008
    11  O   -0.000047   0.000001
    12  O    0.000414   0.000011
    13  C   -0.054061   0.000149
    14  H    0.000518   0.000018
    15  C   -0.031678   0.005120
    16  H    0.004725  -0.000164
    17  C    0.497135  -0.043895
    18  H   -0.036720  -0.005728
    19  C    5.030298   0.350335
    20  H    0.350335   0.594912
 Mulliken charges:
               1
     1  C   -0.531908
     2  H    0.176672
     3  H    0.198730
     4  H    0.170828
     5  C    0.627945
     6  O   -0.496658
     7  O   -0.518343
     8  C    0.275683
     9  C    0.067559
    10  C    0.479985
    11  O   -0.667700
    12  O   -0.655902
    13  C   -0.209878
    14  H    0.138233
    15  C   -0.131954
    16  H    0.130377
    17  C   -0.154459
    18  H    0.136457
    19  C   -0.170066
    20  H    0.134399
 Sum of Mulliken charges =  -1.00000
 Mulliken charges with hydrogens summed into heavy atoms:
               1
     1  C    0.014321
     5  C    0.627945
     6  O   -0.496658
     7  O   -0.518343
     8  C    0.275683
     9  C    0.067559
    10  C    0.479985
    11  O   -0.667700
    12  O   -0.655902
    13  C   -0.071644
    15  C   -0.001577
    17  C   -0.018002
    19  C   -0.035667
 Electronic spatial extent (au):  <R**2>=           2256.0895
 Charge=             -1.0000 electrons
 Dipole moment (field-independent basis, Debye):
    X=              0.8747    Y=            -10.5747    Z=             -1.7674  Tot=             10.7570
 Quadrupole moment (field-independent basis, Debye-Ang):
   XX=            -72.4261   YY=           -102.3251   ZZ=            -80.4924
   XY=             -2.3417   XZ=              5.3077   YZ=              3.5037
 Traceless Quadrupole moment (field-independent basis, Debye-Ang):
   XX=             12.6551   YY=            -17.2439   ZZ=              4.5888
   XY=             -2.3417   XZ=              5.3077   YZ=              3.5037
 Octapole moment (field-independent basis, Debye-Ang**2):
  XXX=            -20.0344  YYY=            -95.9322  ZZZ=             -4.7058  XYY=             -9.9132
  XXY=            -16.7546  XXZ=             -3.9139  XZZ=             -2.0466  YZZ=              9.0542
  YYZ=             -1.2931  XYZ=             -2.8806
 Hexadecapole moment (field-independent basis, Debye-Ang**3):
 XXXX=          -1588.7334 YYYY=          -1251.6849 ZZZZ=           -194.4086 XXXY=              8.9243
 XXXZ=             28.1000 YYYX=            -46.1156 YYYZ=             13.1665 ZZZX=              7.4651
 ZZZY=              2.3454 XXYY=           -472.7477 XXZZ=           -341.3247 YYZZ=           -205.9572
 XXYZ=              8.9465 YYXZ=              5.8238 ZZXY=              1.4327
 N-N= 7.666110859353D+02 E-N=-3.064445020451D+03  KE= 6.424580669087D+02
 No NMR shielding tensors so no spin-rotation constants.
 Leave Link  601 at Sun Jul 18 16:12:33 2021, MaxMem=   104857600 cpu:               0.4 elap:               0.1
 (Enter /dades/curu/g16A03_MST/g16/l9999.exe)


 THE PROBLEM WITH THE LADDER OF SUCCESS IS YOU CAN'T
 CLIMB IT WHILE YOU'RE TWIDDLING YOUR THUMBS.
 Error termination request processed by link 9999.
 Error termination via Lnk1e in /dades/curu/g16A03_MST/g16/l9999.exe at Sun Jul 18 16:12:33 2021.
 Job cpu time:       0 days  9 hours 29 minutes 23.2 seconds.
 Elapsed time:       0 days  2 hours 28 minutes 47.5 seconds.
 File lengths (MBytes):  RWF=    185 Int=      0 D2E=      0 Chk=      8 Scr=      1
