 Entering Gaussian System, Link 0=g16
 Input=SET_328_BBB292_conf1.geo_255_060_255_OCTANOL.dat
 Output=SET_328_BBB292_conf1.geo_255_060_255_OCTANOL.log
 Initial command:
 /dades/curu/g16A03_MST/g16/l1.exe "/tmp/ubator02/1839589/Gau-185299.inp" -scrdir="/tmp/ubator02/1839589/"
 Entering Link 1 = /dades/curu/g16A03_MST/g16/l1.exe PID=    185307.
  
 Copyright (c) 1988,1990,1992,1993,1995,1998,2003,2009,2016,
            Gaussian, Inc.  All Rights Reserved.
  
 This is part of the Gaussian(R) 16 program.  It is based on
 the Gaussian(R) 09 system (copyright 2009, Gaussian, Inc.),
 the Gaussian(R) 03 system (copyright 2003, Gaussian, Inc.),
 the Gaussian(R) 98 system (copyright 1998, Gaussian, Inc.),
 the Gaussian(R) 94 system (copyright 1995, Gaussian, Inc.),
 the Gaussian 92(TM) system (copyright 1992, Gaussian, Inc.),
 the Gaussian 90(TM) system (copyright 1990, Gaussian, Inc.),
 the Gaussian 88(TM) system (copyright 1988, Gaussian, Inc.),
 the Gaussian 86(TM) system (copyright 1986, Carnegie Mellon
 University), and the Gaussian 82(TM) system (copyright 1983,
 Carnegie Mellon University). Gaussian is a federally registered
 trademark of Gaussian, Inc.
  
 This software contains proprietary and confidential information,
 including trade secrets, belonging to Gaussian, Inc.
  
 This software is provided under written license and may be
 used, copied, transmitted, or stored only in accord with that
 written license.
  
 The following legend is applicable only to US Government
 contracts under FAR:
  
                    RESTRICTED RIGHTS LEGEND
  
 Use, reproduction and disclosure by the US Government is
 subject to restrictions as set forth in subparagraphs (a)
 and (c) of the Commercial Computer Software - Restricted
 Rights clause in FAR 52.227-19.
  
 Gaussian, Inc.
 340 Quinnipiac St., Bldg. 40, Wallingford CT 06492
  
  
 ---------------------------------------------------------------
 Warning -- This program may not be used in any manner that
 competes with the business of Gaussian, Inc. or will provide
 assistance to any competitor of Gaussian, Inc.  The licensee
 of this program is prohibited from giving any competitor of
 Gaussian, Inc. access to this program.  By using this program,
 the user acknowledges that Gaussian, Inc. is engaged in the
 business of creating and licensing software in the field of
 computational chemistry and represents and warrants to the
 licensee that it is not a competitor of Gaussian, Inc. and that
 it will not use this program in any manner prohibited above.
 ---------------------------------------------------------------
  

 Cite this work as:
 Gaussian 16, Revision A.03,
 M. J. Frisch, G. W. Trucks, H. B. Schlegel, G. E. Scuseria, 
 M. A. Robb, J. R. Cheeseman, G. Scalmani, V. Barone, 
 G. A. Petersson, H. Nakatsuji, X. Li, M. Caricato, A. V. Marenich, 
 J. Bloino, B. G. Janesko, R. Gomperts, B. Mennucci, H. P. Hratchian, 
 J. V. Ortiz, A. F. Izmaylov, J. L. Sonnenberg, D. Williams-Young, 
 F. Ding, F. Lipparini, F. Egidi, J. Goings, B. Peng, A. Petrone, 
 T. Henderson, D. Ranasinghe, V. G. Zakrzewski, J. Gao, N. Rega, 
 G. Zheng, W. Liang, M. Hada, M. Ehara, K. Toyota, R. Fukuda, 
 J. Hasegawa, M. Ishida, T. Nakajima, Y. Honda, O. Kitao, H. Nakai, 
 T. Vreven, K. Throssell, J. A. Montgomery, Jr., J. E. Peralta, 
 F. Ogliaro, M. J. Bearpark, J. J. Heyd, E. N. Brothers, K. N. Kudin, 
 V. N. Staroverov, T. A. Keith, R. Kobayashi, J. Normand, 
 K. Raghavachari, A. P. Rendell, J. C. Burant, S. S. Iyengar, 
 J. Tomasi, M. Cossi, J. M. Millam, M. Klene, C. Adamo, R. Cammi, 
 J. W. Ochterski, R. L. Martin, K. Morokuma, O. Farkas, 
 J. B. Foresman, and D. J. Fox, Gaussian, Inc., Wallingford CT, 2016.
 
 ******************************************
 Gaussian 16:  ES64L-G16RevA.03 25-Dec-2016
                18-Jul-2021 
 ******************************************
 %mem=800MB
 %nproc=4
 Will use up to    4 processors via shared memory.
 %chk=SET_328_BBB292_conf1.geo_255_060_255.chk
 ---------------------------------------------------------------
 #p b3lyp/6-31G(d) opt freq scrf=(iefpcm,read,solvent=n-octanol)
 ---------------------------------------------------------------
 1/18=20,19=15,26=3,38=1,40=2/1,3;
 2/9=110,12=2,17=6,18=5,40=1/2;
 3/5=1,6=6,7=1,11=2,25=1,30=1,70=2203,71=1,72=25,74=-5/1,2,3;
 4//1;
 5/5=2,38=5,53=25/2;
 6/7=2,8=2,9=2,10=2,28=1/1;
 7//1,2,3,16;
 1/18=20,19=15,26=3/3(2);
 2/9=110/2;
 99//99;
 2/9=110/2;
 3/5=1,6=6,7=1,11=2,25=1,30=1,70=2205,71=1,72=25,74=-5/1,2,3;
 4/5=5,16=3,69=1/1;
 5/5=2,38=5,53=25/2;
 7//1,2,3,16;
 1/18=20,19=15,26=3/3(-5);
 2/9=110/2;
 6/7=2,8=2,9=2,10=2,19=2,28=1/1;
 99/9=1/99;
 Leave Link    1 at Sun Jul 18 13:47:46 2021, MaxMem=   104857600 cpu:               0.1 elap:               0.1
 (Enter /dades/curu/g16A03_MST/g16/l101.exe)
 ---------------------------------------------
 SET_328_BBB292_conf1.geo_255_060_255 geometry
 ---------------------------------------------
 Symbolic Z-matrix:
 Charge =  1 Multiplicity = 1
 N                    -2.018    -0.921     2.881 
 H                    -1.641    -1.453     3.64 
 H                    -2.811    -1.397     2.502 
 C                    -0.971    -0.761     1.812 
 C                     0.409    -0.351     2.442 
 O                     1.446    -0.993     2.121 
 H                     2.122    -0.576     2.685 
 O                     0.437     0.602     3.202 
 H                    -0.812    -1.746     1.368 
 C                    -1.439     0.224     0.699 
 H                    -1.621     1.237     1.067 
 H                    -2.409    -0.084     0.304 
 C                    -0.419     0.245    -0.441 
 C                     0.426     1.284    -0.575 
 H                     0.511     1.971     0.263 
 C                     1.254     1.368    -1.688 
 O                     2.027     2.508    -1.894 
 H                     2.132     3.026    -1.076 
 C                     1.185     0.334    -2.677 
 O                     1.824     0.302    -3.866 
 H                     1.117     0.121    -4.51 
 C                     0.401    -0.741    -2.424 
 H                     0.321    -1.553    -3.143 
 C                    -0.439    -0.793    -1.359 
 H                    -1.096    -1.651    -1.243 
 H                    -2.297    -0.02      3.212 
 
 ITRead=  0  0  0  0  0  0  0  0  0  0  0  0  0  0  0  0  0  0  0  0
 ITRead=  0  0  0  0  0  0
 MicOpt= -1 -1 -1 -1 -1 -1 -1 -1 -1 -1 -1 -1 -1 -1 -1 -1 -1 -1 -1 -1
 MicOpt= -1 -1 -1 -1 -1 -1
 NAtoms=     26 NQM=       26 NQMF=       0 NMMI=      0 NMMIF=      0
                NMic=       0 NMicF=      0.
                    Isotopes and Nuclear Properties:
 (Nuclear quadrupole moments (NQMom) in fm**2, nuclear magnetic moments (NMagM)
  in nuclear magnetons)

  Atom         1           2           3           4           5           6           7           8           9          10
 IAtWgt=          14           1           1          12          12          16           1          16           1          12
 AtmWgt=  14.0030740   1.0078250   1.0078250  12.0000000  12.0000000  15.9949146   1.0078250  15.9949146   1.0078250  12.0000000
 NucSpn=           2           1           1           0           0           0           1           0           1           0
 AtZEff=  -0.0000000  -0.0000000  -0.0000000  -0.0000000  -0.0000000  -0.0000000  -0.0000000  -0.0000000  -0.0000000  -0.0000000
 NQMom=    2.0440000   0.0000000   0.0000000   0.0000000   0.0000000   0.0000000   0.0000000   0.0000000   0.0000000   0.0000000
 NMagM=    0.4037610   2.7928460   2.7928460   0.0000000   0.0000000   0.0000000   2.7928460   0.0000000   2.7928460   0.0000000
 AtZNuc=   7.0000000   1.0000000   1.0000000   6.0000000   6.0000000   8.0000000   1.0000000   8.0000000   1.0000000   6.0000000

  Atom        11          12          13          14          15          16          17          18          19          20
 IAtWgt=           1           1          12          12           1          12          16           1          12          16
 AtmWgt=   1.0078250   1.0078250  12.0000000  12.0000000   1.0078250  12.0000000  15.9949146   1.0078250  12.0000000  15.9949146
 NucSpn=           1           1           0           0           1           0           0           1           0           0
 AtZEff=  -0.0000000  -0.0000000  -0.0000000  -0.0000000  -0.0000000  -0.0000000  -0.0000000  -0.0000000  -0.0000000  -0.0000000
 NQMom=    0.0000000   0.0000000   0.0000000   0.0000000   0.0000000   0.0000000   0.0000000   0.0000000   0.0000000   0.0000000
 NMagM=    2.7928460   2.7928460   0.0000000   0.0000000   2.7928460   0.0000000   0.0000000   2.7928460   0.0000000   0.0000000
 AtZNuc=   1.0000000   1.0000000   6.0000000   6.0000000   1.0000000   6.0000000   8.0000000   1.0000000   6.0000000   8.0000000

  Atom        21          22          23          24          25          26
 IAtWgt=           1          12           1          12           1           1
 AtmWgt=   1.0078250  12.0000000   1.0078250  12.0000000   1.0078250   1.0078250
 NucSpn=           1           0           1           0           1           1
 AtZEff=  -0.0000000  -0.0000000  -0.0000000  -0.0000000  -0.0000000  -0.0000000
 NQMom=    0.0000000   0.0000000   0.0000000   0.0000000   0.0000000   0.0000000
 NMagM=    2.7928460   0.0000000   2.7928460   0.0000000   2.7928460   2.7928460
 AtZNuc=   1.0000000   6.0000000   1.0000000   6.0000000   1.0000000   1.0000000
 Leave Link  101 at Sun Jul 18 13:47:46 2021, MaxMem=   104857600 cpu:               0.1 elap:               0.2
 (Enter /dades/curu/g16A03_MST/g16/l103.exe)

 GradGradGradGradGradGradGradGradGradGradGradGradGradGradGradGradGradGrad
 Berny optimization.
 Initialization pass.
                           ----------------------------
                           !    Initial Parameters    !
                           ! (Angstroms and Degrees)  !
 --------------------------                            --------------------------
 ! Name  Definition              Value          Derivative Info.                !
 --------------------------------------------------------------------------------
 ! R1    R(1,2)                  1.0006         estimate D2E/DX2                !
 ! R2    R(1,3)                  0.9995         estimate D2E/DX2                !
 ! R3    R(1,4)                  1.5048         estimate D2E/DX2                !
 ! R4    R(1,26)                 0.9996         estimate D2E/DX2                !
 ! R5    R(4,5)                  1.5714         estimate D2E/DX2                !
 ! R6    R(4,9)                  1.0921         estimate D2E/DX2                !
 ! R7    R(4,10)                 1.5582         estimate D2E/DX2                !
 ! R8    R(5,6)                  1.2612         estimate D2E/DX2                !
 ! R9    R(5,8)                  1.2193         estimate D2E/DX2                !
 ! R10   R(6,7)                  0.9741         estimate D2E/DX2                !
 ! R11   R(10,11)                1.093          estimate D2E/DX2                !
 ! R12   R(10,12)                1.0917         estimate D2E/DX2                !
 ! R13   R(10,13)                1.5298         estimate D2E/DX2                !
 ! R14   R(13,14)                1.3459         estimate D2E/DX2                !
 ! R15   R(13,24)                1.3858         estimate D2E/DX2                !
 ! R16   R(14,15)                1.0869         estimate D2E/DX2                !
 ! R17   R(14,16)                1.3898         estimate D2E/DX2                !
 ! R18   R(16,17)                1.3927         estimate D2E/DX2                !
 ! R19   R(16,19)                1.4325         estimate D2E/DX2                !
 ! R20   R(17,18)                0.9739         estimate D2E/DX2                !
 ! R21   R(19,20)                1.3502         estimate D2E/DX2                !
 ! R22   R(19,22)                1.3544         estimate D2E/DX2                !
 ! R23   R(20,21)                0.9733         estimate D2E/DX2                !
 ! R24   R(22,23)                1.0875         estimate D2E/DX2                !
 ! R25   R(22,24)                1.3574         estimate D2E/DX2                !
 ! R26   R(24,25)                1.0869         estimate D2E/DX2                !
 ! A1    A(2,1,3)              109.4716         estimate D2E/DX2                !
 ! A2    A(2,1,4)              109.465          estimate D2E/DX2                !
 ! A3    A(2,1,26)             109.4639         estimate D2E/DX2                !
 ! A4    A(3,1,4)              109.4671         estimate D2E/DX2                !
 ! A5    A(3,1,26)             109.4732         estimate D2E/DX2                !
 ! A6    A(4,1,26)             109.4864         estimate D2E/DX2                !
 ! A7    A(1,4,5)              110.7286         estimate D2E/DX2                !
 ! A8    A(1,4,9)              107.1101         estimate D2E/DX2                !
 ! A9    A(1,4,10)             111.4476         estimate D2E/DX2                !
 ! A10   A(5,4,9)              105.6918         estimate D2E/DX2                !
 ! A11   A(5,4,10)             112.6554         estimate D2E/DX2                !
 ! A12   A(9,4,10)             108.8736         estimate D2E/DX2                !
 ! A13   A(4,5,6)              119.1583         estimate D2E/DX2                !
 ! A14   A(4,5,8)              118.2941         estimate D2E/DX2                !
 ! A15   A(6,5,8)              122.5239         estimate D2E/DX2                !
 ! A16   A(5,6,7)              101.8484         estimate D2E/DX2                !
 ! A17   A(4,10,11)            113.2896         estimate D2E/DX2                !
 ! A18   A(4,10,12)            110.3017         estimate D2E/DX2                !
 ! A19   A(4,10,13)            109.9189         estimate D2E/DX2                !
 ! A20   A(11,10,12)           103.6119         estimate D2E/DX2                !
 ! A21   A(11,10,13)           110.4371         estimate D2E/DX2                !
 ! A22   A(12,10,13)           109.0664         estimate D2E/DX2                !
 ! A23   A(10,13,14)           120.2236         estimate D2E/DX2                !
 ! A24   A(10,13,24)           118.2752         estimate D2E/DX2                !
 ! A25   A(14,13,24)           121.4203         estimate D2E/DX2                !
 ! A26   A(13,14,15)           117.4037         estimate D2E/DX2                !
 ! A27   A(13,14,16)           120.0294         estimate D2E/DX2                !
 ! A28   A(15,14,16)           122.1846         estimate D2E/DX2                !
 ! A29   A(14,16,17)           119.9091         estimate D2E/DX2                !
 ! A30   A(14,16,19)           118.7241         estimate D2E/DX2                !
 ! A31   A(17,16,19)           121.0287         estimate D2E/DX2                !
 ! A32   A(16,17,18)           111.7764         estimate D2E/DX2                !
 ! A33   A(16,19,20)           127.0337         estimate D2E/DX2                !
 ! A34   A(16,19,22)           118.154          estimate D2E/DX2                !
 ! A35   A(20,19,22)           114.8122         estimate D2E/DX2                !
 ! A36   A(19,20,21)           104.0811         estimate D2E/DX2                !
 ! A37   A(19,22,23)           120.7786         estimate D2E/DX2                !
 ! A38   A(19,22,24)           122.3571         estimate D2E/DX2                !
 ! A39   A(23,22,24)           116.3974         estimate D2E/DX2                !
 ! A40   A(13,24,22)           118.8225         estimate D2E/DX2                !
 ! A41   A(13,24,25)           121.9587         estimate D2E/DX2                !
 ! A42   A(22,24,25)           119.2131         estimate D2E/DX2                !
 ! D1    D(2,1,4,5)            -45.8517         estimate D2E/DX2                !
 ! D2    D(2,1,4,9)             68.9242         estimate D2E/DX2                !
 ! D3    D(2,1,4,10)          -172.0911         estimate D2E/DX2                !
 ! D4    D(3,1,4,5)           -165.8459         estimate D2E/DX2                !
 ! D5    D(3,1,4,9)            -51.07           estimate D2E/DX2                !
 ! D6    D(3,1,4,10)            67.9147         estimate D2E/DX2                !
 ! D7    D(26,1,4,5)            74.1449         estimate D2E/DX2                !
 ! D8    D(26,1,4,9)          -171.0792         estimate D2E/DX2                !
 ! D9    D(26,1,4,10)          -52.0946         estimate D2E/DX2                !
 ! D10   D(1,4,5,6)            130.1207         estimate D2E/DX2                !
 ! D11   D(1,4,5,8)            -51.6047         estimate D2E/DX2                !
 ! D12   D(9,4,5,6)             14.4584         estimate D2E/DX2                !
 ! D13   D(9,4,5,8)           -167.267          estimate D2E/DX2                !
 ! D14   D(10,4,5,6)          -104.3158         estimate D2E/DX2                !
 ! D15   D(10,4,5,8)            73.9588         estimate D2E/DX2                !
 ! D16   D(1,4,10,11)           62.0235         estimate D2E/DX2                !
 ! D17   D(1,4,10,12)          -53.5987         estimate D2E/DX2                !
 ! D18   D(1,4,10,13)         -173.8981         estimate D2E/DX2                !
 ! D19   D(5,4,10,11)          -63.1494         estimate D2E/DX2                !
 ! D20   D(5,4,10,12)         -178.7716         estimate D2E/DX2                !
 ! D21   D(5,4,10,13)           60.9289         estimate D2E/DX2                !
 ! D22   D(9,4,10,11)          179.9515         estimate D2E/DX2                !
 ! D23   D(9,4,10,12)           64.3292         estimate D2E/DX2                !
 ! D24   D(9,4,10,13)          -55.9702         estimate D2E/DX2                !
 ! D25   D(4,5,6,7)           -176.5993         estimate D2E/DX2                !
 ! D26   D(8,5,6,7)              5.2026         estimate D2E/DX2                !
 ! D27   D(4,10,13,14)        -104.1825         estimate D2E/DX2                !
 ! D28   D(4,10,13,24)          79.0433         estimate D2E/DX2                !
 ! D29   D(11,10,13,14)         21.5369         estimate D2E/DX2                !
 ! D30   D(11,10,13,24)       -155.2374         estimate D2E/DX2                !
 ! D31   D(12,10,13,14)        134.7729         estimate D2E/DX2                !
 ! D32   D(12,10,13,24)        -42.0013         estimate D2E/DX2                !
 ! D33   D(10,13,14,15)         13.6713         estimate D2E/DX2                !
 ! D34   D(10,13,14,16)       -173.2714         estimate D2E/DX2                !
 ! D35   D(24,13,14,15)       -169.6579         estimate D2E/DX2                !
 ! D36   D(24,13,14,16)          3.3994         estimate D2E/DX2                !
 ! D37   D(10,13,24,22)        175.6913         estimate D2E/DX2                !
 ! D38   D(10,13,24,25)         -5.1857         estimate D2E/DX2                !
 ! D39   D(14,13,24,22)         -1.0424         estimate D2E/DX2                !
 ! D40   D(14,13,24,25)        178.0806         estimate D2E/DX2                !
 ! D41   D(13,14,16,17)        173.4482         estimate D2E/DX2                !
 ! D42   D(13,14,16,19)          0.0537         estimate D2E/DX2                !
 ! D43   D(15,14,16,17)        -13.8363         estimate D2E/DX2                !
 ! D44   D(15,14,16,19)        172.7692         estimate D2E/DX2                !
 ! D45   D(14,16,17,18)         18.9651         estimate D2E/DX2                !
 ! D46   D(19,16,17,18)       -167.7956         estimate D2E/DX2                !
 ! D47   D(14,16,19,20)        174.0844         estimate D2E/DX2                !
 ! D48   D(14,16,19,22)         -5.7983         estimate D2E/DX2                !
 ! D49   D(17,16,19,20)          0.7667         estimate D2E/DX2                !
 ! D50   D(17,16,19,22)       -179.1161         estimate D2E/DX2                !
 ! D51   D(16,19,20,21)       -128.2626         estimate D2E/DX2                !
 ! D52   D(22,19,20,21)         51.6235         estimate D2E/DX2                !
 ! D53   D(16,19,22,23)       -179.7036         estimate D2E/DX2                !
 ! D54   D(16,19,22,24)          8.4209         estimate D2E/DX2                !
 ! D55   D(20,19,22,23)          0.3995         estimate D2E/DX2                !
 ! D56   D(20,19,22,24)       -171.476          estimate D2E/DX2                !
 ! D57   D(19,22,24,13)         -5.1139         estimate D2E/DX2                !
 ! D58   D(19,22,24,25)        175.7386         estimate D2E/DX2                !
 ! D59   D(23,22,24,13)       -177.3234         estimate D2E/DX2                !
 ! D60   D(23,22,24,25)          3.5292         estimate D2E/DX2                !
 --------------------------------------------------------------------------------
 Trust Radius=3.00D-01 FncErr=1.00D-07 GrdErr=1.00D-06 EigMax=2.50D+02 EigMin=1.00D-04
 Number of steps in this run=    138 maximum allowed number of steps=    156.
 GradGradGradGradGradGradGradGradGradGradGradGradGradGradGradGradGradGrad

 Leave Link  103 at Sun Jul 18 13:47:47 2021, MaxMem=   104857600 cpu:               0.0 elap:               0.5
 (Enter /dades/curu/g16A03_MST/g16/l202.exe)
                          Input orientation:                          
 ---------------------------------------------------------------------
 Center     Atomic      Atomic             Coordinates (Angstroms)
 Number     Number       Type             X           Y           Z
 ---------------------------------------------------------------------
      1          7           0       -2.018000   -0.921000    2.881000
      2          1           0       -1.641000   -1.453000    3.640000
      3          1           0       -2.811000   -1.397000    2.502000
      4          6           0       -0.971000   -0.761000    1.812000
      5          6           0        0.409000   -0.351000    2.442000
      6          8           0        1.446000   -0.993000    2.121000
      7          1           0        2.122000   -0.576000    2.685000
      8          8           0        0.437000    0.602000    3.202000
      9          1           0       -0.812000   -1.746000    1.368000
     10          6           0       -1.439000    0.224000    0.699000
     11          1           0       -1.621000    1.237000    1.067000
     12          1           0       -2.409000   -0.084000    0.304000
     13          6           0       -0.419000    0.245000   -0.441000
     14          6           0        0.426000    1.284000   -0.575000
     15          1           0        0.511000    1.971000    0.263000
     16          6           0        1.254000    1.368000   -1.688000
     17          8           0        2.027000    2.508000   -1.894000
     18          1           0        2.132000    3.026000   -1.076000
     19          6           0        1.185000    0.334000   -2.677000
     20          8           0        1.824000    0.302000   -3.866000
     21          1           0        1.117000    0.121000   -4.510000
     22          6           0        0.401000   -0.741000   -2.424000
     23          1           0        0.321000   -1.553000   -3.143000
     24          6           0       -0.439000   -0.793000   -1.359000
     25          1           0       -1.096000   -1.651000   -1.243000
     26          1           0       -2.297000   -0.020000    3.212000
 ---------------------------------------------------------------------
                    Distance matrix (angstroms):
                    1          2          3          4          5
     1  N    0.000000
     2  H    1.000617   0.000000
     3  H    0.999533   1.633120   0.000000
     4  C    1.504849   2.066240   2.065477   0.000000
     5  C    2.531393   2.617653   3.386165   1.571432   0.000000
     6  O    3.547123   3.471099   4.293067   2.447692   1.261180
     7  H    4.158971   3.980116   5.004200   3.219162   1.744719
     8  O    2.906819   2.955157   3.877564   2.402568   1.219259
     9  H    2.103385   2.436201   2.324598   1.092081   2.142508
    10  C    2.531282   3.391550   2.785827   1.558210   2.604569
    11  H    2.846958   3.722476   3.226962   2.229244   2.921176
    12  H    2.737586   3.686852   2.591675   2.190944   3.547317
    13  C    3.866787   4.585962   4.132684   2.528389   3.058184
    14  C    4.772745   5.434141   5.209017   3.439681   3.431589
    15  H    4.649025   5.268682   5.233759   3.472686   3.185927
    16  C    6.068053   6.687799   6.459532   4.661895   4.552569
    17  O    7.135874   7.731035   7.614466   5.780035   5.439917
    18  H    6.961261   7.519151   7.536462   5.684235   5.171961
    19  C    6.536482   7.147317   6.766566   5.098871   5.222601
    20  O    7.859943   8.451407   8.057372   6.417295   6.497653
    21  H    8.095732   8.746802   8.179343   6.716052   7.003881
    22  C    5.833265   6.438075   5.917158   4.452694   4.881610
    23  H    6.492990   7.061766   6.457537   5.181559   5.713560
    24  C    4.526282   5.183667   4.571490   3.215476   3.919448
    25  H    4.288398   4.917308   4.126835   3.184454   4.187392
    26  H    0.999601   1.633098   1.632307   2.065758   2.832825
                    6          7          8          9         10
     6  O    0.000000
     7  H    0.974146   0.000000
     8  O    2.175010   2.119952   0.000000
     9  H    2.496514   3.422243   3.230582   0.000000
    10  C    3.438953   4.155107   3.150757   2.172922   0.000000
    11  H    3.935772   4.462616   3.032625   3.105378   1.093031
    12  H    4.357613   5.142099   4.119310   2.538651   1.091691
    13  C    3.402163   4.111277   3.759207   2.718641   1.529850
    14  C    3.673356   4.118691   3.838095   3.806415   2.494975
    15  H    3.621006   3.866344   3.243048   4.097248   2.654167
    16  C    4.485495   4.863711   5.016607   4.827472   3.776077
    17  O    5.358618   5.521533   5.668346   6.066060   4.894227
    18  H    5.181097   5.207651   5.200970   6.116556   4.873794
    19  C    4.984963   5.518796   5.932451   4.967538   4.277248
    20  O    6.137107   6.616290   7.209049   6.207862   5.611816
    21  H    6.731968   7.298209   7.756849   6.462013   5.803225
    22  C    4.670391   5.393602   5.784187   4.106173   3.750994
    23  H    5.411924   6.177679   6.701978   4.655111   4.584353
    24  C    3.962780   4.791633   4.849342   2.912708   2.503928
    25  H    4.267461   5.190408   5.213840   2.628118   2.721146
    26  H    4.018340   4.484911   2.803879   2.929955   2.666621
                   11         12         13         14         15
    11  H    0.000000
    12  H    1.717019   0.000000
    13  C    2.168624   2.150201   0.000000
    14  C    2.624611   3.268224   1.345921   0.000000
    15  H    2.393866   3.570869   2.083169   1.086940   0.000000
    16  C    3.984070   4.415194   2.369613   1.389751   2.173030
    17  O    4.867326   5.588181   3.635285   2.408555   2.690590
    18  H    4.677390   5.674256   3.826851   2.489177   2.352358
    19  C    4.765142   4.688062   2.753259   2.428371   3.431857
    20  O    6.089067   5.954510   4.094499   3.708020   4.643078
    21  H    6.312292   5.970703   4.351027   4.161043   5.154732
    22  C    4.493111   3.971112   2.361543   2.742271   3.819295
    23  H    5.411059   4.636019   3.328845   3.828083   4.904642
    24  C    3.376907   2.673789   1.385846   2.382606   3.342616
    25  H    3.735274   2.563721   2.167106   3.372971   4.239029
    26  H    2.576441   2.910860   4.116008   4.843193   4.532719
                   16         17         18         19         20
    16  C    0.000000
    17  O    1.392683   0.000000
    18  H    1.973421   0.973896   0.000000
    19  C    1.432494   2.459335   3.272136   0.000000
    20  O    2.490972   2.965877   3.911412   1.350210   0.000000
    21  H    3.088278   3.656409   4.611031   1.846587   0.973317
    22  C    2.391064   3.671618   4.359330   1.354360   2.278627
    23  H    3.394076   4.578445   5.340361   2.127069   2.494547
    24  C    2.764853   4.154995   4.612471   2.375843   3.550386
    25  H    3.851608   5.241585   5.685262   3.346572   4.384146
    26  H    6.208554   7.152552   6.876125   6.850545   8.196610
                   21         22         23         24         25
    21  H    0.000000
    22  C    2.367931   0.000000
    23  H    2.303168   1.087522   0.000000
    24  C    3.631161   1.357398   2.082752   0.000000
    25  H    4.325580   2.112787   2.372234   1.086862   0.000000
    26  H    8.444203   6.289956   7.042019   4.994370   4.893832
                   26
    26  H    0.000000
 Stoichiometry    C9H12NO4(1+)
 Framework group  C1[X(C9H12NO4)]
 Deg. of freedom    72
 Full point group                 C1      NOp   1
 Largest Abelian subgroup         C1      NOp   1
 Largest concise Abelian subgroup C1      NOp   1
                         Standard orientation:                         
 ---------------------------------------------------------------------
 Center     Atomic      Atomic             Coordinates (Angstroms)
 Number     Number       Type             X           Y           Z
 ---------------------------------------------------------------------
      1          7           0       -3.681771   -1.039178   -0.459301
      2          1           0       -4.358492   -0.798106    0.237237
      3          1           0       -3.712637   -2.024048   -0.627063
      4          6           0       -2.308515   -0.655150    0.021593
      5          6           0       -2.317660    0.792944    0.631790
      6          8           0       -1.803137    0.984577    1.767182
      7          1           0       -1.994410    1.927968    1.916808
      8          8           0       -2.797306    1.696571   -0.031528
      9          1           0       -2.059512   -1.322819    0.849154
     10          6           0       -1.242782   -0.826189   -1.102230
     11          1           0       -1.424339   -0.187889   -1.970750
     12          1           0       -1.284281   -1.836817   -1.512958
     13          6           0        0.156105   -0.573614   -0.536754
     14          6           0        0.794338    0.582006   -0.798866
     15          1           0        0.206091    1.394657   -1.217197
     16          6           0        2.115581    0.752133   -0.402906
     17          8           0        2.816307    1.890725   -0.792978
     18          1           0        2.216959    2.606456   -1.070440
     19          6           0        2.772741   -0.320964    0.281668
     20          8           0        4.072995   -0.381345    0.640501
     21          1           0        4.377261   -1.234958    0.285378
     22          6           0        2.039245   -1.408717    0.617920
     23          1           0        2.493715   -2.245887    1.142617
     24          6           0        0.764548   -1.586974    0.186756
     25          1           0        0.246753   -2.511173    0.429681
     26          1           0       -3.887199   -0.550217   -1.306603
 ---------------------------------------------------------------------
 Rotational constants (GHZ):           1.3041452           0.3793031           0.3437682
 Leave Link  202 at Sun Jul 18 13:47:47 2021, MaxMem=   104857600 cpu:               0.1 elap:               0.1
 (Enter /dades/curu/g16A03_MST/g16/l301.exe)
 Standard basis: 6-31G(d) (6D, 7F)
 Ernie: Thresh=  0.10000D-02 Tol=  0.10000D-05 Strict=F.
 There are   234 symmetry adapted cartesian basis functions of A   symmetry.
 There are   234 symmetry adapted basis functions of A   symmetry.
   234 basis functions,   440 primitive gaussians,   234 cartesian basis functions
    52 alpha electrons       52 beta electrons
       nuclear repulsion energy       909.8627283892 Hartrees.
 IExCor=  402 DFT=T Ex+Corr=B3LYP ExCW=0 ScaHFX=  0.200000
 ScaDFX=  0.800000  0.720000  1.000000  0.810000 ScalE2=  1.000000  1.000000
 IRadAn=      5 IRanWt=     -1 IRanGd=            0 ICorTp=0 IEmpDi=  4
 NAtoms=   26 NActive=   26 NUniq=   26 SFac= 1.00D+00 NAtFMM=   60 NAOKFM=F Big=F
 Integral buffers will be    131072 words long.
 Raffenetti 2 integral format.
 Two-electron integral symmetry is turned on.
 Using the following non-standard input for PCM:
 MSTModel=DFT cav MSTCharged
 --- end of non-standard input.
 MST model for solvation energy: B3LYP parametrization.
 MST cavity parameters:
 ISph   IAn     Re0     Alpha   Atom Type   QCorr
 ------------------------------------------------
   1      7     1.50     1.15      NH+        T
   2      1     0.90     1.15      NH+        T
   3      1     0.90     1.15      NH+        T
   4      6     1.50     1.50      CN+        F
   5      6     1.50     1.50      C          F
   6      8     1.40     1.50      OH         F
   7      1     0.90     1.50      OH         F
   8      8     1.40     1.50      O          F
   9      1     1.20     1.50      CN+        F
  10      6     1.50     1.50      CH2        F
  11      1     1.20     1.50      CH2        F
  12      1     1.20     1.50      CH2        F
  13      6     1.50     1.50      C          F
  14      6     1.50     1.50      CH         F
  15      1     1.20     1.50      CH         F
  16      6     1.50     1.50      C          F
  17      8     1.40     1.50      OH         F
  18      1     0.90     1.50      OH         F
  19      6     1.50     1.50      C          F
  20      8     1.40     1.50      OH         F
  21      1     0.90     1.50      OH         F
  22      6     1.50     1.50      CH         F
  23      1     1.20     1.50      CH         F
  24      6     1.50     1.50      CH         F
  25      1     1.20     1.50      CH         F
  26      1     0.90     1.15      NH+        T
 ------------------------------------------------------------------------------
 Polarizable Continuum Model (PCM)
 =================================
 Model                : PCM.
 Atomic radii         : MST.
 Polarization charges : Total charges.
 Charge compensation  : None.
 Solution method      : On-the-fly selection.
 Cavity type          : Scaled VdW (van der Waals Surface) (Alpha=1.500).
 Cavity algorithm     : GePol (No added spheres)
                        Default sphere list used, NSphG=   26.
                        Lebedev-Laikov grids with approx.  5.0 points / Ang**2.
                        Smoothing algorithm: York/Karplus (Gamma=1.0000).
                        Polarization charges: spherical gaussians, with
                                              point-specific exponents (IZeta= 3).
                        Self-potential: point-specific (ISelfS= 7).
                        Self-field    : sphere-specific E.n sum rule (ISelfD= 2).
 1st derivatives      : Analytical E(r).r(x)/FMM algorithm (CHGder, D1EAlg=3).
                        Cavity 1st derivative terms included.
 Solvent              : n-Octanol, Eps=   9.862900 Eps(inf)=   2.043470
 ------------------------------------------------------------------------------
 GePol: Number of generator spheres                  =      26
 GePol: Total number of spheres                      =      26
 GePol: Number of exposed spheres                    =      26 (100.00%)
 GePol: Number of points                             =    2196
 GePol: Average weight of points                     =       0.12
 GePol: Minimum weight of points                     =   0.19D-08
 GePol: Maximum weight of points                     =    0.21373
 GePol: Number of points with low weight             =     123
 GePol: Fraction of low-weight points (<1% of avg)   =       5.60%
 GePol: Cavity surface area                          =    263.543 Ang**2
 GePol: Cavity volume                                =    289.824 Ang**3
 Surface areas from nonelectrostatic (unscaled) cavity and vdw tensions:
 Sphere =    1 Type =  NH+ Surf =       12.563 Tension =       -0.274
 Sphere =    2 Type =  NH+ Surf =        3.862 Tension =       -0.274
 Sphere =    3 Type =  NH+ Surf =        3.856 Tension =       -0.274
 Sphere =    4 Type =  CN+ Surf =        3.037 Tension =       -0.227
 Sphere =    5 Type =  C   Surf =        6.944 Tension =       -0.205
 Sphere =    6 Type =  OH  Surf =       14.028 Tension =       -0.238
 Sphere =    7 Type =  OH  Surf =        4.288 Tension =       -0.238
 Sphere =    8 Type =  O   Surf =       16.354 Tension =       -0.185
 Sphere =    9 Type =  CN+ Surf =        9.792 Tension =       -0.227
 Sphere =   10 Type =  CH2 Surf =        3.883 Tension =       -0.194
 Sphere =   11 Type =  CH2 Surf =        9.936 Tension =       -0.194
 Sphere =   12 Type =  CH2 Surf =        9.973 Tension =       -0.194
 Sphere =   13 Type =  C   Surf =        5.825 Tension =       -0.205
 Sphere =   14 Type =  CH  Surf =        7.443 Tension =       -0.195
 Sphere =   15 Type =  CH  Surf =       10.098 Tension =       -0.195
 Sphere =   16 Type =  C   Surf =        6.976 Tension =       -0.205
 Sphere =   17 Type =  OH  Surf =       14.561 Tension =       -0.238
 Sphere =   18 Type =  OH  Surf =        4.479 Tension =       -0.238
 Sphere =   19 Type =  C   Surf =        6.691 Tension =       -0.205
 Sphere =   20 Type =  OH  Surf =       14.321 Tension =       -0.238
 Sphere =   21 Type =  OH  Surf =        4.385 Tension =       -0.238
 Sphere =   22 Type =  CH  Surf =        7.283 Tension =       -0.195
 Sphere =   23 Type =  CH  Surf =       10.140 Tension =       -0.195
 Sphere =   24 Type =  CH  Surf =        7.530 Tension =       -0.195
 Sphere =   25 Type =  CH  Surf =       10.211 Tension =       -0.195
 Sphere =   26 Type =  NH+ Surf =        3.856 Tension =       -0.274
 PCM non-electrostatic energy =        -0.0173349378 Hartrees.
 Nuclear repulsion after PCM non-electrostatic terms =      909.8453934514 Hartrees.
 Leave Link  301 at Sun Jul 18 13:47:47 2021, MaxMem=   104857600 cpu:               0.1 elap:               0.2
 (Enter /dades/curu/g16A03_MST/g16/l302.exe)
 NPDir=0 NMtPBC=     1 NCelOv=     1 NCel=       1 NClECP=     1 NCelD=      1
         NCelK=      1 NCelE2=     1 NClLst=     1 CellRange=     0.0.
 One-electron integrals computed using PRISM.
 One-electron integral symmetry used in STVInt
 NBasis=   234 RedAO= T EigKep=  3.90D-04  NBF=   234
 NBsUse=   234 1.00D-06 EigRej= -1.00D+00 NBFU=   234
 Precomputing XC quadrature grid using
 IXCGrd= 4 IRadAn=           5 IRanWt=          -1 IRanGd=           0 AccXCQ= 0.00D+00.
 Generated NRdTot=       0 NPtTot=           0 NUsed=           0 NTot=          32
 NSgBfM=   233   233   233   233   233 MxSgAt=    26 MxSgA2=    26.
 Leave Link  302 at Sun Jul 18 13:47:48 2021, MaxMem=   104857600 cpu:               2.5 elap:               0.9
 (Enter /dades/curu/g16A03_MST/g16/l303.exe)
 DipDrv:  MaxL=1.
 Leave Link  303 at Sun Jul 18 13:47:48 2021, MaxMem=   104857600 cpu:               0.1 elap:               0.1
 (Enter /dades/curu/g16A03_MST/g16/l401.exe)
 ExpMin= 1.61D-01 ExpMax= 5.48D+03 ExpMxC= 8.25D+02 IAcc=3 IRadAn=         5 AccDes= 0.00D+00
 Harris functional with IExCor=  402 and IRadAn=       5 diagonalized for initial guess.
 HarFok:  IExCor=  402 AccDes= 0.00D+00 IRadAn=         5 IDoV= 1 UseB2=F ITyADJ=14
 ICtDFT=  3500011 ScaDFX=  1.000000  1.000000  1.000000  1.000000
 FoFCou: FMM=F IPFlag=           0 FMFlag=      100000 FMFlg1=           0
         NFxFlg=           0 DoJE=T BraDBF=F KetDBF=T FulRan=T
         wScrn=  0.000000 ICntrl=       500 IOpCl=  0 I1Cent=   200000004 NGrid=           0
         NMat0=    1 NMatS0=      1 NMatT0=    0 NMatD0=    1 NMtDS0=    0 NMtDT0=    0
 Petite list used in FoFCou.
 Harris En= -705.642616486370    
 JPrj=0 DoOrth=F DoCkMO=F.
 Leave Link  401 at Sun Jul 18 13:47:54 2021, MaxMem=   104857600 cpu:              18.4 elap:               5.3
 (Enter /dades/curu/g16A03_MST/g16/l502.exe)
 Integral symmetry usage will be decided dynamically.
 Closed shell SCF:
 Using DIIS extrapolation, IDIIS=  1040.
 NGot=   104857600 LenX=   104743988 LenY=   104688791
 Requested convergence on RMS density matrix=1.00D-08 within 128 cycles.
 Requested convergence on MAX density matrix=1.00D-06.
 Requested convergence on             energy=1.00D-06.
 No special actions if energy rises.
 Fock matrices will be formed incrementally for  20 cycles.

 Cycle   1  Pass 1  IDiag  1:
 FoFJK:  IHMeth= 1 ICntrl=       0 DoSepK=F KAlg= 0 I1Cent=           0 FoldK=F
 IRaf= 870000000 NMat=       1 IRICut=       1 DoRegI=T DoRafI=F ISym2E= 0 IDoP0=0 IntGTp=1.
 FoFCou: FMM=F IPFlag=           0 FMFlag=      100000 FMFlg1=           0
         NFxFlg=           0 DoJE=F BraDBF=F KetDBF=F FulRan=T
         wScrn=  0.000000 ICntrl=         0 IOpCl=  0 I1Cent=           0 NGrid=           0
         NMat0=    1 NMatS0=      1 NMatT0=    0 NMatD0=    1 NMtDS0=    0 NMtDT0=    0
 Symmetry not used in FoFCou.
 Inv3:  Mode=1 IEnd=    14467248.
 Iteration    1 A*A^-1 deviation from unit magnitude is 8.22D-15 for    510.
 Iteration    1 A*A^-1 deviation from orthogonality  is 3.48D-15 for   2191    803.
 Iteration    1 A^-1*A deviation from unit magnitude is 7.77D-15 for    526.
 Iteration    1 A^-1*A deviation from orthogonality  is 1.86D-10 for   2068   2021.
 Iteration    2 A*A^-1 deviation from unit magnitude is 4.00D-15 for    511.
 Iteration    2 A*A^-1 deviation from orthogonality  is 3.47D-15 for    536    526.
 Iteration    2 A^-1*A deviation from unit magnitude is 1.89D-15 for   1093.
 Iteration    2 A^-1*A deviation from orthogonality  is 7.34D-16 for   2188   2159.
 E= -705.338109746182    
 DIIS: error= 2.68D-02 at cycle   1 NSaved=   1.
 NSaved= 1 IEnMin= 1 EnMin= -705.338109746182     IErMin= 1 ErrMin= 2.68D-02
 ErrMax= 2.68D-02  0.00D+00 EMaxC= 1.00D-01 BMatC= 3.87D-01 BMatP= 3.87D-01
 IDIUse=3 WtCom= 7.32D-01 WtEn= 2.68D-01
 Coeff-Com:  0.100D+01
 Coeff-En:   0.100D+01
 Coeff:      0.100D+01
 Gap=     0.227 Goal=   None    Shift=    0.000
 GapD=    0.227 DampG=1.000 DampE=0.500 DampFc=0.5000 IDamp=-1.
 Damping current iteration by 5.00D-01
 RMSDP=5.60D-03 MaxDP=1.95D-01              OVMax= 2.62D-01

 Cycle   2  Pass 1  IDiag  1:
 RMSU=  2.78D-03    CP:  9.84D-01
 E= -705.459493907426     Delta-E=       -0.121384161244 Rises=F Damp=T
 DIIS: error= 1.06D-02 at cycle   2 NSaved=   2.
 NSaved= 2 IEnMin= 2 EnMin= -705.459493907426     IErMin= 2 ErrMin= 1.06D-02
 ErrMax= 1.06D-02  0.00D+00 EMaxC= 1.00D-01 BMatC= 3.93D-02 BMatP= 3.87D-01
 IDIUse=3 WtCom= 8.94D-01 WtEn= 1.06D-01
 Coeff-Com:  0.151D+00 0.849D+00
 Coeff-En:   0.244D+00 0.756D+00
 Coeff:      0.161D+00 0.839D+00
 Gap=     0.172 Goal=   None    Shift=    0.000
 RMSDP=1.60D-03 MaxDP=5.69D-02 DE=-1.21D-01 OVMax= 1.63D-01

 Cycle   3  Pass 1  IDiag  1:
 RMSU=  1.50D-03    CP:  9.76D-01  8.15D-01
 E= -705.638137555415     Delta-E=       -0.178643647989 Rises=F Damp=F
 DIIS: error= 1.68D-02 at cycle   3 NSaved=   3.
 NSaved= 3 IEnMin= 3 EnMin= -705.638137555415     IErMin= 2 ErrMin= 1.06D-02
 ErrMax= 1.68D-02  0.00D+00 EMaxC= 1.00D-01 BMatC= 3.92D-02 BMatP= 3.93D-02
 IDIUse=3 WtCom= 8.32D-01 WtEn= 1.68D-01
 Coeff-Com:  0.370D-01 0.496D+00 0.467D+00
 Coeff-En:   0.000D+00 0.000D+00 0.100D+01
 Coeff:      0.308D-01 0.413D+00 0.556D+00
 Gap=     0.195 Goal=   None    Shift=    0.000
 RMSDP=1.04D-03 MaxDP=5.75D-02 DE=-1.79D-01 OVMax= 9.36D-02

 Cycle   4  Pass 1  IDiag  1:
 RMSU=  7.14D-04    CP:  9.80D-01  8.74D-01  5.12D-01
 E= -705.661050709795     Delta-E=       -0.022913154379 Rises=F Damp=F
 DIIS: error= 1.04D-02 at cycle   4 NSaved=   4.
 NSaved= 4 IEnMin= 4 EnMin= -705.661050709795     IErMin= 4 ErrMin= 1.04D-02
 ErrMax= 1.04D-02  0.00D+00 EMaxC= 1.00D-01 BMatC= 1.21D-02 BMatP= 3.92D-02
 IDIUse=3 WtCom= 8.96D-01 WtEn= 1.04D-01
 Coeff-Com:  0.519D-02 0.945D-01 0.359D+00 0.542D+00
 Coeff-En:   0.000D+00 0.000D+00 0.259D+00 0.741D+00
 Coeff:      0.465D-02 0.847D-01 0.348D+00 0.562D+00
 Gap=     0.194 Goal=   None    Shift=    0.000
 RMSDP=4.15D-04 MaxDP=2.34D-02 DE=-2.29D-02 OVMax= 3.53D-02

 Cycle   5  Pass 1  IDiag  1:
 RMSU=  1.85D-04    CP:  9.79D-01  8.39D-01  6.58D-01  6.04D-01
 E= -705.669436531630     Delta-E=       -0.008385821836 Rises=F Damp=F
 DIIS: error= 2.20D-03 at cycle   5 NSaved=   5.
 NSaved= 5 IEnMin= 5 EnMin= -705.669436531630     IErMin= 5 ErrMin= 2.20D-03
 ErrMax= 2.20D-03  0.00D+00 EMaxC= 1.00D-01 BMatC= 7.94D-04 BMatP= 1.21D-02
 IDIUse=3 WtCom= 9.78D-01 WtEn= 2.20D-02
 Coeff-Com:  0.797D-03 0.919D-02 0.164D+00 0.343D+00 0.483D+00
 Coeff-En:   0.000D+00 0.000D+00 0.000D+00 0.000D+00 0.100D+01
 Coeff:      0.780D-03 0.899D-02 0.161D+00 0.335D+00 0.494D+00
 Gap=     0.193 Goal=   None    Shift=    0.000
 RMSDP=1.22D-04 MaxDP=4.74D-03 DE=-8.39D-03 OVMax= 6.90D-03

 Cycle   6  Pass 1  IDiag  1:
 RMSU=  5.76D-05    CP:  9.79D-01  8.47D-01  6.63D-01  6.43D-01  4.54D-01
 E= -705.670081980676     Delta-E=       -0.000645449045 Rises=F Damp=F
 DIIS: error= 2.08D-04 at cycle   6 NSaved=   6.
 NSaved= 6 IEnMin= 6 EnMin= -705.670081980676     IErMin= 6 ErrMin= 2.08D-04
 ErrMax= 2.08D-04  0.00D+00 EMaxC= 1.00D-01 BMatC= 2.38D-05 BMatP= 7.94D-04
 IDIUse=3 WtCom= 9.98D-01 WtEn= 2.08D-03
 Coeff-Com:  0.261D-04-0.162D-02 0.456D-01 0.104D+00 0.226D+00 0.626D+00
 Coeff-En:   0.000D+00 0.000D+00 0.000D+00 0.000D+00 0.000D+00 0.100D+01
 Coeff:      0.260D-04-0.162D-02 0.455D-01 0.104D+00 0.226D+00 0.626D+00
 Gap=     0.194 Goal=   None    Shift=    0.000
 RMSDP=2.89D-05 MaxDP=7.93D-04 DE=-6.45D-04 OVMax= 2.49D-03

 Cycle   7  Pass 1  IDiag  1:
 RMSU=  1.79D-05    CP:  9.79D-01  8.47D-01  6.61D-01  6.40D-01  5.35D-01
                    CP:  7.15D-01
 E= -705.670100839782     Delta-E=       -0.000018859107 Rises=F Damp=F
 DIIS: error= 7.75D-05 at cycle   7 NSaved=   7.
 NSaved= 7 IEnMin= 7 EnMin= -705.670100839782     IErMin= 7 ErrMin= 7.75D-05
 ErrMax= 7.75D-05  0.00D+00 EMaxC= 1.00D-01 BMatC= 4.67D-06 BMatP= 2.38D-05
 IDIUse=1 WtCom= 1.00D+00 WtEn= 0.00D+00
 Coeff-Com: -0.478D-04-0.154D-02 0.141D-01 0.340D-01 0.995D-01 0.394D+00
 Coeff-Com:  0.460D+00
 Coeff:     -0.478D-04-0.154D-02 0.141D-01 0.340D-01 0.995D-01 0.394D+00
 Coeff:      0.460D+00
 Gap=     0.194 Goal=   None    Shift=    0.000
 RMSDP=1.06D-05 MaxDP=2.90D-04 DE=-1.89D-05 OVMax= 7.72D-04

 Cycle   8  Pass 1  IDiag  1:
 RMSU=  3.59D-06    CP:  9.79D-01  8.46D-01  6.63D-01  6.44D-01  5.26D-01
                    CP:  7.47D-01  5.22D-01
 E= -705.670105444415     Delta-E=       -0.000004604633 Rises=F Damp=F
 DIIS: error= 1.06D-05 at cycle   8 NSaved=   8.
 NSaved= 8 IEnMin= 8 EnMin= -705.670105444415     IErMin= 8 ErrMin= 1.06D-05
 ErrMax= 1.06D-05  0.00D+00 EMaxC= 1.00D-01 BMatC= 6.90D-08 BMatP= 4.67D-06
 IDIUse=1 WtCom= 1.00D+00 WtEn= 0.00D+00
 Coeff-Com:  0.413D-05-0.444D-03 0.178D-02 0.434D-02 0.200D-01 0.927D-01
 Coeff-Com:  0.150D+00 0.732D+00
 Coeff:      0.413D-05-0.444D-03 0.178D-02 0.434D-02 0.200D-01 0.927D-01
 Coeff:      0.150D+00 0.732D+00
 Gap=     0.194 Goal=   None    Shift=    0.000
 RMSDP=1.69D-06 MaxDP=4.13D-05 DE=-4.60D-06 OVMax= 1.41D-04

 Cycle   9  Pass 1  IDiag  1:
 RMSU=  1.20D-06    CP:  9.79D-01  8.46D-01  6.63D-01  6.43D-01  5.29D-01
                    CP:  7.53D-01  5.49D-01  7.77D-01
 E= -705.670105494244     Delta-E=       -0.000000049829 Rises=F Damp=F
 DIIS: error= 5.40D-06 at cycle   9 NSaved=   9.
 NSaved= 9 IEnMin= 9 EnMin= -705.670105494244     IErMin= 9 ErrMin= 5.40D-06
 ErrMax= 5.40D-06  0.00D+00 EMaxC= 1.00D-01 BMatC= 1.80D-08 BMatP= 6.90D-08
 IDIUse=1 WtCom= 1.00D+00 WtEn= 0.00D+00
 Coeff-Com:  0.730D-05-0.976D-04-0.229D-03-0.660D-03 0.221D-02 0.154D-01
 Coeff-Com:  0.392D-01 0.393D+00 0.551D+00
 Coeff:      0.730D-05-0.976D-04-0.229D-03-0.660D-03 0.221D-02 0.154D-01
 Coeff:      0.392D-01 0.393D+00 0.551D+00
 Gap=     0.194 Goal=   None    Shift=    0.000
 RMSDP=6.79D-07 MaxDP=2.28D-05 DE=-4.98D-08 OVMax= 4.17D-05

 Cycle  10  Pass 1  IDiag  1:
 RMSU=  4.18D-07    CP:  9.79D-01  8.46D-01  6.63D-01  6.43D-01  5.29D-01
                    CP:  7.53D-01  5.47D-01  8.64D-01  6.49D-01
 E= -705.670105510008     Delta-E=       -0.000000015765 Rises=F Damp=F
 DIIS: error= 1.44D-06 at cycle  10 NSaved=  10.
 NSaved=10 IEnMin=10 EnMin= -705.670105510008     IErMin=10 ErrMin= 1.44D-06
 ErrMax= 1.44D-06  0.00D+00 EMaxC= 1.00D-01 BMatC= 1.22D-09 BMatP= 1.80D-08
 IDIUse=1 WtCom= 1.00D+00 WtEn= 0.00D+00
 Coeff-Com:  0.397D-05-0.173D-04-0.247D-03-0.660D-03-0.454D-03 0.294D-03
 Coeff-Com:  0.732D-02 0.137D+00 0.274D+00 0.582D+00
 Coeff:      0.397D-05-0.173D-04-0.247D-03-0.660D-03-0.454D-03 0.294D-03
 Coeff:      0.732D-02 0.137D+00 0.274D+00 0.582D+00
 Gap=     0.194 Goal=   None    Shift=    0.000
 RMSDP=1.93D-07 MaxDP=6.91D-06 DE=-1.58D-08 OVMax= 1.57D-05

 Cycle  11  Pass 1  IDiag  1:
 RMSU=  1.20D-07    CP:  9.79D-01  8.46D-01  6.63D-01  6.43D-01  5.29D-01
                    CP:  7.53D-01  5.49D-01  8.69D-01  7.13D-01  7.19D-01
 E= -705.670105511096     Delta-E=       -0.000000001088 Rises=F Damp=F
 DIIS: error= 4.09D-07 at cycle  11 NSaved=  11.
 NSaved=11 IEnMin=11 EnMin= -705.670105511096     IErMin=11 ErrMin= 4.09D-07
 ErrMax= 4.09D-07  0.00D+00 EMaxC= 1.00D-01 BMatC= 1.15D-10 BMatP= 1.22D-09
 IDIUse=1 WtCom= 1.00D+00 WtEn= 0.00D+00
 Coeff-Com:  0.104D-05 0.207D-05-0.953D-04-0.252D-03-0.449D-03-0.137D-02
 Coeff-Com: -0.495D-03 0.271D-01 0.750D-01 0.282D+00 0.618D+00
 Coeff:      0.104D-05 0.207D-05-0.953D-04-0.252D-03-0.449D-03-0.137D-02
 Coeff:     -0.495D-03 0.271D-01 0.750D-01 0.282D+00 0.618D+00
 Gap=     0.194 Goal=   None    Shift=    0.000
 RMSDP=6.35D-08 MaxDP=2.02D-06 DE=-1.09D-09 OVMax= 5.21D-06

 Cycle  12  Pass 1  IDiag  1:
 RMSU=  4.11D-08    CP:  9.79D-01  8.46D-01  6.63D-01  6.43D-01  5.29D-01
                    CP:  7.53D-01  5.49D-01  8.74D-01  7.19D-01  7.87D-01
                    CP:  7.27D-01
 E= -705.670105511197     Delta-E=       -0.000000000100 Rises=F Damp=F
 DIIS: error= 1.83D-07 at cycle  12 NSaved=  12.
 NSaved=12 IEnMin=12 EnMin= -705.670105511197     IErMin=12 ErrMin= 1.83D-07
 ErrMax= 1.83D-07  0.00D+00 EMaxC= 1.00D-01 BMatC= 1.29D-11 BMatP= 1.15D-10
 IDIUse=1 WtCom= 1.00D+00 WtEn= 0.00D+00
 Coeff-Com: -0.140D-07 0.278D-05-0.162D-04-0.392D-04-0.180D-03-0.758D-03
 Coeff-Com: -0.138D-02-0.508D-02-0.131D-02 0.590D-01 0.292D+00 0.657D+00
 Coeff:     -0.140D-07 0.278D-05-0.162D-04-0.392D-04-0.180D-03-0.758D-03
 Coeff:     -0.138D-02-0.508D-02-0.131D-02 0.590D-01 0.292D+00 0.657D+00
 Gap=     0.194 Goal=   None    Shift=    0.000
 RMSDP=2.24D-08 MaxDP=7.95D-07 DE=-1.00D-10 OVMax= 1.97D-06

 Cycle  13  Pass 1  IDiag  1:
 RMSU=  1.47D-08    CP:  9.79D-01  8.46D-01  6.63D-01  6.43D-01  5.29D-01
                    CP:  7.53D-01  5.50D-01  8.75D-01  7.24D-01  7.95D-01
                    CP:  8.11D-01  7.92D-01
 E= -705.670105511212     Delta-E=       -0.000000000015 Rises=F Damp=F
 DIIS: error= 3.93D-08 at cycle  13 NSaved=  13.
 NSaved=13 IEnMin=13 EnMin= -705.670105511212     IErMin=13 ErrMin= 3.93D-08
 ErrMax= 3.93D-08  0.00D+00 EMaxC= 1.00D-01 BMatC= 1.64D-12 BMatP= 1.29D-11
 IDIUse=1 WtCom= 1.00D+00 WtEn= 0.00D+00
 Coeff-Com: -0.728D-07 0.785D-06 0.378D-05 0.116D-04-0.294D-04-0.169D-03
 Coeff-Com: -0.572D-03-0.507D-02-0.918D-02-0.282D-02 0.732D-01 0.328D+00
 Coeff-Com:  0.616D+00
 Coeff:     -0.728D-07 0.785D-06 0.378D-05 0.116D-04-0.294D-04-0.169D-03
 Coeff:     -0.572D-03-0.507D-02-0.918D-02-0.282D-02 0.732D-01 0.328D+00
 Coeff:      0.616D+00
 Gap=     0.194 Goal=   None    Shift=    0.000
 RMSDP=7.51D-09 MaxDP=2.11D-07 DE=-1.53D-11 OVMax= 6.61D-07

 Error on total polarization charges =  0.00698
 SCF Done:  E(RB3LYP) =  -705.670105511     A.U. after   13 cycles
            NFock= 13  Conv=0.75D-08     -V/T= 2.0084
 KE= 6.997620483577D+02 PE=-3.452583057990D+03 EE= 1.137305510670D+03
 Leave Link  502 at Sun Jul 18 13:49:55 2021, MaxMem=   104857600 cpu:             469.6 elap:             121.4
 (Enter /dades/curu/g16A03_MST/g16/l601.exe)
 Copying SCF densities to generalized density rwf, IOpCl= 0 IROHF=0.

 **********************************************************************

            Population analysis using the SCF density.

 **********************************************************************

 Orbital symmetries:
       Occupied  (A) (A) (A) (A) (A) (A) (A) (A) (A) (A) (A) (A)
                 (A) (A) (A) (A) (A) (A) (A) (A) (A) (A) (A) (A)
                 (A) (A) (A) (A) (A) (A) (A) (A) (A) (A) (A) (A)
                 (A) (A) (A) (A) (A) (A) (A) (A) (A) (A) (A) (A)
                 (A) (A) (A) (A)
       Virtual   (A) (A) (A) (A) (A) (A) (A) (A) (A) (A) (A) (A)
                 (A) (A) (A) (A) (A) (A) (A) (A) (A) (A) (A) (A)
                 (A) (A) (A) (A) (A) (A) (A) (A) (A) (A) (A) (A)
                 (A) (A) (A) (A) (A) (A) (A) (A) (A) (A) (A) (A)
                 (A) (A) (A) (A) (A) (A) (A) (A) (A) (A) (A) (A)
                 (A) (A) (A) (A) (A) (A) (A) (A) (A) (A) (A) (A)
                 (A) (A) (A) (A) (A) (A) (A) (A) (A) (A) (A) (A)
                 (A) (A) (A) (A) (A) (A) (A) (A) (A) (A) (A) (A)
                 (A) (A) (A) (A) (A) (A) (A) (A) (A) (A) (A) (A)
                 (A) (A) (A) (A) (A) (A) (A) (A) (A) (A) (A) (A)
                 (A) (A) (A) (A) (A) (A) (A) (A) (A) (A) (A) (A)
                 (A) (A) (A) (A) (A) (A) (A) (A) (A) (A) (A) (A)
                 (A) (A) (A) (A) (A) (A) (A) (A) (A) (A) (A) (A)
                 (A) (A) (A) (A) (A) (A) (A) (A) (A) (A) (A) (A)
                 (A) (A) (A) (A) (A) (A) (A) (A) (A) (A) (A) (A)
                 (A) (A)
 The electronic state is 1-A.
 Alpha  occ. eigenvalues --  -19.24441 -19.18291 -19.17729 -19.16706 -14.47122
 Alpha  occ. eigenvalues --  -10.36145 -10.30011 -10.26752 -10.25567 -10.23377
 Alpha  occ. eigenvalues --  -10.20950 -10.20117 -10.19478 -10.19241  -1.18185
 Alpha  occ. eigenvalues --   -1.07258  -1.05367  -1.05071  -1.02959  -0.88306
 Alpha  occ. eigenvalues --   -0.82324  -0.76967  -0.75491  -0.70729  -0.65494
 Alpha  occ. eigenvalues --   -0.64316  -0.61708  -0.61641  -0.59557  -0.56021
 Alpha  occ. eigenvalues --   -0.54781  -0.54028  -0.52594  -0.51932  -0.50321
 Alpha  occ. eigenvalues --   -0.49134  -0.47160  -0.45216  -0.44574  -0.44033
 Alpha  occ. eigenvalues --   -0.42484  -0.41185  -0.40466  -0.39684  -0.37313
 Alpha  occ. eigenvalues --   -0.35494  -0.35013  -0.34353  -0.32195  -0.30819
 Alpha  occ. eigenvalues --   -0.26251  -0.22631
 Alpha virt. eigenvalues --   -0.03223  -0.01180  -0.00727   0.04036   0.06064
 Alpha virt. eigenvalues --    0.06699   0.07607   0.08174   0.09207   0.10843
 Alpha virt. eigenvalues --    0.11671   0.12673   0.13230   0.14862   0.15384
 Alpha virt. eigenvalues --    0.16532   0.17284   0.18833   0.22383   0.23000
 Alpha virt. eigenvalues --    0.23155   0.25875   0.28995   0.32650   0.33224
 Alpha virt. eigenvalues --    0.34461   0.35709   0.37598   0.45130   0.48112
 Alpha virt. eigenvalues --    0.49014   0.50838   0.51315   0.52467   0.53359
 Alpha virt. eigenvalues --    0.55110   0.56178   0.57136   0.57657   0.58435
 Alpha virt. eigenvalues --    0.59183   0.60678   0.61239   0.63670   0.64184
 Alpha virt. eigenvalues --    0.64816   0.65738   0.67394   0.68687   0.71520
 Alpha virt. eigenvalues --    0.73780   0.74811   0.75575   0.77627   0.77899
 Alpha virt. eigenvalues --    0.78692   0.78860   0.79983   0.81065   0.82050
 Alpha virt. eigenvalues --    0.83607   0.84405   0.85159   0.86139   0.86763
 Alpha virt. eigenvalues --    0.88939   0.89923   0.90331   0.92125   0.92495
 Alpha virt. eigenvalues --    0.94573   0.96114   0.96182   0.96927   0.97722
 Alpha virt. eigenvalues --    1.00868   1.02233   1.03987   1.05092   1.06390
 Alpha virt. eigenvalues --    1.07680   1.08282   1.10792   1.15524   1.18598
 Alpha virt. eigenvalues --    1.18725   1.19519   1.25111   1.26182   1.29775
 Alpha virt. eigenvalues --    1.34028   1.35970   1.36867   1.39588   1.40606
 Alpha virt. eigenvalues --    1.41785   1.43645   1.45061   1.46060   1.50315
 Alpha virt. eigenvalues --    1.51383   1.54619   1.61970   1.64917   1.67228
 Alpha virt. eigenvalues --    1.68272   1.69551   1.71466   1.72466   1.75346
 Alpha virt. eigenvalues --    1.77828   1.78979   1.79113   1.80404   1.82310
 Alpha virt. eigenvalues --    1.84435   1.85422   1.85937   1.88287   1.89803
 Alpha virt. eigenvalues --    1.90854   1.92089   1.95116   1.97554   1.97740
 Alpha virt. eigenvalues --    2.01616   2.04080   2.06140   2.08151   2.11465
 Alpha virt. eigenvalues --    2.13308   2.14812   2.17692   2.23142   2.23529
 Alpha virt. eigenvalues --    2.27025   2.28047   2.29783   2.32190   2.32442
 Alpha virt. eigenvalues --    2.34158   2.35366   2.36004   2.40086   2.43458
 Alpha virt. eigenvalues --    2.46962   2.47395   2.51172   2.52505   2.57282
 Alpha virt. eigenvalues --    2.57888   2.60925   2.62169   2.66667   2.69478
 Alpha virt. eigenvalues --    2.70000   2.75582   2.77272   2.80884   2.83724
 Alpha virt. eigenvalues --    2.86691   2.88489   2.92468   2.95539   3.00328
 Alpha virt. eigenvalues --    3.08444   3.19392   3.45621   3.74167   3.81214
 Alpha virt. eigenvalues --    3.84902   4.02727   4.08420   4.14038   4.15564
 Alpha virt. eigenvalues --    4.22890   4.29896   4.34355   4.39210   4.54186
 Alpha virt. eigenvalues --    4.58451   4.85827
          Condensed to atoms (all electrons):
               1          2          3          4          5          6
     1  N    6.696016   0.301126   0.303384   0.212452  -0.034299   0.000541
     2  H    0.301126   0.263175  -0.008632  -0.017368  -0.000059   0.000203
     3  H    0.303384  -0.008632   0.260203  -0.017715   0.003213  -0.000045
     4  C    0.212452  -0.017368  -0.017715   5.253512   0.291314  -0.079056
     5  C   -0.034299  -0.000059   0.003213   0.291314   4.349078   0.332797
     6  O    0.000541   0.000203  -0.000045  -0.079056   0.332797   8.101619
     7  H   -0.000207  -0.000038   0.000006   0.010747  -0.008743   0.226700
     8  O   -0.000174   0.001008   0.000085  -0.095896   0.548866  -0.094682
     9  H   -0.036898  -0.001140  -0.003729   0.353026  -0.032699   0.005917
    10  C   -0.039454   0.002896  -0.000202   0.328899  -0.030066  -0.001086
    11  H   -0.002326  -0.000050  -0.000247  -0.029358  -0.005950   0.000122
    12  H   -0.000755  -0.000051   0.002167  -0.036380   0.003984  -0.000066
    13  C    0.002788  -0.000054   0.000017  -0.035517  -0.001868   0.001674
    14  C    0.000005  -0.000001  -0.000002  -0.007197   0.005834  -0.000487
    15  H   -0.000027   0.000001  -0.000001   0.000173   0.001548  -0.000382
    16  C    0.000001  -0.000000  -0.000000  -0.000223  -0.000094  -0.000088
    17  O   -0.000000   0.000000   0.000000   0.000000  -0.000001   0.000000
    18  H    0.000000   0.000000   0.000000   0.000000  -0.000003   0.000000
    19  C   -0.000000  -0.000000  -0.000000   0.000009   0.000026   0.000001
    20  O   -0.000000  -0.000000  -0.000000   0.000000  -0.000000  -0.000000
    21  H   -0.000000   0.000000  -0.000000   0.000000   0.000000   0.000000
    22  C    0.000001  -0.000000   0.000000   0.000099  -0.000060  -0.000010
    23  H   -0.000000   0.000000  -0.000000  -0.000003  -0.000001   0.000000
    24  C    0.000069   0.000001   0.000008  -0.001697  -0.000959   0.000017
    25  H   -0.000076   0.000002   0.000013  -0.000060   0.000180  -0.000013
    26  H    0.294736  -0.009423  -0.009543  -0.018568  -0.002205   0.000122
               7          8          9         10         11         12
     1  N   -0.000207  -0.000174  -0.036898  -0.039454  -0.002326  -0.000755
     2  H   -0.000038   0.001008  -0.001140   0.002896  -0.000050  -0.000051
     3  H    0.000006   0.000085  -0.003729  -0.000202  -0.000247   0.002167
     4  C    0.010747  -0.095896   0.353026   0.328899  -0.029358  -0.036380
     5  C   -0.008743   0.548866  -0.032699  -0.030066  -0.005950   0.003984
     6  O    0.226700  -0.094682   0.005917  -0.001086   0.000122  -0.000066
     7  H    0.303430   0.012212  -0.000711  -0.000268  -0.000023   0.000007
     8  O    0.012212   8.103904   0.003705   0.001152   0.003053   0.000014
     9  H   -0.000711   0.003705   0.519378  -0.035292   0.004415  -0.004036
    10  C   -0.000268   0.001152  -0.035292   5.196872   0.360711   0.367607
    11  H   -0.000023   0.003053   0.004415   0.360711   0.533517  -0.035143
    12  H    0.000007   0.000014  -0.004036   0.367607  -0.035143   0.534170
    13  C    0.000122  -0.002329  -0.001523   0.327473  -0.028536  -0.024654
    14  C    0.000039  -0.000108   0.000563  -0.040355  -0.002226   0.002140
    15  H    0.000034   0.002044   0.000033  -0.012033   0.005421   0.000183
    16  C   -0.000013   0.000013   0.000006   0.005855   0.000272  -0.000134
    17  O    0.000000  -0.000000   0.000000  -0.000080  -0.000002   0.000001
    18  H    0.000000  -0.000001   0.000000  -0.000024   0.000005   0.000000
    19  C   -0.000001   0.000001  -0.000007   0.000657  -0.000004   0.000027
    20  O    0.000000   0.000000  -0.000000   0.000001  -0.000000  -0.000000
    21  H   -0.000000   0.000000  -0.000000   0.000000  -0.000000  -0.000000
    22  C   -0.000001  -0.000000  -0.000190   0.007415  -0.000185   0.000139
    23  H    0.000000  -0.000000   0.000007  -0.000268   0.000004  -0.000006
    24  C    0.000024  -0.000019   0.003766  -0.062295   0.003529  -0.004421
    25  H    0.000001  -0.000000   0.001846  -0.008546   0.000047   0.003284
    26  H   -0.000019   0.006780   0.004005  -0.002791   0.003912  -0.000529
              13         14         15         16         17         18
     1  N    0.002788   0.000005  -0.000027   0.000001  -0.000000   0.000000
     2  H   -0.000054  -0.000001   0.000001  -0.000000   0.000000   0.000000
     3  H    0.000017  -0.000002  -0.000001  -0.000000   0.000000   0.000000
     4  C   -0.035517  -0.007197   0.000173  -0.000223   0.000000   0.000000
     5  C   -0.001868   0.005834   0.001548  -0.000094  -0.000001  -0.000003
     6  O    0.001674  -0.000487  -0.000382  -0.000088   0.000000   0.000000
     7  H    0.000122   0.000039   0.000034  -0.000013   0.000000   0.000000
     8  O   -0.002329  -0.000108   0.002044   0.000013  -0.000000  -0.000001
     9  H   -0.001523   0.000563   0.000033   0.000006   0.000000   0.000000
    10  C    0.327473  -0.040355  -0.012033   0.005855  -0.000080  -0.000024
    11  H   -0.028536  -0.002226   0.005421   0.000272  -0.000002   0.000005
    12  H   -0.024654   0.002140   0.000183  -0.000134   0.000001   0.000000
    13  C    4.698772   0.501373  -0.039035  -0.012910   0.005293   0.000622
    14  C    0.501373   5.194267   0.345394   0.478630  -0.054388  -0.003145
    15  H   -0.039035   0.345394   0.571196  -0.037571  -0.005172   0.005022
    16  C   -0.012910   0.478630  -0.037571   4.662839   0.260059  -0.024273
    17  O    0.005293  -0.054388  -0.005172   0.260059   8.261412   0.244652
    18  H    0.000622  -0.003145   0.005022  -0.024273   0.244652   0.332833
    19  C   -0.031607  -0.064962   0.003918   0.487539  -0.045681   0.005086
    20  O    0.000029   0.003493  -0.000038  -0.046914   0.000787  -0.000097
    21  H    0.000139  -0.000272   0.000003   0.003839  -0.000054   0.000005
    22  C   -0.016069  -0.044728  -0.000024  -0.056105   0.002885  -0.000203
    23  H    0.004890   0.000896   0.000016   0.005069  -0.000047   0.000004
    24  C    0.550180  -0.057966   0.006953  -0.038766   0.000444   0.000024
    25  H   -0.046694   0.006266  -0.000192   0.000405   0.000002  -0.000001
    26  H   -0.000012   0.000009   0.000003   0.000000  -0.000000   0.000000
              19         20         21         22         23         24
     1  N   -0.000000  -0.000000  -0.000000   0.000001  -0.000000   0.000069
     2  H   -0.000000  -0.000000   0.000000  -0.000000   0.000000   0.000001
     3  H   -0.000000  -0.000000  -0.000000   0.000000  -0.000000   0.000008
     4  C    0.000009   0.000000   0.000000   0.000099  -0.000003  -0.001697
     5  C    0.000026  -0.000000   0.000000  -0.000060  -0.000001  -0.000959
     6  O    0.000001  -0.000000   0.000000  -0.000010   0.000000   0.000017
     7  H   -0.000001   0.000000  -0.000000  -0.000001   0.000000   0.000024
     8  O    0.000001   0.000000   0.000000  -0.000000  -0.000000  -0.000019
     9  H   -0.000007  -0.000000  -0.000000  -0.000190   0.000007   0.003766
    10  C    0.000657   0.000001   0.000000   0.007415  -0.000268  -0.062295
    11  H   -0.000004  -0.000000  -0.000000  -0.000185   0.000004   0.003529
    12  H    0.000027  -0.000000  -0.000000   0.000139  -0.000006  -0.004421
    13  C   -0.031607   0.000029   0.000139  -0.016069   0.004890   0.550180
    14  C   -0.064962   0.003493  -0.000272  -0.044728   0.000896  -0.057966
    15  H    0.003918  -0.000038   0.000003  -0.000024   0.000016   0.006953
    16  C    0.487539  -0.046914   0.003839  -0.056105   0.005069  -0.038766
    17  O   -0.045681   0.000787  -0.000054   0.002885  -0.000047   0.000444
    18  H    0.005086  -0.000097   0.000005  -0.000203   0.000004   0.000024
    19  C    4.657784   0.251415  -0.028544   0.516823  -0.045865  -0.031171
    20  O    0.251415   8.263413   0.250916  -0.062543  -0.005567   0.007661
    21  H   -0.028544   0.250916   0.336191  -0.007156   0.003821  -0.000001
    22  C    0.516823  -0.062543  -0.007156   5.083801   0.352573   0.456942
    23  H   -0.045865  -0.005567   0.003821   0.352573   0.578526  -0.034149
    24  C   -0.031171   0.007661  -0.000001   0.456942  -0.034149   5.034926
    25  H    0.004321  -0.000096  -0.000022  -0.033704  -0.007244   0.352916
    26  H   -0.000000  -0.000000  -0.000000  -0.000000   0.000000  -0.000001
              25         26
     1  N   -0.000076   0.294736
     2  H    0.000002  -0.009423
     3  H    0.000013  -0.009543
     4  C   -0.000060  -0.018568
     5  C    0.000180  -0.002205
     6  O   -0.000013   0.000122
     7  H    0.000001  -0.000019
     8  O   -0.000000   0.006780
     9  H    0.001846   0.004005
    10  C   -0.008546  -0.002791
    11  H    0.000047   0.003912
    12  H    0.003284  -0.000529
    13  C   -0.046694  -0.000012
    14  C    0.006266   0.000009
    15  H   -0.000192   0.000003
    16  C    0.000405   0.000000
    17  O    0.000002  -0.000000
    18  H   -0.000001   0.000000
    19  C    0.004321  -0.000000
    20  O   -0.000096  -0.000000
    21  H   -0.000022  -0.000000
    22  C   -0.033704  -0.000000
    23  H   -0.007244   0.000000
    24  C    0.352916  -0.000001
    25  H    0.588112  -0.000001
    26  H   -0.000001   0.271202
 Mulliken charges:
               1
     1  N   -0.696904
     2  H    0.468406
     3  H    0.471021
     4  C   -0.111193
     5  C    0.580168
     6  O   -0.493800
     7  H    0.456701
     8  O   -0.489627
     9  H    0.219557
    10  C   -0.366777
    11  H    0.189041
    12  H    0.192451
    13  C    0.147436
    14  C   -0.263071
    15  H    0.152534
    16  C    0.312564
    17  O   -0.670111
    18  H    0.439492
    19  C    0.320236
    20  O   -0.662461
    21  H    0.441134
    22  C   -0.199700
    23  H    0.147343
    24  C   -0.186014
    25  H    0.139251
    26  H    0.462321
 Sum of Mulliken charges =   1.00000
 Mulliken charges with hydrogens summed into heavy atoms:
               1
     1  N    0.704845
     4  C    0.108363
     5  C    0.580168
     6  O   -0.037098
     8  O   -0.489627
    10  C    0.014715
    13  C    0.147436
    14  C   -0.110537
    16  C    0.312564
    17  O   -0.230619
    19  C    0.320236
    20  O   -0.221327
    22  C   -0.052357
    24  C   -0.046763
 Electronic spatial extent (au):  <R**2>=           3216.8758
 Charge=              1.0000 electrons
 Dipole moment (field-independent basis, Debye):
    X=            -16.6461    Y=             -6.2235    Z=             -1.7328  Tot=             17.8557
 Quadrupole moment (field-independent basis, Debye-Ang):
   XX=            -22.4859   YY=            -58.8208   ZZ=            -72.9372
   XY=             12.5262   XZ=              1.2339   YZ=              3.9571
 Traceless Quadrupole moment (field-independent basis, Debye-Ang):
   XX=             28.9287   YY=             -7.4061   ZZ=            -21.5226
   XY=             12.5262   XZ=              1.2339   YZ=              3.9571
 Octapole moment (field-independent basis, Debye-Ang**2):
  XXX=           -270.3132  YYY=              7.2590  ZZZ=              0.7347  XYY=            -11.8733
  XXY=           -125.0340  XXZ=            -21.2137  XZZ=            -32.3957  YZZ=             13.5625
  YYZ=              5.4262  XYZ=            -26.4639
 Hexadecapole moment (field-independent basis, Debye-Ang**3):
 XXXX=          -1823.5145 YYYY=           -569.1953 ZZZZ=           -352.6691 XXXY=            113.0002
 XXXZ=             32.8165 YYYX=             76.7472 YYYZ=              3.9410 ZZZX=              0.6091
 ZZZY=             24.3244 XXYY=           -439.2630 XXZZ=           -476.2214 YYZZ=           -133.7253
 XXYZ=             52.9574 YYXZ=            -16.7259 ZZXY=             -1.8088
 N-N= 9.098453934514D+02 E-N=-3.452583058449D+03  KE= 6.997620483577D+02
 No NMR shielding tensors so no spin-rotation constants.
 Leave Link  601 at Sun Jul 18 13:49:56 2021, MaxMem=   104857600 cpu:               0.4 elap:               0.1
 (Enter /dades/curu/g16A03_MST/g16/l701.exe)
 ... and contract with generalized density number  0.
 Compute integral first derivatives.
 D1PCM: PCM CHGder 1st derivatives, ID1Alg=3 FixD1E=F DoIter=F DoCFld=F I1PDM=0.
 GePol: Maximum number of non-zero 1st derivatives   =     252
 Leave Link  701 at Sun Jul 18 13:49:58 2021, MaxMem=   104857600 cpu:               9.8 elap:               2.5
 (Enter /dades/curu/g16A03_MST/g16/l702.exe)
 L702 exits ... SP integral derivatives will be done elsewhere.
 Leave Link  702 at Sun Jul 18 13:49:58 2021, MaxMem=   104857600 cpu:               0.0 elap:               0.0
 (Enter /dades/curu/g16A03_MST/g16/l703.exe)
 Integral derivatives from FoFJK, PRISM(SPDF).
 Compute integral first derivatives, UseDBF=F ICtDFT=           0.
 Calling FoFJK, ICntrl=      2127 FMM=F ISym2X=0 I1Cent= 0 IOpClX= 0 NMat=1 NMatS=1 NMatT=0.
 FoFJK:  IHMeth= 1 ICntrl=    2127 DoSepK=F KAlg= 0 I1Cent=           0 FoldK=F
 IRaf=         0 NMat=       1 IRICut=       1 DoRegI=T DoRafI=F ISym2E= 0 IDoP0=0 IntGTp=1.
 FoFCou: FMM=F IPFlag=           0 FMFlag=      100000 FMFlg1=         800
         NFxFlg=           0 DoJE=F BraDBF=F KetDBF=F FulRan=T
         wScrn=  0.000000 ICntrl=      2127 IOpCl=  0 I1Cent=           0 NGrid=           0
         NMat0=    1 NMatS0=      1 NMatT0=    0 NMatD0=    1 NMtDS0=    0 NMtDT0=    0
 Symmetry not used in FoFCou.
 Leave Link  703 at Sun Jul 18 13:50:16 2021, MaxMem=   104857600 cpu:              69.2 elap:              17.4
 (Enter /dades/curu/g16A03_MST/g16/l716.exe)
 Dipole        =-6.54906080D+00-2.44849863D+00-6.81742855D-01
 ***** Axes restored to original set *****
 -------------------------------------------------------------------
 Center     Atomic                   Forces (Hartrees/Bohr)
 Number     Number              X              Y              Z
 -------------------------------------------------------------------
      1        7           0.034580727    0.006803669   -0.022878686
      2        1           0.002428091   -0.013360608    0.021956853
      3        1          -0.022465242   -0.011582524   -0.006134812
      4        6           0.020089435   -0.006435445   -0.016401951
      5        6          -0.082656405    0.051173610    0.018664074
      6        8           0.042105318   -0.043117699   -0.020876896
      7        1           0.015769684   -0.001983641   -0.002120000
      8        8          -0.003868147    0.005228430    0.007155484
      9        1          -0.005437052   -0.000468300   -0.000116172
     10        6           0.010342291   -0.003526719    0.001244317
     11        1           0.006678834   -0.000573907    0.007201668
     12        1          -0.000132042   -0.007294919    0.000894245
     13        6          -0.047031328   -0.030584151    0.023438081
     14        6           0.027745025    0.019397683    0.003567252
     15        1          -0.000745278    0.008198616   -0.007336520
     16        6           0.015729861    0.019888501   -0.017968310
     17        8          -0.000382263   -0.019336205   -0.007343084
     18        1          -0.005327907   -0.006515796   -0.001488058
     19        6           0.011082106    0.027189740    0.019440295
     20        8           0.014269300    0.021484924   -0.018607075
     21        1           0.009165814   -0.000937894   -0.004051272
     22        6          -0.021789228   -0.032757995   -0.009203618
     23        1           0.007077903    0.003071200   -0.002308877
     24        6          -0.015096366   -0.009214593    0.017708933
     25        1          -0.001364745    0.003029738    0.001676577
     26        1          -0.010768388    0.022224287    0.013887552
 -------------------------------------------------------------------
 Cartesian Forces:  Max     0.082656405 RMS     0.019702551
 Leave Link  716 at Sun Jul 18 13:50:16 2021, MaxMem=   104857600 cpu:               0.1 elap:               0.0
 (Enter /dades/curu/g16A03_MST/g16/l103.exe)

 GradGradGradGradGradGradGradGradGradGradGradGradGradGradGradGradGradGrad
 Berny optimization.
 FormGI is forming the generalized inverse of G from B-inverse, IUseBI=4.
 Internal  Forces:  Max     0.076435974 RMS     0.013826786
 Search for a local minimum.
 Step number   1 out of a maximum of  138
 All quantities printed in internal units (Hartrees-Bohrs-Radians)
 RMS Force = .13827D-01 SwitMx=.10000D-02 MixMth= 1
 Mixed Optimization -- RFO/linear search
 Second derivative matrix not updated -- first step.
 ITU=  0
     Eigenvalues ---    0.00230   0.00230   0.00305   0.00371   0.01112
     Eigenvalues ---    0.01691   0.01789   0.01914   0.02055   0.02185
     Eigenvalues ---    0.02350   0.02429   0.02478   0.02586   0.02643
     Eigenvalues ---    0.02696   0.03528   0.03559   0.04025   0.04691
     Eigenvalues ---    0.05190   0.05760   0.05763   0.05765   0.09076
     Eigenvalues ---    0.12617   0.15868   0.15884   0.15998   0.16000
     Eigenvalues ---    0.16000   0.16000   0.16000   0.16000   0.16000
     Eigenvalues ---    0.17048   0.18358   0.21752   0.22304   0.23478
     Eigenvalues ---    0.24514   0.24823   0.24962   0.24994   0.25000
     Eigenvalues ---    0.25000   0.25906   0.26965   0.29437   0.31874
     Eigenvalues ---    0.34465   0.34573   0.34618   0.35101   0.35169
     Eigenvalues ---    0.35178   0.39191   0.44931   0.46669   0.46855
     Eigenvalues ---    0.47580   0.47758   0.47771   0.50849   0.52539
     Eigenvalues ---    0.52589   0.52705   0.53022   0.54977   0.55208
     Eigenvalues ---    0.79239   0.95712
 RFO step:  Lambda=-5.54247257D-02 EMin= 2.30000000D-03
 Linear search not attempted -- first point.
 Maximum step size (   0.300) exceeded in Quadratic search.
    -- Step size scaled by   0.807
 Iteration  1 RMS(Cart)=  0.08017811 RMS(Int)=  0.00310029
 Iteration  2 RMS(Cart)=  0.00446246 RMS(Int)=  0.00025635
 Iteration  3 RMS(Cart)=  0.00001770 RMS(Int)=  0.00025616
 Iteration  4 RMS(Cart)=  0.00000000 RMS(Int)=  0.00025616
 ITry= 1 IFail=0 DXMaxC= 4.20D-01 DCOld= 1.00D+10 DXMaxT= 3.00D-01 DXLimC= 3.00D+00 Rises=F
 Variable       Old X    -DE/DX   Delta X   Delta X   Delta X     New X
                                 (Linear)    (Quad)   (Total)
    R1        1.89089   0.02468   0.00000   0.03751   0.03751   1.92840
    R2        1.88884   0.02567   0.00000   0.03887   0.03887   1.92771
    R3        2.84375   0.00179   0.00000   0.00385   0.00385   2.84761
    R4        1.88897   0.02763   0.00000   0.04186   0.04186   1.93083
    R5        2.96958  -0.02109   0.00000  -0.05415  -0.05415   2.91542
    R6        2.06373  -0.00032   0.00000  -0.00064  -0.00064   2.06310
    R7        2.94459  -0.01327   0.00000  -0.03296  -0.03296   2.91163
    R8        2.38328   0.07644   0.00000   0.07280   0.07280   2.45608
    R9        2.30407   0.00844   0.00000   0.00673   0.00673   2.31080
   R10        1.84087   0.00885   0.00000   0.01230   0.01230   1.85317
   R11        2.06553   0.00079   0.00000   0.00159   0.00159   2.06712
   R12        2.06300   0.00185   0.00000   0.00371   0.00371   2.06671
   R13        2.89100  -0.00260   0.00000  -0.00599  -0.00599   2.88501
   R14        2.54342   0.05256   0.00000   0.06912   0.06923   2.61265
   R15        2.61887   0.01185   0.00000   0.02004   0.02018   2.63905
   R16        2.05402  -0.00053   0.00000  -0.00104  -0.00104   2.05297
   R17        2.62625   0.01265   0.00000   0.01707   0.01702   2.64327
   R18        2.63179  -0.02302   0.00000  -0.03547  -0.03547   2.59632
   R19        2.70702  -0.02391   0.00000  -0.04440  -0.04457   2.66245
   R20        1.84040  -0.00528   0.00000  -0.00734  -0.00734   1.83306
   R21        2.55153   0.03055   0.00000   0.04076   0.04076   2.59229
   R22        2.55937   0.05004   0.00000   0.06788   0.06780   2.62717
   R23        1.83930  -0.00379   0.00000  -0.00526  -0.00526   1.83404
   R24        2.05512  -0.00129   0.00000  -0.00257  -0.00257   2.05255
   R25        2.56511   0.03901   0.00000   0.05536   0.05540   2.62051
   R26        2.05387  -0.00139   0.00000  -0.00276  -0.00276   2.05111
    A1        1.91064  -0.00566   0.00000  -0.02182  -0.02197   1.88867
    A2        1.91052   0.00814   0.00000   0.03088   0.03058   1.94110
    A3        1.91051  -0.00655   0.00000  -0.02319  -0.02361   1.88689
    A4        1.91056   0.00276   0.00000   0.00965   0.00952   1.92008
    A5        1.91067  -0.00465   0.00000  -0.01821  -0.01830   1.89237
    A6        1.91090   0.00597   0.00000   0.02268   0.02241   1.93331
    A7        1.93258  -0.00649   0.00000  -0.03112  -0.03125   1.90133
    A8        1.86942  -0.00040   0.00000   0.00292   0.00316   1.87258
    A9        1.94513   0.00467   0.00000   0.00581   0.00524   1.95036
   A10        1.84467   0.00589   0.00000   0.03638   0.03655   1.88122
   A11        1.96621  -0.00253   0.00000  -0.01575  -0.01604   1.95016
   A12        1.90020  -0.00091   0.00000   0.00507   0.00511   1.90531
   A13        2.07970  -0.02662   0.00000  -0.07030  -0.07032   2.00939
   A14        2.06462   0.00912   0.00000   0.02419   0.02418   2.08880
   A15        2.13845   0.01752   0.00000   0.04641   0.04640   2.18484
   A16        1.77759   0.02393   0.00000   0.08968   0.08968   1.86727
   A17        1.97728  -0.00898   0.00000  -0.04090  -0.04098   1.93629
   A18        1.92513  -0.00562   0.00000  -0.02112  -0.02136   1.90377
   A19        1.91845   0.01074   0.00000   0.02849   0.02866   1.94710
   A20        1.80837   0.00648   0.00000   0.03134   0.03092   1.83929
   A21        1.92749  -0.00173   0.00000  -0.00272  -0.00248   1.92501
   A22        1.90357  -0.00129   0.00000   0.00533   0.00548   1.90904
   A23        2.09830   0.00219   0.00000   0.00425   0.00415   2.10245
   A24        2.06429   0.01075   0.00000   0.02676   0.02663   2.09092
   A25        2.11918  -0.01292   0.00000  -0.03064  -0.03043   2.08876
   A26        2.04908   0.00320   0.00000   0.01838   0.01831   2.06739
   A27        2.09491   0.00866   0.00000   0.02123   0.02121   2.11612
   A28        2.13252  -0.01158   0.00000  -0.03740  -0.03751   2.09501
   A29        2.09281   0.01095   0.00000   0.03379   0.03381   2.12662
   A30        2.07213   0.00784   0.00000   0.01334   0.01302   2.08514
   A31        2.11235  -0.01852   0.00000  -0.04442  -0.04444   2.06791
   A32        1.95087  -0.01211   0.00000  -0.04539  -0.04539   1.90548
   A33        2.21716  -0.03491   0.00000  -0.09042  -0.09033   2.12682
   A34        2.06218   0.00019   0.00000  -0.00323  -0.00346   2.05872
   A35        2.00385   0.03472   0.00000   0.09367   0.09374   2.09759
   A36        1.81656   0.01678   0.00000   0.06288   0.06288   1.87943
   A37        2.10798  -0.00714   0.00000  -0.02848  -0.02874   2.07924
   A38        2.13553  -0.00078   0.00000   0.00241   0.00216   2.13770
   A39        2.03152   0.00838   0.00000   0.03042   0.03034   2.06186
   A40        2.07384  -0.00261   0.00000   0.00060   0.00076   2.07460
[...]
 Alpha  occ. eigenvalues --   -0.64437  -0.62795  -0.62276  -0.61906  -0.58195
 Alpha  occ. eigenvalues --   -0.44792  -0.41199
 Alpha virt. eigenvalues --   -0.10934  -0.07444  -0.07081  -0.05781  -0.04157
 Alpha virt. eigenvalues --   -0.03920  -0.03533  -0.03429  -0.02779  -0.02039
 Alpha virt. eigenvalues --   -0.01363  -0.00534  -0.00084   0.00003   0.00277
 Alpha virt. eigenvalues --    0.01033   0.01387   0.01737   0.02171   0.02816
 Alpha virt. eigenvalues --    0.02951   0.03492   0.03940   0.04125   0.04831
 Alpha virt. eigenvalues --    0.05134   0.05920   0.06306   0.06482   0.06786
 Alpha virt. eigenvalues --    0.06981   0.07231   0.07587   0.08130   0.08534
 Alpha virt. eigenvalues --    0.08971   0.09489   0.10147   0.10268   0.10962
 Alpha virt. eigenvalues --    0.11396   0.11839   0.12669   0.12986   0.13694
 Alpha virt. eigenvalues --    0.13757   0.14182   0.14804   0.15032   0.15950
 Alpha virt. eigenvalues --    0.16184   0.17321   0.17770   0.18397   0.19027
 Alpha virt. eigenvalues --    0.19182   0.19531   0.19989   0.21101   0.21342
 Alpha virt. eigenvalues --    0.21438   0.21926   0.22823   0.22943   0.23647
 Alpha virt. eigenvalues --    0.23681   0.23990   0.24342   0.24820   0.25337
 Alpha virt. eigenvalues --    0.25767   0.26234   0.26549   0.27025   0.27260
 Alpha virt. eigenvalues --    0.27831   0.28953   0.29206   0.29459   0.29861
 Alpha virt. eigenvalues --    0.30494   0.31945   0.32335   0.32725   0.33517
 Alpha virt. eigenvalues --    0.33805   0.34573   0.34815   0.35225   0.35660
 Alpha virt. eigenvalues --    0.35689   0.35971   0.36633   0.37521   0.37959
 Alpha virt. eigenvalues --    0.39012   0.39351   0.39678   0.40049   0.41083
 Alpha virt. eigenvalues --    0.41598   0.41644   0.42095   0.42447   0.42972
 Alpha virt. eigenvalues --    0.43863   0.44455   0.45892   0.45957   0.46415
 Alpha virt. eigenvalues --    0.47159   0.47492   0.48256   0.48901   0.48962
 Alpha virt. eigenvalues --    0.49430   0.49833   0.50982   0.51485   0.51761
 Alpha virt. eigenvalues --    0.52895   0.54013   0.54538   0.54769   0.55612
 Alpha virt. eigenvalues --    0.56365   0.57368   0.57753   0.58078   0.58635
 Alpha virt. eigenvalues --    0.59056   0.59195   0.60602   0.60840   0.61580
 Alpha virt. eigenvalues --    0.62014   0.62707   0.62876   0.63400   0.64114
 Alpha virt. eigenvalues --    0.64618   0.64941   0.65824   0.66836   0.66938
 Alpha virt. eigenvalues --    0.67689   0.68749   0.69074   0.70551   0.71562
 Alpha virt. eigenvalues --    0.71789   0.72592   0.73309   0.74597   0.75250
 Alpha virt. eigenvalues --    0.75497   0.76616   0.77069   0.78236   0.78534
 Alpha virt. eigenvalues --    0.79224   0.79905   0.80679   0.82094   0.82945
 Alpha virt. eigenvalues --    0.83340   0.84158   0.85001   0.86000   0.86339
 Alpha virt. eigenvalues --    0.87694   0.87927   0.88487   0.89759   0.90556
 Alpha virt. eigenvalues --    0.90828   0.91758   0.92966   0.93123   0.94293
 Alpha virt. eigenvalues --    0.95071   0.95623   0.96630   0.98236   0.98747
 Alpha virt. eigenvalues --    1.00718   1.01563   1.02045   1.02837   1.03388
 Alpha virt. eigenvalues --    1.04665   1.05784   1.06316   1.08455   1.08490
 Alpha virt. eigenvalues --    1.09668   1.11187   1.12241   1.12708   1.15264
 Alpha virt. eigenvalues --    1.16142   1.16804   1.18771   1.19741   1.20234
 Alpha virt. eigenvalues --    1.20867   1.21489   1.23403   1.24512   1.25759
 Alpha virt. eigenvalues --    1.27973   1.28931   1.31557   1.32502   1.32906
 Alpha virt. eigenvalues --    1.34629   1.36768   1.37667   1.38150   1.39520
 Alpha virt. eigenvalues --    1.40737   1.42077   1.42773   1.43979   1.44925
 Alpha virt. eigenvalues --    1.46132   1.46936   1.47779   1.49024   1.50805
 Alpha virt. eigenvalues --    1.53999   1.54706   1.55652   1.57690   1.57978
 Alpha virt. eigenvalues --    1.58781   1.59831   1.60587   1.61273   1.61789
 Alpha virt. eigenvalues --    1.62411   1.64772   1.64841   1.65657   1.66685
 Alpha virt. eigenvalues --    1.67727   1.69618   1.70443   1.71105   1.71591
 Alpha virt. eigenvalues --    1.73726   1.74427   1.75182   1.76510   1.78203
 Alpha virt. eigenvalues --    1.79335   1.79515   1.80170   1.81176   1.82179
 Alpha virt. eigenvalues --    1.83518   1.83609   1.86973   1.88845   1.89617
 Alpha virt. eigenvalues --    1.91058   1.91685   1.91876   1.92800   1.96351
 Alpha virt. eigenvalues --    1.97454   1.98887   1.99501   2.01106   2.01333
 Alpha virt. eigenvalues --    2.02010   2.03533   2.04440   2.05957   2.06347
 Alpha virt. eigenvalues --    2.07440   2.08402   2.09160   2.10696   2.11460
 Alpha virt. eigenvalues --    2.12593   2.13471   2.15085   2.15302   2.16276
 Alpha virt. eigenvalues --    2.17035   2.18596   2.19501   2.20704   2.21624
 Alpha virt. eigenvalues --    2.22353   2.24128   2.25832   2.27294   2.28233
 Alpha virt. eigenvalues --    2.29123   2.29712   2.31059   2.32083   2.33751
 Alpha virt. eigenvalues --    2.34945   2.36388   2.36885   2.38487   2.41220
 Alpha virt. eigenvalues --    2.42772   2.42982   2.44188   2.45593   2.47622
 Alpha virt. eigenvalues --    2.48016   2.49029   2.51190   2.52834   2.54224
 Alpha virt. eigenvalues --    2.56428   2.57799   2.59627   2.62570   2.63077
 Alpha virt. eigenvalues --    2.71098   2.71335   2.74854   2.75710   2.75988
 Alpha virt. eigenvalues --    2.78692   2.83644   2.84800   2.86731   2.90398
 Alpha virt. eigenvalues --    2.93058   2.96061   2.96285   2.98675   3.03274
 Alpha virt. eigenvalues --    3.04381   3.09027   3.10534   3.13004   3.16459
 Alpha virt. eigenvalues --    3.19132   3.20890   3.28213   3.31555   3.38509
 Alpha virt. eigenvalues --    3.40632   3.42036   3.52560   3.54542   3.56080
 Alpha virt. eigenvalues --    3.59279   3.62510   3.63592   3.64002   3.65840
 Alpha virt. eigenvalues --    3.67410   3.68711   3.70684   3.71396   3.73494
 Alpha virt. eigenvalues --    3.74038   3.75397   3.79965   3.85026   3.87231
 Alpha virt. eigenvalues --    3.94465   3.97694   4.03705   4.12261   4.19663
 Alpha virt. eigenvalues --    4.25174   4.39012   4.93663
          Condensed to atoms (all electrons):
               1          2          3          4          5          6
     1  N    7.136546   0.405183   0.387784  -1.607571   0.355679  -0.016828
     2  H    0.405183   0.581710  -0.080946  -0.000045  -0.023828  -0.001758
     3  H    0.387784  -0.080946   0.564635   0.024314  -0.018546   0.001186
     4  C   -1.607571  -0.000045   0.024314  11.991157  -2.124440   0.006816
     5  C    0.355679  -0.023828  -0.018546  -2.124440   5.806012  -0.096788
     6  O   -0.016828  -0.001758   0.001186   0.006816  -0.096788   8.465052
     7  H    0.003365   0.000112   0.000248  -0.010798  -0.017494   0.325648
     8  O   -0.039609   0.011227  -0.000025   0.141047   0.114665  -0.020009
     9  H   -0.056724  -0.038808  -0.015082  -0.237539   0.101842  -0.001571
    10  C    0.152268   0.011193  -0.058247   0.312020   0.017261   0.035258
    11  H   -0.056300   0.002889  -0.002505  -0.043684   0.027527  -0.014806
    12  H    0.034059  -0.001803  -0.001000  -0.266441   0.094022   0.009068
    13  C    0.294383   0.002084   0.002474  -0.952454   0.287933  -0.153013
    14  C    0.011836  -0.002047   0.013563  -0.930500   0.121928   0.083756
    15  H    0.009062  -0.000409  -0.000708  -0.102092   0.062433   0.004182
    16  C    0.029517   0.002163  -0.002447  -0.194605   0.196324   0.005637
    17  O   -0.000594  -0.000064   0.000070   0.013784  -0.012121  -0.001286
    18  H    0.000177   0.000026   0.000003   0.000993  -0.000652  -0.000102
    19  C   -0.005695  -0.000955   0.001167  -0.143104   0.008066   0.003343
    20  O   -0.000033   0.000005   0.000018   0.004186  -0.001784  -0.000393
    21  H    0.000007  -0.000003   0.000009  -0.001221   0.000293   0.000089
    22  C    0.024476   0.001375  -0.004827   0.100758   0.048927   0.011270
    23  H    0.000330  -0.000007  -0.000130   0.001697   0.000114  -0.000770
    24  C    0.022253  -0.001986  -0.006006  -0.572095  -0.146059   0.091366
    25  H    0.017795   0.001575  -0.000180  -0.085934   0.040350   0.003614
    26  H    0.424499  -0.052555  -0.030297  -0.134820   0.002907   0.001204
               7          8          9         10         11         12
     1  N    0.003365  -0.039609  -0.056724   0.152268  -0.056300   0.034059
     2  H    0.000112   0.011227  -0.038808   0.011193   0.002889  -0.001803
     3  H    0.000248  -0.000025  -0.015082  -0.058247  -0.002505  -0.001000
     4  C   -0.010798   0.141047  -0.237539   0.312020  -0.043684  -0.266441
     5  C   -0.017494   0.114665   0.101842   0.017261   0.027527   0.094022
     6  O    0.325648  -0.020009  -0.001571   0.035258  -0.014806   0.009068
     7  H    0.491435  -0.047399  -0.006037  -0.007624   0.000356   0.001046
     8  O   -0.047399   8.602449  -0.017255   0.018179   0.017739  -0.002266
     9  H   -0.006037  -0.017255   1.491973   0.040347   0.058449  -0.021658
    10  C   -0.007624   0.018179   0.040347   8.098183  -0.115921  -0.084059
    11  H    0.000356   0.017739   0.058449  -0.115921   1.571485  -0.272867
    12  H    0.001046  -0.002266  -0.021658  -0.084059  -0.272867   1.396620
    13  C    0.016909  -0.039307   0.025971  -0.538108  -0.055446   0.021322
    14  C   -0.003951   0.033146  -0.001245  -1.607458   0.421177  -0.215279
    15  H    0.002082  -0.000417   0.001442   0.112762  -0.059176   0.025285
    16  C   -0.001771  -0.009068  -0.006403   0.023239   0.137714  -0.054317
    17  O    0.000115   0.000621   0.000981   0.023334  -0.000083   0.000008
    18  H   -0.000131  -0.000012  -0.000105  -0.000472   0.001041  -0.000789
    19  C   -0.002372   0.003194  -0.004730  -0.133640   0.028782   0.020809
    20  O    0.000182   0.000030   0.000832   0.018960   0.001660  -0.000349
    21  H   -0.000061   0.000003  -0.000370  -0.007187  -0.000177  -0.000114
    22  C    0.002590  -0.006939   0.006664   0.182991  -0.095605   0.112935
    23  H    0.000144  -0.000091   0.000853   0.058645  -0.000455   0.000525
    24  C    0.001753  -0.003865  -0.066975  -0.874895  -0.417356   0.348012
    25  H    0.001273   0.000553  -0.030468  -0.071247   0.009242   0.002897
    26  H   -0.000194   0.002439   0.012678   0.009960   0.003236   0.000424
              13         14         15         16         17         18
     1  N    0.294383   0.011836   0.009062   0.029517  -0.000594   0.000177
     2  H    0.002084  -0.002047  -0.000409   0.002163  -0.000064   0.000026
     3  H    0.002474   0.013563  -0.000708  -0.002447   0.000070   0.000003
     4  C   -0.952454  -0.930500  -0.102092  -0.194605   0.013784   0.000993
     5  C    0.287933   0.121928   0.062433   0.196324  -0.012121  -0.000652
     6  O   -0.153013   0.083756   0.004182   0.005637  -0.001286  -0.000102
     7  H    0.016909  -0.003951   0.002082  -0.001771   0.000115  -0.000131
     8  O   -0.039307   0.033146  -0.000417  -0.009068   0.000621  -0.000012
     9  H    0.025971  -0.001245   0.001442  -0.006403   0.000981  -0.000105
    10  C   -0.538108  -1.607458   0.112762   0.023239   0.023334  -0.000472
    11  H   -0.055446   0.421177  -0.059176   0.137714  -0.000083   0.001041
    12  H    0.021322  -0.215279   0.025285  -0.054317   0.000008  -0.000789
    13  C   18.422531  -6.036583   1.013210   2.492539  -0.094698  -0.000122
    14  C   -6.036583  21.157375  -1.912553  -5.934494   0.615640  -0.062452
    15  H    1.013210  -1.912553   2.350800   0.744271  -0.139017   0.013500
    16  C    2.492539  -5.934494   0.744271  14.110025  -1.052049   0.006027
    17  O   -0.094698   0.615640  -0.139017  -1.052049   9.107757   0.271657
    18  H   -0.000122  -0.062452   0.013500   0.006027   0.271657   0.564305
    19  C   -5.520938   3.971110  -0.437747  -3.336154   0.306195  -0.017804
    20  O    0.278133  -0.232566  -0.009010   0.362157  -0.078391   0.012360
    21  H   -0.052589   0.074662  -0.001043  -0.126680   0.012795  -0.001507
    22  C    2.732274  -5.974665   0.190468   3.579987  -0.264976   0.056877
    23  H   -0.321955   0.131534   0.015388  -0.243815  -0.003883  -0.001742
    24  C   -7.859237   1.550935  -0.046184  -5.164964   0.183724  -0.038982
    25  H    0.946254   0.012156  -0.028690   0.133566   0.002930   0.000481
    26  H    0.012988  -0.003742   0.002783   0.000138  -0.000090  -0.000088
              19         20         21         22         23         24
     1  N   -0.005695  -0.000033   0.000007   0.024476   0.000330   0.022253
     2  H   -0.000955   0.000005  -0.000003   0.001375  -0.000007  -0.001986
     3  H    0.001167   0.000018   0.000009  -0.004827  -0.000130  -0.006006
     4  C   -0.143104   0.004186  -0.001221   0.100758   0.001697  -0.572095
     5  C    0.008066  -0.001784   0.000293   0.048927   0.000114  -0.146059
     6  O    0.003343  -0.000393   0.000089   0.011270  -0.000770   0.091366
     7  H   -0.002372   0.000182  -0.000061   0.002590   0.000144   0.001753
     8  O    0.003194   0.000030   0.000003  -0.006939  -0.000091  -0.003865
     9  H   -0.004730   0.000832  -0.000370   0.006664   0.000853  -0.066975
    10  C   -0.133640   0.018960  -0.007187   0.182991   0.058645  -0.874895
    11  H    0.028782   0.001660  -0.000177  -0.095605  -0.000455  -0.417356
    12  H    0.020809  -0.000349  -0.000114   0.112935   0.000525   0.348012
    13  C   -5.520938   0.278133  -0.052589   2.732274  -0.321955  -7.859237
    14  C    3.971110  -0.232566   0.074662  -5.974665   0.131534   1.550935
    15  H   -0.437747  -0.009010  -0.001043   0.190468   0.015388  -0.046184
    16  C   -3.336154   0.362157  -0.126680   3.579987  -0.243815  -5.164964
    17  O    0.306195  -0.078391   0.012795  -0.264976  -0.003883   0.183724
    18  H   -0.017804   0.012360  -0.001507   0.056877  -0.001742  -0.038982
    19  C   12.966158  -1.158134   0.050784  -5.992691   1.120395   3.615018
    20  O   -1.158134   9.131969   0.259074   0.650774  -0.132575  -0.196050
    21  H    0.050784   0.259074   0.571798  -0.084739   0.018993   0.077091
    22  C   -5.992691   0.650774  -0.084739  16.001640  -1.366102  -4.829943
    23  H    1.120395  -0.132575   0.018993  -1.366102   1.945330   0.490392
    24  C    3.615018  -0.196050   0.077091  -4.829943   0.490392  20.994921
    25  H   -0.328314   0.002739  -0.001304   0.440921  -0.104744  -1.393587
    26  H    0.000542  -0.000039   0.000005   0.001048  -0.000004   0.007800
              25         26
     1  N    0.017795   0.424499
     2  H    0.001575  -0.052555
     3  H   -0.000180  -0.030297
     4  C   -0.085934  -0.134820
     5  C    0.040350   0.002907
     6  O    0.003614   0.001204
     7  H    0.001273  -0.000194
     8  O    0.000553   0.002439
     9  H   -0.030468   0.012678
    10  C   -0.071247   0.009960
    11  H    0.009242   0.003236
    12  H    0.002897   0.000424
    13  C    0.946254   0.012988
    14  C    0.012156  -0.003742
    15  H   -0.028690   0.002783
    16  C    0.133566   0.000138
    17  O    0.002930  -0.000090
    18  H    0.000481  -0.000088
    19  C   -0.328314   0.000542
    20  O    0.002739  -0.000039
    21  H   -0.001304   0.000005
    22  C    0.440921   0.001048
    23  H   -0.104744  -0.000004
    24  C   -1.393587   0.007800
    25  H    2.131124  -0.000056
    26  H   -0.000056   0.471023
 Mulliken charges:
               1
     1  N   -0.525863
     2  H    0.185670
     3  H    0.225477
     4  C    0.810573
     5  C    1.155426
     6  O   -0.740164
     7  H    0.250575
     8  O   -0.759029
     9  H   -0.237062
    10  C    0.384258
    11  H   -0.146914
    12  H   -0.146087
    13  C    1.075445
    14  C    0.718715
    15  H   -0.810622
    16  C    0.303462
    17  O   -0.892358
    18  H    0.197514
    19  C    0.986716
    20  O   -0.913754
    21  H    0.211392
    22  C    0.474514
    23  H   -0.608068
    24  C    0.234918
    25  H   -0.702946
    26  H    0.268211
 Sum of Mulliken charges =   1.00000
 Mulliken charges with hydrogens summed into heavy atoms:
               1
     1  N    0.153495
     4  C    0.573511
     5  C    1.155426
     6  O   -0.489589
     8  O   -0.759029
    10  C    0.091257
    13  C    1.075445
    14  C   -0.091907
    16  C    0.303462
    17  O   -0.694844
    19  C    0.986716
    20  O   -0.702362
    22  C   -0.133554
    24  C   -0.468027
 Electronic spatial extent (au):  <R**2>=           3229.2401
 Charge=              1.0000 electrons
 Dipole moment (field-independent basis, Debye):
    X=            -13.6957    Y=             -5.0426    Z=             -0.5561  Tot=             14.6051
 Quadrupole moment (field-independent basis, Debye-Ang):
   XX=            -23.4865   YY=            -66.5481   ZZ=            -71.1896
   XY=             10.3651   XZ=              9.3971   YZ=             -0.9270
 Traceless Quadrupole moment (field-independent basis, Debye-Ang):
   XX=             30.2549   YY=            -12.8067   ZZ=            -17.4482
   XY=             10.3651   XZ=              9.3971   YZ=             -0.9270
 Octapole moment (field-independent basis, Debye-Ang**2):
  XXX=           -240.9627  YYY=              7.5951  ZZZ=              6.1466  XYY=             -4.5796
  XXY=           -109.0944  XXZ=              4.7830  XZZ=            -16.9422  YZZ=             17.7051
  YYZ=              6.6450  XYZ=            -31.7303
 Hexadecapole moment (field-independent basis, Debye-Ang**3):
 XXXX=          -1850.0186 YYYY=           -611.9448 ZZZZ=           -363.4571 XXXY=            102.0003
 XXXZ=            213.2034 YYYX=             72.9230 YYYZ=             -9.4792 ZZZX=             13.9271
 ZZZY=             14.8809 XXYY=           -524.8863 XXZZ=           -448.6029 YYZZ=           -126.8621
 XXYZ=            -21.2220 YYXZ=             -1.6331 ZZXY=             -1.4907
 N-N= 9.082356861424D+02 E-N=-3.447970866388D+03  KE= 7.005602641853D+02
 Leave Link  601 at Sun Jul 18 15:46:15 2021, MaxMem=   262144000 cpu:               0.4 elap:              13.7
 (Enter /dades/curu/g16A03_MST/g16/l9999.exe)
 1\1\GINC-PIRINEUSGPU1\SP\RMP2-FC\Aug-CC-pVDZ\C9H12N1O4(1+)\UBATOR02\18
 -Jul-2021\0\\#p mp2/aug-cc-pVDZ scf=tight maxdisk=180GB geom=allcheck\
 \SET_328_BBB292_conf1.geo_255_060_255 geometry\\1,1\N,0,-1.9607202664,
 -0.8204718657,2.9954577441\H,0,-1.7346537894,-1.5241113445,3.713009064
 1\H,0,-2.9202625927,-1.0188056472,2.6816725558\C,0,-0.9776676923,-0.82
 9585384,1.8556812477\C,0,0.3683279376,-0.3816906973,2.4217963756\O,0,1
 .3785605523,-1.0311285715,1.847079333\H,0,2.2203599857,-0.6687182547,2
 .1916816182\O,0,0.4724875566,0.4795115105,3.2684501597\H,0,-0.91051760
 57,-1.8541471061,1.4917252356\C,0,-1.4696381935,0.1246917238,0.7406369
 63\H,0,-1.5920043556,1.1218388647,1.1739336309\H,0,-2.4588007292,-0.22
 02886188,0.4237598342\C,0,-0.5458925153,0.2018954549,-0.453887643\C,0,
 0.2965475808,1.3110266798,-0.6125462863\H,0,0.2762504658,2.1109672296,
 0.1225864698\C,0,1.1531144656,1.4195635128,-1.7042943096\O,0,1.9832097
 497,2.4805274931,-1.9096086743\H,0,1.8620970973,3.1211666319,-1.191457
 7709\C,0,1.1790994347,0.393280033,-2.6697319361\O,0,2.034788246,0.5548
 934351,-3.7165055194\H,0,1.9587586957,-0.2089764754,-4.3105915232\C,0,
 0.3399534313,-0.7082934022,-2.5146893378\H,0,0.3529883116,-1.491672162
 6,-3.2648601913\C,0,-0.5194143454,-0.8059584679,-1.4182053161\H,0,-1.1
 720756313,-1.6685464793,-1.33043623\H,0,-1.9758957936,0.0950319078,3.4
 713445062\\Version=ES64L-G16RevA.03\State=1-A\HF=-701.5891588\MP2=-703
 .7888424\RMSD=4.181e-09\PG=C01 [X(C9H12N1O4)]\\@


 WE STILL HAVE JUDGEMENT HERE,
 THAT WE TEACH BUT BLOODY INSTRUCTIONS,
 WHICH, BEING TAUGHT,
 RETURN TO PLAGUE THE INVENTOR.
           MACBETH ACT I, SCENE VII
 Job cpu time:       0 days  1 hours 12 minutes 33.6 seconds.
 Elapsed time:       0 days  0 hours 58 minutes 12.2 seconds.
 File lengths (MBytes):  RWF=  27454 Int=      0 D2E=      0 Chk=     16 Scr=      1
 Normal termination of Gaussian 16 at Sun Jul 18 15:46:58 2021.
