 Entering Gaussian System, Link 0=g16
 Input=SET_328_BBB321_conf1.geo_030_210_300_OCTANOL.dat
 Output=SET_328_BBB321_conf1.geo_030_210_300_OCTANOL.log
 Initial command:
 /dades/curu/g16A03_MST/g16/l1.exe "/tmp/ubator02/1839679/Gau-72112.inp" -scrdir="/tmp/ubator02/1839679/"
 Entering Link 1 = /dades/curu/g16A03_MST/g16/l1.exe PID=     72113.
  
 Copyright (c) 1988,1990,1992,1993,1995,1998,2003,2009,2016,
            Gaussian, Inc.  All Rights Reserved.
  
 This is part of the Gaussian(R) 16 program.  It is based on
 the Gaussian(R) 09 system (copyright 2009, Gaussian, Inc.),
 the Gaussian(R) 03 system (copyright 2003, Gaussian, Inc.),
 the Gaussian(R) 98 system (copyright 1998, Gaussian, Inc.),
 the Gaussian(R) 94 system (copyright 1995, Gaussian, Inc.),
 the Gaussian 92(TM) system (copyright 1992, Gaussian, Inc.),
 the Gaussian 90(TM) system (copyright 1990, Gaussian, Inc.),
 the Gaussian 88(TM) system (copyright 1988, Gaussian, Inc.),
 the Gaussian 86(TM) system (copyright 1986, Carnegie Mellon
 University), and the Gaussian 82(TM) system (copyright 1983,
 Carnegie Mellon University). Gaussian is a federally registered
 trademark of Gaussian, Inc.
  
 This software contains proprietary and confidential information,
 including trade secrets, belonging to Gaussian, Inc.
  
 This software is provided under written license and may be
 used, copied, transmitted, or stored only in accord with that
 written license.
  
 The following legend is applicable only to US Government
 contracts under FAR:
  
                    RESTRICTED RIGHTS LEGEND
  
 Use, reproduction and disclosure by the US Government is
 subject to restrictions as set forth in subparagraphs (a)
 and (c) of the Commercial Computer Software - Restricted
 Rights clause in FAR 52.227-19.
  
 Gaussian, Inc.
 340 Quinnipiac St., Bldg. 40, Wallingford CT 06492
  
  
 ---------------------------------------------------------------
 Warning -- This program may not be used in any manner that
 competes with the business of Gaussian, Inc. or will provide
 assistance to any competitor of Gaussian, Inc.  The licensee
 of this program is prohibited from giving any competitor of
 Gaussian, Inc. access to this program.  By using this program,
 the user acknowledges that Gaussian, Inc. is engaged in the
 business of creating and licensing software in the field of
 computational chemistry and represents and warrants to the
 licensee that it is not a competitor of Gaussian, Inc. and that
 it will not use this program in any manner prohibited above.
 ---------------------------------------------------------------
  

 Cite this work as:
 Gaussian 16, Revision A.03,
 M. J. Frisch, G. W. Trucks, H. B. Schlegel, G. E. Scuseria, 
 M. A. Robb, J. R. Cheeseman, G. Scalmani, V. Barone, 
 G. A. Petersson, H. Nakatsuji, X. Li, M. Caricato, A. V. Marenich, 
 J. Bloino, B. G. Janesko, R. Gomperts, B. Mennucci, H. P. Hratchian, 
 J. V. Ortiz, A. F. Izmaylov, J. L. Sonnenberg, D. Williams-Young, 
 F. Ding, F. Lipparini, F. Egidi, J. Goings, B. Peng, A. Petrone, 
 T. Henderson, D. Ranasinghe, V. G. Zakrzewski, J. Gao, N. Rega, 
 G. Zheng, W. Liang, M. Hada, M. Ehara, K. Toyota, R. Fukuda, 
 J. Hasegawa, M. Ishida, T. Nakajima, Y. Honda, O. Kitao, H. Nakai, 
 T. Vreven, K. Throssell, J. A. Montgomery, Jr., J. E. Peralta, 
 F. Ogliaro, M. J. Bearpark, J. J. Heyd, E. N. Brothers, K. N. Kudin, 
 V. N. Staroverov, T. A. Keith, R. Kobayashi, J. Normand, 
 K. Raghavachari, A. P. Rendell, J. C. Burant, S. S. Iyengar, 
 J. Tomasi, M. Cossi, J. M. Millam, M. Klene, C. Adamo, R. Cammi, 
 J. W. Ochterski, R. L. Martin, K. Morokuma, O. Farkas, 
 J. B. Foresman, and D. J. Fox, Gaussian, Inc., Wallingford CT, 2016.
 
 ******************************************
 Gaussian 16:  ES64L-G16RevA.03 25-Dec-2016
                18-Jul-2021 
 ******************************************
 %mem=800MB
 %nproc=4
 Will use up to    4 processors via shared memory.
 %chk=SET_328_BBB321_conf1.geo_030_210_300.chk
 ---------------------------------------------------------------
 #p b3lyp/6-31G(d) opt freq scrf=(iefpcm,read,solvent=n-octanol)
 ---------------------------------------------------------------
 1/18=20,19=15,26=3,38=1,40=2/1,3;
 2/9=110,12=2,17=6,18=5,40=1/2;
 3/5=1,6=6,7=1,11=2,25=1,30=1,70=2203,71=1,72=25,74=-5/1,2,3;
 4//1;
 5/5=2,38=5,53=25/2;
 6/7=2,8=2,9=2,10=2,28=1/1;
 7//1,2,3,16;
 1/18=20,19=15,26=3/3(2);
 2/9=110/2;
 99//99;
 2/9=110/2;
 3/5=1,6=6,7=1,11=2,25=1,30=1,70=2205,71=1,72=25,74=-5/1,2,3;
 4/5=5,16=3,69=1/1;
 5/5=2,38=5,53=25/2;
 7//1,2,3,16;
 1/18=20,19=15,26=3/3(-5);
 2/9=110/2;
 6/7=2,8=2,9=2,10=2,19=2,28=1/1;
 99/9=1/99;
 Leave Link    1 at Sun Jul 18 15:50:40 2021, MaxMem=   104857600 cpu:               0.0 elap:               0.0
 (Enter /dades/curu/g16A03_MST/g16/l101.exe)
 ---------------------------------------------
 SET_328_BBB321_conf1.geo_030_210_300 geometry
 ---------------------------------------------
 Symbolic Z-matrix:
 Charge =  1 Multiplicity = 1
 C                     1.652    -0.879    -5.6 
 H                     2.684    -0.606    -5.831 
 H                     0.944    -0.066    -5.774 
 H                     1.222    -1.566    -6.331 
 C                     1.598    -1.415    -4.214 
 O                     1.076    -2.426    -3.804 
 N                     2.127    -0.529    -3.355 
 H                     2.49      0.354    -3.681 
 C                     2.014    -0.489    -1.973 
 C                     3.164    -0.688    -1.237 
 C                     3.136    -0.582     0.165 
 C                     1.896    -0.264     0.745 
 H                     1.91     -0.113     1.822 
 H                     4.007    -0.715     0.802 
 H                     4.106    -0.933    -1.723 
 C                     0.778    -0.312    -1.429 
 H                    -0.101    -0.339    -2.068 
 C                     0.739    -0.082    -0.031 
 C                    -0.471     0.204     0.672 
 N                    -0.531     0.886     1.886 
 C                    -1.692    -0.187     0.282 
 H                    -1.9      -0.875    -0.528 
 S                    -2.95      0.247     1.347 
 C                    -1.717     0.68      2.431 
 N                    -2.172     1.364     3.564 
 C                    -3.296     1.186     4.037 
 N                    -3.585     2.078     4.907 
 H                    -2.868     2.682     4.52 
 H                    -4.519     2.377     4.648 
 N                    -3.272     0.181     4.888 
 H                    -4.055     0.435     5.481 
 H                    -2.413     0.393     5.383 
 H                    -1.562     2.022     4.006 
 
 ITRead=  0  0  0  0  0  0  0  0  0  0  0  0  0  0  0  0  0  0  0  0
 ITRead=  0  0  0  0  0  0  0  0  0  0  0  0  0
 MicOpt= -1 -1 -1 -1 -1 -1 -1 -1 -1 -1 -1 -1 -1 -1 -1 -1 -1 -1 -1 -1
 MicOpt= -1 -1 -1 -1 -1 -1 -1 -1 -1 -1 -1 -1 -1
 NAtoms=     33 NQM=       33 NQMF=       0 NMMI=      0 NMMIF=      0
                NMic=       0 NMicF=      0.
                    Isotopes and Nuclear Properties:
 (Nuclear quadrupole moments (NQMom) in fm**2, nuclear magnetic moments (NMagM)
  in nuclear magnetons)

  Atom         1           2           3           4           5           6           7           8           9          10
 IAtWgt=          12           1           1           1          12          16          14           1          12          12
 AtmWgt=  12.0000000   1.0078250   1.0078250   1.0078250  12.0000000  15.9949146  14.0030740   1.0078250  12.0000000  12.0000000
 NucSpn=           0           1           1           1           0           0           2           1           0           0
 AtZEff=  -0.0000000  -0.0000000  -0.0000000  -0.0000000  -0.0000000  -0.0000000  -0.0000000  -0.0000000  -0.0000000  -0.0000000
 NQMom=    0.0000000   0.0000000   0.0000000   0.0000000   0.0000000   0.0000000   2.0440000   0.0000000   0.0000000   0.0000000
 NMagM=    0.0000000   2.7928460   2.7928460   2.7928460   0.0000000   0.0000000   0.4037610   2.7928460   0.0000000   0.0000000
 AtZNuc=   6.0000000   1.0000000   1.0000000   1.0000000   6.0000000   8.0000000   7.0000000   1.0000000   6.0000000   6.0000000

  Atom        11          12          13          14          15          16          17          18          19          20
 IAtWgt=          12          12           1           1           1          12           1          12          12          14
 AtmWgt=  12.0000000  12.0000000   1.0078250   1.0078250   1.0078250  12.0000000   1.0078250  12.0000000  12.0000000  14.0030740
 NucSpn=           0           0           1           1           1           0           1           0           0           2
 AtZEff=  -0.0000000  -0.0000000  -0.0000000  -0.0000000  -0.0000000  -0.0000000  -0.0000000  -0.0000000  -0.0000000  -0.0000000
 NQMom=    0.0000000   0.0000000   0.0000000   0.0000000   0.0000000   0.0000000   0.0000000   0.0000000   0.0000000   2.0440000
 NMagM=    0.0000000   0.0000000   2.7928460   2.7928460   2.7928460   0.0000000   2.7928460   0.0000000   0.0000000   0.4037610
 AtZNuc=   6.0000000   6.0000000   1.0000000   1.0000000   1.0000000   6.0000000   1.0000000   6.0000000   6.0000000   7.0000000

  Atom        21          22          23          24          25          26          27          28          29          30
 IAtWgt=          12           1          32          12          14          12          14           1           1          14
 AtmWgt=  12.0000000   1.0078250  31.9720718  12.0000000  14.0030740  12.0000000  14.0030740   1.0078250   1.0078250  14.0030740
 NucSpn=           0           1           0           0           2           0           2           1           1           2
 AtZEff=  -0.0000000  -0.0000000  -0.0000000  -0.0000000  -0.0000000  -0.0000000  -0.0000000  -0.0000000  -0.0000000  -0.0000000
 NQMom=    0.0000000   0.0000000   0.0000000   0.0000000   2.0440000   0.0000000   2.0440000   0.0000000   0.0000000   2.0440000
 NMagM=    0.0000000   2.7928460   0.0000000   0.0000000   0.4037610   0.0000000   0.4037610   2.7928460   2.7928460   0.4037610
 AtZNuc=   6.0000000   1.0000000  16.0000000   6.0000000   7.0000000   6.0000000   7.0000000   1.0000000   1.0000000   7.0000000

  Atom        31          32          33
 IAtWgt=           1           1           1
 AtmWgt=   1.0078250   1.0078250   1.0078250
 NucSpn=           1           1           1
 AtZEff=  -0.0000000  -0.0000000  -0.0000000
 NQMom=    0.0000000   0.0000000   0.0000000
 NMagM=    2.7928460   2.7928460   2.7928460
 AtZNuc=   1.0000000   1.0000000   1.0000000
 Leave Link  101 at Sun Jul 18 15:50:40 2021, MaxMem=   104857600 cpu:               0.1 elap:               0.1
 (Enter /dades/curu/g16A03_MST/g16/l103.exe)

 GradGradGradGradGradGradGradGradGradGradGradGradGradGradGradGradGradGrad
 Berny optimization.
 Initialization pass.
                           ----------------------------
                           !    Initial Parameters    !
                           ! (Angstroms and Degrees)  !
 --------------------------                            --------------------------
 ! Name  Definition              Value          Derivative Info.                !
 --------------------------------------------------------------------------------
 ! R1    R(1,2)                  1.0922         estimate D2E/DX2                !
 ! R2    R(1,3)                  1.092          estimate D2E/DX2                !
 ! R3    R(1,4)                  1.0914         estimate D2E/DX2                !
 ! R4    R(1,5)                  1.487          estimate D2E/DX2                !
 ! R5    R(5,6)                  1.2094         estimate D2E/DX2                !
 ! R6    R(5,7)                  1.3427         estimate D2E/DX2                !
 ! R7    R(7,8)                  1.0088         estimate D2E/DX2                !
 ! R8    R(7,9)                  1.3872         estimate D2E/DX2                !
 ! R9    R(9,10)                 1.3798         estimate D2E/DX2                !
 ! R10   R(9,16)                 1.362          estimate D2E/DX2                !
 ! R11   R(10,11)                1.4063         estimate D2E/DX2                !
 ! R12   R(10,15)                1.0879         estimate D2E/DX2                !
 ! R13   R(11,12)                1.4054         estimate D2E/DX2                !
 ! R14   R(11,14)                1.0872         estimate D2E/DX2                !
 ! R15   R(12,13)                1.0876         estimate D2E/DX2                !
 ! R16   R(12,18)                1.405          estimate D2E/DX2                !
 ! R17   R(16,17)                1.0871         estimate D2E/DX2                !
 ! R18   R(16,18)                1.4173         estimate D2E/DX2                !
 ! R19   R(18,19)                1.4283         estimate D2E/DX2                !
 ! R20   R(19,20)                1.3937         estimate D2E/DX2                !
 ! R21   R(19,21)                1.3401         estimate D2E/DX2                !
 ! R22   R(20,24)                1.3214         estimate D2E/DX2                !
 ! R23   R(21,22)                1.0829         estimate D2E/DX2                !
 ! R24   R(21,23)                1.7044         estimate D2E/DX2                !
 ! R25   R(23,24)                1.6979         estimate D2E/DX2                !
 ! R26   R(24,25)                1.3995         estimate D2E/DX2                !
 ! R27   R(25,26)                1.2324         estimate D2E/DX2                !
 ! R28   R(25,33)                1.0002         estimate D2E/DX2                !
 ! R29   R(26,27)                1.2791         estimate D2E/DX2                !
 ! R30   R(26,30)                1.3171         estimate D2E/DX2                !
 ! R31   R(27,28)                1.0142         estimate D2E/DX2                !
 ! R32   R(27,29)                1.0143         estimate D2E/DX2                !
 ! R33   R(30,31)                1.0145         estimate D2E/DX2                !
 ! R34   R(30,32)                1.0138         estimate D2E/DX2                !
 ! A1    A(2,1,3)              113.1297         estimate D2E/DX2                !
 ! A2    A(2,1,4)              112.8263         estimate D2E/DX2                !
 ! A3    A(2,1,5)              108.7561         estimate D2E/DX2                !
 ! A4    A(3,1,4)               96.1118         estimate D2E/DX2                !
 ! A5    A(3,1,5)              113.1615         estimate D2E/DX2                !
 ! A6    A(4,1,5)              112.524          estimate D2E/DX2                !
 ! A7    A(1,5,6)              129.2693         estimate D2E/DX2                !
 ! A8    A(1,5,7)              110.13           estimate D2E/DX2                !
 ! A9    A(6,5,7)              120.3173         estimate D2E/DX2                !
 ! A10   A(5,7,8)              120.8377         estimate D2E/DX2                !
 ! A11   A(5,7,9)              128.6322         estimate D2E/DX2                !
 ! A12   A(8,7,9)              109.0268         estimate D2E/DX2                !
 ! A13   A(7,9,10)             117.3465         estimate D2E/DX2                !
 ! A14   A(7,9,16)             118.3984         estimate D2E/DX2                !
 ! A15   A(10,9,16)            124.1985         estimate D2E/DX2                !
 ! A16   A(9,10,11)            120.2868         estimate D2E/DX2                !
 ! A17   A(9,10,15)            121.055          estimate D2E/DX2                !
 ! A18   A(11,10,15)           118.6577         estimate D2E/DX2                !
 ! A19   A(10,11,12)           116.4914         estimate D2E/DX2                !
 ! A20   A(10,11,14)           123.9819         estimate D2E/DX2                !
 ! A21   A(12,11,14)           119.5194         estimate D2E/DX2                !
 ! A22   A(11,12,13)           115.3865         estimate D2E/DX2                !
 ! A23   A(11,12,18)           121.8677         estimate D2E/DX2                !
 ! A24   A(13,12,18)           122.6526         estimate D2E/DX2                !
 ! A25   A(9,16,17)            119.7225         estimate D2E/DX2                !
 ! A26   A(9,16,18)            116.1061         estimate D2E/DX2                !
 ! A27   A(17,16,18)           124.1658         estimate D2E/DX2                !
 ! A28   A(12,18,16)           120.0734         estimate D2E/DX2                !
 ! A29   A(12,18,19)           116.8542         estimate D2E/DX2                !
 ! A30   A(16,18,19)           122.7706         estimate D2E/DX2                !
 ! A31   A(18,19,20)           124.2747         estimate D2E/DX2                !
 ! A32   A(18,19,21)           124.7646         estimate D2E/DX2                !
 ! A33   A(20,19,21)           110.9188         estimate D2E/DX2                !
 ! A34   A(19,20,24)           108.7603         estimate D2E/DX2                !
 ! A35   A(19,21,22)           125.314          estimate D2E/DX2                !
 ! A36   A(19,21,23)           114.604          estimate D2E/DX2                !
 ! A37   A(22,21,23)           119.168          estimate D2E/DX2                !
 ! A38   A(21,23,24)            85.8639         estimate D2E/DX2                !
 ! A39   A(20,24,23)           115.3551         estimate D2E/DX2                !
 ! A40   A(20,24,25)           123.3342         estimate D2E/DX2                !
 ! A41   A(23,24,25)           113.9169         estimate D2E/DX2                !
 ! A42   A(24,25,26)           122.4561         estimate D2E/DX2                !
 ! A43   A(24,25,33)           118.7512         estimate D2E/DX2                !
 ! A44   A(26,25,33)           118.7927         estimate D2E/DX2                !
 ! A45   A(25,26,27)           111.4936         estimate D2E/DX2                !
 ! A46   A(25,26,30)           109.9725         estimate D2E/DX2                !
 ! A47   A(27,26,30)            95.5531         estimate D2E/DX2                !
 ! A48   A(26,27,28)            89.7732         estimate D2E/DX2                !
 ! A49   A(26,27,29)           103.8832         estimate D2E/DX2                !
 ! A50   A(28,27,29)           112.2086         estimate D2E/DX2                !
 ! A51   A(26,30,31)            99.9366         estimate D2E/DX2                !
 ! A52   A(26,30,32)            99.866          estimate D2E/DX2                !
 ! A53   A(31,30,32)           108.4324         estimate D2E/DX2                !
 ! D1    D(2,1,5,6)           -131.4158         estimate D2E/DX2                !
 ! D2    D(2,1,5,7)             54.7933         estimate D2E/DX2                !
 ! D3    D(3,1,5,6)            101.9658         estimate D2E/DX2                !
 ! D4    D(3,1,5,7)            -71.8251         estimate D2E/DX2                !
 ! D5    D(4,1,5,6)             -5.6588         estimate D2E/DX2                !
 ! D6    D(4,1,5,7)           -179.4497         estimate D2E/DX2                !
 ! D7    D(1,5,7,8)             -0.0482         estimate D2E/DX2                !
 ! D8    D(1,5,7,9)            164.3578         estimate D2E/DX2                !
 ! D9    D(6,5,7,8)           -174.4818         estimate D2E/DX2                !
 ! D10   D(6,5,7,9)            -10.0758         estimate D2E/DX2                !
 ! D11   D(5,7,9,10)           114.4947         estimate D2E/DX2                !
 ! D12   D(5,7,9,16)           -62.8862         estimate D2E/DX2                !
 ! D13   D(8,7,9,10)           -79.6371         estimate D2E/DX2                !
 ! D14   D(8,7,9,16)           102.982          estimate D2E/DX2                !
 ! D15   D(7,9,10,11)          176.2287         estimate D2E/DX2                !
 ! D16   D(7,9,10,15)           -4.0362         estimate D2E/DX2                !
 ! D17   D(16,9,10,11)          -6.5569         estimate D2E/DX2                !
 ! D18   D(16,9,10,15)         173.1782         estimate D2E/DX2                !
 ! D19   D(7,9,16,17)            8.1174         estimate D2E/DX2                !
 ! D20   D(7,9,16,18)         -171.055          estimate D2E/DX2                !
 ! D21   D(10,9,16,17)        -169.0698         estimate D2E/DX2                !
 ! D22   D(10,9,16,18)          11.7578         estimate D2E/DX2                !
 ! D23   D(9,10,11,12)          -0.2473         estimate D2E/DX2                !
 ! D24   D(9,10,11,14)        -179.2535         estimate D2E/DX2                !
 ! D25   D(15,10,11,12)       -179.9887         estimate D2E/DX2                !
 ! D26   D(15,10,11,14)          1.0051         estimate D2E/DX2                !
 ! D27   D(10,11,12,13)       -175.5959         estimate D2E/DX2                !
 ! D28   D(10,11,12,18)          0.9818         estimate D2E/DX2                !
 ! D29   D(14,11,12,13)          3.4571         estimate D2E/DX2                !
 ! D30   D(14,11,12,18)       -179.9653         estimate D2E/DX2                !
 ! D31   D(11,12,18,16)          4.5471         estimate D2E/DX2                !
 ! D32   D(11,12,18,19)        178.4127         estimate D2E/DX2                !
 ! D33   D(13,12,18,16)       -179.1255         estimate D2E/DX2                !
 ! D34   D(13,12,18,19)         -5.2599         estimate D2E/DX2                !
 ! D35   D(9,16,18,12)         -10.5072         estimate D2E/DX2                !
 ! D36   D(9,16,18,19)         176.0031         estimate D2E/DX2                !
 ! D37   D(17,16,18,12)        170.3615         estimate D2E/DX2                !
 ! D38   D(17,16,18,19)         -3.1282         estimate D2E/DX2                !
 ! D39   D(12,18,19,20)         30.281          estimate D2E/DX2                !
 ! D40   D(12,18,19,21)       -147.1475         estimate D2E/DX2                !
 ! D41   D(16,18,19,20)       -156.0331         estimate D2E/DX2                !
 ! D42   D(16,18,19,21)         26.5384         estimate D2E/DX2                !
 ! D43   D(18,19,20,24)       -163.706          estimate D2E/DX2                !
 ! D44   D(21,19,20,24)         14.0326         estimate D2E/DX2                !
 ! D45   D(18,19,21,22)          8.9086         estimate D2E/DX2                !
 ! D46   D(18,19,21,23)        177.8137         estimate D2E/DX2                !
 ! D47   D(20,19,21,22)       -168.8166         estimate D2E/DX2                !
 ! D48   D(20,19,21,23)          0.0885         estimate D2E/DX2                !
 ! D49   D(19,20,24,23)        -23.0493         estimate D2E/DX2                !
 ! D50   D(19,20,24,25)       -171.1147         estimate D2E/DX2                !
 ! D51   D(19,21,23,24)        -10.4332         estimate D2E/DX2                !
 ! D52   D(22,21,23,24)        159.2069         estimate D2E/DX2                !
 ! D53   D(21,23,24,20)         19.508          estimate D2E/DX2                !
 ! D54   D(21,23,24,25)        170.5978         estimate D2E/DX2                !
 ! D55   D(20,24,25,26)        177.9221         estimate D2E/DX2                !
 ! D56   D(20,24,25,33)         -2.0619         estimate D2E/DX2                !
 ! D57   D(23,24,25,26)         29.4489         estimate D2E/DX2                !
 ! D58   D(23,24,25,33)       -150.5351         estimate D2E/DX2                !
 ! D59   D(24,25,26,27)       -168.1243         estimate D2E/DX2                !
 ! D60   D(24,25,26,30)         87.1753         estimate D2E/DX2                !
 ! D61   D(33,25,26,27)         11.8597         estimate D2E/DX2                !
 ! D62   D(33,25,26,30)        -92.8408         estimate D2E/DX2                !
 ! D63   D(25,26,27,28)         19.7402         estimate D2E/DX2                !
 ! D64   D(25,26,27,29)        132.5939         estimate D2E/DX2                !
 ! D65   D(30,26,27,28)        133.7639         estimate D2E/DX2                !
 ! D66   D(30,26,27,29)       -113.3825         estimate D2E/DX2                !
 ! D67   D(25,26,30,31)        154.1533         estimate D2E/DX2                !
 ! D68   D(25,26,30,32)         43.281          estimate D2E/DX2                !
 ! D69   D(27,26,30,31)         38.875          estimate D2E/DX2                !
 ! D70   D(27,26,30,32)        -71.9974         estimate D2E/DX2                !
 --------------------------------------------------------------------------------
 Trust Radius=3.00D-01 FncErr=1.00D-07 GrdErr=1.00D-06 EigMax=2.50D+02 EigMin=1.00D-04
 Number of steps in this run=    167 maximum allowed number of steps=    198.
 GradGradGradGradGradGradGradGradGradGradGradGradGradGradGradGradGradGrad

 Leave Link  103 at Sun Jul 18 15:50:40 2021, MaxMem=   104857600 cpu:               0.1 elap:               0.0
 (Enter /dades/curu/g16A03_MST/g16/l202.exe)
                          Input orientation:                          
 ---------------------------------------------------------------------
 Center     Atomic      Atomic             Coordinates (Angstroms)
 Number     Number       Type             X           Y           Z
 ---------------------------------------------------------------------
      1          6           0        1.652000   -0.879000   -5.600000
      2          1           0        2.684000   -0.606000   -5.831000
      3          1           0        0.944000   -0.066000   -5.774000
      4          1           0        1.222000   -1.566000   -6.331000
      5          6           0        1.598000   -1.415000   -4.214000
      6          8           0        1.076000   -2.426000   -3.804000
      7          7           0        2.127000   -0.529000   -3.355000
      8          1           0        2.490000    0.354000   -3.681000
      9          6           0        2.014000   -0.489000   -1.973000
     10          6           0        3.164000   -0.688000   -1.237000
     11          6           0        3.136000   -0.582000    0.165000
     12          6           0        1.896000   -0.264000    0.745000
     13          1           0        1.910000   -0.113000    1.822000
     14          1           0        4.007000   -0.715000    0.802000
     15          1           0        4.106000   -0.933000   -1.723000
     16          6           0        0.778000   -0.312000   -1.429000
     17          1           0       -0.101000   -0.339000   -2.068000
     18          6           0        0.739000   -0.082000   -0.031000
     19          6           0       -0.471000    0.204000    0.672000
     20          7           0       -0.531000    0.886000    1.886000
     21          6           0       -1.692000   -0.187000    0.282000
     22          1           0       -1.900000   -0.875000   -0.528000
     23         16           0       -2.950000    0.247000    1.347000
     24          6           0       -1.717000    0.680000    2.431000
     25          7           0       -2.172000    1.364000    3.564000
     26          6           0       -3.296000    1.186000    4.037000
     27          7           0       -3.585000    2.078000    4.907000
     28          1           0       -2.868000    2.682000    4.520000
     29          1           0       -4.519000    2.377000    4.648000
     30          7           0       -3.272000    0.181000    4.888000
     31          1           0       -4.055000    0.435000    5.481000
     32          1           0       -2.413000    0.393000    5.383000
     33          1           0       -1.562000    2.022000    4.006000
 ---------------------------------------------------------------------
                    Distance matrix (angstroms):
                    1          2          3          4          5
     1  C    0.000000
     2  H    1.092206   0.000000
     3  H    1.092021   1.822759   0.000000
     4  H    1.091435   1.819078   1.624048   0.000000
     5  C    1.487013   2.109162   2.163589   2.155427   0.000000
     6  O    2.439385   3.163352   3.076999   2.673321   1.209423
     7  N    2.321239   2.539046   2.732292   3.278867   1.342653
     8  H    2.430040   2.362570   2.635748   3.509519   2.051613
     9  C    3.665825   3.917493   3.971326   4.558438   2.460206
    10  C    4.621514   4.619736   5.089170   5.521873   3.441426
    11  C    5.960343   6.013060   6.351601   6.843221   4.715398
    12  C    6.379403   6.631869   6.591120   7.226289   5.099538
    13  H    7.465883   7.707823   7.657322   8.309992   6.182705
    14  H    6.823381   6.764532   7.283333   7.704552   5.608345
    15  H    4.588699   4.359435   5.211577   5.472825   3.567558
    16  C    4.299140   4.805921   4.355123   5.079297   3.105678
    17  H    3.979904   4.689103   3.860180   4.629150   2.941036
    18  C    5.699345   6.139837   5.746680   6.490419   4.473506
    19  C    6.709546   7.273179   6.605001   7.418973   5.547515
    20  N    7.995055   8.492018   7.858596   8.752394   6.858370
    21  C    6.801406   7.529522   6.605927   7.356956   5.704919
    22  H    6.192084   7.014786   6.021904   6.625645   5.110205
    23  S    8.408751   9.164783   8.122182   8.924362   7.373688
    24  C    8.847463   9.448981   8.657913   9.510777   7.715846
    25  N   10.180026  10.757679   9.947492  10.863478   9.079263
    26  C   11.028087  11.676861  10.761079  11.639641   9.939589
    27  N   12.106489  12.720411  11.797980  12.754553  11.056997
    28  H   11.641543  12.197494  11.315886  12.349810  10.630772
    29  H   12.397753  13.061047  12.017933  13.001722  11.416304
    30  N   11.634755  12.287810  11.467951  12.211225  10.445598
    31  H   12.533356  13.208298  12.325422  13.090992  11.374178
    32  H   11.780004  12.358447  11.660136  12.420495  10.557433
    33  H   10.536642  11.031839  10.309616  11.290614   9.453410
                    6          7          8          9         10
     6  O    0.000000
     7  N    2.214681   0.000000
     8  H    3.121366   1.008828   0.000000
     9  C    2.825663   1.387189   1.963285   0.000000
    10  C    3.737630   2.363593   2.741017   1.379782   0.000000
    11  C    4.837034   3.662143   4.010627   2.416315   1.406280
    12  C    5.102945   4.115044   4.508241   2.729849   2.390800
    13  H    6.139821   5.198218   5.553152   3.814999   3.355685
    14  H    5.721321   4.566141   4.851942   3.423996   2.206558
    15  H    3.967431   2.596744   2.846329   2.153160   1.087927
    16  C    3.193497   2.361433   2.906201   1.361970   2.423063
    17  H    2.958816   2.580010   3.129744   2.122440   3.387121
    18  C    4.454597   3.629784   4.071682   2.358525   2.775301
    19  C    5.417073   4.848053   5.266748   3.694793   4.201568
    20  N    6.777012   6.044441   6.356174   4.822814   5.087596
    21  C    5.419441   5.284836   5.786810   4.348639   5.112641
    22  H    4.689814   4.932380   5.542919   4.190038   5.116810
    23  S    7.063031   6.963254   7.408497   6.017092   6.703154
    24  C    7.504886   7.050944   7.427090   5.889154   6.256981
    25  N    8.899496   8.362859   8.674351   7.184328   7.465467
    26  C    9.676890   9.326940   9.681815   8.192791   8.547430
    27  N   10.857829  10.377092  10.659810   9.234321   9.536692
    28  H   10.532605   9.862868  10.068970   8.720563   8.993607
    29  H   11.216467  10.801026  11.072075   9.733020  10.151647
    30  N   10.062426   9.879289  10.327552   8.687003   8.927087
    31  H   10.987434  10.826879  11.259921   9.656534   9.925050
    32  H   10.223544   9.890113  10.305194   8.630585   8.723296
    33  H    9.366955   8.619782   8.848214   7.405494   7.560967
                   11         12         13         14         15
    11  C    0.000000
    12  C    1.405391   0.000000
    13  H    2.113927   1.087624   0.000000
    14  H    1.087244   2.159391   2.408363   0.000000
    15  H    2.151429   3.379746   4.249922   2.536326   0.000000
    16  C    2.859003   2.445098   3.448192   3.945404   3.398185
    17  H    3.939988   3.450595   4.384894   5.025330   4.262712
    18  C    2.456425   1.404973   2.192216   3.431385   3.863127
    19  C    3.726298   2.413927   2.663109   4.573177   5.289397
    20  N    4.308568   2.917998   2.638291   4.932717   6.151050
    21  C    4.845544   3.618569   3.918096   5.746981   6.180076
    22  H    5.091895   4.050119   4.540842   6.056992   6.124004
    23  S    6.254899   4.909913   4.896409   7.044311   7.784885
    24  C    5.502637   4.097255   3.762294   6.112597   7.332449
    25  N    6.596589   5.210160   4.677480   7.080320   8.523020
    26  C    7.712900   6.316378   5.804831   8.210532   9.615475
    27  N    8.644883   7.269702   6.671786   9.071402  10.591246
    28  H    8.103563   6.754646   6.157963   8.522251  10.033940
    29  H    9.351577   7.959932   7.451068   9.851135  11.222137
    30  N    7.996960   6.638577   6.028260   8.395359   9.969012
    31  H    9.000257   7.637585   7.019246   9.392092  10.971370
    32  H    7.679163   6.364760   5.623619   7.964272   9.734006
    33  H    6.603431   5.274247   4.624161   6.983591   8.583687
                   16         17         18         19         20
    16  C    0.000000
    17  H    1.087056   0.000000
    18  C    1.417330   2.218337   0.000000
    19  C    2.498091   2.817685   1.428322   0.000000
    20  N    3.760041   4.161687   2.494958   1.393743   0.000000
    21  C    3.007332   2.841986   2.453315   1.340083   2.252125
    22  H    2.881051   2.428023   2.800032   2.155524   3.286743
    23  S    4.681521   4.485802   3.951689   2.569614   2.559376
    24  C    4.701988   4.887823   3.560060   2.207526   1.321385
    25  N    6.036682   6.237682   4.846531   3.550023   2.395214
    26  C    6.979874   7.057243   5.868362   4.502019   3.515967
    27  N    8.055605   8.162767   6.909878   5.580690   4.458051
    28  H    7.592625   7.757865   6.431310   5.166546   3.952865
    29  H    8.498168   8.485283   7.455621   6.075920   5.075024
    30  N    7.519976   7.662348   6.352468   5.061698   4.125786
    31  H    8.465459   8.556903   7.323378   6.002074   5.054305
    32  H    7.555319   7.835724   6.282685   5.099079   4.001747
    33  H    6.361005   6.678497   5.100861   3.951071   2.616841
                   21         22         23         24         25
    21  C    0.000000
    22  H    1.082916   0.000000
    23  S    1.704449   2.424254   0.000000
    24  C    2.317437   3.347715   1.697891   0.000000
    25  N    3.661629   4.672426   2.601550   1.399489   0.000000
    26  C    4.307896   5.199592   2.870111   2.308357   1.232392
    27  N    5.486738   6.410824   4.053318   3.402118   2.076057
    28  H    5.251169   6.250726   4.000485   3.113957   1.770728
    29  H    5.798964   6.650236   4.230279   3.955515   2.776623
    30  N    4.883345   5.685998   3.556223   2.950233   2.088651
    31  H    5.744585   6.516763   4.283261   3.850814   2.843171
    32  H    5.184249   6.067200   4.074185   3.046488   2.075978
    33  H    4.331831   5.391105   3.485319   2.074997   1.000214
                   26         27         28         29         30
    26  C    0.000000
    27  N    1.279095   0.000000
    28  H    1.629260   1.014236   0.000000
    29  H    1.813155   1.014317   1.683808   0.000000
    30  N    1.317119   1.922743   2.560008   2.536735   0.000000
    31  H    1.795889   1.802727   2.716891   2.163458   1.014522
    32  H    1.794507   2.106985   2.488235   2.985250   1.013829
    33  H    1.925257   2.215280   1.550946   3.046644   2.662950
                   31         32         33
    31  H    0.000000
    32  H    1.645458   0.000000
    33  H    3.302914   2.296513   0.000000
 Stoichiometry    C12H14N5OS(1+)
 Framework group  C1[X(C12H14N5OS)]
 Deg. of freedom    93
 Full point group                 C1      NOp   1
 Largest Abelian subgroup         C1      NOp   1
 Largest concise Abelian subgroup C1      NOp   1
                         Standard orientation:                         
 ---------------------------------------------------------------------
 Center     Atomic      Atomic             Coordinates (Angstroms)
 Number     Number       Type             X           Y           Z
 ---------------------------------------------------------------------
      1          6           0        5.983858   -1.632999   -0.691800
      2          1           0        6.671797   -0.872408   -1.067506
      3          1           0        5.546597   -2.244679   -1.483734
      4          1           0        6.495020   -2.451374   -0.181696
      5          6           0        4.965282   -0.973679    0.167855
      6          8           0        4.584610   -1.278323    1.274646
      7          7           0        4.359324    0.014921   -0.509051
      8          1           0        4.615081    0.220885   -1.462939
      9          6           0        3.177784    0.675087   -0.205017
     10          6           0        3.263197    2.016715    0.105686
     11          6           0        2.096854    2.764677    0.346145
     12          6           0        0.877179    2.073721    0.245665
     13          1           0       -0.015489    2.684246    0.361116
     14          1           0        2.093510    3.825648    0.583694
     15          1           0        4.227016    2.516649    0.174273
     16          6           0        2.021985   -0.044883   -0.177939
     17          1           0        2.059726   -1.128134   -0.260606
     18          6           0        0.824014    0.702976   -0.057948
     19          6           0       -0.470596    0.100981   -0.099069
     20          7           0       -1.637275    0.772356   -0.460505
     21          6           0       -0.735825   -1.165452    0.249674
     22          1           0       -0.039253   -1.841553    0.729656
     23         16           0       -2.381969   -1.597403    0.155997
     24          6           0       -2.677477    0.059910   -0.064956
     25          7           0       -3.996101    0.357784   -0.426996
     26          6           0       -4.950972   -0.339493   -0.079413
     27          7           0       -6.015623   -0.027089   -0.715816
     28          1           0       -5.451957    0.415874   -1.433268
     29          1           0       -6.389071   -0.920210   -1.018652
     30          7           0       -5.387997    0.051706    1.099898
     31          1           0       -6.352701   -0.256574    1.040185
     32          1           0       -5.363998    1.056814    0.969391
     33          1           0       -4.169660    1.166743   -0.989037
 ---------------------------------------------------------------------
 Rotational constants (GHZ):           0.9828680           0.1313016           0.1204020
 Leave Link  202 at Sun Jul 18 15:50:40 2021, MaxMem=   104857600 cpu:               0.0 elap:               0.0
 (Enter /dades/curu/g16A03_MST/g16/l301.exe)
 Standard basis: 6-31G(d) (6D, 7F)
 Ernie: Thresh=  0.10000D-02 Tol=  0.10000D-05 Strict=F.
 There are   317 symmetry adapted cartesian basis functions of A   symmetry.
 There are   317 symmetry adapted basis functions of A   symmetry.
   317 basis functions,   612 primitive gaussians,   317 cartesian basis functions
    72 alpha electrons       72 beta electrons
       nuclear repulsion energy      1472.5418343933 Hartrees.
 IExCor=  402 DFT=T Ex+Corr=B3LYP ExCW=0 ScaHFX=  0.200000
 ScaDFX=  0.800000  0.720000  1.000000  0.810000 ScalE2=  1.000000  1.000000
 IRadAn=      5 IRanWt=     -1 IRanGd=            0 ICorTp=0 IEmpDi=  4
 NAtoms=   33 NActive=   33 NUniq=   33 SFac= 1.00D+00 NAtFMM=   60 NAOKFM=F Big=F
 Integral buffers will be    131072 words long.
 Raffenetti 2 integral format.
 Two-electron integral symmetry is turned on.
 Using the following non-standard input for PCM:
 MSTModel=DFT cav MSTCharged
 --- end of non-standard input.
 MST model for solvation energy: B3LYP parametrization.
 MST cavity parameters:
 ISph   IAn     Re0     Alpha   Atom Type   QCorr
 ------------------------------------------------
   1      6     1.50     1.50      CH3        F
   2      1     1.20     1.50      CH3        F
   3      1     1.20     1.50      CH3        F
   4      1     1.20     1.50      CH3        F
   5      6     1.50     1.50      C          F
   6      8     1.40     1.50      O          F
   7      7     1.50     1.50      NH         F
   8      1     0.90     1.50      NH         F
   9      6     1.50     1.50      C          F
  10      6     1.50     1.50      CH         F
  11      6     1.50     1.50      CH         F
  12      6     1.50     1.50      CH         F
  13      1     1.20     1.50      CH         F
  14      1     1.20     1.50      CH         F
  15      1     1.20     1.50      CH         F
  16      6     1.50     1.50      CH         F
  17      1     1.20     1.50      CH         F
  18      6     1.50     1.50      C          F
  19      6     1.50     1.50      C          F
  20      7     1.50     1.50      Nc         F
  21      6     1.50     1.50      CH         F
  22      1     1.20     1.50      CH         F
  23     16     1.75     1.50      S          F
  24      6     1.50     1.50      C          F
  25      7     1.50     1.15      NH         T
  26      6     1.50     1.15      CN+        T
  27      7     1.50     1.15      NH+        T
  28      1     0.90     1.15      NH+        T
  29      1     0.90     1.15      NH+        T
  30      7     1.50     1.15      NH+        T
  31      1     0.90     1.15      NH+        T
  32      1     0.90     1.15      NH+        T
  33      1     0.90     1.15      NH         T
 ------------------------------------------------------------------------------
 Polarizable Continuum Model (PCM)
 =================================
 Model                : PCM.
 Atomic radii         : MST.
 Polarization charges : Total charges.
 Charge compensation  : None.
 Solution method      : On-the-fly selection.
 Cavity type          : Scaled VdW (van der Waals Surface) (Alpha=1.500).
 Cavity algorithm     : GePol (No added spheres)
                        Default sphere list used, NSphG=   33.
                        Lebedev-Laikov grids with approx.  5.0 points / Ang**2.
                        Smoothing algorithm: York/Karplus (Gamma=1.0000).
                        Polarization charges: spherical gaussians, with
                                              point-specific exponents (IZeta= 3).
                        Self-potential: point-specific (ISelfS= 7).
                        Self-field    : sphere-specific E.n sum rule (ISelfD= 2).
 1st derivatives      : Analytical E(r).r(x)/FMM algorithm (CHGder, D1EAlg=3).
                        Cavity 1st derivative terms included.
 Solvent              : n-Octanol, Eps=   9.862900 Eps(inf)=   2.043470
 ------------------------------------------------------------------------------
 GePol: Number of generator spheres                  =      33
 GePol: Total number of spheres                      =      33
 GePol: Number of exposed spheres                    =      33 (100.00%)
 GePol: Number of points                             =    2988
 GePol: Average weight of points                     =       0.12
 GePol: Minimum weight of points                     =   0.34D-10
 GePol: Maximum weight of points                     =    0.22065
 GePol: Number of points with low weight             =     161
 GePol: Fraction of low-weight points (<1% of avg)   =       5.39%
 GePol: Cavity surface area                          =    348.593 Ang**2
 GePol: Cavity volume                                =    387.943 Ang**3
 Surface areas from nonelectrostatic (unscaled) cavity and vdw tensions:
 Sphere =    1 Type =  CH3 Surf =        5.147 Tension =       -0.183
 Sphere =    2 Type =  CH3 Surf =       10.082 Tension =       -0.183
 Sphere =    3 Type =  CH3 Surf =       10.018 Tension =       -0.183
 Sphere =    4 Type =  CH3 Surf =       10.004 Tension =       -0.183
 Sphere =    5 Type =  C   Surf =        6.512 Tension =       -0.205
 Sphere =    6 Type =  O   Surf =       16.319 Tension =       -0.185
 Sphere =    7 Type =  NH  Surf =        9.016 Tension =       -0.234
 Sphere =    8 Type =  NH  Surf =        3.894 Tension =       -0.234
 Sphere =    9 Type =  C   Surf =        5.704 Tension =       -0.205
 Sphere =   10 Type =  CH  Surf =        7.622 Tension =       -0.195
 Sphere =   11 Type =  CH  Surf =        7.953 Tension =       -0.195
 Sphere =   12 Type =  CH  Surf =        7.584 Tension =       -0.195
 Sphere =   13 Type =  CH  Surf =        9.967 Tension =       -0.195
 Sphere =   14 Type =  CH  Surf =       10.263 Tension =       -0.195
 Sphere =   15 Type =  CH  Surf =       10.204 Tension =       -0.195
 Sphere =   16 Type =  CH  Surf =        7.643 Tension =       -0.195
 Sphere =   17 Type =  CH  Surf =       10.132 Tension =       -0.195
 Sphere =   18 Type =  C   Surf =        6.187 Tension =       -0.205
 Sphere =   19 Type =  C   Surf =        5.903 Tension =       -0.205
 Sphere =   20 Type =  Nc  Surf =       12.766 Tension =       -0.161
 Sphere =   21 Type =  CH  Surf =        7.124 Tension =       -0.195
 Sphere =   22 Type =  CH  Surf =       10.139 Tension =       -0.195
 Sphere =   23 Type =  S   Surf =       23.219 Tension =       -0.186
 Sphere =   24 Type =  C   Surf =        5.524 Tension =       -0.205
 Sphere =   25 Type =  NH  Surf =        7.829 Tension =       -0.234
 Sphere =   26 Type =  CN+ Surf =        5.918 Tension =       -0.227
 Sphere =   27 Type =  NH+ Surf =       13.038 Tension =       -0.274
 Sphere =   28 Type =  NH+ Surf =        2.968 Tension =       -0.274
 Sphere =   29 Type =  NH+ Surf =        3.897 Tension =       -0.274
 Sphere =   30 Type =  NH+ Surf =       13.634 Tension =       -0.274
 Sphere =   31 Type =  NH+ Surf =        3.365 Tension =       -0.274
 Sphere =   32 Type =  NH+ Surf =        3.688 Tension =       -0.274
 Sphere =   33 Type =  NH  Surf =        3.709 Tension =       -0.234
 PCM non-electrostatic energy =        -0.0203108599 Hartrees.
 Nuclear repulsion after PCM non-electrostatic terms =     1472.5215235333 Hartrees.
 Leave Link  301 at Sun Jul 18 15:50:40 2021, MaxMem=   104857600 cpu:               0.1 elap:               0.1
 (Enter /dades/curu/g16A03_MST/g16/l302.exe)
 NPDir=0 NMtPBC=     1 NCelOv=     1 NCel=       1 NClECP=     1 NCelD=      1
         NCelK=      1 NCelE2=     1 NClLst=     1 CellRange=     0.0.
 One-electron integrals computed using PRISM.
 One-electron integral symmetry used in STVInt
 NBasis=   317 RedAO= T EigKep=  4.99D-04  NBF=   317
 NBsUse=   317 1.00D-06 EigRej= -1.00D+00 NBFU=   317
 Precomputing XC quadrature grid using
 IXCGrd= 4 IRadAn=           5 IRanWt=          -1 IRanGd=           0 AccXCQ= 0.00D+00.
 Generated NRdTot=       0 NPtTot=           0 NUsed=           0 NTot=          32
 NSgBfM=   313   313   313   313   313 MxSgAt=    33 MxSgA2=    33.
 Leave Link  302 at Sun Jul 18 15:50:41 2021, MaxMem=   104857600 cpu:               3.8 elap:               1.0
 (Enter /dades/curu/g16A03_MST/g16/l303.exe)
 DipDrv:  MaxL=1.
 Leave Link  303 at Sun Jul 18 15:50:41 2021, MaxMem=   104857600 cpu:               0.1 elap:               0.1
 (Enter /dades/curu/g16A03_MST/g16/l401.exe)
 ExpMin= 1.17D-01 ExpMax= 2.19D+04 ExpMxC= 3.30D+03 IAcc=3 IRadAn=         5 AccDes= 0.00D+00
 Harris functional with IExCor=  402 and IRadAn=       5 diagonalized for initial guess.
 HarFok:  IExCor=  402 AccDes= 0.00D+00 IRadAn=         5 IDoV= 1 UseB2=F ITyADJ=14
 ICtDFT=  3500011 ScaDFX=  1.000000  1.000000  1.000000  1.000000
 FoFCou: FMM=F IPFlag=           0 FMFlag=      100000 FMFlg1=           0
         NFxFlg=           0 DoJE=T BraDBF=F KetDBF=T FulRan=T
         wScrn=  0.000000 ICntrl=       500 IOpCl=  0 I1Cent=   200000004 NGrid=           0
         NMat0=    1 NMatS0=      1 NMatT0=    0 NMatD0=    1 NMtDS0=    0 NMtDT0=    0
 Petite list used in FoFCou.
 Harris En= -1212.35880653478    
 JPrj=0 DoOrth=F DoCkMO=F.
 Leave Link  401 at Sun Jul 18 15:50:48 2021, MaxMem=   104857600 cpu:              26.3 elap:               6.6
 (Enter /dades/curu/g16A03_MST/g16/l502.exe)
 Integral symmetry usage will be decided dynamically.
 Closed shell SCF:
 Using DIIS extrapolation, IDIIS=  1040.
 NGot=   104857600 LenX=   104651201 LenY=   104550271
 Requested convergence on RMS density matrix=1.00D-08 within 128 cycles.
 Requested convergence on MAX density matrix=1.00D-06.
 Requested convergence on             energy=1.00D-06.
 No special actions if energy rises.
 Fock matrices will be formed incrementally for  20 cycles.

 Cycle   1  Pass 1  IDiag  1:
 FoFJK:  IHMeth= 1 ICntrl=       0 DoSepK=F KAlg= 0 I1Cent=           0 FoldK=F
 IRaf= 710000000 NMat=       1 IRICut=       1 DoRegI=T DoRafI=F ISym2E= 0 IDoP0=0 IntGTp=1.
 FoFCou: FMM=F IPFlag=           0 FMFlag=      100000 FMFlg1=           0
         NFxFlg=           0 DoJE=F BraDBF=F KetDBF=F FulRan=T
         wScrn=  0.000000 ICntrl=         0 IOpCl=  0 I1Cent=           0 NGrid=           0
         NMat0=    1 NMatS0=      1 NMatT0=    0 NMatD0=    1 NMtDS0=    0 NMtDT0=    0
 Symmetry not used in FoFCou.
 Inv3:  Mode=1 IEnd=    26784432.
 Iteration    1 A*A^-1 deviation from unit magnitude is 7.88D-15 for    744.
 Iteration    1 A*A^-1 deviation from orthogonality  is 2.80D-15 for   2194   1739.
 Iteration    1 A^-1*A deviation from unit magnitude is 6.11D-15 for    744.
 Iteration    1 A^-1*A deviation from orthogonality  is 2.15D-15 for   2423   2118.
 E= -1211.92177514780    
 DIIS: error= 2.30D-02 at cycle   1 NSaved=   1.
 NSaved= 1 IEnMin= 1 EnMin= -1211.92177514780     IErMin= 1 ErrMin= 2.30D-02
 ErrMax= 2.30D-02  0.00D+00 EMaxC= 1.00D-01 BMatC= 5.66D-01 BMatP= 5.66D-01
 IDIUse=3 WtCom= 7.70D-01 WtEn= 2.30D-01
 Coeff-Com:  0.100D+01
 Coeff-En:   0.100D+01
 Coeff:      0.100D+01
 Gap=     0.074 Goal=   None    Shift=    0.000
 GapD=    0.074 DampG=0.500 DampE=0.500 DampFc=0.2500 IDamp=-1.
 Damping current iteration by 2.50D-01
 RMSDP=7.68D-03 MaxDP=3.16D-01              OVMax= 8.22D-01

 Cycle   2  Pass 1  IDiag  1:
 RMSU=  1.90D-03    CP:  9.89D-01
 E= -1212.04697668791     Delta-E=       -0.125201540117 Rises=F Damp=T
 DIIS: error= 1.25D-02 at cycle   2 NSaved=   2.
 NSaved= 2 IEnMin= 2 EnMin= -1212.04697668791     IErMin= 2 ErrMin= 1.25D-02
 ErrMax= 1.25D-02  0.00D+00 EMaxC= 1.00D-01 BMatC= 1.25D-01 BMatP= 5.66D-01
 IDIUse=3 WtCom= 8.75D-01 WtEn= 1.25D-01
 Coeff-Com: -0.312D+00 0.131D+01
 Coeff-En:   0.210D+00 0.790D+00
 Coeff:     -0.247D+00 0.125D+01
 Gap=    -0.245 Goal=   None    Shift=    0.000
 RMSDP=2.84D-03 MaxDP=1.08D-01 DE=-1.25D-01 OVMax= 7.67D-01

 Cycle   3  Pass 1  IDiag  1:
 RMSU=  2.81D-03    CP:  9.70D-01  9.81D-01
 E= -1212.14548194493     Delta-E=       -0.098505257021 Rises=F Damp=F
 DIIS: error= 3.78D-02 at cycle   3 NSaved=   3.
 NSaved= 3 IEnMin= 3 EnMin= -1212.14548194493     IErMin= 2 ErrMin= 1.25D-02
 ErrMax= 3.78D-02  0.00D+00 EMaxC= 1.00D-01 BMatC= 3.41D-01 BMatP= 1.25D-01
 IDIUse=2 WtCom= 0.00D+00 WtEn= 1.00D+00
 Coeff-En:   0.000D+00 0.393D+00 0.607D+00
 Coeff:      0.000D+00 0.393D+00 0.607D+00
 Gap=     0.074 Goal=   None    Shift=    0.000
 RMSDP=5.16D-03 MaxDP=3.43D-01 DE=-9.85D-02 OVMax= 9.43D-01

 Cycle   4  Pass 1  IDiag  1:
 RMSU=  2.39D-03    CP:  9.64D-01  2.39D+00 -3.14D-01
 E= -1210.69332122753     Delta-E=        1.452160717403 Rises=F Damp=F
 DIIS: error= 8.23D-02 at cycle   4 NSaved=   4.
 NSaved= 4 IEnMin= 3 EnMin= -1212.14548194493     IErMin= 2 ErrMin= 1.25D-02
 ErrMax= 8.23D-02  0.00D+00 EMaxC= 1.00D-01 BMatC= 1.14D+00 BMatP= 1.25D-01
 IDIUse=2 WtCom= 0.00D+00 WtEn= 1.00D+00
 EnCoef did     2 forward-backward iterations
 Coeff-En:   0.504D-01 0.000D+00 0.729D+00 0.220D+00
 Coeff:      0.504D-01 0.000D+00 0.729D+00 0.220D+00
 Gap=    -0.070 Goal=   None    Shift=    0.000
 RMSDP=4.60D-03 MaxDP=2.43D-01 DE= 1.45D+00 OVMax= 9.62D-01

 Cycle   5  Pass 1  IDiag  1:
 RMSU=  1.80D-03    CP:  9.82D-01  7.85D-01  3.47D-01  6.95D-02
 E= -1212.40298122435     Delta-E=       -1.709659996820 Rises=F Damp=F
 DIIS: error= 9.18D-03 at cycle   5 NSaved=   5.
 NSaved= 5 IEnMin= 5 EnMin= -1212.40298122435     IErMin= 5 ErrMin= 9.18D-03
 ErrMax= 9.18D-03  0.00D+00 EMaxC= 1.00D-01 BMatC= 6.01D-02 BMatP= 1.25D-01
 IDIUse=3 WtCom= 9.08D-01 WtEn= 9.18D-02
 Coeff-Com: -0.191D+00 0.474D+00 0.310D+00 0.200D-01 0.387D+00
 Coeff-En:   0.000D+00 0.000D+00 0.102D+00 0.000D+00 0.898D+00
 Coeff:     -0.174D+00 0.431D+00 0.291D+00 0.181D-01 0.434D+00
 Gap=     0.077 Goal=   None    Shift=    0.000
 RMSDP=1.10D-03 MaxDP=4.30D-02 DE=-1.71D+00 OVMax= 6.93D-02

 Cycle   6  Pass 1  IDiag  1:
 RMSU=  6.90D-04    CP:  9.78D-01  7.95D-01  5.42D-01  6.34D-02  6.34D-01
 E= -1212.43462682588     Delta-E=       -0.031645601526 Rises=F Damp=F
 DIIS: error= 7.42D-03 at cycle   6 NSaved=   6.
 NSaved= 6 IEnMin= 6 EnMin= -1212.43462682588     IErMin= 6 ErrMin= 7.42D-03
 ErrMax= 7.42D-03  0.00D+00 EMaxC= 1.00D-01 BMatC= 2.28D-02 BMatP= 6.01D-02
 IDIUse=3 WtCom= 9.26D-01 WtEn= 7.42D-02
 Coeff-Com: -0.164D+00 0.256D+00 0.524D-01-0.117D-01 0.310D+00 0.557D+00
 Coeff-En:   0.000D+00 0.000D+00 0.000D+00 0.000D+00 0.293D+00 0.707D+00
 Coeff:     -0.152D+00 0.237D+00 0.485D-01-0.108D-01 0.309D+00 0.568D+00
 Gap=     0.072 Goal=   None    Shift=    0.000
 RMSDP=5.14D-04 MaxDP=2.61D-02 DE=-3.16D-02 OVMax= 4.29D-02

 Cycle   7  Pass 1  IDiag  1:
 RMSU=  2.21D-04    CP:  9.79D-01  8.83D-01  4.81D-01  2.68D-02  8.27D-01
                    CP:  7.62D-01
 E= -1212.45529458259     Delta-E=       -0.020667756716 Rises=F Damp=F
 DIIS: error= 2.23D-03 at cycle   7 NSaved=   7.
 NSaved= 7 IEnMin= 7 EnMin= -1212.45529458259     IErMin= 7 ErrMin= 2.23D-03
 ErrMax= 2.23D-03  0.00D+00 EMaxC= 1.00D-01 BMatC= 1.14D-03 BMatP= 2.28D-02
 IDIUse=3 WtCom= 9.78D-01 WtEn= 2.23D-02
 Coeff-Com: -0.659D-01 0.895D-01-0.228D-01-0.218D-02 0.102D+00 0.298D+00
 Coeff-Com:  0.602D+00
 Coeff-En:   0.000D+00 0.000D+00 0.000D+00 0.000D+00 0.000D+00 0.000D+00
 Coeff-En:   0.100D+01
 Coeff:     -0.644D-01 0.875D-01-0.223D-01-0.213D-02 0.994D-01 0.291D+00
 Coeff:      0.611D+00
 Gap=     0.072 Goal=   None    Shift=    0.000
 RMSDP=1.35D-04 MaxDP=6.32D-03 DE=-2.07D-02 OVMax= 1.03D-02

 Cycle   8  Pass 1  IDiag  1:
 RMSU=  9.13D-05    CP:  9.79D-01  8.68D-01  4.70D-01  3.51D-02  8.50D-01
                    CP:  8.64D-01  8.50D-01
 E= -1212.45620118073     Delta-E=       -0.000906598135 Rises=F Damp=F
 DIIS: error= 4.41D-04 at cycle   8 NSaved=   8.
 NSaved= 8 IEnMin= 8 EnMin= -1212.45620118073     IErMin= 8 ErrMin= 4.41D-04
 ErrMax= 4.41D-04  0.00D+00 EMaxC= 1.00D-01 BMatC= 2.14D-04 BMatP= 1.14D-03
 IDIUse=3 WtCom= 9.96D-01 WtEn= 4.41D-03
 Coeff-Com: -0.956D-02 0.118D-01-0.310D-01 0.113D-02-0.202D-01 0.465D-01
 Coeff-Com:  0.386D+00 0.615D+00
 Coeff-En:   0.000D+00 0.000D+00 0.000D+00 0.000D+00 0.000D+00 0.000D+00
 Coeff-En:   0.000D+00 0.100D+01
 Coeff:     -0.951D-02 0.118D-01-0.309D-01 0.113D-02-0.201D-01 0.463D-01
 Coeff:      0.384D+00 0.617D+00
 Gap=     0.071 Goal=   None    Shift=    0.000
 RMSDP=7.03D-05 MaxDP=2.95D-03 DE=-9.07D-04 OVMax= 7.97D-03

 Cycle   9  Pass 1  IDiag  1:
 RMSU=  3.58D-05    CP:  9.79D-01  8.74D-01  4.60D-01  3.34D-02  8.65D-01
                    CP:  8.95D-01  1.00D+00  7.65D-01
 E= -1212.45643012050     Delta-E=       -0.000228939775 Rises=F Damp=F
 DIIS: error= 1.87D-04 at cycle   9 NSaved=   9.
 NSaved= 9 IEnMin= 9 EnMin= -1212.45643012050     IErMin= 9 ErrMin= 1.87D-04
 ErrMax= 1.87D-04  0.00D+00 EMaxC= 1.00D-01 BMatC= 1.39D-05 BMatP= 2.14D-04
 IDIUse=3 WtCom= 9.98D-01 WtEn= 1.87D-03
 Coeff-Com:  0.113D-02-0.130D-02-0.122D-01 0.627D-03-0.195D-01-0.107D-01
 Coeff-Com:  0.979D-01 0.280D+00 0.664D+00
 Coeff-En:   0.000D+00 0.000D+00 0.000D+00 0.000D+00 0.000D+00 0.000D+00
 Coeff-En:   0.000D+00 0.000D+00 0.100D+01
 Coeff:      0.113D-02-0.129D-02-0.122D-01 0.626D-03-0.195D-01-0.107D-01
 Coeff:      0.978D-01 0.280D+00 0.664D+00
 Gap=     0.071 Goal=   None    Shift=    0.000
 RMSDP=2.13D-05 MaxDP=7.11D-04 DE=-2.29D-04 OVMax= 1.53D-03

 Cycle  10  Pass 1  IDiag  1:
 RMSU=  1.62D-05    CP:  9.79D-01  8.74D-01  4.60D-01  3.35D-02  8.67D-01
                    CP:  9.03D-01  1.02D+00  8.56D-01  7.85D-01
 E= -1212.45643974758     Delta-E=       -0.000009627078 Rises=F Damp=F
 DIIS: error= 7.32D-05 at cycle  10 NSaved=  10.
 NSaved=10 IEnMin=10 EnMin= -1212.45643974758     IErMin=10 ErrMin= 7.32D-05
 ErrMax= 7.32D-05  0.00D+00 EMaxC= 1.00D-01 BMatC= 4.01D-06 BMatP= 1.39D-05
 IDIUse=1 WtCom= 1.00D+00 WtEn= 0.00D+00
 Coeff-Com:  0.378D-03 0.389D-04-0.175D-02 0.105D-03-0.472D-02-0.811D-02
 Coeff-Com: -0.333D-02 0.655D-01 0.410D+00 0.542D+00
 Coeff:      0.378D-03 0.389D-04-0.175D-02 0.105D-03-0.472D-02-0.811D-02
 Coeff:     -0.333D-02 0.655D-01 0.410D+00 0.542D+00
 Gap=     0.071 Goal=   None    Shift=    0.000
 RMSDP=1.09D-05 MaxDP=4.69D-04 DE=-9.63D-06 OVMax= 1.57D-03

 Cycle  11  Pass 1  IDiag  1:
 RMSU=  5.84D-06    CP:  9.79D-01  8.74D-01  4.59D-01  3.34D-02  8.67D-01
                    CP:  9.04D-01  1.02D+00  8.49D-01  9.38D-01  5.73D-01
 E= -1212.45644400179     Delta-E=       -0.000004254213 Rises=F Damp=F
 DIIS: error= 2.51D-05 at cycle  11 NSaved=  11.
 NSaved=11 IEnMin=11 EnMin= -1212.45644400179     IErMin=11 ErrMin= 2.51D-05
 ErrMax= 2.51D-05  0.00D+00 EMaxC= 1.00D-01 BMatC= 3.72D-07 BMatP= 4.01D-06
 IDIUse=1 WtCom= 1.00D+00 WtEn= 0.00D+00
 Coeff-Com:  0.198D-03-0.125D-03 0.273D-03 0.242D-04-0.217D-03-0.284D-02
 Coeff-Com: -0.989D-02 0.728D-02 0.121D+00 0.301D+00 0.584D+00
 Coeff:      0.198D-03-0.125D-03 0.273D-03 0.242D-04-0.217D-03-0.284D-02
 Coeff:     -0.989D-02 0.728D-02 0.121D+00 0.301D+00 0.584D+00
 Gap=     0.071 Goal=   None    Shift=    0.000
 RMSDP=2.14D-06 MaxDP=1.21D-04 DE=-4.25D-06 OVMax= 1.43D-04

 Cycle  12  Pass 1  IDiag  1:
 RMSU=  1.55D-06    CP:  9.79D-01  8.74D-01  4.59D-01  3.35D-02  8.67D-01
                    CP:  9.04D-01  1.02D+00  8.55D-01  9.50D-01  6.36D-01
                    CP:  8.76D-01
 E= -1212.45644433656     Delta-E=       -0.000000334766 Rises=F Damp=F
 DIIS: error= 6.98D-06 at cycle  12 NSaved=  12.
 NSaved=12 IEnMin=12 EnMin= -1212.45644433656     IErMin=12 ErrMin= 6.98D-06
 ErrMax= 6.98D-06  0.00D+00 EMaxC= 1.00D-01 BMatC= 3.77D-08 BMatP= 3.72D-07
 IDIUse=1 WtCom= 1.00D+00 WtEn= 0.00D+00
 Coeff-Com:  0.143D-03-0.192D-03 0.365D-03 0.401D-05 0.393D-03-0.730D-03
 Coeff-Com: -0.412D-02-0.268D-02 0.791D-02 0.114D+00 0.268D+00 0.618D+00
 Coeff:      0.143D-03-0.192D-03 0.365D-03 0.401D-05 0.393D-03-0.730D-03
 Coeff:     -0.412D-02-0.268D-02 0.791D-02 0.114D+00 0.268D+00 0.618D+00
 Gap=     0.071 Goal=   None    Shift=    0.000
 RMSDP=7.87D-07 MaxDP=2.39D-05 DE=-3.35D-07 OVMax= 8.48D-05

 Cycle  13  Pass 1  IDiag  1:
 RMSU=  5.24D-07    CP:  9.79D-01  8.74D-01  4.59D-01  3.35D-02  8.67D-01
                    CP:  9.04D-01  1.02D+00  8.57D-01  9.56D-01  6.60D-01
                    CP:  9.26D-01  9.25D-01
 E= -1212.45644436791     Delta-E=       -0.000000031351 Rises=F Damp=F
 DIIS: error= 3.82D-06 at cycle  13 NSaved=  13.
 NSaved=13 IEnMin=13 EnMin= -1212.45644436791     IErMin=13 ErrMin= 3.82D-06
 ErrMax= 3.82D-06  0.00D+00 EMaxC= 1.00D-01 BMatC= 8.52D-09 BMatP= 3.77D-08
 IDIUse=1 WtCom= 1.00D+00 WtEn= 0.00D+00
 Coeff-Com:  0.655D-04-0.937D-04 0.163D-03-0.873D-06 0.211D-03-0.801D-05
 Coeff-Com: -0.903D-04-0.129D-02-0.133D-01 0.251D-01 0.368D-01 0.265D+00
 Coeff-Com:  0.688D+00
 Coeff:      0.655D-04-0.937D-04 0.163D-03-0.873D-06 0.211D-03-0.801D-05
 Coeff:     -0.903D-04-0.129D-02-0.133D-01 0.251D-01 0.368D-01 0.265D+00
 Coeff:      0.688D+00
 Gap=     0.071 Goal=   None    Shift=    0.000
 RMSDP=3.94D-07 MaxDP=1.90D-05 DE=-3.14D-08 OVMax= 2.90D-05

 Cycle  14  Pass 1  IDiag  1:
 RMSU=  2.26D-07    CP:  9.79D-01  8.74D-01  4.59D-01  3.35D-02  8.67D-01
                    CP:  9.04D-01  1.02D+00  8.57D-01  9.56D-01  6.69D-01
                    CP:  9.52D-01  1.00D+00  8.59D-01
 E= -1212.45644437510     Delta-E=       -0.000000007187 Rises=F Damp=F
 DIIS: error= 2.02D-06 at cycle  14 NSaved=  14.
 NSaved=14 IEnMin=14 EnMin= -1212.45644437510     IErMin=14 ErrMin= 2.02D-06
 ErrMax= 2.02D-06  0.00D+00 EMaxC= 1.00D-01 BMatC= 1.78D-09 BMatP= 8.52D-09
 IDIUse=1 WtCom= 1.00D+00 WtEn= 0.00D+00
 Coeff-Com:  0.307D-04-0.436D-04 0.292D-04 0.102D-05 0.279D-04 0.934D-04
 Coeff-Com:  0.957D-03 0.258D-03-0.880D-02-0.268D-02-0.327D-01 0.273D-01
 Coeff-Com:  0.373D+00 0.642D+00
 Coeff:      0.307D-04-0.436D-04 0.292D-04 0.102D-05 0.279D-04 0.934D-04
 Coeff:      0.957D-03 0.258D-03-0.880D-02-0.268D-02-0.327D-01 0.273D-01
 Coeff:      0.373D+00 0.642D+00
 Gap=     0.071 Goal=   None    Shift=    0.000
 RMSDP=1.97D-07 MaxDP=8.09D-06 DE=-7.19D-09 OVMax= 2.40D-05

 Cycle  15  Pass 1  IDiag  1:
 RMSU=  8.59D-08    CP:  9.79D-01  8.74D-01  4.59D-01  3.35D-02  8.67D-01
                    CP:  9.04D-01  1.02D+00  8.57D-01  9.57D-01  6.73D-01
                    CP:  9.62D-01  1.04D+00  1.04D+00  6.69D-01
 E= -1212.45644437660     Delta-E=       -0.000000001499 Rises=F Damp=F
 DIIS: error= 5.57D-07 at cycle  15 NSaved=  15.
 NSaved=15 IEnMin=15 EnMin= -1212.45644437660     IErMin=15 ErrMin= 5.57D-07
 ErrMax= 5.57D-07  0.00D+00 EMaxC= 1.00D-01 BMatC= 2.97D-10 BMatP= 1.78D-09
 IDIUse=1 WtCom= 1.00D+00 WtEn= 0.00D+00
 Coeff-Com:  0.165D-04-0.244D-04-0.559D-05 0.800D-06-0.183D-04 0.460D-04
 Coeff-Com:  0.646D-03 0.454D-03-0.341D-02-0.461D-02-0.262D-01-0.232D-01
 Coeff-Com:  0.108D+00 0.397D+00 0.551D+00
 Coeff:      0.165D-04-0.244D-04-0.559D-05 0.800D-06-0.183D-04 0.460D-04
 Coeff:      0.646D-03 0.454D-03-0.341D-02-0.461D-02-0.262D-01-0.232D-01
 Coeff:      0.108D+00 0.397D+00 0.551D+00
 Gap=     0.071 Goal=   None    Shift=    0.000
 RMSDP=6.99D-08 MaxDP=2.80D-06 DE=-1.50D-09 OVMax= 4.12D-06

 Cycle  16  Pass 1  IDiag  1:
 RMSU=  3.15D-08    CP:  9.79D-01  8.74D-01  4.59D-01  3.35D-02  8.67D-01
                    CP:  9.04D-01  1.02D+00  8.57D-01  9.58D-01  6.74D-01
                    CP:  9.63D-01  1.06D+00  1.04D+00  8.07D-01  6.68D-01
 E= -1212.45644437688     Delta-E=       -0.000000000285 Rises=F Damp=F
 DIIS: error= 2.98D-07 at cycle  16 NSaved=  16.
 NSaved=16 IEnMin=16 EnMin= -1212.45644437688     IErMin=16 ErrMin= 2.98D-07
 ErrMax= 2.98D-07  0.00D+00 EMaxC= 1.00D-01 BMatC= 2.99D-11 BMatP= 2.97D-10
 IDIUse=1 WtCom= 1.00D+00 WtEn= 0.00D+00
 Coeff-Com:  0.517D-05-0.740D-05-0.470D-05 0.266D-06-0.114D-04 0.123D-04
 Coeff-Com:  0.237D-03 0.245D-03-0.652D-03-0.205D-02-0.974D-02-0.158D-01
 Coeff-Com:  0.409D-03 0.124D+00 0.277D+00 0.627D+00
 Coeff:      0.517D-05-0.740D-05-0.470D-05 0.266D-06-0.114D-04 0.123D-04
 Coeff:      0.237D-03 0.245D-03-0.652D-03-0.205D-02-0.974D-02-0.158D-01
 Coeff:      0.409D-03 0.124D+00 0.277D+00 0.627D+00
 Gap=     0.071 Goal=   None    Shift=    0.000
 RMSDP=2.16D-08 MaxDP=8.85D-07 DE=-2.85D-10 OVMax= 9.73D-07

 Cycle  17  Pass 1  IDiag  1:
 RMSU=  9.54D-09    CP:  9.79D-01  8.74D-01  4.59D-01  3.35D-02  8.67D-01
                    CP:  9.04D-01  1.02D+00  8.57D-01  9.58D-01  6.74D-01
                    CP:  9.64D-01  1.06D+00  1.05D+00  8.19D-01  7.27D-01
                    CP:  8.15D-01
 E= -1212.45644437691     Delta-E=       -0.000000000023 Rises=F Damp=F
 DIIS: error= 5.55D-08 at cycle  17 NSaved=  17.
 NSaved=17 IEnMin=17 EnMin= -1212.45644437691     IErMin=17 ErrMin= 5.55D-08
 ErrMax= 5.55D-08  0.00D+00 EMaxC= 1.00D-01 BMatC= 2.34D-12 BMatP= 2.99D-11
 IDIUse=1 WtCom= 1.00D+00 WtEn= 0.00D+00
 Coeff-Com:  0.872D-06-0.973D-06-0.156D-05 0.196D-07-0.360D-05 0.149D-05
 Coeff-Com:  0.659D-04 0.112D-03 0.693D-04-0.394D-03-0.220D-02-0.517D-02
 Coeff-Com: -0.120D-01 0.266D-01 0.952D-01 0.340D+00 0.558D+00
 Coeff:      0.872D-06-0.973D-06-0.156D-05 0.196D-07-0.360D-05 0.149D-05
 Coeff:      0.659D-04 0.112D-03 0.693D-04-0.394D-03-0.220D-02-0.517D-02
 Coeff:     -0.120D-01 0.266D-01 0.952D-01 0.340D+00 0.558D+00
 Gap=     0.071 Goal=   None    Shift=    0.000
 RMSDP=7.14D-09 MaxDP=2.01D-07 DE=-2.27D-11 OVMax= 6.24D-07

 Error on total polarization charges =  0.01593
 SCF Done:  E(RB3LYP) =  -1212.45644438     A.U. after   17 cycles
            NFock= 17  Conv=0.71D-08     -V/T= 2.0054
 KE= 1.205911998302D+03 PE=-5.766729797349D+03 EE= 1.875839831137D+03
 Leave Link  502 at Sun Jul 18 15:54:59 2021, MaxMem=   104857600 cpu:             975.3 elap:             251.5
 (Enter /dades/curu/g16A03_MST/g16/l601.exe)
 Copying SCF densities to generalized density rwf, IOpCl= 0 IROHF=0.

 **********************************************************************

            Population analysis using the SCF density.

 **********************************************************************

 Orbital symmetries:
       Occupied  (A) (A) (A) (A) (A) (A) (A) (A) (A) (A) (A) (A)
                 (A) (A) (A) (A) (A) (A) (A) (A) (A) (A) (A) (A)
                 (A) (A) (A) (A) (A) (A) (A) (A) (A) (A) (A) (A)
                 (A) (A) (A) (A) (A) (A) (A) (A) (A) (A) (A) (A)
                 (A) (A) (A) (A) (A) (A) (A) (A) (A) (A) (A) (A)
                 (A) (A) (A) (A) (A) (A) (A) (A) (A) (A) (A) (A)
       Virtual   (A) (A) (A) (A) (A) (A) (A) (A) (A) (A) (A) (A)
                 (A) (A) (A) (A) (A) (A) (A) (A) (A) (A) (A) (A)
                 (A) (A) (A) (A) (A) (A) (A) (A) (A) (A) (A) (A)
                 (A) (A) (A) (A) (A) (A) (A) (A) (A) (A) (A) (A)
                 (A) (A) (A) (A) (A) (A) (A) (A) (A) (A) (A) (A)
                 (A) (A) (A) (A) (A) (A) (A) (A) (A) (A) (A) (A)
                 (A) (A) (A) (A) (A) (A) (A) (A) (A) (A) (A) (A)
                 (A) (A) (A) (A) (A) (A) (A) (A) (A) (A) (A) (A)
                 (A) (A) (A) (A) (A) (A) (A) (A) (A) (A) (A) (A)
                 (A) (A) (A) (A) (A) (A) (A) (A) (A) (A) (A) (A)
                 (A) (A) (A) (A) (A) (A) (A) (A) (A) (A) (A) (A)
                 (A) (A) (A) (A) (A) (A) (A) (A) (A) (A) (A) (A)
                 (A) (A) (A) (A) (A) (A) (A) (A) (A) (A) (A) (A)
                 (A) (A) (A) (A) (A) (A) (A) (A) (A) (A) (A) (A)
                 (A) (A) (A) (A) (A) (A) (A) (A) (A) (A) (A) (A)
                 (A) (A) (A) (A) (A) (A) (A) (A) (A) (A) (A) (A)
                 (A) (A) (A) (A) (A) (A) (A) (A) (A) (A) (A) (A)
                 (A) (A) (A) (A) (A) (A) (A) (A) (A) (A) (A) (A)
                 (A) (A) (A) (A) (A) (A) (A) (A) (A) (A) (A) (A)
                 (A) (A) (A) (A) (A) (A) (A) (A) (A) (A) (A) (A)
                 (A) (A) (A) (A) (A)
 The electronic state is 1-A.
 Alpha  occ. eigenvalues --  -88.95852 -19.11920 -14.45223 -14.37984 -14.36347
 Alpha  occ. eigenvalues --  -14.36117 -14.35554 -10.35204 -10.33321 -10.29399
 Alpha  occ. eigenvalues --  -10.26092 -10.24828 -10.23838 -10.22664 -10.21469
 Alpha  occ. eigenvalues --  -10.21152 -10.21083 -10.20858 -10.19274  -8.02223
 Alpha  occ. eigenvalues --   -5.98615  -5.98251  -5.97877  -1.16087  -1.05196
 Alpha  occ. eigenvalues --   -1.03412  -0.98241  -0.95332  -0.92373  -0.87616
 Alpha  occ. eigenvalues --   -0.85077  -0.81736  -0.78016  -0.76305  -0.73462
 Alpha  occ. eigenvalues --   -0.71253  -0.68785  -0.65345  -0.63490  -0.60104
 Alpha  occ. eigenvalues --   -0.59255  -0.58955  -0.56487  -0.55753  -0.54644
 Alpha  occ. eigenvalues --   -0.52205  -0.50754  -0.49341  -0.49128  -0.48498
 Alpha  occ. eigenvalues --   -0.47409  -0.46905  -0.46028  -0.45381  -0.44496
 Alpha  occ. eigenvalues --   -0.43621  -0.42287  -0.41730  -0.40315  -0.39622
 Alpha  occ. eigenvalues --   -0.37799  -0.37093  -0.36489  -0.35951  -0.33185
 Alpha  occ. eigenvalues --   -0.31227  -0.29385  -0.28403  -0.26252  -0.25678
 Alpha  occ. eigenvalues --   -0.25488  -0.24456
 Alpha virt. eigenvalues --   -0.17365  -0.06852  -0.05336  -0.02400  -0.00110
 Alpha virt. eigenvalues --    0.02109   0.03872   0.05857   0.08312   0.08911
 Alpha virt. eigenvalues --    0.09503   0.09742   0.10558   0.12762   0.13146
 Alpha virt. eigenvalues --    0.14107   0.14416   0.14560   0.15127   0.15844
 Alpha virt. eigenvalues --    0.16616   0.17630   0.18189   0.18432   0.20014
 Alpha virt. eigenvalues --    0.22931   0.23732   0.25018   0.25344   0.27635
 Alpha virt. eigenvalues --    0.27845   0.28608   0.30336   0.31547   0.32613
 Alpha virt. eigenvalues --    0.33066   0.34479   0.35034   0.37095   0.37861
 Alpha virt. eigenvalues --    0.39418   0.40498   0.42069   0.43050   0.48393
 Alpha virt. eigenvalues --    0.48914   0.49562   0.50740   0.51468   0.52307
 Alpha virt. eigenvalues --    0.52886   0.53303   0.54495   0.54747   0.55396
 Alpha virt. eigenvalues --    0.56452   0.56777   0.57150   0.58216   0.59040
 Alpha virt. eigenvalues --    0.59261   0.60523   0.61090   0.63759   0.63896
 Alpha virt. eigenvalues --    0.64263   0.64909   0.66675   0.68363   0.68856
 Alpha virt. eigenvalues --    0.69518   0.70438   0.70665   0.71672   0.71930
 Alpha virt. eigenvalues --    0.73074   0.74219   0.74346   0.76126   0.77081
 Alpha virt. eigenvalues --    0.78313   0.79561   0.80333   0.81457   0.81646
 Alpha virt. eigenvalues --    0.82542   0.82840   0.83271   0.84449   0.84713
 Alpha virt. eigenvalues --    0.85081   0.85964   0.86585   0.87776   0.88339
 Alpha virt. eigenvalues --    0.88707   0.89132   0.89836   0.91595   0.92325
 Alpha virt. eigenvalues --    0.93616   0.94096   0.94846   0.95412   0.96864
 Alpha virt. eigenvalues --    0.97545   0.98555   0.99911   1.00667   1.01302
 Alpha virt. eigenvalues --    1.02347   1.05195   1.06947   1.07872   1.08768
 Alpha virt. eigenvalues --    1.09884   1.11904   1.12909   1.14015   1.15770
 Alpha virt. eigenvalues --    1.16720   1.17298   1.22881   1.23758   1.25823
 Alpha virt. eigenvalues --    1.27312   1.27903   1.28889   1.30316   1.33583
 Alpha virt. eigenvalues --    1.36996   1.38038   1.39718   1.41181   1.42879
 Alpha virt. eigenvalues --    1.43645   1.46256   1.47607   1.48414   1.49492
 Alpha virt. eigenvalues --    1.50519   1.53907   1.59380   1.62033   1.64480
 Alpha virt. eigenvalues --    1.67017   1.70370   1.72005   1.73133   1.75196
 Alpha virt. eigenvalues --    1.75949   1.77958   1.78624   1.80635   1.81627
 Alpha virt. eigenvalues --    1.83181   1.83423   1.84150   1.85064   1.85757
 Alpha virt. eigenvalues --    1.87872   1.88925   1.91329   1.92623   1.93930
 Alpha virt. eigenvalues --    1.96576   1.97322   1.98980   1.99862   2.03567
 Alpha virt. eigenvalues --    2.06043   2.06374   2.08846   2.10225   2.12234
 Alpha virt. eigenvalues --    2.13335   2.14558   2.15023   2.16732   2.19219
 Alpha virt. eigenvalues --    2.21145   2.21754   2.23204   2.23909   2.25489
 Alpha virt. eigenvalues --    2.26401   2.27533   2.29390   2.31311   2.34798
 Alpha virt. eigenvalues --    2.35967   2.36396   2.37620   2.39849   2.42862
 Alpha virt. eigenvalues --    2.45382   2.46365   2.47719   2.49652   2.50489
 Alpha virt. eigenvalues --    2.52340   2.56384   2.59073   2.59416   2.61479
 Alpha virt. eigenvalues --    2.63137   2.65469   2.65691   2.67980   2.69376
 Alpha virt. eigenvalues --    2.73951   2.75388   2.78221   2.78956   2.80857
 Alpha virt. eigenvalues --    2.81524   2.83895   2.93358   2.94633   3.01007
 Alpha virt. eigenvalues --    3.02036   3.10102   3.14070   3.20954   3.25129
 Alpha virt. eigenvalues --    3.42788   3.80689   3.82352   3.90525   3.98079
 Alpha virt. eigenvalues --    4.03200   4.06954   4.07950   4.10004   4.10974
 Alpha virt. eigenvalues --    4.14866   4.16441   4.23899   4.27389   4.33579
 Alpha virt. eigenvalues --    4.34921   4.45059   4.49477   4.52355   4.73852
          Condensed to atoms (all electrons):
               1          2          3          4          5          6
     1  C    5.370052   0.350938   0.361718   0.352467   0.342136  -0.076660
     2  H    0.350938   0.514994  -0.019506  -0.016122  -0.020186   0.001762
     3  H    0.361718  -0.019506   0.522518  -0.038682  -0.019094   0.000707
     4  H    0.352467  -0.016122  -0.038682   0.533602  -0.020247   0.002894
     5  C    0.342136  -0.020186  -0.019094  -0.020247   4.283032   0.649856
     6  O   -0.076660   0.001762   0.000707   0.002894   0.649856   8.056762
     7  N   -0.148696   0.003163  -0.001399   0.006255   0.233827  -0.124368
     8  H    0.001428   0.000987   0.000234  -0.000046  -0.020564   0.003797
     9  C    0.007880  -0.000188  -0.000279  -0.000124  -0.008192   0.013578
    10  C   -0.000427   0.000051  -0.000004   0.000004  -0.000671  -0.001194
    11  C    0.000003  -0.000000   0.000000  -0.000000   0.000021  -0.000015
    12  C    0.000001   0.000000  -0.000000  -0.000000  -0.000000   0.000003
    13  H    0.000000  -0.000000  -0.000000  -0.000000  -0.000000   0.000000
    14  H   -0.000000  -0.000000  -0.000000   0.000000  -0.000001   0.000000
    15  H   -0.000056   0.000013   0.000000   0.000000   0.000457  -0.000023
    16  C    0.000191  -0.000016   0.000072   0.000000  -0.001454   0.002291
    17  H   -0.000207   0.000002  -0.000015   0.000011   0.003539   0.001799
    18  C   -0.000005   0.000001  -0.000002   0.000000   0.000073  -0.000036
    19  C   -0.000000   0.000000   0.000000   0.000000   0.000002   0.000005
    20  N    0.000000  -0.000000  -0.000000  -0.000000   0.000000   0.000000
    21  C   -0.000000   0.000000   0.000000  -0.000000  -0.000003  -0.000003
    22  H    0.000000  -0.000000  -0.000000   0.000000  -0.000001   0.000001
    23  S   -0.000000  -0.000000   0.000000   0.000000  -0.000000  -0.000000
    24  C    0.000000   0.000000   0.000000   0.000000  -0.000000  -0.000000
    25  N    0.000000  -0.000000   0.000000   0.000000   0.000000  -0.000000
    26  C   -0.000000  -0.000000   0.000000   0.000000  -0.000000  -0.000000
    27  N   -0.000000   0.000000   0.000000   0.000000  -0.000000  -0.000000
    28  H   -0.000000  -0.000000   0.000000   0.000000  -0.000000  -0.000000
    29  H    0.000000   0.000000   0.000000   0.000000   0.000000   0.000000
    30  N    0.000000   0.000000  -0.000000   0.000000   0.000000   0.000000
    31  H   -0.000000  -0.000000   0.000000   0.000000  -0.000000  -0.000000
    32  H   -0.000000  -0.000000   0.000000   0.000000  -0.000000  -0.000000
    33  H   -0.000000  -0.000000   0.000000  -0.000000  -0.000000  -0.000000
               7          8          9         10         11         12
     1  C   -0.148696   0.001428   0.007880  -0.000427   0.000003   0.000001
     2  H    0.003163   0.000987  -0.000188   0.000051  -0.000000   0.000000
     3  H   -0.001399   0.000234  -0.000279  -0.000004   0.000000  -0.000000
     4  H    0.006255  -0.000046  -0.000124   0.000004  -0.000000  -0.000000
     5  C    0.233827  -0.020564  -0.008192  -0.000671   0.000021  -0.000000
     6  O   -0.124368   0.003797   0.013578  -0.001194  -0.000015   0.000003
     7  N    7.345013   0.297036   0.177508  -0.057885   0.005788   0.001201
     8  H    0.297036   0.376681  -0.022077  -0.003758  -0.000200   0.000049
     9  C    0.177508  -0.022077   4.573830   0.553570  -0.016443  -0.034561
    10  C   -0.057885  -0.003758   0.553570   4.964252   0.510283  -0.045527
    11  C    0.005788  -0.000200  -0.016443   0.510283   4.907436   0.504148
    12  C    0.001201   0.000049  -0.034561  -0.045527   0.504148   5.028085
    13  H    0.000006  -0.000000   0.000401   0.005236  -0.044137   0.362771
    14  H   -0.000130   0.000003   0.003432  -0.032893   0.358357  -0.036848
    15  H   -0.004283   0.001153  -0.040795   0.356227  -0.041799   0.004841
    16  C   -0.059942   0.002120   0.540437  -0.067949  -0.038794  -0.075591
    17  H   -0.007657   0.000273  -0.029732   0.005616   0.000029   0.004337
    18  C    0.003371  -0.000075   0.001456  -0.039669  -0.009339   0.498872
    19  C   -0.000361   0.000010   0.004928   0.001611   0.006126  -0.047002
    20  N    0.000000  -0.000000  -0.000115  -0.000000   0.000460  -0.008145
    21  C    0.000013   0.000000   0.000478  -0.000008  -0.000269   0.009990
    22  H   -0.000001   0.000000   0.000082   0.000000  -0.000005  -0.000245
    23  S    0.000000  -0.000000  -0.000004  -0.000000   0.000013   0.000155
    24  C   -0.000000   0.000000   0.000000  -0.000000   0.000005  -0.000182
    25  N   -0.000000  -0.000000  -0.000000  -0.000000  -0.000000  -0.000018
    26  C   -0.000000   0.000000   0.000000   0.000000  -0.000000   0.000001
    27  N    0.000000  -0.000000  -0.000000  -0.000000  -0.000000  -0.000000
    28  H    0.000000  -0.000000   0.000000   0.000000  -0.000000  -0.000000
    29  H   -0.000000   0.000000   0.000000  -0.000000   0.000000   0.000000
    30  N    0.000000   0.000000  -0.000000   0.000000   0.000000  -0.000000
    31  H    0.000000  -0.000000   0.000000  -0.000000  -0.000000  -0.000000
    32  H    0.000000  -0.000000   0.000000   0.000000  -0.000000   0.000000
    33  H    0.000000  -0.000000   0.000000   0.000000   0.000000   0.000002
              13         14         15         16         17         18
     1  C    0.000000  -0.000000  -0.000056   0.000191  -0.000207  -0.000005
     2  H   -0.000000  -0.000000   0.000013  -0.000016   0.000002   0.000001
     3  H   -0.000000  -0.000000   0.000000   0.000072  -0.000015  -0.000002
     4  H   -0.000000   0.000000   0.000000   0.000000   0.000011   0.000000
     5  C   -0.000000  -0.000001   0.000457  -0.001454   0.003539   0.000073
     6  O    0.000000   0.000000  -0.000023   0.002291   0.001799  -0.000036
     7  N    0.000006  -0.000130  -0.004283  -0.059942  -0.007657   0.003371
     8  H   -0.000000   0.000003   0.001153   0.002120   0.000273  -0.000075
     9  C    0.000401   0.003432  -0.040795   0.540437  -0.029732   0.001456
    10  C    0.005236  -0.032893   0.356227  -0.067949   0.005616  -0.039669
    11  C   -0.044137   0.358357  -0.041799  -0.038794   0.000029  -0.009339
    12  C    0.362771  -0.036848   0.004841  -0.075591   0.004337   0.498872
    13  H    0.563450  -0.004889  -0.000196   0.004639  -0.000098  -0.044372
    14  H   -0.004889   0.551738  -0.004398   0.000707   0.000014   0.003423
    15  H   -0.000196  -0.004398   0.565830   0.006027  -0.000144   0.000372
    16  C    0.004639   0.000707   0.006027   5.064670   0.347297   0.489214
    17  H   -0.000098   0.000014  -0.000144   0.347297   0.544604  -0.036065
    18  C   -0.044372   0.003423   0.000372   0.489214  -0.036065   4.833424
    19  C   -0.010981  -0.000192   0.000010  -0.037724  -0.007874   0.329786
    20  N    0.009815  -0.000008   0.000000   0.004145  -0.000019  -0.053319
    21  C    0.000600   0.000002  -0.000000  -0.018738   0.004976  -0.061254
    22  H   -0.000017   0.000000  -0.000000   0.003687   0.001888  -0.005468
    23  S    0.000110  -0.000000   0.000000   0.000145  -0.000078   0.004840
    24  C   -0.000098  -0.000000  -0.000000   0.000071  -0.000007   0.006043
    25  N   -0.000025   0.000000  -0.000000   0.000002  -0.000000  -0.000165
    26  C    0.000000   0.000000   0.000000   0.000000   0.000000  -0.000007
    27  N    0.000000   0.000000  -0.000000  -0.000000  -0.000000  -0.000000
    28  H   -0.000000   0.000000   0.000000   0.000000   0.000000  -0.000000
    29  H   -0.000000  -0.000000   0.000000   0.000000  -0.000000  -0.000000
    30  N   -0.000000  -0.000000  -0.000000  -0.000000  -0.000000   0.000000
    31  H   -0.000000   0.000000  -0.000000  -0.000000  -0.000000   0.000000
    32  H    0.000000   0.000000   0.000000   0.000000   0.000000  -0.000000
    33  H    0.000016  -0.000000   0.000000  -0.000000   0.000000  -0.000026
              19         20         21         22         23         24
     1  C   -0.000000   0.000000  -0.000000   0.000000  -0.000000   0.000000
     2  H    0.000000  -0.000000   0.000000  -0.000000  -0.000000   0.000000
     3  H    0.000000  -0.000000   0.000000  -0.000000   0.000000   0.000000
     4  H    0.000000  -0.000000  -0.000000   0.000000   0.000000   0.000000
     5  C    0.000002   0.000000  -0.000003  -0.000001  -0.000000  -0.000000
     6  O    0.000005   0.000000  -0.000003   0.000001  -0.000000  -0.000000
     7  N   -0.000361   0.000000   0.000013  -0.000001   0.000000  -0.000000
     8  H    0.000010  -0.000000   0.000000   0.000000  -0.000000   0.000000
     9  C    0.004928  -0.000115   0.000478   0.000082  -0.000004   0.000000
    10  C    0.001611  -0.000000  -0.000008   0.000000  -0.000000  -0.000000
    11  C    0.006126   0.000460  -0.000269  -0.000005   0.000013   0.000005
[...]
 Alpha virt. eigenvalues --    3.99881   4.04688   4.16475   4.18628   4.95848
          Condensed to atoms (all electrons):
               1          2          3          4          5          6
     1  C    4.701368   0.193480   0.297061   0.385177  -0.002199  -0.085116
     2  H    0.193480   1.034023  -0.055232  -0.108068   0.217113   0.001405
     3  H    0.297061  -0.055232   0.698114  -0.044376   0.033708  -0.000584
     4  H    0.385177  -0.108068  -0.044376   0.779642  -0.097521   0.021907
     5  C   -0.002199   0.217113   0.033708  -0.097521   5.611256   0.151820
     6  O   -0.085116   0.001405  -0.000584   0.021907   0.151820   8.812486
     7  N    0.012087  -0.151951   0.017903   0.075375   0.166929  -0.122553
     8  H   -0.067509   0.009686   0.000720  -0.008839  -0.103800  -0.009198
     9  C    0.106693  -0.035156  -0.018744  -0.004385  -0.450110   0.184907
    10  C   -0.017322  -0.047722   0.012602   0.003461  -0.708588   0.104783
    11  C    0.004493  -0.000243   0.001914  -0.000338  -0.005749   0.001010
    12  C    0.017157  -0.005237   0.000740   0.000984   0.082460  -0.014568
    13  H    0.000846  -0.000018   0.000002   0.000041  -0.003350   0.000120
    14  H   -0.000924   0.000071  -0.000026  -0.000042   0.004119  -0.000581
    15  H    0.006425  -0.000700   0.000167   0.000717   0.008281   0.005406
    16  C   -0.077399   0.052047  -0.006040   0.003128   0.207415   0.016314
    17  H    0.008866   0.001539   0.000776  -0.001934   0.104502  -0.066460
    18  C   -0.064033   0.008782  -0.006841  -0.001884   0.347678  -0.131302
    19  C    0.017698   0.000164   0.001241   0.000308  -0.061819   0.010699
    20  N    0.001187   0.000021   0.000087   0.000019   0.009136   0.001001
    21  C   -0.006277  -0.000069  -0.000424   0.000117   0.019858   0.010345
    22  H   -0.003514  -0.000049  -0.000113   0.000046   0.006887  -0.010653
    23  S   -0.000382   0.000009  -0.000042   0.000035   0.004060   0.001108
    24  C    0.001435   0.000095   0.000099   0.000033   0.001151   0.000392
    25  N    0.000005  -0.000002  -0.000002   0.000002   0.000266   0.000028
    26  C   -0.000014  -0.000001  -0.000002   0.000001  -0.000208  -0.000026
    27  N    0.000000   0.000000   0.000000  -0.000000   0.000004   0.000000
    28  H    0.000000   0.000000   0.000000   0.000000   0.000005  -0.000000
    29  H   -0.000000  -0.000000  -0.000000  -0.000000  -0.000001  -0.000000
    30  N    0.000001   0.000000   0.000000   0.000000   0.000030   0.000001
    31  H   -0.000000  -0.000000  -0.000000   0.000000   0.000000  -0.000000
    32  H    0.000005   0.000001   0.000001  -0.000000   0.000033   0.000007
    33  H   -0.000016  -0.000001  -0.000001  -0.000001  -0.000164  -0.000003
               7          8          9         10         11         12
     1  C    0.012087  -0.067509   0.106693  -0.017322   0.004493   0.017157
     2  H   -0.151951   0.009686  -0.035156  -0.047722  -0.000243  -0.005237
     3  H    0.017903   0.000720  -0.018744   0.012602   0.001914   0.000740
     4  H    0.075375  -0.008839  -0.004385   0.003461  -0.000338   0.000984
     5  C    0.166929  -0.103800  -0.450110  -0.708588  -0.005749   0.082460
     6  O   -0.122553  -0.009198   0.184907   0.104783   0.001010  -0.014568
     7  N    8.098652   0.242008  -1.326386   1.104772  -0.541875   0.363953
     8  H    0.242008   1.000375   0.110018  -0.086302   0.057816   0.032477
     9  C   -1.326386   0.110018  22.342175 -10.177446   5.746455  -4.998252
    10  C    1.104772  -0.086302 -10.177446  21.588261  -6.819019   4.169368
    11  C   -0.541875   0.057816   5.746455  -6.819019  17.978070  -7.104522
    12  C    0.363953   0.032477  -4.998252   4.169368  -7.104522  24.449246
    13  H    0.004344  -0.002698   0.038692  -0.153576   0.545869  -1.472831
    14  H   -0.001932   0.005685  -0.566736   0.509762  -1.354163   1.228523
    15  H   -0.232667   0.003459   1.882627  -2.204783   0.568633  -0.528518
    16  C    0.624712  -0.156883  -8.395625   4.334339  -5.617558  -1.047060
    17  H   -0.157412  -0.001743   0.315598  -0.336962   0.136937  -0.205289
    18  C   -0.471681   0.018531   1.685577  -6.679134   2.983404  -6.962673
    19  C   -0.056130   0.000117  -0.663234   0.914368  -1.256242  -0.784380
    20  N   -0.004121   0.000891   0.067165  -0.034014  -0.085929   0.040037
    21  C    0.002383   0.004456   0.795358  -0.551244   0.567589  -1.403005
    22  H   -0.001137   0.001799  -0.023910  -0.039333   0.025956   0.068369
    23  S    0.002676  -0.000148  -0.060270   0.005255  -0.007722   0.062933
    24  C   -0.015461  -0.000222   0.215052  -0.015345  -0.115372  -0.626231
    25  N    0.000780   0.000009  -0.022031   0.010232  -0.015227  -0.009378
    26  C    0.000128   0.000006  -0.000362  -0.001655   0.006980  -0.029644
    27  N    0.000001   0.000000  -0.000095   0.000051   0.000093   0.002286
    28  H   -0.000001   0.000000   0.000054  -0.000080   0.000390   0.000452
    29  H    0.000001   0.000000  -0.000006  -0.000001   0.000042  -0.000133
    30  N   -0.000006  -0.000001   0.000042   0.000084  -0.000612   0.000853
    31  H    0.000002  -0.000000  -0.000048   0.000007  -0.000038   0.000051
    32  H   -0.000027  -0.000002   0.000102   0.000082   0.000128  -0.000945
    33  H    0.000033   0.000001  -0.000039   0.000747   0.003334   0.006721
              13         14         15         16         17         18
     1  C    0.000846  -0.000924   0.006425  -0.077399   0.008866  -0.064033
     2  H   -0.000018   0.000071  -0.000700   0.052047   0.001539   0.008782
     3  H    0.000002  -0.000026   0.000167  -0.006040   0.000776  -0.006841
     4  H    0.000041  -0.000042   0.000717   0.003128  -0.001934  -0.001884
     5  C   -0.003350   0.004119   0.008281   0.207415   0.104502   0.347678
     6  O    0.000120  -0.000581   0.005406   0.016314  -0.066460  -0.131302
     7  N    0.004344  -0.001932  -0.232667   0.624712  -0.157412  -0.471681
     8  H   -0.002698   0.005685   0.003459  -0.156883  -0.001743   0.018531
     9  C    0.038692  -0.566736   1.882627  -8.395625   0.315598   1.685577
    10  C   -0.153576   0.509762  -2.204783   4.334339  -0.336962  -6.679134
    11  C    0.545869  -1.354163   0.568633  -5.617558   0.136937   2.983404
    12  C   -1.472831   1.228523  -0.528518  -1.047060  -0.205289  -6.962673
    13  H    2.179063  -0.096550  -0.005434  -0.274033  -0.004902   1.042064
    14  H   -0.096550   1.788132  -0.094660   0.086087   0.006682  -0.040125
    15  H   -0.005434  -0.094660   2.241516   0.091287  -0.024950  -0.012298
    16  C   -0.274033   0.086087   0.091287  29.005258  -2.034141 -11.029842
    17  H   -0.004902   0.006682  -0.024950  -2.034141   2.637987   1.102049
    18  C    1.042064  -0.040125  -0.012298 -11.029842   1.102049  26.814744
    19  C    0.073467  -0.008233   0.012989   0.984773   0.026562  -6.674467
    20  N   -0.162114   0.013215  -0.000265   0.017852   0.011481   0.334722
    21  C   -0.029976   0.003101  -0.004409  -2.252016   0.247269   2.236728
    22  H   -0.002971   0.000542  -0.000148   0.189723  -0.120634  -0.239210
    23  S    0.002186  -0.000599   0.000454   0.041202   0.003964  -0.109061
    24  C    0.031493   0.006026  -0.000459  -0.030805  -0.016692   0.552279
    25  N   -0.027253  -0.000458   0.000212   0.121413   0.001713  -0.297022
    26  C   -0.006102   0.000256  -0.000070  -0.002073  -0.001733  -0.070068
    27  N    0.000379   0.000009   0.000002  -0.000689   0.000037   0.005074
    28  H    0.000102   0.000005  -0.000003  -0.000807  -0.000078   0.000782
    29  H   -0.000125   0.000005  -0.000000   0.000012   0.000012  -0.000140
    30  N    0.001055  -0.000050   0.000006  -0.000623   0.000317   0.015469
    31  H    0.000013  -0.000005  -0.000000   0.000530   0.000040  -0.001977
    32  H   -0.000015   0.000004   0.000007  -0.002195  -0.000303   0.007222
    33  H   -0.004222   0.000378   0.000004  -0.006391   0.000748   0.008934
              19         20         21         22         23         24
     1  C    0.017698   0.001187  -0.006277  -0.003514  -0.000382   0.001435
     2  H    0.000164   0.000021  -0.000069  -0.000049   0.000009   0.000095
     3  H    0.001241   0.000087  -0.000424  -0.000113  -0.000042   0.000099
     4  H    0.000308   0.000019   0.000117   0.000046   0.000035   0.000033
     5  C   -0.061819   0.009136   0.019858   0.006887   0.004060   0.001151
     6  O    0.010699   0.001001   0.010345  -0.010653   0.001108   0.000392
     7  N   -0.056130  -0.004121   0.002383  -0.001137   0.002676  -0.015461
     8  H    0.000117   0.000891   0.004456   0.001799  -0.000148  -0.000222
     9  C   -0.663234   0.067165   0.795358  -0.023910  -0.060270   0.215052
    10  C    0.914368  -0.034014  -0.551244  -0.039333   0.005255  -0.015345
    11  C   -1.256242  -0.085929   0.567589   0.025956  -0.007722  -0.115372
    12  C   -0.784380   0.040037  -1.403005   0.068369   0.062933  -0.626231
    13  H    0.073467  -0.162114  -0.029976  -0.002971   0.002186   0.031493
    14  H   -0.008233   0.013215   0.003101   0.000542  -0.000599   0.006026
    15  H    0.012989  -0.000265  -0.004409  -0.000148   0.000454  -0.000459
    16  C    0.984773   0.017852  -2.252016   0.189723   0.041202  -0.030805
    17  H    0.026562   0.011481   0.247269  -0.120634   0.003964  -0.016692
    18  C   -6.674467   0.334722   2.236728  -0.239210  -0.109061   0.552279
    19  C   23.093729  -0.776345  -7.477338   1.061203  -0.352024  -1.883311
    20  N   -0.776345   8.178093   0.390856  -0.022710   0.003067   0.386136
    21  C   -7.477338   0.390856  13.778733  -0.819303   0.393532  -0.786799
    22  H    1.061203  -0.022710  -0.819303   1.808191  -0.296606   0.041031
    23  S   -0.352024   0.003067   0.393532  -0.296606  15.984437   0.005903
    24  C   -1.883311   0.386136  -0.786799   0.041031   0.005903   8.731764
    25  N    0.350895  -0.375917   0.163753  -0.006806  -0.105190  -0.724113
    26  C   -0.219799  -0.260070   0.131045   0.013408  -0.011308  -0.404986
    27  N    0.024336   0.017915  -0.001170   0.000665  -0.026026   0.115409
    28  H   -0.009110   0.000197   0.000299   0.000034   0.002802  -0.005299
    29  H   -0.000320   0.000877   0.001894   0.000082   0.001965  -0.004012
    30  N   -0.000197   0.009990  -0.045447  -0.001879  -0.055210   0.186594
    31  H    0.003739   0.000455   0.002697   0.000014   0.003951  -0.046054
    32  H   -0.027295   0.007290   0.000544   0.000089   0.020369   0.046390
    33  H   -0.055995   0.036628   0.009322   0.000037  -0.002827  -0.038653
              25         26         27         28         29         30
     1  C    0.000005  -0.000014   0.000000   0.000000  -0.000000   0.000001
     2  H   -0.000002  -0.000001   0.000000   0.000000  -0.000000   0.000000
     3  H   -0.000002  -0.000002   0.000000   0.000000  -0.000000   0.000000
     4  H    0.000002   0.000001  -0.000000   0.000000  -0.000000   0.000000
     5  C    0.000266  -0.000208   0.000004   0.000005  -0.000001   0.000030
     6  O    0.000028  -0.000026   0.000000  -0.000000  -0.000000   0.000001
     7  N    0.000780   0.000128   0.000001  -0.000001   0.000001  -0.000006
     8  H    0.000009   0.000006   0.000000   0.000000   0.000000  -0.000001
     9  C   -0.022031  -0.000362  -0.000095   0.000054  -0.000006   0.000042
    10  C    0.010232  -0.001655   0.000051  -0.000080  -0.000001   0.000084
    11  C   -0.015227   0.006980   0.000093   0.000390   0.000042  -0.000612
    12  C   -0.009378  -0.029644   0.002286   0.000452  -0.000133   0.000853
    13  H   -0.027253  -0.006102   0.000379   0.000102  -0.000125   0.001055
    14  H   -0.000458   0.000256   0.000009   0.000005   0.000005  -0.000050
    15  H    0.000212  -0.000070   0.000002  -0.000003  -0.000000   0.000006
    16  C    0.121413  -0.002073  -0.000689  -0.000807   0.000012  -0.000623
    17  H    0.001713  -0.001733   0.000037  -0.000078   0.000012   0.000317
    18  C   -0.297022  -0.070068   0.005074   0.000782  -0.000140   0.015469
    19  C    0.350895  -0.219799   0.024336  -0.009110  -0.000320  -0.000197
    20  N   -0.375917  -0.260070   0.017915   0.000197   0.000877   0.009990
    21  C    0.163753   0.131045  -0.001170   0.000299   0.001894  -0.045447
    22  H   -0.006806   0.013408   0.000665   0.000034   0.000082  -0.001879
    23  S   -0.105190  -0.011308  -0.026026   0.002802   0.001965  -0.055210
    24  C   -0.724113  -0.404986   0.115409  -0.005299  -0.004012   0.186594
    25  N    7.943454   0.474324  -0.087800   0.051392   0.024204  -0.175398
    26  C    0.474324   5.665864  -0.003365  -0.080333  -0.125614   0.083265
    27  N   -0.087800  -0.003365   6.438335   0.386253   0.454246  -0.084567
    28  H    0.051392  -0.080333   0.386253   0.748395  -0.140326   0.010998
    29  H    0.024204  -0.125614   0.454246  -0.140326   0.766455  -0.007532
    30  N   -0.175398   0.083265  -0.084567   0.010998  -0.007532   6.342829
    31  H    0.024500  -0.048762  -0.020023   0.000112  -0.001134   0.418200
    32  H   -0.008885  -0.099764   0.009045  -0.001278   0.001329   0.426644
    33  H    0.414472  -0.205648   0.009126   0.009315  -0.001784   0.018902
              31         32         33
     1  C   -0.000000   0.000005  -0.000016
     2  H   -0.000000   0.000001  -0.000001
     3  H   -0.000000   0.000001  -0.000001
     4  H    0.000000  -0.000000  -0.000001
     5  C    0.000000   0.000033  -0.000164
     6  O   -0.000000   0.000007  -0.000003
     7  N    0.000002  -0.000027   0.000033
     8  H   -0.000000  -0.000002   0.000001
     9  C   -0.000048   0.000102  -0.000039
    10  C    0.000007   0.000082   0.000747
    11  C   -0.000038   0.000128   0.003334
    12  C    0.000051  -0.000945   0.006721
    13  H    0.000013  -0.000015  -0.004222
    14  H   -0.000005   0.000004   0.000378
    15  H   -0.000000   0.000007   0.000004
    16  C    0.000530  -0.002195  -0.006391
    17  H    0.000040  -0.000303   0.000748
    18  C   -0.001977   0.007222   0.008934
    19  C    0.003739  -0.027295  -0.055995
    20  N    0.000455   0.007290   0.036628
    21  C    0.002697   0.000544   0.009322
    22  H    0.000014   0.000089   0.000037
    23  S    0.003951   0.020369  -0.002827
    24  C   -0.046054   0.046390  -0.038653
    25  N    0.024500  -0.008885   0.414472
    26  C   -0.048762  -0.099764  -0.205648
    27  N   -0.020023   0.009045   0.009126
    28  H    0.000112  -0.001278   0.009315
    29  H   -0.001134   0.001329  -0.001784
    30  N    0.418200   0.426644   0.018902
    31  H    0.752760  -0.124967   0.001851
    32  H   -0.124967   0.669958  -0.002097
    33  H    0.001851  -0.002097   0.860848
 Mulliken charges:
               1
     1  C    0.570719
     2  H   -0.113987
     3  H    0.067294
     4  H   -0.003606
     5  C    0.456801
     6  O   -0.882694
     7  N   -0.633395
     8  H   -0.050709
     9  C   -0.747682
    10  C    1.114353
    11  C    0.295498
    12  C    0.666056
    13  H   -0.673565
    14  H   -0.487517
    15  H   -0.712829
    16  C    1.158089
    17  H   -0.633846
    18  C    1.627722
    19  C   -0.270046
    20  N   -0.806834
    21  C    0.617597
    22  H   -0.629102
    23  S    0.487503
    24  C    0.392532
    25  N   -0.726172
    26  C    1.196328
    27  N   -0.239532
    28  H    0.025726
    29  H    0.030003
    30  N   -0.143755
    31  H    0.034086
    32  H    0.078522
    33  H   -0.063559
 Sum of Mulliken charges =   1.00000
 Mulliken charges with hydrogens summed into heavy atoms:
               1
     1  C    0.520420
     5  C    0.456801
     6  O   -0.882694
     7  N   -0.684104
     9  C   -0.747682
    10  C    0.401524
    11  C   -0.192020
    12  C   -0.007509
    16  C    0.524243
    18  C    1.627722
    19  C   -0.270046
    20  N   -0.806834
    21  C   -0.011505
    23  S    0.487503
    24  C    0.392532
    25  N   -0.789731
    26  C    1.196328
    27  N   -0.183803
    30  N   -0.031147
 Electronic spatial extent (au):  <R**2>=           8562.4213
 Charge=              1.0000 electrons
 Dipole moment (field-independent basis, Debye):
    X=            -18.6322    Y=              1.9386    Z=              0.6766  Tot=             18.7450
 Quadrupole moment (field-independent basis, Debye-Ang):
   XX=             69.5668   YY=           -107.4814   ZZ=           -116.7076
   XY=              8.0715   XZ=             -1.0250   YZ=             -6.5922
 Traceless Quadrupole moment (field-independent basis, Debye-Ang):
   XX=            121.1075   YY=            -55.9407   ZZ=            -65.1668
   XY=              8.0715   XZ=             -1.0250   YZ=             -6.5922
 Octapole moment (field-independent basis, Debye-Ang**2):
  XXX=           -647.8626  YYY=             22.0665  ZZZ=              2.9525  XYY=            -39.7083
  XXY=             22.1822  XXZ=              7.7435  XZZ=            -44.0484  YZZ=            -12.3071
  YYZ=              3.2534  XYZ=             40.0154
 Hexadecapole moment (field-independent basis, Debye-Ang**3):
 XXXX=          -1893.9135 YYYY=          -1439.6170 ZZZZ=           -180.7984 XXXY=            -35.9753
 XXXZ=              7.2740 YYYX=             67.9375 YYYZ=            -16.5380 ZZZX=            -27.9001
 ZZZY=            -23.1908 XXYY=          -1603.7484 XXZZ=          -1485.9769 YYZZ=           -297.4059
 XXYZ=           -208.1573 YYXZ=             14.2801 ZZXY=            -30.1799
 N-N= 1.447465226068D+03 E-N=-5.716241042464D+03  KE= 1.206001082725D+03
 Leave Link  601 at Sun Jul 18 19:30:41 2021, MaxMem=   262144000 cpu:               0.5 elap:               0.5
 (Enter /dades/curu/g16A03_MST/g16/l9999.exe)
 1\1\GINC-PIRINEUS32\SP\RMP2-FC\Aug-CC-pVDZ\C12H14N5O1S1(1+)\UBATOR02\1
 8-Jul-2021\0\\#p mp2/aug-cc-pVDZ scf=tight maxdisk=180GB geom=allcheck
 \\SET_328_BBB321_conf1.geo_030_210_300 geometry\\1,1\C,0,1.6860454593,
 -1.5469265416,-5.6271705925\H,0,2.7121863208,-1.9198433225,-5.63673554
 1\H,0,1.6325605123,-0.6668872268,-6.2756335891\H,0,1.0221527165,-2.305
 6071095,-6.0404860139\C,0,1.1916335803,-1.1756503739,-4.2423850411\O,0
 ,-0.0049647796,-1.1216092524,-3.9767719572\N,0,2.1886672917,-0.8844027
 729,-3.3433473804\H,0,3.1377432202,-0.9655468946,-3.6861462405\C,0,2.0
 765589653,-0.4681463092,-2.0019231311\C,0,3.2702317299,-0.231330609,-1
 .2988604159\C,0,3.2272844875,0.1809304474,0.0283594284\C,0,2.006358118
 8,0.3606880424,0.6759940297\H,0,1.9628458603,0.6783483941,1.7097619256
 \H,0,4.154686156,0.3613744104,0.5613744824\H,0,4.2247054689,-0.3716909
 969,-1.7964876449\C,0,0.848464109,-0.2873111145,-1.3565276894\H,0,-0.0
 593088515,-0.4712997033,-1.9128144857\C,0,0.8119570953,0.1247905391,-0
 .0163696417\C,0,-0.4789554252,0.3040867447,0.6729045706\N,0,-0.4848698
 732,0.7338101265,1.9914976309\C,0,-1.7215858655,0.0610587277,0.1509260
 294\H,0,-1.9838984697,-0.3144986224,-0.8249786982\S,0,-2.9626782211,0.
 3824031036,1.318069397\C,0,-1.6917025087,0.8124486542,2.4580602552\N,0
 ,-1.9332194514,1.3280478219,3.7324918285\C,0,-3.0370805305,1.161855770
 5,4.5041027405\N,0,-3.2494763371,2.0202497474,5.4900857006\H,0,-2.7220
 382251,2.8852717703,5.5503396312\H,0,-3.9858443936,1.8527161825,6.1667
 604604\N,0,-3.9006172953,0.1760906891,4.2460282899\H,0,-4.7378453264,0
 .1132647756,4.8172396042\H,0,-3.5664903898,-0.7000637173,3.8568729556\
 H,0,-1.1945051485,1.9163786194,4.1127691027\\Version=ES64L-G16RevA.03\
 State=1-A\HF=-1207.1480315\MP2=-1209.9649438\RMSD=6.287e-09\PG=C01 [X(
 C12H14N5O1S1)]\\@


 THOSE WHO TRY TO PASS CHEMISTRY OFF AS A NEW SCIENCE
 SHOW HOW LITTLE KNOWLEDGE THEY HAVE OF THE CHARACTER
 AND LITERATURE OF THE ANCIENTS.
   -- NICOLAS LEFEVRE
 "COURS DE CHYMIE" J.-N.LELOUP, PARIS, 1751
 Job cpu time:       0 days  2 hours 49 minutes 57.5 seconds.
 Elapsed time:       0 days  1 hours  3 minutes  1.8 seconds.
 File lengths (MBytes):  RWF=  85634 Int=      0 D2E=      0 Chk=     27 Scr=      1
 Normal termination of Gaussian 16 at Sun Jul 18 19:30:44 2021.
