 Entering Gaussian System, Link 0=g16
 Input=SET_328_BBB29_conf1.geo_285_180_180_OCTANOL.dat
 Output=SET_328_BBB29_conf1.geo_285_180_180_OCTANOL.log
 Initial command:
 /dades/curu/g16A03_MST/g16/l1.exe "/tmp/ubator02/1839610/Gau-84130.inp" -scrdir="/tmp/ubator02/1839610/"
 Entering Link 1 = /dades/curu/g16A03_MST/g16/l1.exe PID=     84131.
  
 Copyright (c) 1988,1990,1992,1993,1995,1998,2003,2009,2016,
            Gaussian, Inc.  All Rights Reserved.
  
 This is part of the Gaussian(R) 16 program.  It is based on
 the Gaussian(R) 09 system (copyright 2009, Gaussian, Inc.),
 the Gaussian(R) 03 system (copyright 2003, Gaussian, Inc.),
 the Gaussian(R) 98 system (copyright 1998, Gaussian, Inc.),
 the Gaussian(R) 94 system (copyright 1995, Gaussian, Inc.),
 the Gaussian 92(TM) system (copyright 1992, Gaussian, Inc.),
 the Gaussian 90(TM) system (copyright 1990, Gaussian, Inc.),
 the Gaussian 88(TM) system (copyright 1988, Gaussian, Inc.),
 the Gaussian 86(TM) system (copyright 1986, Carnegie Mellon
 University), and the Gaussian 82(TM) system (copyright 1983,
 Carnegie Mellon University). Gaussian is a federally registered
 trademark of Gaussian, Inc.
  
 This software contains proprietary and confidential information,
 including trade secrets, belonging to Gaussian, Inc.
  
 This software is provided under written license and may be
 used, copied, transmitted, or stored only in accord with that
 written license.
  
 The following legend is applicable only to US Government
 contracts under FAR:
  
                    RESTRICTED RIGHTS LEGEND
  
 Use, reproduction and disclosure by the US Government is
 subject to restrictions as set forth in subparagraphs (a)
 and (c) of the Commercial Computer Software - Restricted
 Rights clause in FAR 52.227-19.
  
 Gaussian, Inc.
 340 Quinnipiac St., Bldg. 40, Wallingford CT 06492
  
  
 ---------------------------------------------------------------
 Warning -- This program may not be used in any manner that
 competes with the business of Gaussian, Inc. or will provide
 assistance to any competitor of Gaussian, Inc.  The licensee
 of this program is prohibited from giving any competitor of
 Gaussian, Inc. access to this program.  By using this program,
 the user acknowledges that Gaussian, Inc. is engaged in the
 business of creating and licensing software in the field of
 computational chemistry and represents and warrants to the
 licensee that it is not a competitor of Gaussian, Inc. and that
 it will not use this program in any manner prohibited above.
 ---------------------------------------------------------------
  

 Cite this work as:
 Gaussian 16, Revision A.03,
 M. J. Frisch, G. W. Trucks, H. B. Schlegel, G. E. Scuseria, 
 M. A. Robb, J. R. Cheeseman, G. Scalmani, V. Barone, 
 G. A. Petersson, H. Nakatsuji, X. Li, M. Caricato, A. V. Marenich, 
 J. Bloino, B. G. Janesko, R. Gomperts, B. Mennucci, H. P. Hratchian, 
 J. V. Ortiz, A. F. Izmaylov, J. L. Sonnenberg, D. Williams-Young, 
 F. Ding, F. Lipparini, F. Egidi, J. Goings, B. Peng, A. Petrone, 
 T. Henderson, D. Ranasinghe, V. G. Zakrzewski, J. Gao, N. Rega, 
 G. Zheng, W. Liang, M. Hada, M. Ehara, K. Toyota, R. Fukuda, 
 J. Hasegawa, M. Ishida, T. Nakajima, Y. Honda, O. Kitao, H. Nakai, 
 T. Vreven, K. Throssell, J. A. Montgomery, Jr., J. E. Peralta, 
 F. Ogliaro, M. J. Bearpark, J. J. Heyd, E. N. Brothers, K. N. Kudin, 
 V. N. Staroverov, T. A. Keith, R. Kobayashi, J. Normand, 
 K. Raghavachari, A. P. Rendell, J. C. Burant, S. S. Iyengar, 
 J. Tomasi, M. Cossi, J. M. Millam, M. Klene, C. Adamo, R. Cammi, 
 J. W. Ochterski, R. L. Martin, K. Morokuma, O. Farkas, 
 J. B. Foresman, and D. J. Fox, Gaussian, Inc., Wallingford CT, 2016.
 
 ******************************************
 Gaussian 16:  ES64L-G16RevA.03 25-Dec-2016
                18-Jul-2021 
 ******************************************
 %mem=800MB
 %nproc=4
 Will use up to    4 processors via shared memory.
 %chk=SET_328_BBB29_conf1.geo_285_180_180.chk
 ---------------------------------------------------------------
 #p b3lyp/6-31G(d) opt freq scrf=(iefpcm,read,solvent=n-octanol)
 ---------------------------------------------------------------
 1/18=20,19=15,26=3,38=1,40=2/1,3;
 2/9=110,12=2,17=6,18=5,40=1/2;
 3/5=1,6=6,7=1,11=2,25=1,30=1,70=2203,71=1,72=25,74=-5/1,2,3;
 4//1;
 5/5=2,38=5,53=25/2;
 6/7=2,8=2,9=2,10=2,28=1/1;
 7//1,2,3,16;
 1/18=20,19=15,26=3/3(2);
 2/9=110/2;
 99//99;
 2/9=110/2;
 3/5=1,6=6,7=1,11=2,25=1,30=1,70=2205,71=1,72=25,74=-5/1,2,3;
 4/5=5,16=3,69=1/1;
 5/5=2,38=5,53=25/2;
 7//1,2,3,16;
 1/18=20,19=15,26=3/3(-5);
 2/9=110/2;
 6/7=2,8=2,9=2,10=2,19=2,28=1/1;
 99/9=1/99;
 Leave Link    1 at Sun Jul 18 13:57:58 2021, MaxMem=   104857600 cpu:               0.0 elap:               0.0
 (Enter /dades/curu/g16A03_MST/g16/l101.exe)
 --------------------------------------------
 SET_328_BBB29_conf1.geo_285_180_180 geometry
 --------------------------------------------
 Symbolic Z-matrix:
 Charge =  1 Multiplicity = 1
 N                     4.592    -0.535     0.162 
 H                     4.511    -1.237     0.869 
 H                     5.459    -0.049     0.273 
 C                     3.499     0.397     0.282 
 H                     3.658     1.205    -0.437 
 H                     3.584     0.75      1.313 
 C                     2.278    -0.402     0.04 
 H                     2.194    -1.366     0.547 
 H                     2.221    -0.748    -0.994 
 C                     1.025     0.534     0.175 
 H                     1.189     1.43     -0.43 
 H                     1.025     1.003     1.163 
 N                    -0.311    -0.111    -0.045 
 C                    -0.955     0.071    -1.24 
 C                    -0.257    -0.278    -2.39 
 H                     0.692    -0.807    -2.344 
 C                    -0.669     0.092    -3.616 
 Cl                    0.394    -0.155    -4.994 
 C                    -1.899     0.709    -3.803 
 H                    -2.215     0.941    -4.817 
 C                    -2.684     1.02     -2.669 
 H                    -3.672     1.468    -2.734 
 C                    -2.192     0.758    -1.432 
 S                    -3.162     1.211    -0.039 
 C                    -2.411     0.244     1.193 
 C                    -1.109    -0.313     1.058 
 C                    -0.597    -1.098     2.103 
 H                     0.383    -1.564     2.051 
 C                    -1.309    -1.301     3.308 
 H                    -0.904    -1.897     4.122 
 C                    -2.465    -0.532     3.502 
 H                    -2.93     -0.533     4.485 
 C                    -3.008     0.181     2.444 
 H                    -3.919     0.742     2.636 
 H                     4.565    -0.966    -0.74 
 
 ITRead=  0  0  0  0  0  0  0  0  0  0  0  0  0  0  0  0  0  0  0  0
 ITRead=  0  0  0  0  0  0  0  0  0  0  0  0  0  0  0
 MicOpt= -1 -1 -1 -1 -1 -1 -1 -1 -1 -1 -1 -1 -1 -1 -1 -1 -1 -1 -1 -1
 MicOpt= -1 -1 -1 -1 -1 -1 -1 -1 -1 -1 -1 -1 -1 -1 -1
 NAtoms=     35 NQM=       35 NQMF=       0 NMMI=      0 NMMIF=      0
                NMic=       0 NMicF=      0.
                    Isotopes and Nuclear Properties:
 (Nuclear quadrupole moments (NQMom) in fm**2, nuclear magnetic moments (NMagM)
  in nuclear magnetons)

  Atom         1           2           3           4           5           6           7           8           9          10
 IAtWgt=          14           1           1          12           1           1          12           1           1          12
 AtmWgt=  14.0030740   1.0078250   1.0078250  12.0000000   1.0078250   1.0078250  12.0000000   1.0078250   1.0078250  12.0000000
 NucSpn=           2           1           1           0           1           1           0           1           1           0
 AtZEff=  -0.0000000  -0.0000000  -0.0000000  -0.0000000  -0.0000000  -0.0000000  -0.0000000  -0.0000000  -0.0000000  -0.0000000
 NQMom=    2.0440000   0.0000000   0.0000000   0.0000000   0.0000000   0.0000000   0.0000000   0.0000000   0.0000000   0.0000000
 NMagM=    0.4037610   2.7928460   2.7928460   0.0000000   2.7928460   2.7928460   0.0000000   2.7928460   2.7928460   0.0000000
 AtZNuc=   7.0000000   1.0000000   1.0000000   6.0000000   1.0000000   1.0000000   6.0000000   1.0000000   1.0000000   6.0000000

  Atom        11          12          13          14          15          16          17          18          19          20
 IAtWgt=           1           1          14          12          12           1          12          35          12           1
 AtmWgt=   1.0078250   1.0078250  14.0030740  12.0000000  12.0000000   1.0078250  12.0000000  34.9688527  12.0000000   1.0078250
 NucSpn=           1           1           2           0           0           1           0           3           0           1
 AtZEff=  -0.0000000  -0.0000000  -0.0000000  -0.0000000  -0.0000000  -0.0000000  -0.0000000  -0.0000000  -0.0000000  -0.0000000
 NQMom=    0.0000000   0.0000000   2.0440000   0.0000000   0.0000000   0.0000000   0.0000000  -8.1650000   0.0000000   0.0000000
 NMagM=    2.7928460   2.7928460   0.4037610   0.0000000   0.0000000   2.7928460   0.0000000   0.8218740   0.0000000   2.7928460
 AtZNuc=   1.0000000   1.0000000   7.0000000   6.0000000   6.0000000   1.0000000   6.0000000  17.0000000   6.0000000   1.0000000

  Atom        21          22          23          24          25          26          27          28          29          30
 IAtWgt=          12           1          12          32          12          12          12           1          12           1
 AtmWgt=  12.0000000   1.0078250  12.0000000  31.9720718  12.0000000  12.0000000  12.0000000   1.0078250  12.0000000   1.0078250
 NucSpn=           0           1           0           0           0           0           0           1           0           1
 AtZEff=  -0.0000000  -0.0000000  -0.0000000  -0.0000000  -0.0000000  -0.0000000  -0.0000000  -0.0000000  -0.0000000  -0.0000000
 NQMom=    0.0000000   0.0000000   0.0000000   0.0000000   0.0000000   0.0000000   0.0000000   0.0000000   0.0000000   0.0000000
 NMagM=    0.0000000   2.7928460   0.0000000   0.0000000   0.0000000   0.0000000   0.0000000   2.7928460   0.0000000   2.7928460
 AtZNuc=   6.0000000   1.0000000   6.0000000  16.0000000   6.0000000   6.0000000   6.0000000   1.0000000   6.0000000   1.0000000

  Atom        31          32          33          34          35
 IAtWgt=          12           1          12           1           1
 AtmWgt=  12.0000000   1.0078250  12.0000000   1.0078250   1.0078250
 NucSpn=           0           1           0           1           1
 AtZEff=  -0.0000000  -0.0000000  -0.0000000  -0.0000000  -0.0000000
 NQMom=    0.0000000   0.0000000   0.0000000   0.0000000   0.0000000
 NMagM=    0.0000000   2.7928460   0.0000000   2.7928460   2.7928460
 AtZNuc=   6.0000000   1.0000000   6.0000000   1.0000000   1.0000000
 Leave Link  101 at Sun Jul 18 13:57:58 2021, MaxMem=   104857600 cpu:               0.1 elap:               0.1
 (Enter /dades/curu/g16A03_MST/g16/l103.exe)

 GradGradGradGradGradGradGradGradGradGradGradGradGradGradGradGradGradGrad
 Berny optimization.
 Initialization pass.
                           ----------------------------
                           !    Initial Parameters    !
                           ! (Angstroms and Degrees)  !
 --------------------------                            --------------------------
 ! Name  Definition              Value          Derivative Info.                !
 --------------------------------------------------------------------------------
 ! R1    R(1,2)                  0.9996         estimate D2E/DX2                !
 ! R2    R(1,3)                  1.0001         estimate D2E/DX2                !
 ! R3    R(1,4)                  1.4414         estimate D2E/DX2                !
 ! R4    R(1,35)                 1.0            estimate D2E/DX2                !
 ! R5    R(4,5)                  1.0932         estimate D2E/DX2                !
 ! R6    R(4,6)                  1.0931         estimate D2E/DX2                !
 ! R7    R(4,7)                  1.4791         estimate D2E/DX2                !
 ! R8    R(7,8)                  1.0924         estimate D2E/DX2                !
 ! R9    R(7,9)                  1.0918         estimate D2E/DX2                !
 ! R10   R(7,10)                 1.5698         estimate D2E/DX2                !
 ! R11   R(10,11)                1.0935         estimate D2E/DX2                !
 ! R12   R(10,12)                1.0937         estimate D2E/DX2                !
 ! R13   R(10,13)                1.4998         estimate D2E/DX2                !
 ! R14   R(13,14)                1.3696         estimate D2E/DX2                !
 ! R15   R(13,26)                1.3763         estimate D2E/DX2                !
 ! R16   R(14,15)                1.3898         estimate D2E/DX2                !
 ! R17   R(14,23)                1.4279         estimate D2E/DX2                !
 ! R18   R(15,16)                1.0875         estimate D2E/DX2                !
 ! R19   R(15,17)                1.3453         estimate D2E/DX2                !
 ! R20   R(17,18)                1.7578         estimate D2E/DX2                !
 ! R21   R(17,19)                1.3887         estimate D2E/DX2                !
 ! R22   R(19,20)                1.0871         estimate D2E/DX2                !
 ! R23   R(19,21)                1.4138         estimate D2E/DX2                !
 ! R24   R(21,22)                1.0868         estimate D2E/DX2                !
 ! R25   R(21,23)                1.3568         estimate D2E/DX2                !
 ! R26   R(23,24)                1.7569         estimate D2E/DX2                !
 ! R27   R(24,25)                1.7369         estimate D2E/DX2                !
 ! R28   R(25,26)                1.4226         estimate D2E/DX2                !
 ! R29   R(25,33)                1.3876         estimate D2E/DX2                !
 ! R30   R(26,27)                1.4037         estimate D2E/DX2                !
 ! R31   R(27,28)                1.0864         estimate D2E/DX2                !
 ! R32   R(27,29)                1.4143         estimate D2E/DX2                !
 ! R33   R(29,30)                1.0871         estimate D2E/DX2                !
 ! R34   R(29,31)                1.4019         estimate D2E/DX2                !
 ! R35   R(31,32)                1.0874         estimate D2E/DX2                !
 ! R36   R(31,33)                1.3866         estimate D2E/DX2                !
 ! R37   R(33,34)                1.087          estimate D2E/DX2                !
 ! A1    A(2,1,3)              109.4521         estimate D2E/DX2                !
 ! A2    A(2,1,4)              109.4969         estimate D2E/DX2                !
 ! A3    A(2,1,35)             109.4558         estimate D2E/DX2                !
 ! A4    A(3,1,4)              109.5066         estimate D2E/DX2                !
 ! A5    A(3,1,35)             109.4477         estimate D2E/DX2                !
 ! A6    A(4,1,35)             109.4682         estimate D2E/DX2                !
 ! A7    A(1,4,5)              108.2315         estimate D2E/DX2                !
 ! A8    A(1,4,6)              103.2011         estimate D2E/DX2                !
 ! A9    A(1,4,7)              105.2515         estimate D2E/DX2                !
 ! A10   A(5,4,6)              111.7372         estimate D2E/DX2                !
 ! A11   A(5,4,7)              114.3124         estimate D2E/DX2                !
 ! A12   A(6,4,7)              113.139          estimate D2E/DX2                !
 ! A13   A(4,7,8)              117.6598         estimate D2E/DX2                !
 ! A14   A(4,7,9)              111.6675         estimate D2E/DX2                !
 ! A15   A(4,7,10)             108.8285         estimate D2E/DX2                !
 ! A16   A(8,7,9)               98.9668         estimate D2E/DX2                !
 ! A17   A(8,7,10)             115.1421         estimate D2E/DX2                !
 ! A18   A(9,7,10)             103.2217         estimate D2E/DX2                !
 ! A19   A(7,10,11)            108.7397         estimate D2E/DX2                !
 ! A20   A(7,10,12)            109.474          estimate D2E/DX2                !
 ! A21   A(7,10,13)            116.2303         estimate D2E/DX2                !
 ! A22   A(11,10,12)            98.5362         estimate D2E/DX2                !
 ! A23   A(11,10,13)           113.8806         estimate D2E/DX2                !
 ! A24   A(12,10,13)           108.4781         estimate D2E/DX2                !
 ! A25   A(10,13,14)           119.3204         estimate D2E/DX2                !
 ! A26   A(10,13,26)           117.5201         estimate D2E/DX2                !
 ! A27   A(14,13,26)           116.4946         estimate D2E/DX2                !
 ! A28   A(13,14,15)           116.9005         estimate D2E/DX2                !
 ! A29   A(13,14,23)           126.056          estimate D2E/DX2                !
 ! A30   A(15,14,23)           116.4            estimate D2E/DX2                !
 ! A31   A(14,15,16)           121.6983         estimate D2E/DX2                !
 ! A32   A(14,15,17)           122.0884         estimate D2E/DX2                !
 ! A33   A(16,15,17)           116.0792         estimate D2E/DX2                !
 ! A34   A(15,17,18)           119.379          estimate D2E/DX2                !
 ! A35   A(15,17,19)           121.0759         estimate D2E/DX2                !
 ! A36   A(18,17,19)           119.504          estimate D2E/DX2                !
 ! A37   A(17,19,20)           118.5456         estimate D2E/DX2                !
 ! A38   A(17,19,21)           118.7832         estimate D2E/DX2                !
 ! A39   A(20,19,21)           122.669          estimate D2E/DX2                !
 ! A40   A(19,21,22)           123.1939         estimate D2E/DX2                !
 ! A41   A(19,21,23)           119.1731         estimate D2E/DX2                !
 ! A42   A(22,21,23)           117.6323         estimate D2E/DX2                !
 ! A43   A(14,23,21)           121.9802         estimate D2E/DX2                !
 ! A44   A(14,23,24)           119.7183         estimate D2E/DX2                !
 ! A45   A(21,23,24)           118.2218         estimate D2E/DX2                !
 ! A46   A(23,24,25)           100.377          estimate D2E/DX2                !
 ! A47   A(24,25,26)           123.1207         estimate D2E/DX2                !
 ! A48   A(24,25,33)           118.6027         estimate D2E/DX2                !
 ! A49   A(26,25,33)           117.488          estimate D2E/DX2                !
 ! A50   A(13,26,25)           123.3164         estimate D2E/DX2                !
 ! A51   A(13,26,27)           117.8537         estimate D2E/DX2                !
 ! A52   A(25,26,27)           118.8262         estimate D2E/DX2                !
 ! A53   A(26,27,28)           122.2267         estimate D2E/DX2                !
 ! A54   A(26,27,29)           122.0689         estimate D2E/DX2                !
 ! A55   A(28,27,29)           115.6801         estimate D2E/DX2                !
 ! A56   A(27,29,30)           121.9451         estimate D2E/DX2                !
 ! A57   A(27,29,31)           117.02           estimate D2E/DX2                !
 ! A58   A(30,29,31)           120.2855         estimate D2E/DX2                !
 ! A59   A(29,31,32)           118.5023         estimate D2E/DX2                !
 ! A60   A(29,31,33)           119.9603         estimate D2E/DX2                !
 ! A61   A(32,31,33)           121.5181         estimate D2E/DX2                !
 ! A62   A(25,33,31)           122.8734         estimate D2E/DX2                !
 ! A63   A(25,33,34)           119.7628         estimate D2E/DX2                !
 ! A64   A(31,33,34)           117.3116         estimate D2E/DX2                !
 ! D1    D(2,1,4,5)            174.7626         estimate D2E/DX2                !
 ! D2    D(2,1,4,6)             56.2226         estimate D2E/DX2                !
 ! D3    D(2,1,4,7)            -62.6145         estimate D2E/DX2                !
 ! D4    D(3,1,4,5)             54.7486         estimate D2E/DX2                !
 ! D5    D(3,1,4,6)            -63.7914         estimate D2E/DX2                !
 ! D6    D(3,1,4,7)            177.3715         estimate D2E/DX2                !
 ! D7    D(35,1,4,5)           -65.2424         estimate D2E/DX2                !
 ! D8    D(35,1,4,6)           176.2176         estimate D2E/DX2                !
 ! D9    D(35,1,4,7)            57.3805         estimate D2E/DX2                !
 ! D10   D(1,4,7,8)             45.7999         estimate D2E/DX2                !
 ! D11   D(1,4,7,9)            -67.627          estimate D2E/DX2                !
 ! D12   D(1,4,7,10)           179.0763         estimate D2E/DX2                !
 ! D13   D(5,4,7,8)            164.4211         estimate D2E/DX2                !
 ! D14   D(5,4,7,9)             50.9942         estimate D2E/DX2                !
 ! D15   D(5,4,7,10)           -62.3025         estimate D2E/DX2                !
 ! D16   D(6,4,7,8)            -66.1585         estimate D2E/DX2                !
 ! D17   D(6,4,7,9)           -179.5854         estimate D2E/DX2                !
 ! D18   D(6,4,7,10)            67.1179         estimate D2E/DX2                !
 ! D19   D(4,7,10,11)           49.7114         estimate D2E/DX2                !
 ! D20   D(4,7,10,12)          -56.9203         estimate D2E/DX2                !
 ! D21   D(4,7,10,13)          179.7816         estimate D2E/DX2                !
 ! D22   D(8,7,10,11)         -175.7145         estimate D2E/DX2                !
 ! D23   D(8,7,10,12)           77.6539         estimate D2E/DX2                !
 ! D24   D(8,7,10,13)          -45.6442         estimate D2E/DX2                !
 ! D25   D(9,7,10,11)          -69.0282         estimate D2E/DX2                !
 ! D26   D(9,7,10,12)         -175.6599         estimate D2E/DX2                !
 ! D27   D(9,7,10,13)           61.042          estimate D2E/DX2                !
 ! D28   D(7,10,13,14)        -102.0344         estimate D2E/DX2                !
 ! D29   D(7,10,13,26)         107.5577         estimate D2E/DX2                !
 ! D30   D(11,10,13,14)         25.5425         estimate D2E/DX2                !
 ! D31   D(11,10,13,26)       -124.8654         estimate D2E/DX2                !
 ! D32   D(12,10,13,14)        134.1513         estimate D2E/DX2                !
 ! D33   D(12,10,13,26)        -16.2566         estimate D2E/DX2                !
 ! D34   D(10,13,14,15)         55.5748         estimate D2E/DX2                !
 ! D35   D(10,13,14,23)       -114.8554         estimate D2E/DX2                !
 ! D36   D(26,13,14,15)       -153.7223         estimate D2E/DX2                !
 ! D37   D(26,13,14,23)         35.8476         estimate D2E/DX2                !
 ! D38   D(10,13,26,25)        120.7758         estimate D2E/DX2                !
 ! D39   D(10,13,26,27)        -58.5167         estimate D2E/DX2                !
 ! D40   D(14,13,26,25)        -30.4678         estimate D2E/DX2                !
 ! D41   D(14,13,26,27)        150.2397         estimate D2E/DX2                !
 ! D42   D(13,14,15,16)          8.9043         estimate D2E/DX2                !
 ! D43   D(13,14,15,17)       -166.7212         estimate D2E/DX2                !
 ! D44   D(23,14,15,16)       -179.7256         estimate D2E/DX2                !
 ! D45   D(23,14,15,17)          4.6489         estimate D2E/DX2                !
 ! D46   D(13,14,23,21)        172.5173         estimate D2E/DX2                !
 ! D47   D(13,14,23,24)        -10.7871         estimate D2E/DX2                !
 ! D48   D(15,14,23,21)          2.0449         estimate D2E/DX2                !
 ! D49   D(15,14,23,24)        178.7404         estimate D2E/DX2                !
 ! D50   D(14,15,17,18)        170.0077         estimate D2E/DX2                !
 ! D51   D(14,15,17,19)         -7.6475         estimate D2E/DX2                !
 ! D52   D(16,15,17,18)         -5.8489         estimate D2E/DX2                !
 ! D53   D(16,15,17,19)        176.4959         estimate D2E/DX2                !
 ! D54   D(15,17,19,20)       -176.6646         estimate D2E/DX2                !
 ! D55   D(15,17,19,21)          3.8562         estimate D2E/DX2                !
 ! D56   D(18,17,19,20)          5.6831         estimate D2E/DX2                !
 ! D57   D(18,17,19,21)       -173.7961         estimate D2E/DX2                !
 ! D58   D(17,19,21,22)       -177.63           estimate D2E/DX2                !
 ! D59   D(17,19,21,23)          2.668          estimate D2E/DX2                !
 ! D60   D(20,19,21,22)          2.9135         estimate D2E/DX2                !
 ! D61   D(20,19,21,23)       -176.7885         estimate D2E/DX2                !
 ! D62   D(19,21,23,14)         -5.5694         estimate D2E/DX2                !
 ! D63   D(19,21,23,24)        177.6876         estimate D2E/DX2                !
 ! D64   D(22,21,23,14)        174.7121         estimate D2E/DX2                !
 ! D65   D(22,21,23,24)         -2.0309         estimate D2E/DX2                !
 ! D66   D(14,23,24,25)        -14.4954         estimate D2E/DX2                !
 ! D67   D(21,23,24,25)        162.3236         estimate D2E/DX2                !
 ! D68   D(23,24,25,26)         18.7821         estimate D2E/DX2                !
 ! D69   D(23,24,25,33)       -171.6548         estimate D2E/DX2                !
 ! D70   D(24,25,26,13)          1.6603         estimate D2E/DX2                !
 ! D71   D(24,25,26,27)       -179.0537         estimate D2E/DX2                !
 ! D72   D(33,25,26,13)       -168.0115         estimate D2E/DX2                !
 ! D73   D(33,25,26,27)         11.2745         estimate D2E/DX2                !
 ! D74   D(24,25,33,31)       -178.1095         estimate D2E/DX2                !
 ! D75   D(24,25,33,34)         -0.811          estimate D2E/DX2                !
 ! D76   D(26,25,33,31)         -7.957          estimate D2E/DX2                !
 ! D77   D(26,25,33,34)        169.3415         estimate D2E/DX2                !
 ! D78   D(13,26,27,28)         -1.7541         estimate D2E/DX2                !
 ! D79   D(13,26,27,29)        176.3771         estimate D2E/DX2                !
 ! D80   D(25,26,27,28)        178.9207         estimate D2E/DX2                !
 ! D81   D(25,26,27,29)         -2.9481         estimate D2E/DX2                !
 ! D82   D(26,27,29,30)       -179.055          estimate D2E/DX2                !
 ! D83   D(26,27,29,31)         -8.9523         estimate D2E/DX2                !
 ! D84   D(28,27,29,30)         -0.8092         estimate D2E/DX2                !
 ! D85   D(28,27,29,31)        169.2935         estimate D2E/DX2                !
 ! D86   D(27,29,31,32)       -169.1254         estimate D2E/DX2                !
 ! D87   D(27,29,31,33)         12.4493         estimate D2E/DX2                !
 ! D88   D(30,29,31,32)          1.1506         estimate D2E/DX2                !
 ! D89   D(30,29,31,33)       -177.2747         estimate D2E/DX2                !
 ! D90   D(29,31,33,25)         -4.1858         estimate D2E/DX2                !
 ! D91   D(29,31,33,34)        178.4535         estimate D2E/DX2                !
 ! D92   D(32,31,33,25)        177.4375         estimate D2E/DX2                !
 ! D93   D(32,31,33,34)          0.0768         estimate D2E/DX2                !
 --------------------------------------------------------------------------------
 Trust Radius=3.00D-01 FncErr=1.00D-07 GrdErr=1.00D-06 EigMax=2.50D+02 EigMin=1.00D-04
 Number of steps in this run=    204 maximum allowed number of steps=    210.
 GradGradGradGradGradGradGradGradGradGradGradGradGradGradGradGradGradGrad

 Leave Link  103 at Sun Jul 18 13:57:58 2021, MaxMem=   104857600 cpu:               0.1 elap:               0.0
 (Enter /dades/curu/g16A03_MST/g16/l202.exe)
                          Input orientation:                          
 ---------------------------------------------------------------------
 Center     Atomic      Atomic             Coordinates (Angstroms)
 Number     Number       Type             X           Y           Z
 ---------------------------------------------------------------------
      1          7           0        4.592000   -0.535000    0.162000
      2          1           0        4.511000   -1.237000    0.869000
      3          1           0        5.459000   -0.049000    0.273000
      4          6           0        3.499000    0.397000    0.282000
      5          1           0        3.658000    1.205000   -0.437000
      6          1           0        3.584000    0.750000    1.313000
      7          6           0        2.278000   -0.402000    0.040000
      8          1           0        2.194000   -1.366000    0.547000
      9          1           0        2.221000   -0.748000   -0.994000
     10          6           0        1.025000    0.534000    0.175000
     11          1           0        1.189000    1.430000   -0.430000
     12          1           0        1.025000    1.003000    1.163000
     13          7           0       -0.311000   -0.111000   -0.045000
     14          6           0       -0.955000    0.071000   -1.240000
     15          6           0       -0.257000   -0.278000   -2.390000
     16          1           0        0.692000   -0.807000   -2.344000
     17          6           0       -0.669000    0.092000   -3.616000
     18         17           0        0.394000   -0.155000   -4.994000
     19          6           0       -1.899000    0.709000   -3.803000
     20          1           0       -2.215000    0.941000   -4.817000
     21          6           0       -2.684000    1.020000   -2.669000
     22          1           0       -3.672000    1.468000   -2.734000
     23          6           0       -2.192000    0.758000   -1.432000
     24         16           0       -3.162000    1.211000   -0.039000
     25          6           0       -2.411000    0.244000    1.193000
     26          6           0       -1.109000   -0.313000    1.058000
     27          6           0       -0.597000   -1.098000    2.103000
     28          1           0        0.383000   -1.564000    2.051000
     29          6           0       -1.309000   -1.301000    3.308000
     30          1           0       -0.904000   -1.897000    4.122000
     31          6           0       -2.465000   -0.532000    3.502000
     32          1           0       -2.930000   -0.533000    4.485000
     33          6           0       -3.008000    0.181000    2.444000
     34          1           0       -3.919000    0.742000    2.636000
     35          1           0        4.565000   -0.966000   -0.740000
 ---------------------------------------------------------------------
                    Distance matrix (angstroms):
                    1          2          3          4          5
     1  N    0.000000
     2  H    0.999607   0.000000
     3  H    1.000103   1.632564   0.000000
     4  C    1.441414   2.009644   2.010124   0.000000
     5  H    2.063676   2.897690   2.306560   1.093209   0.000000
     6  H    1.998022   2.237104   2.288149   1.093067   1.809696
     7  C    2.321028   2.524035   3.208997   1.479123   2.171262
     8  H    2.566942   2.342822   3.531259   2.209393   3.117947
     9  H    2.646384   2.992322   3.546623   2.138337   2.487856
    10  C    3.723764   3.971180   4.473237   2.480100   2.785224
    11  H    3.973927   4.453760   4.573243   2.628713   2.479241
    12  H    4.011351   4.154062   4.643184   2.695194   3.087636
    13  N    4.925651   5.035370   5.779089   3.857602   4.199819
    14  C    5.753438   6.002991   6.591128   4.718143   4.817731
    15  C    5.485577   5.854450   6.310045   4.658621   4.619602
    16  H    4.643708   5.009294   5.490678   4.027995   4.059797
    17  C    6.507268   6.979532   7.259241   5.714862   5.483406
    18  Cl   6.659725   7.245356   7.307992   6.146699   5.767976
    19  C    7.707259   8.167166   8.445620   6.776649   6.515844
    20  H    8.561791   9.072671   9.261667   7.677599   7.331182
    21  C    7.960701   8.329437   8.723908   6.879391   6.725847
    22  H    8.982902   9.341313   9.732343   7.852804   7.685979
    23  C    7.087689   7.362393   7.880106   5.954460   5.950826
    24  S    7.950688   8.105066   8.718176   6.718226   6.831606
    25  C    7.121223   7.086072   7.929007   5.981758   6.357136
    26  C    5.775249   5.698587   6.620011   4.726515   5.221459
    27  C    5.568678   5.256780   6.412834   4.725281   5.464470
    28  H    4.726822   4.306325   5.587690   4.084647   4.958138
    29  C    6.730964   6.310722   7.522270   5.929312   6.706426
    30  H    6.909606   6.351365   7.662746   6.276499   7.156726
    31  C    7.807487   7.489612   8.570269   6.841106   7.484919
    32  H    8.675760   8.302985   9.399496   7.737063   8.405265
    33  C    7.967445   7.811959   8.743925   6.860171   7.333778
    34  H    8.954805   8.837626   9.703419   7.790190   8.189544
    35  H    1.000047   1.632556   1.632879   2.009629   2.372277
                    6          7          8          9         10
     6  H    0.000000
     7  C    2.157144   0.000000
     8  H    2.645054   1.092429   0.000000
     9  H    3.069857   1.091843   1.660522   0.000000
    10  C    2.808947   1.569818   2.261624   2.107250   0.000000
    11  H    3.039157   2.182440   3.127646   2.475238   1.093498
    12  H    2.575847   2.192068   2.712596   3.024742   1.093666
    13  N    4.213847   2.606689   2.863654   2.778020   1.499774
    14  C    5.251797   3.509191   3.895451   3.289111   2.477296
    15  C    5.433440   3.513759   3.977074   2.882742   2.980284
    16  H    4.915441   2.891864   3.305505   2.040545   2.873070
    17  C    6.543395   4.721777   5.258622   3.991564   4.175725
    18  Cl   7.125544   5.380671   5.950563   4.437294   5.252756
    19  C    7.499228   5.783623   6.323035   5.194972   4.940130
    20  H    8.440485   6.751381   7.316695   6.094764   5.965175
    21  C    7.430817   5.829426   6.311144   5.476356   4.699065
    22  H    8.339261   6.826015   7.294277   6.531899   5.603253
    23  C    6.395097   4.846987   5.259735   4.683423   3.603015
    24  S    6.895574   5.674646   5.972526   5.807443   4.246775
    25  C    6.017513   4.871698   4.920919   5.217514   3.595347
    26  C    4.818635   3.537798   3.504246   3.935585   2.459889
    27  C    4.638962   3.606385   3.206656   4.201789   3.001915
    28  H    4.018164   2.997564   2.362402   3.649127   2.886719
    29  C    5.668163   4.935037   4.460757   5.592308   4.316303
    30  H    5.919395   5.387288   4.760272   6.104038   5.020917
    31  C    6.559394   5.873533   5.579773   6.497636   4.938156
    32  H    7.357980   6.848244   6.515912   7.523195   5.946143
    33  C    6.712480   5.836172   5.749141   6.326557   4.640911
    34  H    7.618753   6.815480   6.795319   7.286741   5.526565
    35  H    2.849882   2.481303   2.727272   2.367779   3.952066
                   11         12         13         14         15
    11  H    0.000000
    12  H    1.657370   0.000000
    13  N    2.184698   2.117819   0.000000
    14  C    2.664529   3.250144   1.369630   0.000000
    15  C    2.974858   3.988520   2.351559   1.389786   0.000000
    16  H    2.985728   3.960560   2.603042   2.168481   1.087455
    17  C    3.923392   5.151543   3.594637   2.393243   1.345258
    18  Cl   4.896360   6.296648   4.999156   3.995422   2.686959
    19  C    4.629548   5.770387   4.161335   2.804844   2.380526
    20  H    5.574236   6.801606   5.244416   3.890942   3.348142
    21  C    4.492366   5.333029   3.714252   2.435587   2.766401
    22  H    5.379515   6.120837   4.584788   3.400843   3.850854
    23  C    3.589812   4.140427   2.493410   1.427936   2.394846
    24  S    4.374019   4.361082   3.142598   2.759139   4.022853
    25  C    4.123194   3.518960   2.463467   2.840661   4.213085
    26  C    3.245458   2.509350   1.376306   2.334947   3.551877
    27  C    3.999584   2.815792   2.381149   3.559547   4.579853
    28  H    3.971024   2.791092   2.643116   3.910774   4.667534
    29  C    5.260324   3.918800   3.695228   4.763612   5.883913
    30  H    6.014173   4.570199   4.572235   5.711976   6.741358
    31  C    5.715049   4.472946   4.171111   5.013010   6.297257
    32  H    6.706471   5.388600   5.249585   6.086137   7.380757
    33  C    5.237813   4.310654   3.681602   4.218858   5.580881
    34  H    5.997113   5.165364   4.575263   4.925334   6.301692
    35  H    4.151420   4.475485   4.998942   5.638774   5.142716
                   16         17         18         19         20
    16  H    0.000000
    17  C    2.068455   0.000000
    18  Cl   2.745252   1.757800   0.000000
    19  C    3.337697   1.388725   2.724486   0.000000
    20  H    4.197843   2.133851   2.835388   1.087141   0.000000
    21  C    3.852393   2.412098   4.032410   1.413825   2.200024
    22  H    4.936823   3.418963   4.926874   2.205078   2.596048
    23  C    3.405646   2.744620   4.495421   2.389538   3.390021
    24  S    4.923278   4.501349   6.250049   4.001858   4.878421
    25  C    4.821160   5.117045   6.804866   5.043648   6.053456
    26  C    3.880881   4.712102   6.237842   5.029702   6.108304
    27  C    4.639182   5.841938   7.227637   6.311996   7.393365
    28  H    4.470409   5.996993   7.184527   6.681569   7.758483
    29  C    6.016074   7.091673   8.552001   7.413132   8.477206
    30  H    6.748664   7.992996   9.371277   8.401600   9.469883
    31  C    6.649661   7.367558   8.972069   7.431249   8.452100
    32  H    7.734934   8.433798  10.052030   8.443724   9.445163
    33  C    6.131157   6.496341   8.185985   6.366606   7.343607
    34  H    6.961402   7.076193   8.810419   6.748497   7.647903
    35  H    4.195024   6.065105   6.012610   7.346488   8.137996
                   21         22         23         24         25
    21  C    0.000000
    22  H    1.086772   0.000000
    23  C    1.356789   2.095162   0.000000
    24  S    2.679900   2.754846   1.756860   0.000000
    25  C    3.948639   4.302281   2.683800   1.736927   0.000000
    26  C    4.260052   4.911231   2.918909   2.782228   1.422560
    27  C    5.622586   6.279853   4.299417   4.061880   2.433035
    28  H    6.193702   6.966511   4.914631   4.963441   3.436781
    29  C    6.557606   7.053857   5.242783   4.576698   2.841594
    30  H    7.602300   8.123410   6.289267   5.663228   3.928609
    31  C    6.366939   6.659170   5.107150   4.007810   2.436508
    32  H    7.324755   7.527850   6.101001   4.854064   3.422039
    33  C    5.191499   5.376704   4.002769   2.692565   1.387580
    34  H    5.453947   5.424480   4.419435   2.819332   2.145767
    35  H    7.759719   8.817514   7.007716   8.058366   7.339289
                   26         27         28         29         30
    26  C    0.000000
    27  C    1.403707   0.000000
    28  H    2.185661   1.086398   0.000000
    29  C    2.465491   1.414276   2.124166   0.000000
    30  H    3.455311   2.192946   2.460955   1.087123   0.000000
    31  C    2.803539   2.401454   3.358799   1.401903   2.164335
    32  H    3.887000   3.381721   4.238312   2.145412   2.469198
    33  C    2.402339   2.750462   3.833843   2.414419   3.400086
    34  H    3.391048   3.834759   4.916001   3.381942   4.273493
    35  H    5.987778   5.894601   5.063241   7.141597   7.376704
                   31         32         33         34         35
    31  C    0.000000
    32  H    1.087435   0.000000
    33  C    1.386572   2.163692   0.000000
    34  H    2.118289   2.454088   1.086971   0.000000
    35  H    8.222154   9.146756   8.294805   9.289397   0.000000
 Stoichiometry    C15H16ClN2S(1+)
 Framework group  C1[X(C15H16ClN2S)]
 Deg. of freedom    99
 Full point group                 C1      NOp   1
 Largest Abelian subgroup         C1      NOp   1
 Largest concise Abelian subgroup C1      NOp   1
                         Standard orientation:                         
 ---------------------------------------------------------------------
 Center     Atomic      Atomic             Coordinates (Angstroms)
 Number     Number       Type             X           Y           Z
 ---------------------------------------------------------------------
      1          7           0       -1.212377    5.017615    0.222447
      2          1           0       -0.495808    5.323538   -0.403774
      3          1           0       -1.457667    5.765911    0.838964
      4          6           0       -0.732511    3.897421    0.992231
      5          1           0       -1.494315    3.639897    1.732799
      6          1           0        0.173737    4.287652    1.462582
      7          6           0       -0.461176    2.832593    0.002117
      8          1           0        0.083283    3.109142   -0.903690
      9          1           0       -1.381045    2.465663   -0.457582
     10          6           0        0.092557    1.570741    0.754074
     11          1           0       -0.569605    1.343743    1.594164
     12          1           0        0.985718    1.847210    1.321465
     13          7           0        0.420524    0.381634   -0.099027
     14          6           0       -0.451526   -0.673602   -0.142526
     15          6           0       -1.762520   -0.391293   -0.507355
     16          1           0       -2.052850    0.586660   -0.884017
     17          6           0       -2.759011   -1.278515   -0.335414
     18         17           0       -4.422889   -0.762940   -0.571116
     19          6           0       -2.497496   -2.580250    0.071591
     20          1           0       -3.327632   -3.278403    0.144625
     21          6           0       -1.166875   -2.941304    0.384622
     22          1           0       -0.875797   -3.947620    0.673889
     23          6           0       -0.195175   -1.995850    0.331758
     24         16           0        1.438288   -2.457054    0.785242
     25          6           0        2.339885   -1.152628    0.076363
     26          6           0        1.750569    0.087508   -0.295721
     27          6           0        2.560729    1.073369   -0.880624
     28          1           0        2.165191    2.033033   -1.201333
     29          6           0        3.952881    0.895155   -1.054778
     30          1           0        4.580930    1.666026   -1.494267
     31          6           0        4.532304   -0.227187   -0.446543
     32          1           0        5.616971   -0.295488   -0.409821
     33          6           0        3.725029   -1.233492    0.061629
     34          1           0        4.219890   -2.095856    0.500886
     35          1           0       -2.017513    4.741002   -0.302276
 ---------------------------------------------------------------------
 Rotational constants (GHZ):           0.3444185           0.2536744           0.1551778
 Leave Link  202 at Sun Jul 18 13:57:58 2021, MaxMem=   104857600 cpu:               0.0 elap:               0.0
 (Enter /dades/curu/g16A03_MST/g16/l301.exe)
 Standard basis: 6-31G(d) (6D, 7F)
 Ernie: Thresh=  0.10000D-02 Tol=  0.10000D-05 Strict=F.
 There are   325 symmetry adapted cartesian basis functions of A   symmetry.
 There are   325 symmetry adapted basis functions of A   symmetry.
   325 basis functions,   644 primitive gaussians,   325 cartesian basis functions
    76 alpha electrons       76 beta electrons
       nuclear repulsion energy      1643.0828115183 Hartrees.
 IExCor=  402 DFT=T Ex+Corr=B3LYP ExCW=0 ScaHFX=  0.200000
 ScaDFX=  0.800000  0.720000  1.000000  0.810000 ScalE2=  1.000000  1.000000
 IRadAn=      5 IRanWt=     -1 IRanGd=            0 ICorTp=0 IEmpDi=  4
 NAtoms=   35 NActive=   35 NUniq=   35 SFac= 1.00D+00 NAtFMM=   60 NAOKFM=F Big=F
 Integral buffers will be    131072 words long.
 Raffenetti 2 integral format.
 Two-electron integral symmetry is turned on.
 Using the following non-standard input for PCM:
 MSTModel=DFT cav MSTCharged
 --- end of non-standard input.
 MST model for solvation energy: B3LYP parametrization.
 MST cavity parameters:
 ISph   IAn     Re0     Alpha   Atom Type   QCorr
 ------------------------------------------------
   1      7     1.50     1.15      NH+        T
   2      1     0.90     1.15      NH+        T
   3      1     0.90     1.15      NH+        T
   4      6     1.50     1.50      CN+        F
   5      1     1.20     1.50      CN+        F
   6      1     1.20     1.50      CN+        F
   7      6     1.50     1.50      CH2        F
   8      1     1.20     1.50      CH2        F
   9      1     1.20     1.50      CH2        F
  10      6     1.50     1.50      CH2        F
  11      1     1.20     1.50      CH2        F
  12      1     1.20     1.50      CH2        F
  13      7     1.50     1.50      Nc         F
  14      6     1.50     1.50      C          F
  15      6     1.50     1.50      CH         F
  16      1     1.20     1.50      CH         F
  17      6     1.50     1.50      C          F
  18     17     1.80     1.50      Cl         F
  19      6     1.50     1.50      CH         F
  20      1     1.20     1.50      CH         F
  21      6     1.50     1.50      CH         F
  22      1     1.20     1.50      CH         F
  23      6     1.50     1.50      C          F
  24     16     1.75     1.50      S          F
  25      6     1.50     1.50      C          F
  26      6     1.50     1.50      C          F
  27      6     1.50     1.50      CH         F
  28      1     1.20     1.50      CH         F
  29      6     1.50     1.50      CH         F
  30      1     1.20     1.50      CH         F
  31      6     1.50     1.50      CH         F
  32      1     1.20     1.50      CH         F
  33      6     1.50     1.50      CH         F
  34      1     1.20     1.50      CH         F
  35      1     0.90     1.15      NH+        T
 ------------------------------------------------------------------------------
 Polarizable Continuum Model (PCM)
 =================================
 Model                : PCM.
 Atomic radii         : MST.
 Polarization charges : Total charges.
 Charge compensation  : None.
 Solution method      : On-the-fly selection.
 Cavity type          : Scaled VdW (van der Waals Surface) (Alpha=1.500).
 Cavity algorithm     : GePol (No added spheres)
                        Default sphere list used, NSphG=   35.
                        Lebedev-Laikov grids with approx.  5.0 points / Ang**2.
                        Smoothing algorithm: York/Karplus (Gamma=1.0000).
                        Polarization charges: spherical gaussians, with
                                              point-specific exponents (IZeta= 3).
                        Self-potential: point-specific (ISelfS= 7).
                        Self-field    : sphere-specific E.n sum rule (ISelfD= 2).
 1st derivatives      : Analytical E(r).r(x)/FMM algorithm (CHGder, D1EAlg=3).
                        Cavity 1st derivative terms included.
 Solvent              : n-Octanol, Eps=   9.862900 Eps(inf)=   2.043470
 ------------------------------------------------------------------------------
 GePol: Number of generator spheres                  =      35
 GePol: Total number of spheres                      =      35
 GePol: Number of exposed spheres                    =      35 (100.00%)
 GePol: Number of points                             =    3343
 GePol: Average weight of points                     =       0.11
 GePol: Minimum weight of points                     =   0.12D-11
 GePol: Maximum weight of points                     =    0.22065
 GePol: Number of points with low weight             =     176
 GePol: Fraction of low-weight points (<1% of avg)   =       5.26%
 GePol: Cavity surface area                          =    374.281 Ang**2
 GePol: Cavity volume                                =    451.699 Ang**3
 Surface areas from nonelectrostatic (unscaled) cavity and vdw tensions:
 Sphere =    1 Type =  NH+ Surf =       11.851 Tension =       -0.274
 Sphere =    2 Type =  NH+ Surf =        3.847 Tension =       -0.274
 Sphere =    3 Type =  NH+ Surf =        3.856 Tension =       -0.274
 Sphere =    4 Type =  CN+ Surf =        3.793 Tension =       -0.227
 Sphere =    5 Type =  CN+ Surf =       10.063 Tension =       -0.227
 Sphere =    6 Type =  CN+ Surf =        9.926 Tension =       -0.227
 Sphere =    7 Type =  CH2 Surf =        3.666 Tension =       -0.194
 Sphere =    8 Type =  CH2 Surf =        9.826 Tension =       -0.194
 Sphere =    9 Type =  CH2 Surf =        8.453 Tension =       -0.194
 Sphere =   10 Type =  CH2 Surf =        3.726 Tension =       -0.194
 Sphere =   11 Type =  CH2 Surf =        9.873 Tension =       -0.194
 Sphere =   12 Type =  CH2 Surf =        9.700 Tension =       -0.194
 Sphere =   13 Type =  Nc  Surf =        5.701 Tension =       -0.161
 Sphere =   14 Type =  C   Surf =        5.668 Tension =       -0.205
 Sphere =   15 Type =  CH  Surf =        7.092 Tension =       -0.195
 Sphere =   16 Type =  CH  Surf =        8.445 Tension =       -0.195
 Sphere =   17 Type =  C   Surf =        5.205 Tension =       -0.205
 Sphere =   18 Type =  Cl  Surf =       32.256 Tension =       -0.163
 Sphere =   19 Type =  CH  Surf =        7.652 Tension =       -0.195
 Sphere =   20 Type =  CH  Surf =       10.071 Tension =       -0.195
 Sphere =   21 Type =  CH  Surf =        7.558 Tension =       -0.195
 Sphere =   22 Type =  CH  Surf =        9.994 Tension =       -0.195
 Sphere =   23 Type =  C   Surf =        5.585 Tension =       -0.205
 Sphere =   24 Type =  S   Surf =       23.172 Tension =       -0.186
 Sphere =   25 Type =  C   Surf =        5.635 Tension =       -0.205
 Sphere =   26 Type =  C   Surf =        5.557 Tension =       -0.205
 Sphere =   27 Type =  CH  Surf =        7.654 Tension =       -0.195
 Sphere =   28 Type =  CH  Surf =        9.984 Tension =       -0.195
 Sphere =   29 Type =  CH  Surf =        7.944 Tension =       -0.195
 Sphere =   30 Type =  CH  Surf =       10.258 Tension =       -0.195
 Sphere =   31 Type =  CH  Surf =        7.767 Tension =       -0.195
 Sphere =   32 Type =  CH  Surf =       10.238 Tension =       -0.195
 Sphere =   33 Type =  CH  Surf =        7.435 Tension =       -0.195
 Sphere =   34 Type =  CH  Surf =       10.082 Tension =       -0.195
 Sphere =   35 Type =  NH+ Surf =        3.849 Tension =       -0.274
 PCM non-electrostatic energy =        -0.0192908845 Hartrees.
 Nuclear repulsion after PCM non-electrostatic terms =     1643.0635206338 Hartrees.
 Leave Link  301 at Sun Jul 18 13:57:58 2021, MaxMem=   104857600 cpu:               0.2 elap:               0.1
 (Enter /dades/curu/g16A03_MST/g16/l302.exe)
 NPDir=0 NMtPBC=     1 NCelOv=     1 NCel=       1 NClECP=     1 NCelD=      1
         NCelK=      1 NCelE2=     1 NClLst=     1 CellRange=     0.0.
 One-electron integrals computed using PRISM.
 One-electron integral symmetry used in STVInt
 NBasis=   325 RedAO= T EigKep=  3.85D-04  NBF=   325
 NBsUse=   325 1.00D-06 EigRej= -1.00D+00 NBFU=   325
 Precomputing XC quadrature grid using
 IXCGrd= 4 IRadAn=           5 IRanWt=          -1 IRanGd=           0 AccXCQ= 0.00D+00.
 Generated NRdTot=       0 NPtTot=           0 NUsed=           0 NTot=          32
 NSgBfM=   323   323   323   323   323 MxSgAt=    35 MxSgA2=    35.
 Leave Link  302 at Sun Jul 18 13:58:00 2021, MaxMem=   104857600 cpu:               4.6 elap:               1.2
 (Enter /dades/curu/g16A03_MST/g16/l303.exe)
 DipDrv:  MaxL=1.
 Leave Link  303 at Sun Jul 18 13:58:00 2021, MaxMem=   104857600 cpu:               0.1 elap:               0.1
 (Enter /dades/curu/g16A03_MST/g16/l401.exe)
 ExpMin= 1.17D-01 ExpMax= 2.52D+04 ExpMxC= 3.78D+03 IAcc=3 IRadAn=         5 AccDes= 0.00D+00
 Harris functional with IExCor=  402 and IRadAn=       5 diagonalized for initial guess.
 HarFok:  IExCor=  402 AccDes= 0.00D+00 IRadAn=         5 IDoV= 1 UseB2=F ITyADJ=14
 ICtDFT=  3500011 ScaDFX=  1.000000  1.000000  1.000000  1.000000
 FoFCou: FMM=F IPFlag=           0 FMFlag=      100000 FMFlg1=           0
         NFxFlg=           0 DoJE=T BraDBF=F KetDBF=T FulRan=T
         wScrn=  0.000000 ICntrl=       500 IOpCl=  0 I1Cent=   200000004 NGrid=           0
         NMat0=    1 NMatS0=      1 NMatT0=    0 NMatD0=    1 NMtDS0=    0 NMtDT0=    0
 Petite list used in FoFCou.
 Harris En= -1548.77485572571    
 JPrj=0 DoOrth=F DoCkMO=F.
 Leave Link  401 at Sun Jul 18 13:58:08 2021, MaxMem=   104857600 cpu:              33.3 elap:               8.4
 (Enter /dades/curu/g16A03_MST/g16/l502.exe)
 Integral symmetry usage will be decided dynamically.
 Closed shell SCF:
 Using DIIS extrapolation, IDIIS=  1040.
 NGot=   104857600 LenX=   104640758 LenY=   104534692
 Requested convergence on RMS density matrix=1.00D-08 within 128 cycles.
 Requested convergence on MAX density matrix=1.00D-06.
 Requested convergence on             energy=1.00D-06.
 No special actions if energy rises.
 Fock matrices will be formed incrementally for  20 cycles.

 Cycle   1  Pass 1  IDiag  1:
 FoFJK:  IHMeth= 1 ICntrl=       0 DoSepK=F KAlg= 0 I1Cent=           0 FoldK=F
 IRaf= 810000000 NMat=       1 IRICut=       1 DoRegI=T DoRafI=F ISym2E= 0 IDoP0=0 IntGTp=1.
 FoFCou: FMM=F IPFlag=           0 FMFlag=      100000 FMFlg1=           0
         NFxFlg=           0 DoJE=F BraDBF=F KetDBF=F FulRan=T
         wScrn=  0.000000 ICntrl=         0 IOpCl=  0 I1Cent=           0 NGrid=           0
         NMat0=    1 NMatS0=      1 NMatT0=    0 NMatD0=    1 NMtDS0=    0 NMtDT0=    0
 Symmetry not used in FoFCou.
 Inv3:  Mode=1 IEnd=    33526947.
 Iteration    1 A*A^-1 deviation from unit magnitude is 5.77D-15 for   3340.
 Iteration    1 A*A^-1 deviation from orthogonality  is 3.95D-15 for   3338   3233.
 Iteration    1 A^-1*A deviation from unit magnitude is 6.00D-15 for   3340.
 Iteration    1 A^-1*A deviation from orthogonality  is 3.36D-15 for   3338   3233.
 E= -1548.51920371492    
 DIIS: error= 2.85D-02 at cycle   1 NSaved=   1.
 NSaved= 1 IEnMin= 1 EnMin= -1548.51920371492     IErMin= 1 ErrMin= 2.85D-02
 ErrMax= 2.85D-02  0.00D+00 EMaxC= 1.00D-01 BMatC= 4.19D-01 BMatP= 4.19D-01
 IDIUse=3 WtCom= 7.15D-01 WtEn= 2.85D-01
 Coeff-Com:  0.100D+01
 Coeff-En:   0.100D+01
 Coeff:      0.100D+01
 Gap=     0.252 Goal=   None    Shift=    0.000
 GapD=    0.252 DampG=1.000 DampE=0.500 DampFc=0.5000 IDamp=-1.
 Damping current iteration by 5.00D-01
 RMSDP=5.08D-03 MaxDP=1.67D-01              OVMax= 2.69D-01

 Cycle   2  Pass 1  IDiag  1:
 RMSU=  2.51D-03    CP:  9.82D-01
 E= -1548.69971701913     Delta-E=       -0.180513304214 Rises=F Damp=T
 DIIS: error= 8.88D-03 at cycle   2 NSaved=   2.
 NSaved= 2 IEnMin= 2 EnMin= -1548.69971701913     IErMin= 2 ErrMin= 8.88D-03
 ErrMax= 8.88D-03  0.00D+00 EMaxC= 1.00D-01 BMatC= 3.41D-02 BMatP= 4.19D-01
 IDIUse=3 WtCom= 9.11D-01 WtEn= 8.88D-02
 Coeff-Com:  0.902D-01 0.910D+00
 Coeff-En:   0.180D+00 0.820D+00
 Coeff:      0.982D-01 0.902D+00
 Gap=     0.247 Goal=   None    Shift=    0.000
 RMSDP=1.50D-03 MaxDP=7.86D-02 DE=-1.81D-01 OVMax= 1.99D-01

 Cycle   3  Pass 1  IDiag  1:
 RMSU=  1.41D-03    CP:  9.74D-01  8.09D-01
 E= -1548.93231978721     Delta-E=       -0.232602768083 Rises=F Damp=F
 DIIS: error= 6.95D-03 at cycle   3 NSaved=   3.
 NSaved= 3 IEnMin= 3 EnMin= -1548.93231978721     IErMin= 3 ErrMin= 6.95D-03
 ErrMax= 6.95D-03  0.00D+00 EMaxC= 1.00D-01 BMatC= 2.36D-02 BMatP= 3.41D-02
 IDIUse=3 WtCom= 9.30D-01 WtEn= 6.95D-02
 Coeff-Com: -0.621D-02 0.444D+00 0.562D+00
 Coeff-En:   0.000D+00 0.000D+00 0.100D+01
 Coeff:     -0.578D-02 0.413D+00 0.593D+00
 Gap=     0.168 Goal=   None    Shift=    0.000
 RMSDP=9.70D-04 MaxDP=3.45D-02 DE=-2.33D-01 OVMax= 9.80D-02

 Cycle   4  Pass 1  IDiag  1:
 RMSU=  7.71D-04    CP:  9.76D-01  9.00D-01  6.16D-01
 E= -1548.94533280438     Delta-E=       -0.013013017163 Rises=F Damp=F
 DIIS: error= 5.04D-03 at cycle   4 NSaved=   4.
 NSaved= 4 IEnMin= 4 EnMin= -1548.94533280438     IErMin= 4 ErrMin= 5.04D-03
 ErrMax= 5.04D-03  0.00D+00 EMaxC= 1.00D-01 BMatC= 1.19D-02 BMatP= 2.36D-02
 IDIUse=3 WtCom= 9.50D-01 WtEn= 5.04D-02
 Coeff-Com: -0.163D-01 0.101D+00 0.421D+00 0.494D+00
 Coeff-En:   0.000D+00 0.000D+00 0.368D+00 0.632D+00
 Coeff:     -0.155D-01 0.963D-01 0.418D+00 0.501D+00
 Gap=     0.165 Goal=   None    Shift=    0.000
 RMSDP=4.64D-04 MaxDP=1.41D-02 DE=-1.30D-02 OVMax= 3.91D-02

 Cycle   5  Pass 1  IDiag  1:
 RMSU=  1.83D-04    CP:  9.76D-01  8.94D-01  7.45D-01  5.01D-01
 E= -1548.95821226680     Delta-E=       -0.012879462427 Rises=F Damp=F
 DIIS: error= 5.95D-04 at cycle   5 NSaved=   5.
 NSaved= 5 IEnMin= 5 EnMin= -1548.95821226680     IErMin= 5 ErrMin= 5.95D-04
 ErrMax= 5.95D-04  0.00D+00 EMaxC= 1.00D-01 BMatC= 3.00D-04 BMatP= 1.19D-02
 IDIUse=3 WtCom= 9.94D-01 WtEn= 5.95D-03
 Coeff-Com: -0.563D-02 0.173D-01 0.162D+00 0.239D+00 0.588D+00
 Coeff-En:   0.000D+00 0.000D+00 0.000D+00 0.000D+00 0.100D+01
 Coeff:     -0.560D-02 0.172D-01 0.161D+00 0.237D+00 0.590D+00
 Gap=     0.162 Goal=   None    Shift=    0.000
 RMSDP=8.99D-05 MaxDP=7.75D-03 DE=-1.29D-02 OVMax= 6.42D-03

 Cycle   6  Pass 1  IDiag  1:
 RMSU=  4.92D-05    CP:  9.75D-01  8.86D-01  7.59D-01  5.45D-01  6.66D-01
 E= -1548.95851793933     Delta-E=       -0.000305672524 Rises=F Damp=F
 DIIS: error= 1.93D-04 at cycle   6 NSaved=   6.
 NSaved= 6 IEnMin= 6 EnMin= -1548.95851793933     IErMin= 6 ErrMin= 1.93D-04
 ErrMax= 1.93D-04  0.00D+00 EMaxC= 1.00D-01 BMatC= 2.97D-05 BMatP= 3.00D-04
 IDIUse=3 WtCom= 9.98D-01 WtEn= 1.93D-03
 Coeff-Com: -0.138D-02 0.407D-03 0.494D-01 0.811D-01 0.300D+00 0.571D+00
 Coeff-En:   0.000D+00 0.000D+00 0.000D+00 0.000D+00 0.000D+00 0.100D+01
 Coeff:     -0.138D-02 0.406D-03 0.493D-01 0.810D-01 0.299D+00 0.572D+00
 Gap=     0.162 Goal=   None    Shift=    0.000
 RMSDP=2.30D-05 MaxDP=1.06D-03 DE=-3.06D-04 OVMax= 1.87D-03

 Cycle   7  Pass 1  IDiag  1:
 RMSU=  1.51D-05    CP:  9.75D-01  8.87D-01  7.61D-01  5.47D-01  7.13D-01
                    CP:  7.00D-01
 E= -1548.95854587269     Delta-E=       -0.000027933366 Rises=F Damp=F
 DIIS: error= 5.58D-05 at cycle   7 NSaved=   7.
 NSaved= 7 IEnMin= 7 EnMin= -1548.95854587269     IErMin= 7 ErrMin= 5.58D-05
 ErrMax= 5.58D-05  0.00D+00 EMaxC= 1.00D-01 BMatC= 3.12D-06 BMatP= 2.97D-05
 IDIUse=1 WtCom= 1.00D+00 WtEn= 0.00D+00
 Coeff-Com: -0.250D-03-0.110D-02 0.146D-01 0.249D-01 0.114D+00 0.309D+00
 Coeff-Com:  0.539D+00
 Coeff:     -0.250D-03-0.110D-02 0.146D-01 0.249D-01 0.114D+00 0.309D+00
 Coeff:      0.539D+00
 Gap=     0.162 Goal=   None    Shift=    0.000
 RMSDP=7.77D-06 MaxDP=4.08D-04 DE=-2.79D-05 OVMax= 6.21D-04

 Cycle   8  Pass 1  IDiag  1:
 RMSU=  5.13D-06    CP:  9.75D-01  8.87D-01  7.60D-01  5.49D-01  7.18D-01
                    CP:  7.47D-01  6.61D-01
 E= -1548.95854886272     Delta-E=       -0.000002990027 Rises=F Damp=F
 DIIS: error= 1.90D-05 at cycle   8 NSaved=   8.
 NSaved= 8 IEnMin= 8 EnMin= -1548.95854886272     IErMin= 8 ErrMin= 1.90D-05
 ErrMax= 1.90D-05  0.00D+00 EMaxC= 1.00D-01 BMatC= 4.02D-07 BMatP= 3.12D-06
 IDIUse=1 WtCom= 1.00D+00 WtEn= 0.00D+00
 Coeff-Com:  0.141D-03-0.808D-03 0.320D-03 0.149D-03 0.139D-01 0.824D-01
 Coeff-Com:  0.293D+00 0.611D+00
 Coeff:      0.141D-03-0.808D-03 0.320D-03 0.149D-03 0.139D-01 0.824D-01
 Coeff:      0.293D+00 0.611D+00
 Gap=     0.162 Goal=   None    Shift=    0.000
 RMSDP=2.76D-06 MaxDP=8.59D-05 DE=-2.99D-06 OVMax= 2.80D-04

 Cycle   9  Pass 1  IDiag  1:
 RMSU=  1.98D-06    CP:  9.75D-01  8.87D-01  7.61D-01  5.49D-01  7.21D-01
                    CP:  7.52D-01  7.54D-01  7.80D-01
 E= -1548.95854926339     Delta-E=       -0.000000400668 Rises=F Damp=F
 DIIS: error= 6.33D-06 at cycle   9 NSaved=   9.
 NSaved= 9 IEnMin= 9 EnMin= -1548.95854926339     IErMin= 9 ErrMin= 6.33D-06
 ErrMax= 6.33D-06  0.00D+00 EMaxC= 1.00D-01 BMatC= 4.13D-08 BMatP= 4.02D-07
 IDIUse=1 WtCom= 1.00D+00 WtEn= 0.00D+00
 Coeff-Com:  0.125D-03-0.315D-03-0.150D-02-0.312D-02-0.663D-02 0.573D-02
 Coeff-Com:  0.820D-01 0.308D+00 0.616D+00
 Coeff:      0.125D-03-0.315D-03-0.150D-02-0.312D-02-0.663D-02 0.573D-02
 Coeff:      0.820D-01 0.308D+00 0.616D+00
 Gap=     0.162 Goal=   None    Shift=    0.000
 RMSDP=9.55D-07 MaxDP=7.06D-05 DE=-4.01D-07 OVMax= 7.21D-05

 Cycle  10  Pass 1  IDiag  1:
 RMSU=  4.78D-07    CP:  9.75D-01  8.87D-01  7.61D-01  5.49D-01  7.21D-01
                    CP:  7.61D-01  7.67D-01  8.49D-01  7.79D-01
 E= -1548.95854931182     Delta-E=       -0.000000048434 Rises=F Damp=F
 DIIS: error= 1.20D-06 at cycle  10 NSaved=  10.
 NSaved=10 IEnMin=10 EnMin= -1548.95854931182     IErMin=10 ErrMin= 1.20D-06
 ErrMax= 1.20D-06  0.00D+00 EMaxC= 1.00D-01 BMatC= 1.54D-09 BMatP= 4.13D-08
 IDIUse=1 WtCom= 1.00D+00 WtEn= 0.00D+00
 Coeff-Com:  0.384D-04-0.618D-04-0.515D-03-0.115D-02-0.312D-02-0.296D-02
 Coeff-Com:  0.917D-02 0.679D-01 0.217D+00 0.714D+00
 Coeff:      0.384D-04-0.618D-04-0.515D-03-0.115D-02-0.312D-02-0.296D-02
 Coeff:      0.917D-02 0.679D-01 0.217D+00 0.714D+00
 Gap=     0.162 Goal=   None    Shift=    0.000
 RMSDP=2.22D-07 MaxDP=1.02D-05 DE=-4.84D-08 OVMax= 2.55D-05

 Cycle  11  Pass 1  IDiag  1:
 RMSU=  1.67D-07    CP:  9.75D-01  8.87D-01  7.61D-01  5.49D-01  7.21D-01
                    CP:  7.61D-01  7.71D-01  8.64D-01  8.13D-01  8.93D-01
 E= -1548.95854931342     Delta-E=       -0.000000001603 Rises=F Damp=F
 DIIS: error= 7.30D-07 at cycle  11 NSaved=  11.
 NSaved=11 IEnMin=11 EnMin= -1548.95854931342     IErMin=11 ErrMin= 7.30D-07
 ErrMax= 7.30D-07  0.00D+00 EMaxC= 1.00D-01 BMatC= 3.91D-10 BMatP= 1.54D-09
 IDIUse=1 WtCom= 1.00D+00 WtEn= 0.00D+00
 Coeff-Com:  0.512D-05 0.613D-05-0.779D-04-0.227D-03-0.797D-03-0.233D-02
 Coeff-Com: -0.623D-02-0.419D-02 0.377D-01 0.385D+00 0.591D+00
 Coeff:      0.512D-05 0.613D-05-0.779D-04-0.227D-03-0.797D-03-0.233D-02
 Coeff:     -0.623D-02-0.419D-02 0.377D-01 0.385D+00 0.591D+00
 Gap=     0.162 Goal=   None    Shift=    0.000
 RMSDP=9.36D-08 MaxDP=3.64D-06 DE=-1.60D-09 OVMax= 7.61D-06

 Cycle  12  Pass 1  IDiag  1:
 RMSU=  5.99D-08    CP:  9.75D-01  8.87D-01  7.61D-01  5.49D-01  7.21D-01
                    CP:  7.62D-01  7.72D-01  8.68D-01  8.26D-01  9.59D-01
                    CP:  7.10D-01
 E= -1548.95854931388     Delta-E=       -0.000000000457 Rises=F Damp=F
 DIIS: error= 3.03D-07 at cycle  12 NSaved=  12.
 NSaved=12 IEnMin=12 EnMin= -1548.95854931388     IErMin=12 ErrMin= 3.03D-07
 ErrMax= 3.03D-07  0.00D+00 EMaxC= 1.00D-01 BMatC= 4.72D-11 BMatP= 3.91D-10
 IDIUse=1 WtCom= 1.00D+00 WtEn= 0.00D+00
 Coeff-Com: -0.130D-05 0.920D-05 0.190D-04 0.115D-04-0.363D-04-0.822D-03
 Coeff-Com: -0.432D-02-0.978D-02-0.408D-02 0.122D+00 0.318D+00 0.579D+00
 Coeff:     -0.130D-05 0.920D-05 0.190D-04 0.115D-04-0.363D-04-0.822D-03
 Coeff:     -0.432D-02-0.978D-02-0.408D-02 0.122D+00 0.318D+00 0.579D+00
 Gap=     0.162 Goal=   None    Shift=    0.000
 RMSDP=3.58D-08 MaxDP=1.60D-06 DE=-4.57D-10 OVMax= 3.85D-06

 Cycle  13  Pass 1  IDiag  1:
 RMSU=  2.13D-08    CP:  9.75D-01  8.87D-01  7.61D-01  5.49D-01  7.21D-01
                    CP:  7.62D-01  7.72D-01  8.69D-01  8.30D-01  9.78D-01
                    CP:  7.88D-01  6.59D-01
 E= -1548.95854931388     Delta-E=        0.000000000000 Rises=F Damp=F
 DIIS: error= 7.80D-08 at cycle  13 NSaved=  13.
 NSaved=13 IEnMin=12 EnMin= -1548.95854931388     IErMin=13 ErrMin= 7.80D-08
 ErrMax= 7.80D-08  0.00D+00 EMaxC= 1.00D-01 BMatC= 5.32D-12 BMatP= 4.72D-11
 IDIUse=1 WtCom= 1.00D+00 WtEn= 0.00D+00
 Coeff-Com: -0.140D-05 0.411D-05 0.188D-04 0.357D-04 0.797D-04-0.162D-03
 Coeff-Com: -0.163D-02-0.502D-02-0.788D-02 0.110D-01 0.849D-01 0.301D+00
 Coeff-Com:  0.618D+00
 Coeff:     -0.140D-05 0.411D-05 0.188D-04 0.357D-04 0.797D-04-0.162D-03
 Coeff:     -0.163D-02-0.502D-02-0.788D-02 0.110D-01 0.849D-01 0.301D+00
 Coeff:      0.618D+00
 Gap=     0.162 Goal=   None    Shift=    0.000
 RMSDP=1.07D-08 MaxDP=3.12D-07 DE= 4.55D-13 OVMax= 9.49D-07

 Cycle  14  Pass 1  IDiag  1:
 RMSU=  5.96D-09    CP:  9.75D-01  8.87D-01  7.61D-01  5.49D-01  7.21D-01
                    CP:  7.62D-01  7.72D-01  8.69D-01  8.31D-01  9.84D-01
                    CP:  7.94D-01  7.51D-01  7.57D-01
 E= -1548.95854931390     Delta-E=       -0.000000000015 Rises=F Damp=F
 DIIS: error= 2.29D-08 at cycle  14 NSaved=  14.
 NSaved=14 IEnMin=14 EnMin= -1548.95854931390     IErMin=14 ErrMin= 2.29D-08
 ErrMax= 2.29D-08  0.00D+00 EMaxC= 1.00D-01 BMatC= 4.81D-13 BMatP= 5.32D-12
 IDIUse=1 WtCom= 1.00D+00 WtEn= 0.00D+00
 Coeff-Com: -0.565D-06 0.128D-05 0.786D-05 0.169D-04 0.438D-04-0.114D-04
 Coeff-Com: -0.454D-03-0.165D-02-0.339D-02-0.331D-02 0.190D-01 0.109D+00
 Coeff-Com:  0.312D+00 0.569D+00
 Coeff:     -0.565D-06 0.128D-05 0.786D-05 0.169D-04 0.438D-04-0.114D-04
 Coeff:     -0.454D-03-0.165D-02-0.339D-02-0.331D-02 0.190D-01 0.109D+00
 Coeff:      0.312D+00 0.569D+00
 Gap=     0.162 Goal=   None    Shift=    0.000
 RMSDP=3.11D-09 MaxDP=1.94D-07 DE=-1.46D-11 OVMax= 2.26D-07

 Error on total polarization charges =  0.00853
 SCF Done:  E(RB3LYP) =  -1548.95854931     A.U. after   14 cycles
            NFock= 14  Conv=0.31D-08     -V/T= 2.0057
 KE= 1.540113178218D+03 PE=-6.908216339168D+03 EE= 2.176081091003D+03
 Leave Link  502 at Sun Jul 18 14:02:41 2021, MaxMem=   104857600 cpu:            1060.6 elap:             273.4
 (Enter /dades/curu/g16A03_MST/g16/l601.exe)
 Copying SCF densities to generalized density rwf, IOpCl= 0 IROHF=0.

 **********************************************************************

            Population analysis using the SCF density.

 **********************************************************************

 Orbital symmetries:
       Occupied  (A) (A) (A) (A) (A) (A) (A) (A) (A) (A) (A) (A)
                 (A) (A) (A) (A) (A) (A) (A) (A) (A) (A) (A) (A)
                 (A) (A) (A) (A) (A) (A) (A) (A) (A) (A) (A) (A)
                 (A) (A) (A) (A) (A) (A) (A) (A) (A) (A) (A) (A)
                 (A) (A) (A) (A) (A) (A) (A) (A) (A) (A) (A) (A)
                 (A) (A) (A) (A) (A) (A) (A) (A) (A) (A) (A) (A)
                 (A) (A) (A) (A)
       Virtual   (A) (A) (A) (A) (A) (A) (A) (A) (A) (A) (A) (A)
                 (A) (A) (A) (A) (A) (A) (A) (A) (A) (A) (A) (A)
                 (A) (A) (A) (A) (A) (A) (A) (A) (A) (A) (A) (A)
                 (A) (A) (A) (A) (A) (A) (A) (A) (A) (A) (A) (A)
                 (A) (A) (A) (A) (A) (A) (A) (A) (A) (A) (A) (A)
                 (A) (A) (A) (A) (A) (A) (A) (A) (A) (A) (A) (A)
                 (A) (A) (A) (A) (A) (A) (A) (A) (A) (A) (A) (A)
                 (A) (A) (A) (A) (A) (A) (A) (A) (A) (A) (A) (A)
                 (A) (A) (A) (A) (A) (A) (A) (A) (A) (A) (A) (A)
                 (A) (A) (A) (A) (A) (A) (A) (A) (A) (A) (A) (A)
                 (A) (A) (A) (A) (A) (A) (A) (A) (A) (A) (A) (A)
                 (A) (A) (A) (A) (A) (A) (A) (A) (A) (A) (A) (A)
                 (A) (A) (A) (A) (A) (A) (A) (A) (A) (A) (A) (A)
                 (A) (A) (A) (A) (A) (A) (A) (A) (A) (A) (A) (A)
                 (A) (A) (A) (A) (A) (A) (A) (A) (A) (A) (A) (A)
                 (A) (A) (A) (A) (A) (A) (A) (A) (A) (A) (A) (A)
                 (A) (A) (A) (A) (A) (A) (A) (A) (A) (A) (A) (A)
                 (A) (A) (A) (A) (A) (A) (A) (A) (A) (A) (A) (A)
                 (A) (A) (A) (A) (A) (A) (A) (A) (A) (A) (A) (A)
                 (A) (A) (A) (A) (A) (A) (A) (A) (A) (A) (A) (A)
                 (A) (A) (A) (A) (A) (A) (A) (A) (A)
 The electronic state is 1-A.
 Alpha  occ. eigenvalues -- -101.56104 -88.90902 -14.46374 -14.37810 -10.27452
 Alpha  occ. eigenvalues --  -10.25852 -10.25450 -10.25437 -10.24682 -10.24022
 Alpha  occ. eigenvalues --  -10.23769 -10.22659 -10.21599 -10.21439 -10.20804
 Alpha  occ. eigenvalues --  -10.20496 -10.20388 -10.20282 -10.19928  -9.47738
 Alpha  occ. eigenvalues --   -7.97108  -7.24128  -7.23166  -7.23141  -5.93600
 Alpha  occ. eigenvalues --   -5.93211  -5.92624  -1.04394  -0.99525  -0.90757
 Alpha  occ. eigenvalues --   -0.87515  -0.86258  -0.82899  -0.81324  -0.78203
 Alpha  occ. eigenvalues --   -0.75839  -0.75018  -0.72778  -0.69114  -0.66878
 Alpha  occ. eigenvalues --   -0.64987  -0.62982  -0.62211  -0.61360  -0.59800
 Alpha  occ. eigenvalues --   -0.57192  -0.55715  -0.54457  -0.51661  -0.49905
 Alpha  occ. eigenvalues --   -0.49396  -0.49219  -0.48121  -0.47098  -0.45943
 Alpha  occ. eigenvalues --   -0.44988  -0.44399  -0.43826  -0.42936  -0.42031
 Alpha  occ. eigenvalues --   -0.41535  -0.40426  -0.39911  -0.39231  -0.37448
 Alpha  occ. eigenvalues --   -0.36533  -0.36202  -0.35915  -0.34608  -0.32717
 Alpha  occ. eigenvalues --   -0.32043  -0.30724  -0.27387  -0.26310  -0.23963
 Alpha  occ. eigenvalues --   -0.19855
 Alpha virt. eigenvalues --   -0.03621  -0.02498  -0.01509  -0.00832   0.01068
 Alpha virt. eigenvalues --    0.02483   0.03086   0.06409   0.07156   0.08176
 Alpha virt. eigenvalues --    0.08817   0.10051   0.10618   0.11970   0.12362
 Alpha virt. eigenvalues --    0.12794   0.12993   0.13886   0.13980   0.14534
 Alpha virt. eigenvalues --    0.14969   0.15960   0.16576   0.18233   0.18835
 Alpha virt. eigenvalues --    0.19490   0.21495   0.21628   0.22976   0.23780
 Alpha virt. eigenvalues --    0.25061   0.25923   0.26361   0.27723   0.29417
 Alpha virt. eigenvalues --    0.30661   0.31446   0.32019   0.34816   0.35458
 Alpha virt. eigenvalues --    0.37166   0.37851   0.38342   0.40147   0.42006
 Alpha virt. eigenvalues --    0.42807   0.43671   0.45511   0.46821   0.48810
 Alpha virt. eigenvalues --    0.49682   0.49951   0.50643   0.50998   0.52445
 Alpha virt. eigenvalues --    0.53041   0.53841   0.54245   0.54880   0.55859
 Alpha virt. eigenvalues --    0.56008   0.57030   0.57336   0.58497   0.58812
 Alpha virt. eigenvalues --    0.59556   0.59737   0.59897   0.60799   0.61508
 Alpha virt. eigenvalues --    0.62128   0.62539   0.63041   0.64385   0.64690
 Alpha virt. eigenvalues --    0.65694   0.66709   0.68986   0.69502   0.69935
 Alpha virt. eigenvalues --    0.71167   0.75053   0.75621   0.76133   0.78977
 Alpha virt. eigenvalues --    0.79486   0.80817   0.81332   0.82305   0.82549
 Alpha virt. eigenvalues --    0.82827   0.83284   0.83787   0.84115   0.84392
 Alpha virt. eigenvalues --    0.85222   0.85755   0.85816   0.86229   0.88083
 Alpha virt. eigenvalues --    0.88584   0.89184   0.89664   0.90104   0.91065
 Alpha virt. eigenvalues --    0.91485   0.92523   0.92784   0.93996   0.95193
 Alpha virt. eigenvalues --    0.96067   0.96729   0.97649   0.99833   1.01144
 Alpha virt. eigenvalues --    1.01727   1.03388   1.03986   1.04590   1.05348
 Alpha virt. eigenvalues --    1.07568   1.07979   1.08521   1.10326   1.12840
 Alpha virt. eigenvalues --    1.15068   1.16607   1.18044   1.20034   1.21690
 Alpha virt. eigenvalues --    1.22098   1.23002   1.26798   1.27942   1.29728
 Alpha virt. eigenvalues --    1.32181   1.35484   1.35968   1.39100   1.39934
 Alpha virt. eigenvalues --    1.41004   1.42350   1.43268   1.44084   1.45382
 Alpha virt. eigenvalues --    1.47507   1.49182   1.50183   1.52388   1.53675
 Alpha virt. eigenvalues --    1.54236   1.56632   1.58364   1.58861   1.61671
 Alpha virt. eigenvalues --    1.66101   1.68641   1.72436   1.73392   1.78111
 Alpha virt. eigenvalues --    1.79153   1.79812   1.81181   1.82558   1.83826
 Alpha virt. eigenvalues --    1.86842   1.87467   1.88407   1.90620   1.91111
 Alpha virt. eigenvalues --    1.92121   1.93720   1.94141   1.96403   1.97414
 Alpha virt. eigenvalues --    1.98448   1.98872   2.02275   2.02745   2.06237
 Alpha virt. eigenvalues --    2.07011   2.07747   2.10715   2.11060   2.12297
 Alpha virt. eigenvalues --    2.14155   2.14719   2.16431   2.17776   2.20334
 Alpha virt. eigenvalues --    2.21360   2.23412   2.24169   2.26173   2.27618
 Alpha virt. eigenvalues --    2.29665   2.31670   2.33435   2.34072   2.34659
 Alpha virt. eigenvalues --    2.36695   2.40744   2.45721   2.47479   2.50169
 Alpha virt. eigenvalues --    2.50278   2.54573   2.55089   2.57840   2.60502
 Alpha virt. eigenvalues --    2.60604   2.61521   2.64605   2.65778   2.68168
 Alpha virt. eigenvalues --    2.69821   2.72695   2.73423   2.74465   2.76530
 Alpha virt. eigenvalues --    2.77655   2.78166   2.79462   2.85651   2.91560
 Alpha virt. eigenvalues --    2.96275   3.06044   3.26069   3.32456   3.39640
 Alpha virt. eigenvalues --    3.77728   3.96923   4.05624   4.07952   4.08438
 Alpha virt. eigenvalues --    4.10343   4.11920   4.13909   4.18427   4.25666
 Alpha virt. eigenvalues --    4.26790   4.31930   4.33704   4.35168   4.37068
 Alpha virt. eigenvalues --    4.41249   4.50349   4.64458   4.74765
          Condensed to atoms (all electrons):
               1          2          3          4          5          6
     1  N    6.677548   0.306385   0.304463   0.242032  -0.034524  -0.043683
     2  H    0.306385   0.272830  -0.009466  -0.020700   0.003899  -0.004901
     3  H    0.304463  -0.009466   0.268300  -0.019338  -0.002415  -0.002321
     4  C    0.242032  -0.020700  -0.019338   5.002557   0.388968   0.390990
     5  H   -0.034524   0.003899  -0.002415   0.388968   0.483416  -0.026028
     6  H   -0.043683  -0.004901  -0.002321   0.390990  -0.026028   0.501790
     7  C   -0.068582  -0.001826   0.005006   0.343736  -0.032945  -0.038730
     8  H   -0.001691   0.004933   0.000060  -0.031760   0.003861  -0.003584
     9  H   -0.002991  -0.000723  -0.000084  -0.032359  -0.006106   0.004883
    10  C    0.003532  -0.000010  -0.000123  -0.037035  -0.000734  -0.002737
    11  H   -0.000027   0.000010   0.000015   0.000174   0.003833  -0.000248
    12  H   -0.000079  -0.000006   0.000008  -0.000850  -0.000382   0.004087
    13  N   -0.000053  -0.000001   0.000001   0.003051   0.000012  -0.000001
    14  C   -0.000000   0.000000   0.000000   0.000075   0.000004  -0.000002
    15  C    0.000005   0.000000  -0.000000   0.000040   0.000019  -0.000001
    16  H   -0.000021   0.000000   0.000000   0.000119   0.000026  -0.000000
    17  C   -0.000000  -0.000000   0.000000  -0.000001  -0.000000   0.000000
    18  Cl   0.000000  -0.000000  -0.000000  -0.000001  -0.000000   0.000000
    19  C   -0.000000   0.000000  -0.000000  -0.000000   0.000000  -0.000000
    20  H   -0.000000  -0.000000  -0.000000  -0.000000  -0.000000   0.000000
    21  C    0.000000  -0.000000  -0.000000  -0.000000  -0.000000  -0.000000
    22  H   -0.000000  -0.000000   0.000000   0.000000   0.000000   0.000000
    23  C   -0.000000  -0.000000   0.000000   0.000008   0.000000   0.000000
    24  S   -0.000000   0.000000  -0.000000  -0.000002  -0.000000  -0.000000
    25  C   -0.000000  -0.000000   0.000000   0.000006   0.000000   0.000000
    26  C   -0.000000  -0.000000   0.000000   0.000012  -0.000000   0.000004
    27  C    0.000003  -0.000002  -0.000000  -0.000032  -0.000000   0.000017
    28  H   -0.000012  -0.000005   0.000000   0.000087   0.000000   0.000018
    29  C   -0.000000   0.000000   0.000000  -0.000000   0.000000  -0.000000
    30  H    0.000000   0.000000  -0.000000  -0.000000  -0.000000  -0.000000
    31  C   -0.000000  -0.000000  -0.000000  -0.000000  -0.000000   0.000000
    32  H    0.000000   0.000000   0.000000   0.000000   0.000000  -0.000000
    33  C    0.000000  -0.000000  -0.000000  -0.000000  -0.000000  -0.000000
    34  H   -0.000000  -0.000000   0.000000   0.000000   0.000000   0.000000
    35  H    0.303626  -0.011602  -0.009833  -0.022060  -0.003340   0.004876
               7          8          9         10         11         12
     1  N   -0.068582  -0.001691  -0.002991   0.003532  -0.000027  -0.000079
     2  H   -0.001826   0.004933  -0.000723  -0.000010   0.000010  -0.000006
     3  H    0.005006   0.000060  -0.000084  -0.000123   0.000015   0.000008
     4  C    0.343736  -0.031760  -0.032359  -0.037035   0.000174  -0.000850
     5  H   -0.032945   0.003861  -0.006106  -0.000734   0.003833  -0.000382
     6  H   -0.038730  -0.003584   0.004883  -0.002737  -0.000248   0.004087
     7  C    5.156429   0.374841   0.364084   0.364272  -0.048268  -0.049726
     8  H    0.374841   0.526092  -0.046424  -0.022669   0.003968  -0.003154
     9  H    0.364084  -0.046424   0.564971  -0.039706  -0.005301   0.005505
    10  C    0.364272  -0.022669  -0.039706   4.954111   0.363129   0.367410
    11  H   -0.048268   0.003968  -0.005301   0.363129   0.554742  -0.033349
    12  H   -0.049726  -0.003154   0.005505   0.367410  -0.033349   0.554216
    13  N   -0.044937   0.001377   0.000069   0.294748  -0.031851  -0.037361
    14  C   -0.003035   0.000266  -0.000523  -0.032290   0.002246   0.002815
    15  C   -0.003233   0.000083   0.001386  -0.008219   0.003174   0.000425
    16  H   -0.001669   0.000203   0.006872   0.001206   0.000514   0.000021
    17  C    0.000068  -0.000002   0.000240  -0.000529  -0.000011   0.000023
    18  Cl   0.000000  -0.000000  -0.000001   0.000001  -0.000001  -0.000000
    19  C   -0.000000   0.000000  -0.000003   0.000066  -0.000041  -0.000002
    20  H    0.000000  -0.000000  -0.000000   0.000000  -0.000000  -0.000000
    21  C    0.000005  -0.000000  -0.000000  -0.000037  -0.000113  -0.000000
    22  H   -0.000000   0.000000   0.000000   0.000000   0.000002   0.000000
    23  C   -0.000208   0.000003  -0.000004   0.000409   0.001699   0.000231
    24  S    0.000020  -0.000001  -0.000002   0.002050  -0.000426  -0.000399
    25  C   -0.000165  -0.000009   0.000004   0.000947   0.000221   0.001543
    26  C   -0.001480  -0.000420   0.000324  -0.032488   0.002349   0.004446
    27  C   -0.000699   0.000230   0.000018  -0.009422   0.000441   0.003811
    28  H    0.000159   0.003780  -0.000013   0.001237   0.000031   0.000344
    29  C    0.000037   0.000042  -0.000002  -0.000284   0.000010  -0.000128
    30  H    0.000001  -0.000004  -0.000000   0.000003  -0.000000  -0.000004
    31  C    0.000002   0.000000   0.000000   0.000051  -0.000003  -0.000059
    32  H    0.000000  -0.000000  -0.000000  -0.000000   0.000000  -0.000000
    33  C    0.000003  -0.000000  -0.000000   0.000018  -0.000005  -0.000150
    34  H   -0.000000   0.000000   0.000000   0.000002  -0.000000   0.000002
    35  H   -0.002159  -0.001004   0.006045  -0.000094  -0.000006   0.000018
              13         14         15         16         17         18
     1  N   -0.000053  -0.000000   0.000005  -0.000021  -0.000000   0.000000
     2  H   -0.000001   0.000000   0.000000   0.000000  -0.000000  -0.000000
     3  H    0.000001   0.000000  -0.000000   0.000000   0.000000  -0.000000
     4  C    0.003051   0.000075   0.000040   0.000119  -0.000001  -0.000001
     5  H    0.000012   0.000004   0.000019   0.000026  -0.000000  -0.000000
     6  H   -0.000001  -0.000002  -0.000001  -0.000000   0.000000   0.000000
     7  C   -0.044937  -0.003035  -0.003233  -0.001669   0.000068   0.000000
     8  H    0.001377   0.000266   0.000083   0.000203  -0.000002  -0.000000
     9  H    0.000069  -0.000523   0.001386   0.006872   0.000240  -0.000001
    10  C    0.294748  -0.032290  -0.008219   0.001206  -0.000529   0.000001
    11  H   -0.031851   0.002246   0.003174   0.000514  -0.000011  -0.000001
    12  H   -0.037361   0.002815   0.000425   0.000021   0.000023  -0.000000
    13  N    7.086083   0.310650  -0.070255  -0.008080   0.006108  -0.000140
    14  C    0.310650   4.632053   0.487892  -0.036775  -0.013164   0.004582
    15  C   -0.070255   0.487892   5.136569   0.346162   0.501185  -0.068492
    16  H   -0.008080  -0.036775   0.346162   0.563612  -0.044055  -0.001283
    17  C    0.006108  -0.013164   0.501185  -0.044055   4.929487   0.233567
    18  Cl  -0.000140   0.004582  -0.068492  -0.001283   0.233567  16.927869
    19  C    0.000360  -0.041493  -0.039031   0.005672   0.536469  -0.066739
    20  H    0.000003   0.000881   0.005104  -0.000239  -0.041222  -0.000527
    21  C    0.005588  -0.000794  -0.049167   0.000462  -0.025280   0.004427
    22  H   -0.000136   0.003403   0.000648   0.000017   0.003549  -0.000130
[...]
    21  C    0.001672   0.000433   0.000061   0.002041  -0.000410   0.000142
    22  H   -0.000002   0.000005  -0.000005   0.000195   0.000083   0.000024
    23  C    0.007842   0.000146   0.000456  -0.018082  -0.002895  -0.001078
    24  S    0.000038   0.000108  -0.000041   0.001402   0.000190  -0.000033
    25  C   -0.002088  -0.000605  -0.000118  -0.007865  -0.000880   0.006310
    26  C   -0.001144   0.001851  -0.000912   0.014763  -0.036778   0.045907
    27  C   -0.004730  -0.001978  -0.000185  -0.043794   0.019068  -0.009018
    28  H    0.005436   0.001316  -0.000838  -0.037440  -0.003147   0.016670
    29  C    0.002811   0.000529   0.000336   0.021804   0.003141  -0.006991
    30  H   -0.000056   0.000161  -0.000037   0.001477  -0.000013   0.000264
    31  C   -0.001056   0.000254   0.000090  -0.001541   0.000006  -0.001406
    32  H   -0.000031  -0.000002   0.000003  -0.000167  -0.000008   0.000053
    33  C    0.000874   0.000296  -0.000050  -0.004991   0.000195  -0.000348
    34  H    0.000035   0.000017  -0.000002   0.000003   0.000009  -0.000002
    35  H    0.410372  -0.064493  -0.061232  -0.031753  -0.038273   0.026347
               7          8          9         10         11         12
     1  N    0.050445  -0.011784  -0.004984   0.020963   0.008935   0.005836
     2  H   -0.015053   0.001318  -0.005313   0.004433  -0.001119   0.002358
     3  H    0.036702   0.000978   0.001998   0.000652   0.000924   0.000717
     4  C   -0.067616  -0.150033  -0.117278   0.193565  -0.018860  -0.032453
     5  H    0.033988   0.086007  -0.100351  -0.029900  -0.028843   0.010048
     6  H    0.000991  -0.094282   0.081459  -0.025604   0.007168  -0.025416
     7  C    6.640660  -0.032878   0.009072  -0.794644  -0.237707  -0.216150
     8  H   -0.032878   1.619008  -0.263921  -0.019762   0.066929  -0.037071
     9  H    0.009072  -0.263921   1.585361  -0.000421  -0.033241   0.070546
    10  C   -0.794644  -0.019762  -0.000421   7.311305   0.233827   0.230824
    11  H   -0.237707   0.066929  -0.033241   0.233827   2.295855  -0.831558
    12  H   -0.216150  -0.037071   0.070546   0.230824  -0.831558   2.278947
    13  N    0.583143  -0.059803  -0.035494  -0.165952  -0.242343  -0.321727
    14  C    0.533786   0.210240  -0.274029  -1.630392   0.301207  -0.052301
    15  C   -0.439544   0.029226   0.128745   0.616816   0.058041  -0.022324
    16  H    0.074375   0.023440  -0.059827  -0.280589  -0.235415   0.058589
    17  C    0.009795   0.007110  -0.080589  -0.204567  -0.104596   0.022801
    18  Cl   0.010188   0.002459  -0.003112   0.014196  -0.004582   0.001437
    19  C    0.026211   0.014926  -0.046121   0.001705  -0.019491  -0.003009
    20  H   -0.002097  -0.000068   0.000759   0.003385   0.002335  -0.000292
    21  C   -0.011621  -0.013097   0.017982   0.142385  -0.001727   0.002554
    22  H    0.002922   0.000274  -0.000523  -0.002914  -0.001987   0.000942
    23  C   -0.159987  -0.028535   0.048865   0.418626   0.111070  -0.028413
    24  S    0.008275  -0.002556  -0.000514  -0.089535   0.006419   0.003533
    25  C   -0.079864   0.016659  -0.011224   0.112638   0.029257  -0.011469
    26  C    0.335788  -0.229132   0.259942  -1.525619  -0.052033   0.341831
    27  C   -0.404424   0.083579   0.005441   0.876768  -0.052030   0.044933
    28  H    0.081159  -0.034276   0.014977  -0.220762   0.056658  -0.198674
    29  C   -0.068446   0.030263  -0.031299  -0.326728  -0.033195   0.044636
    30  H    0.006715  -0.003378   0.000760   0.018820   0.000661   0.000830
    31  C   -0.044109  -0.005467   0.004754   0.174038  -0.006197   0.028950
    32  H   -0.001627  -0.001167   0.000351   0.005374   0.000140   0.000311
    33  C    0.079979  -0.016348   0.006054  -0.092727   0.021454  -0.057936
    34  H    0.002997   0.000239  -0.000170   0.001191   0.000422  -0.000363
    35  H   -0.014139  -0.004647  -0.002700   0.004748   0.002506  -0.001233
              13         14         15         16         17         18
     1  N   -0.013112   0.016271  -0.007461  -0.001256  -0.009439   0.000431
     2  H   -0.002746   0.001640  -0.002142  -0.000195  -0.000726   0.000025
     3  H    0.000456  -0.000517  -0.000278  -0.001277   0.000099  -0.000047
     4  C   -0.103496  -0.072448  -0.025793  -0.004634   0.028032  -0.008464
     5  H   -0.002095   0.043905  -0.015570   0.018558   0.002249  -0.000517
     6  H    0.000249  -0.056687   0.027106   0.002050   0.000509  -0.000297
     7  C    0.583143   0.533786  -0.439544   0.074375   0.009795   0.010188
     8  H   -0.059803   0.210240   0.029226   0.023440   0.007110   0.002459
     9  H   -0.035494  -0.274029   0.128745  -0.059827  -0.080589  -0.003112
    10  C   -0.165952  -1.630392   0.616816  -0.280589  -0.204567   0.014196
    11  H   -0.242343   0.301207   0.058041  -0.235415  -0.104596  -0.004582
    12  H   -0.321727  -0.052301  -0.022324   0.058589   0.022801   0.001437
    13  N   11.166151  -1.629125   0.428251  -0.107685  -0.203652  -0.002921
    14  C   -1.629125  28.842391  -6.800106   0.439284   0.831487  -0.111497
    15  C    0.428251  -6.800106  19.461494  -2.055255  -2.456868   0.009837
    16  H   -0.107685   0.439284  -2.055255   3.565506   0.471505  -0.055832
    17  C   -0.203652   0.831487  -2.456868   0.471505  14.717813  -0.228815
    18  Cl  -0.002921  -0.111497   0.009837  -0.055832  -0.228815  17.652931
    19  C    0.136572  -3.945084  -0.265458   0.371845  -4.104532   0.220611
    20  H    0.004378  -0.040571   0.300396  -0.018020   1.383887  -0.091331
    21  C    0.448756  -2.605952  -3.770489   0.004264   0.885668  -0.088565
    22  H   -0.029254   0.293732   0.109591   0.004798  -0.694916   0.008057
    23  C   -0.360717  -3.796747  -0.378336  -0.237193  -3.911249   0.060351
    24  S   -0.443953   0.192053  -0.507881   0.000842   0.312115  -0.010741
    25  C   -0.354232  -0.478589   0.820872   0.020595   0.029012  -0.002306
    26  C   -0.928896  -4.397458  -1.049857  -0.174519   0.240006   0.000193
    27  C    0.285422  -0.552912   0.742525   0.042395  -0.170876   0.002360
    28  H    0.021279  -0.079835   0.045880  -0.017469  -0.001804  -0.000080
    29  C   -0.304133   0.143935  -0.297818   0.009716   0.039872  -0.000472
    30  H   -0.007793   0.041396  -0.014235   0.000624   0.001305  -0.000028
    31  C    0.350669   0.144642   0.171954   0.011824  -0.040478   0.000442
    32  H   -0.002997  -0.020179   0.007814   0.000091  -0.000970   0.000017
    33  C   -0.004905   0.851760  -0.483693  -0.028641   0.113661  -0.001485
    34  H   -0.004633  -0.035994  -0.029014   0.000338   0.006315  -0.000174
    35  H   -0.002746   0.000708  -0.001872   0.003005   0.001908   0.000267
              19         20         21         22         23         24
     1  N   -0.004388   0.000003   0.001672  -0.000002   0.007842   0.000038
     2  H   -0.000621  -0.000006   0.000433   0.000005   0.000146   0.000108
     3  H   -0.000217   0.000004   0.000061  -0.000005   0.000456  -0.000041
     4  C    0.003378  -0.000174   0.002041   0.000195  -0.018082   0.001402
     5  H    0.001256  -0.000081  -0.000410   0.000083  -0.002895   0.000190
     6  H    0.001170   0.000002   0.000142   0.000024  -0.001078  -0.000033
     7  C    0.026211  -0.002097  -0.011621   0.002922  -0.159987   0.008275
     8  H    0.014926  -0.000068  -0.013097   0.000274  -0.028535  -0.002556
     9  H   -0.046121   0.000759   0.017982  -0.000523   0.048865  -0.000514
    10  C    0.001705   0.003385   0.142385  -0.002914   0.418626  -0.089535
    11  H   -0.019491   0.002335  -0.001727  -0.001987   0.111070   0.006419
    12  H   -0.003009  -0.000292   0.002554   0.000942  -0.028413   0.003533
    13  N    0.136572   0.004378   0.448756  -0.029254  -0.360717  -0.443953
    14  C   -3.945084  -0.040571  -2.605952   0.293732  -3.796747   0.192053
    15  C   -0.265458   0.300396  -3.770489   0.109591  -0.378336  -0.507881
    16  H    0.371845  -0.018020   0.004264   0.004798  -0.237193   0.000842
    17  C   -4.104532   1.383887   0.885668  -0.694916  -3.911249   0.312115
    18  Cl   0.220611  -0.091331  -0.088565   0.008057   0.060351  -0.010741
    19  C   16.632709  -1.427189  -3.025012   0.207894   0.679346  -0.278286
    20  H   -1.427189   1.805016   0.068867  -0.117038  -0.454001   0.021742
    21  C   -3.025012   0.068867  21.045222  -1.737579  -6.351021   0.077785
    22  H    0.207894  -0.117038  -1.737579   1.892883   1.650846  -0.055736
    23  C    0.679346  -0.454001  -6.351021   1.650846  19.076718  -0.020110
    24  S   -0.278286   0.021742   0.077785  -0.055736  -0.020110  16.654583
    25  C    0.249258   0.010764  -1.135739   0.046867   0.229318   0.089028
    26  C   -0.256679  -0.010461   1.678863  -0.037495  -0.786206   0.319194
    27  C    0.113769   0.004233  -0.368043  -0.022468   0.430897  -0.472002
    28  H    0.008271   0.000232  -0.022097  -0.000107   0.012777   0.004486
    29  C   -0.065130  -0.001423   0.163157   0.009102   0.022891   0.388462
    30  H   -0.001748  -0.000041   0.006292   0.000143  -0.008787  -0.003406
    31  C    0.052838   0.001144  -0.157901  -0.003807   0.032707  -0.345494
    32  H    0.001222   0.000029  -0.006939   0.000122   0.016352   0.017830
    33  C   -0.077077  -0.003132  -0.160812   0.035262  -0.524350  -0.084676
    34  H   -0.000312   0.000203   0.053902  -0.001741   0.029125  -0.028705
    35  H    0.000759   0.000011  -0.000234   0.000005  -0.000457   0.000073
              25         26         27         28         29         30
     1  N   -0.002088  -0.001144  -0.004730   0.005436   0.002811  -0.000056
     2  H   -0.000605   0.001851  -0.001978   0.001316   0.000529   0.000161
     3  H   -0.000118  -0.000912  -0.000185  -0.000838   0.000336  -0.000037
     4  C   -0.007865   0.014763  -0.043794  -0.037440   0.021804   0.001477
     5  H   -0.000880  -0.036778   0.019068  -0.003147   0.003141  -0.000013
     6  H    0.006310   0.045907  -0.009018   0.016670  -0.006991   0.000264
     7  C   -0.079864   0.335788  -0.404424   0.081159  -0.068446   0.006715
     8  H    0.016659  -0.229132   0.083579  -0.034276   0.030263  -0.003378
     9  H   -0.011224   0.259942   0.005441   0.014977  -0.031299   0.000760
    10  C    0.112638  -1.525619   0.876768  -0.220762  -0.326728   0.018820
    11  H    0.029257  -0.052033  -0.052030   0.056658  -0.033195   0.000661
    12  H   -0.011469   0.341831   0.044933  -0.198674   0.044636   0.000830
    13  N   -0.354232  -0.928896   0.285422   0.021279  -0.304133  -0.007793
    14  C   -0.478589  -4.397458  -0.552912  -0.079835   0.143935   0.041396
    15  C    0.820872  -1.049857   0.742525   0.045880  -0.297818  -0.014235
    16  H    0.020595  -0.174519   0.042395  -0.017469   0.009716   0.000624
    17  C    0.029012   0.240006  -0.170876  -0.001804   0.039872   0.001305
    18  Cl  -0.002306   0.000193   0.002360  -0.000080  -0.000472  -0.000028
    19  C    0.249258  -0.256679   0.113769   0.008271  -0.065130  -0.001748
    20  H    0.010764  -0.010461   0.004233   0.000232  -0.001423  -0.000041
    21  C   -1.135739   1.678863  -0.368043  -0.022097   0.163157   0.006292
    22  H    0.046867  -0.037495  -0.022468  -0.000107   0.009102   0.000143
    23  C    0.229318  -0.786206   0.430897   0.012777   0.022891  -0.008787
    24  S    0.089028   0.319194  -0.472002   0.004486   0.388462  -0.003406
    25  C   14.952701  -3.705782  -0.201165   0.032820  -1.116707  -0.196003
    26  C   -3.705782  22.895270  -5.903138   0.844331   0.806634   0.210632
    27  C   -0.201165  -5.903138  16.325564  -1.713716  -4.322998   0.567669
    28  H    0.032820   0.844331  -1.713716   3.304788  -0.032935  -0.131941
    29  C   -1.116707   0.806634  -4.322998  -0.032935  13.065204  -1.014588
    30  H   -0.196003   0.210632   0.567669  -0.131941  -1.014588   1.789095
    31  C   -0.203405  -2.083457   2.157279  -0.220436  -3.000349   0.411988
    32  H    0.050099  -0.208737   0.097993  -0.010328   0.471266  -0.052344
    33  C   -4.263402  -0.626600  -2.967855   0.194751   1.380366  -0.103157
    34  H    0.806766   0.187848   0.008013   0.000134  -0.191450  -0.006003
    35  H    0.000072  -0.000290  -0.000522   0.000271  -0.000045  -0.000014
              31         32         33         34         35
     1  N   -0.001056  -0.000031   0.000874   0.000035   0.410372
     2  H    0.000254  -0.000002   0.000296   0.000017  -0.064493
     3  H    0.000090   0.000003  -0.000050  -0.000002  -0.061232
     4  C   -0.001541  -0.000167  -0.004991   0.000003  -0.031753
     5  H    0.000006  -0.000008   0.000195   0.000009  -0.038273
     6  H   -0.001406   0.000053  -0.000348  -0.000002   0.026347
     7  C   -0.044109  -0.001627   0.079979   0.002997  -0.014139
     8  H   -0.005467  -0.001167  -0.016348   0.000239  -0.004647
     9  H    0.004754   0.000351   0.006054  -0.000170  -0.002700
    10  C    0.174038   0.005374  -0.092727   0.001191   0.004748
    11  H   -0.006197   0.000140   0.021454   0.000422   0.002506
    12  H    0.028950   0.000311  -0.057936  -0.000363  -0.001233
    13  N    0.350669  -0.002997  -0.004905  -0.004633  -0.002746
    14  C    0.144642  -0.020179   0.851760  -0.035994   0.000708
    15  C    0.171954   0.007814  -0.483693  -0.029014  -0.001872
    16  H    0.011824   0.000091  -0.028641   0.000338   0.003005
    17  C   -0.040478  -0.000970   0.113661   0.006315   0.001908
    18  Cl   0.000442   0.000017  -0.001485  -0.000174   0.000267
    19  C    0.052838   0.001222  -0.077077  -0.000312   0.000759
    20  H    0.001144   0.000029  -0.003132   0.000203   0.000011
    21  C   -0.157901  -0.006939  -0.160812   0.053902  -0.000234
    22  H   -0.003807   0.000122   0.035262  -0.001741   0.000005
    23  C    0.032707   0.016352  -0.524350   0.029125  -0.000457
    24  S   -0.345494   0.017830  -0.084676  -0.028705   0.000073
    25  C   -0.203405   0.050099  -4.263402   0.806766   0.000072
    26  C   -2.083457  -0.208737  -0.626600   0.187848  -0.000290
    27  C    2.157279   0.097993  -2.967855   0.008013  -0.000522
    28  H   -0.220436  -0.010328   0.194751   0.000134   0.000271
    29  C   -3.000349   0.471266   1.380366  -0.191450  -0.000045
    30  H    0.411988  -0.052344  -0.103157  -0.006003  -0.000014
    31  C   10.119088  -0.638950  -1.587898   0.079992  -0.000355
    32  H   -0.638950   1.650848   0.135789  -0.077407  -0.000010
    33  C   -1.587898   0.135789  14.905534  -1.016945   0.000163
    34  H    0.079992  -0.077407  -1.016945   1.728284   0.000004
    35  H   -0.000355  -0.000010   0.000163   0.000004   0.532512
 Mulliken charges:
               1
     1  N   -0.551121
     2  H    0.237978
     3  H    0.169104
     4  C    1.397202
     5  H   -0.120272
     6  H   -0.111048
     7  C    0.062716
     8  H   -0.184450
     9  H   -0.165954
    10  C    1.023854
    11  H   -0.298885
    12  H   -0.310235
    13  N   -1.090918
    14  C   -0.308013
    15  C    1.665446
    16  H   -0.845839
    17  C   -0.891073
    18  Cl  -0.372538
    19  C    0.796615
    20  H   -0.441464
    21  C    0.857190
    22  H   -0.558175
    23  C    0.239832
    24  S    0.245511
    25  C    0.268410
    26  C   -0.167858
    27  C    1.403946
    28  H   -0.920350
    29  C    0.210582
    30  H   -0.515261
    31  C    0.599649
    32  H   -0.433841
    33  C    0.380891
    34  H   -0.512918
    35  H    0.241287
 Sum of Mulliken charges =   1.00000
 Mulliken charges with hydrogens summed into heavy atoms:
               1
     1  N    0.097247
     4  C    1.165882
     7  C   -0.287688
    10  C    0.414735
    13  N   -1.090918
    14  C   -0.308013
    15  C    0.819607
    17  C   -0.891073
    18  Cl  -0.372538
    19  C    0.355151
    21  C    0.299015
    23  C    0.239832
    24  S    0.245511
    25  C    0.268410
    26  C   -0.167858
    27  C    0.483596
    29  C   -0.304680
    31  C    0.165808
    33  C   -0.132027
 Electronic spatial extent (au):  <R**2>=           6708.2947
 Charge=              1.0000 electrons
 Dipole moment (field-independent basis, Debye):
    X=             -2.4432    Y=             21.0570    Z=             -1.8283  Tot=             21.2769
 Quadrupole moment (field-independent basis, Debye-Ang):
   XX=           -110.3414   YY=             -4.2164   ZZ=           -127.4959
   XY=            -20.4290   XZ=             -0.8393   YZ=             -5.9499
 Traceless Quadrupole moment (field-independent basis, Debye-Ang):
   XX=            -29.6568   YY=             76.4681   ZZ=            -46.8113
   XY=            -20.4290   XZ=             -0.8393   YZ=             -5.9499
 Octapole moment (field-independent basis, Debye-Ang**2):
  XXX=             55.9612  YYY=            572.1965  ZZZ=             -0.2938  XYY=           -138.0049
  XXY=             37.4353  XXZ=            -25.4502  XZZ=            -19.4087  YZZ=             42.2115
  YYZ=            -57.5338  XYZ=              9.2495
 Hexadecapole moment (field-independent basis, Debye-Ang**3):
 XXXX=          -4671.4418 YYYY=           -497.4249 ZZZZ=           -321.2140 XXXY=           -135.7979
 XXXZ=            -86.0496 YYYX=           -572.4085 YYYZ=           -248.2578 ZZZX=             19.9686
 ZZZY=            -22.8700 XXYY=          -1138.4855 XXZZ=           -935.9972 YYZZ=           -584.9429
 XXYZ=             -5.4688 YYXZ=             62.4089 ZZXY=            -35.4193
 N-N= 1.636629531968D+03 E-N=-6.894388095800D+03  KE= 1.542413002815D+03
 Leave Link  601 at Sun Jul 18 17:50:44 2021, MaxMem=   262144000 cpu:               0.5 elap:               0.9
 (Enter /dades/curu/g16A03_MST/g16/l9999.exe)
 1\1\GINC-PIRINEUS28\SP\RMP2-FC\Aug-CC-pVDZ\C15H16Cl1N2S1(1+)\UBATOR02\
 18-Jul-2021\0\\#p mp2/aug-cc-pVDZ scf=tight maxdisk=180GB geom=allchec
 k\\SET_328_BBB29_conf1.geo_285_180_180 geometry\\1,1\N,0,4.4372632747,
 -1.1150964284,0.0767379237\H,0,4.2764229701,-1.8284496643,0.8011784979
 \H,0,5.4183162395,-0.8170990039,0.1663734127\C,0,3.49855235,0.05067060
 78,0.2033145098\H,0,3.7858737954,0.7633906429,-0.5702905251\H,0,3.6981
 022254,0.5041637404,1.1757346622\C,0,2.0424817794,-0.3735509483,0.0664
 050255\H,0,1.797126548,-1.1211438005,0.8231974739\H,0,1.8763927603,-0.
 8398992099,-0.9077510684\C,0,1.1204595497,0.8560173343,0.2254213228\H,
 0,1.3906633431,1.6140438442,-0.5138913479\H,0,1.2748441415,1.306786166
 8,1.2088589755\N,0,-0.3109554623,0.6012275928,0.0797936475\C,0,-0.8539
 394276,0.5627322108,-1.2208347398\C,0,-0.0226258576,0.4847137843,-2.34
 88400607\H,0,1.0494119089,0.4351642836,-2.2467223904\C,0,-0.5693016492
 ,0.4718887784,-3.6291830359\Cl,0,0.5264406133,0.3958393902,-5.00079663
 7\C,0,-1.9391673212,0.5004797767,-3.8448040574\H,0,-2.3478335101,0.476
 9287232,-4.8464198738\C,0,-2.7694330709,0.5660933291,-2.7259409882\H,0
 ,-3.8452531552,0.5999887383,-2.8582054637\C,0,-2.2468215227,0.62537635
 82,-1.4362863149\S,0,-3.3549144353,0.93402268,-0.0848387169\C,0,-2.441
 8937224,0.1482017881,1.2233904428\C,0,-1.033487137,0.1227778648,1.2013
 135744\C,0,-0.3755901308,-0.3752841968,2.3375537065\H,0,0.7043140231,-
 0.4106873078,2.3658593368\C,0,-1.0894456934,-0.8265224298,3.449037821\
 H,0,-0.5440634712,-1.1921260123,4.3117265584\C,0,-2.4806011896,-0.8227
 524082,3.4439533126\H,0,-3.0417204996,-1.1837052408,4.2977033817\C,0,-
 3.1492433221,-0.3420361242,2.3193127247\H,0,-4.2333199268,-0.321385014
 4,2.2932309732\H,0,4.3539449826,-1.5867698454,-0.8332920638\\Version=E
 S64L-G16RevA.03\State=1-A\HF=-1543.1144016\MP2=-1545.8183133\RMSD=4.45
 9e-09\PG=C01 [X(C15H16Cl1N2S1)]\\@


 NO MATTER HOW THIN YOU SLICE IT, IT'S STILL BALONEY

                                   -- ALFRED E. SMITH
 Job cpu time:       0 days  4 hours 23 minutes 14.4 seconds.
 Elapsed time:       0 days  1 hours 22 minutes 42.1 seconds.
 File lengths (MBytes):  RWF= 104863 Int=      0 D2E=      0 Chk=     29 Scr=      1
 Normal termination of Gaussian 16 at Sun Jul 18 17:50:48 2021.
