 Entering Gaussian System, Link 0=g16
 Input=SET_328_BBB272_conf1.geo_165_045_180_OCTANOL.dat
 Output=SET_328_BBB272_conf1.geo_165_045_180_OCTANOL.log
 Initial command:
 /dades/curu/g16A03_MST/g16/l1.exe "/tmp/ubator02/1839568/Gau-127628.inp" -scrdir="/tmp/ubator02/1839568/"
 Entering Link 1 = /dades/curu/g16A03_MST/g16/l1.exe PID=    127631.
  
 Copyright (c) 1988,1990,1992,1993,1995,1998,2003,2009,2016,
            Gaussian, Inc.  All Rights Reserved.
  
 This is part of the Gaussian(R) 16 program.  It is based on
 the Gaussian(R) 09 system (copyright 2009, Gaussian, Inc.),
 the Gaussian(R) 03 system (copyright 2003, Gaussian, Inc.),
 the Gaussian(R) 98 system (copyright 1998, Gaussian, Inc.),
 the Gaussian(R) 94 system (copyright 1995, Gaussian, Inc.),
 the Gaussian 92(TM) system (copyright 1992, Gaussian, Inc.),
 the Gaussian 90(TM) system (copyright 1990, Gaussian, Inc.),
 the Gaussian 88(TM) system (copyright 1988, Gaussian, Inc.),
 the Gaussian 86(TM) system (copyright 1986, Carnegie Mellon
 University), and the Gaussian 82(TM) system (copyright 1983,
 Carnegie Mellon University). Gaussian is a federally registered
 trademark of Gaussian, Inc.
  
 This software contains proprietary and confidential information,
 including trade secrets, belonging to Gaussian, Inc.
  
 This software is provided under written license and may be
 used, copied, transmitted, or stored only in accord with that
 written license.
  
 The following legend is applicable only to US Government
 contracts under FAR:
  
                    RESTRICTED RIGHTS LEGEND
  
 Use, reproduction and disclosure by the US Government is
 subject to restrictions as set forth in subparagraphs (a)
 and (c) of the Commercial Computer Software - Restricted
 Rights clause in FAR 52.227-19.
  
 Gaussian, Inc.
 340 Quinnipiac St., Bldg. 40, Wallingford CT 06492
  
  
 ---------------------------------------------------------------
 Warning -- This program may not be used in any manner that
 competes with the business of Gaussian, Inc. or will provide
 assistance to any competitor of Gaussian, Inc.  The licensee
 of this program is prohibited from giving any competitor of
 Gaussian, Inc. access to this program.  By using this program,
 the user acknowledges that Gaussian, Inc. is engaged in the
 business of creating and licensing software in the field of
 computational chemistry and represents and warrants to the
 licensee that it is not a competitor of Gaussian, Inc. and that
 it will not use this program in any manner prohibited above.
 ---------------------------------------------------------------
  

 Cite this work as:
 Gaussian 16, Revision A.03,
 M. J. Frisch, G. W. Trucks, H. B. Schlegel, G. E. Scuseria, 
 M. A. Robb, J. R. Cheeseman, G. Scalmani, V. Barone, 
 G. A. Petersson, H. Nakatsuji, X. Li, M. Caricato, A. V. Marenich, 
 J. Bloino, B. G. Janesko, R. Gomperts, B. Mennucci, H. P. Hratchian, 
 J. V. Ortiz, A. F. Izmaylov, J. L. Sonnenberg, D. Williams-Young, 
 F. Ding, F. Lipparini, F. Egidi, J. Goings, B. Peng, A. Petrone, 
 T. Henderson, D. Ranasinghe, V. G. Zakrzewski, J. Gao, N. Rega, 
 G. Zheng, W. Liang, M. Hada, M. Ehara, K. Toyota, R. Fukuda, 
 J. Hasegawa, M. Ishida, T. Nakajima, Y. Honda, O. Kitao, H. Nakai, 
 T. Vreven, K. Throssell, J. A. Montgomery, Jr., J. E. Peralta, 
 F. Ogliaro, M. J. Bearpark, J. J. Heyd, E. N. Brothers, K. N. Kudin, 
 V. N. Staroverov, T. A. Keith, R. Kobayashi, J. Normand, 
 K. Raghavachari, A. P. Rendell, J. C. Burant, S. S. Iyengar, 
 J. Tomasi, M. Cossi, J. M. Millam, M. Klene, C. Adamo, R. Cammi, 
 J. W. Ochterski, R. L. Martin, K. Morokuma, O. Farkas, 
 J. B. Foresman, and D. J. Fox, Gaussian, Inc., Wallingford CT, 2016.
 
 ******************************************
 Gaussian 16:  ES64L-G16RevA.03 25-Dec-2016
                18-Jul-2021 
 ******************************************
 %mem=800MB
 %nproc=4
 Will use up to    4 processors via shared memory.
 %chk=SET_328_BBB272_conf1.geo_165_045_180.chk
 ---------------------------------------------------------------
 #p b3lyp/6-31G(d) opt freq scrf=(iefpcm,read,solvent=n-octanol)
 ---------------------------------------------------------------
 1/18=20,19=15,26=3,38=1,40=2/1,3;
 2/9=110,12=2,17=6,18=5,40=1/2;
 3/5=1,6=6,7=1,11=2,25=1,30=1,70=2203,71=1,72=25,74=-5/1,2,3;
 4//1;
 5/5=2,38=5,53=25/2;
 6/7=2,8=2,9=2,10=2,28=1/1;
 7//1,2,3,16;
 1/18=20,19=15,26=3/3(2);
 2/9=110/2;
 99//99;
 2/9=110/2;
 3/5=1,6=6,7=1,11=2,25=1,30=1,70=2205,71=1,72=25,74=-5/1,2,3;
 4/5=5,16=3,69=1/1;
 5/5=2,38=5,53=25/2;
 7//1,2,3,16;
 1/18=20,19=15,26=3/3(-5);
 2/9=110/2;
 6/7=2,8=2,9=2,10=2,19=2,28=1/1;
 99/9=1/99;
 Leave Link    1 at Sun Jul 18 13:43:40 2021, MaxMem=   104857600 cpu:               0.1 elap:               0.0
 (Enter /dades/curu/g16A03_MST/g16/l101.exe)
 ---------------------------------------------
 SET_328_BBB272_conf1.geo_165_045_180 geometry
 ---------------------------------------------
 Symbolic Z-matrix:
 Charge = -1 Multiplicity = 1
 C                    -3.247     1.265    -0.021 
 H                    -3.636     0.808     0.892 
 H                    -3.572     0.654    -0.865 
 H                    -3.726     2.239    -0.141 
 C                    -1.718     1.336     0.059 
 O                    -1.152     2.347    -0.242 
 O                    -1.204     0.113     0.112 
 C                     0.191    -0.041     0.215 
 C                     0.893    -1.027    -0.506 
 C                     0.228    -1.99     -1.415 
 O                    -1.089    -2.132    -1.305 
 O                     0.909    -2.888    -1.916 
 C                     2.248    -1.107    -0.34 
 H                     2.823    -1.921    -0.773 
 C                     2.972    -0.267     0.507 
 H                     4.055    -0.348     0.543 
 C                     2.293     0.632     1.299 
 H                     2.829     1.448     1.778 
 C                     0.883     0.759     1.132 
 H                     0.358     1.514     1.712 
 
 ITRead=  0  0  0  0  0  0  0  0  0  0  0  0  0  0  0  0  0  0  0  0
 MicOpt= -1 -1 -1 -1 -1 -1 -1 -1 -1 -1 -1 -1 -1 -1 -1 -1 -1 -1 -1 -1
 NAtoms=     20 NQM=       20 NQMF=       0 NMMI=      0 NMMIF=      0
                NMic=       0 NMicF=      0.
                    Isotopes and Nuclear Properties:
 (Nuclear quadrupole moments (NQMom) in fm**2, nuclear magnetic moments (NMagM)
  in nuclear magnetons)

  Atom         1           2           3           4           5           6           7           8           9          10
 IAtWgt=          12           1           1           1          12          16          16          12          12          12
 AtmWgt=  12.0000000   1.0078250   1.0078250   1.0078250  12.0000000  15.9949146  15.9949146  12.0000000  12.0000000  12.0000000
 NucSpn=           0           1           1           1           0           0           0           0           0           0
 AtZEff=  -0.0000000  -0.0000000  -0.0000000  -0.0000000  -0.0000000  -0.0000000  -0.0000000  -0.0000000  -0.0000000  -0.0000000
 NQMom=    0.0000000   0.0000000   0.0000000   0.0000000   0.0000000   0.0000000   0.0000000   0.0000000   0.0000000   0.0000000
 NMagM=    0.0000000   2.7928460   2.7928460   2.7928460   0.0000000   0.0000000   0.0000000   0.0000000   0.0000000   0.0000000
 AtZNuc=   6.0000000   1.0000000   1.0000000   1.0000000   6.0000000   8.0000000   8.0000000   6.0000000   6.0000000   6.0000000

  Atom        11          12          13          14          15          16          17          18          19          20
 IAtWgt=          16          16          12           1          12           1          12           1          12           1
 AtmWgt=  15.9949146  15.9949146  12.0000000   1.0078250  12.0000000   1.0078250  12.0000000   1.0078250  12.0000000   1.0078250
 NucSpn=           0           0           0           1           0           1           0           1           0           1
 AtZEff=  -0.0000000  -0.0000000  -0.0000000  -0.0000000  -0.0000000  -0.0000000  -0.0000000  -0.0000000  -0.0000000  -0.0000000
 NQMom=    0.0000000   0.0000000   0.0000000   0.0000000   0.0000000   0.0000000   0.0000000   0.0000000   0.0000000   0.0000000
 NMagM=    0.0000000   0.0000000   0.0000000   2.7928460   0.0000000   2.7928460   0.0000000   2.7928460   0.0000000   2.7928460
 AtZNuc=   8.0000000   8.0000000   6.0000000   1.0000000   6.0000000   1.0000000   6.0000000   1.0000000   6.0000000   1.0000000
 Leave Link  101 at Sun Jul 18 13:43:40 2021, MaxMem=   104857600 cpu:               0.1 elap:               0.1
 (Enter /dades/curu/g16A03_MST/g16/l103.exe)

 GradGradGradGradGradGradGradGradGradGradGradGradGradGradGradGradGradGrad
 Berny optimization.
 Initialization pass.
                           ----------------------------
                           !    Initial Parameters    !
                           ! (Angstroms and Degrees)  !
 --------------------------                            --------------------------
 ! Name  Definition              Value          Derivative Info.                !
 --------------------------------------------------------------------------------
 ! R1    R(1,2)                  1.0926         estimate D2E/DX2                !
 ! R2    R(1,3)                  1.0915         estimate D2E/DX2                !
 ! R3    R(1,4)                  1.092          estimate D2E/DX2                !
 ! R4    R(1,5)                  1.5327         estimate D2E/DX2                !
 ! R5    R(5,6)                  1.1971         estimate D2E/DX2                !
 ! R6    R(5,7)                  1.3277         estimate D2E/DX2                !
 ! R7    R(7,8)                  1.4072         estimate D2E/DX2                !
 ! R8    R(8,9)                  1.4088         estimate D2E/DX2                !
 ! R9    R(8,19)                 1.3999         estimate D2E/DX2                !
 ! R10   R(9,10)                 1.4818         estimate D2E/DX2                !
 ! R11   R(9,13)                 1.3675         estimate D2E/DX2                !
 ! R12   R(10,11)                1.3292         estimate D2E/DX2                !
 ! R13   R(10,12)                1.2334         estimate D2E/DX2                !
 ! R14   R(13,14)                1.0866         estimate D2E/DX2                !
 ! R15   R(13,15)                1.3954         estimate D2E/DX2                !
 ! R16   R(15,16)                1.0866         estimate D2E/DX2                !
 ! R17   R(15,17)                1.3771         estimate D2E/DX2                !
 ! R18   R(17,18)                1.0875         estimate D2E/DX2                !
 ! R19   R(17,19)                1.4255         estimate D2E/DX2                !
 ! R20   R(19,20)                1.0872         estimate D2E/DX2                !
 ! A1    A(2,1,3)              107.8189         estimate D2E/DX2                !
 ! A2    A(2,1,4)              107.9823         estimate D2E/DX2                !
 ! A3    A(2,1,5)              109.3252         estimate D2E/DX2                !
 ! A4    A(3,1,4)              106.482          estimate D2E/DX2                !
 ! A5    A(3,1,5)              111.305          estimate D2E/DX2                !
 ! A6    A(4,1,5)              113.7023         estimate D2E/DX2                !
 ! A7    A(1,5,6)              119.8446         estimate D2E/DX2                !
 ! A8    A(1,5,7)              110.2191         estimate D2E/DX2                !
 ! A9    A(6,5,7)              127.2246         estimate D2E/DX2                !
 ! A10   A(5,7,8)              119.1763         estimate D2E/DX2                !
 ! A11   A(7,8,9)              122.2134         estimate D2E/DX2                !
 ! A12   A(7,8,19)             118.3868         estimate D2E/DX2                !
 ! A13   A(9,8,19)             119.2662         estimate D2E/DX2                !
 ! A14   A(8,9,10)             123.034          estimate D2E/DX2                !
 ! A15   A(8,9,13)             118.2003         estimate D2E/DX2                !
 ! A16   A(10,9,13)            118.7584         estimate D2E/DX2                !
 ! A17   A(9,10,11)            117.6008         estimate D2E/DX2                !
 ! A18   A(9,10,12)            118.3304         estimate D2E/DX2                !
 ! A19   A(11,10,12)           120.1934         estimate D2E/DX2                !
 ! A20   A(9,13,14)            121.3186         estimate D2E/DX2                !
 ! A21   A(9,13,15)            123.5439         estimate D2E/DX2                !
 ! A22   A(14,13,15)           114.7255         estimate D2E/DX2                !
 ! A23   A(13,15,16)           119.4951         estimate D2E/DX2                !
 ! A24   A(13,15,17)           119.0934         estimate D2E/DX2                !
 ! A25   A(16,15,17)           121.4005         estimate D2E/DX2                !
 ! A26   A(15,17,18)           120.0093         estimate D2E/DX2                !
 ! A27   A(15,17,19)           118.5853         estimate D2E/DX2                !
 ! A28   A(18,17,19)           118.1818         estimate D2E/DX2                !
 ! A29   A(8,19,17)            120.9814         estimate D2E/DX2                !
 ! A30   A(8,19,20)            120.5035         estimate D2E/DX2                !
 ! A31   A(17,19,20)           118.4893         estimate D2E/DX2                !
 ! D1    D(2,1,5,6)           -133.8468         estimate D2E/DX2                !
 ! D2    D(2,1,5,7)             63.4943         estimate D2E/DX2                !
 ! D3    D(3,1,5,6)            107.1518         estimate D2E/DX2                !
 ! D4    D(3,1,5,7)            -55.5072         estimate D2E/DX2                !
 ! D5    D(4,1,5,6)            -13.0993         estimate D2E/DX2                !
 ! D6    D(4,1,5,7)           -175.7583         estimate D2E/DX2                !
 ! D7    D(1,5,7,8)           -178.816          estimate D2E/DX2                !
 ! D8    D(6,5,7,8)             20.1299         estimate D2E/DX2                !
 ! D9    D(5,7,8,9)           -138.9724         estimate D2E/DX2                !
 ! D10   D(5,7,8,19)            45.2631         estimate D2E/DX2                !
 ! D11   D(7,8,9,10)            -0.7576         estimate D2E/DX2                !
 ! D12   D(7,8,9,13)          -179.7572         estimate D2E/DX2                !
 ! D13   D(19,8,9,10)          174.9709         estimate D2E/DX2                !
 ! D14   D(19,8,9,13)           -4.0286         estimate D2E/DX2                !
 ! D15   D(7,8,19,17)          178.8564         estimate D2E/DX2                !
 ! D16   D(7,8,19,20)           -3.019          estimate D2E/DX2                !
 ! D17   D(9,8,19,17)            2.964          estimate D2E/DX2                !
 ! D18   D(9,8,19,20)         -178.9113         estimate D2E/DX2                !
 ! D19   D(8,9,10,11)          -16.0837         estimate D2E/DX2                !
 ! D20   D(8,9,10,12)         -173.9922         estimate D2E/DX2                !
 ! D21   D(13,9,10,11)         162.9105         estimate D2E/DX2                !
 ! D22   D(13,9,10,12)           5.0021         estimate D2E/DX2                !
 ! D23   D(8,9,13,14)          172.3932         estimate D2E/DX2                !
 ! D24   D(8,9,13,15)            0.1526         estimate D2E/DX2                !
 ! D25   D(10,9,13,14)          -6.6501         estimate D2E/DX2                !
 ! D26   D(10,9,13,15)        -178.8907         estimate D2E/DX2                !
 ! D27   D(9,13,15,16)        -176.2603         estimate D2E/DX2                !
 ! D28   D(9,13,15,17)           4.9245         estimate D2E/DX2                !
 ! D29   D(14,13,15,16)         11.035          estimate D2E/DX2                !
 ! D30   D(14,13,15,17)       -167.7802         estimate D2E/DX2                !
 ! D31   D(13,15,17,18)       -165.2062         estimate D2E/DX2                !
 ! D32   D(13,15,17,19)         -5.849          estimate D2E/DX2                !
 ! D33   D(16,15,17,18)         16.002          estimate D2E/DX2                !
 ! D34   D(16,15,17,19)        175.3592         estimate D2E/DX2                !
 ! D35   D(15,17,19,8)           2.0576         estimate D2E/DX2                !
 ! D36   D(15,17,19,20)       -176.104          estimate D2E/DX2                !
 ! D37   D(18,17,19,8)         161.7942         estimate D2E/DX2                !
 ! D38   D(18,17,19,20)        -16.3674         estimate D2E/DX2                !
 --------------------------------------------------------------------------------
 Trust Radius=3.00D-01 FncErr=1.00D-07 GrdErr=1.00D-06 EigMax=2.50D+02 EigMin=1.00D-04
 Number of steps in this run=     99 maximum allowed number of steps=    120.
 GradGradGradGradGradGradGradGradGradGradGradGradGradGradGradGradGradGrad

 Leave Link  103 at Sun Jul 18 13:43:40 2021, MaxMem=   104857600 cpu:               0.0 elap:               0.0
 (Enter /dades/curu/g16A03_MST/g16/l202.exe)
                          Input orientation:                          
 ---------------------------------------------------------------------
 Center     Atomic      Atomic             Coordinates (Angstroms)
 Number     Number       Type             X           Y           Z
 ---------------------------------------------------------------------
      1          6           0       -3.247000    1.265000   -0.021000
      2          1           0       -3.636000    0.808000    0.892000
      3          1           0       -3.572000    0.654000   -0.865000
      4          1           0       -3.726000    2.239000   -0.141000
      5          6           0       -1.718000    1.336000    0.059000
      6          8           0       -1.152000    2.347000   -0.242000
      7          8           0       -1.204000    0.113000    0.112000
      8          6           0        0.191000   -0.041000    0.215000
      9          6           0        0.893000   -1.027000   -0.506000
     10          6           0        0.228000   -1.990000   -1.415000
     11          8           0       -1.089000   -2.132000   -1.305000
     12          8           0        0.909000   -2.888000   -1.916000
     13          6           0        2.248000   -1.107000   -0.340000
     14          1           0        2.823000   -1.921000   -0.773000
     15          6           0        2.972000   -0.267000    0.507000
     16          1           0        4.055000   -0.348000    0.543000
     17          6           0        2.293000    0.632000    1.299000
     18          1           0        2.829000    1.448000    1.778000
     19          6           0        0.883000    0.759000    1.132000
     20          1           0        0.358000    1.514000    1.712000
 ---------------------------------------------------------------------
                    Distance matrix (angstroms):
                    1          2          3          4          5
     1  C    0.000000
     2  H    1.092584   0.000000
     3  H    1.091459   1.764897   0.000000
     4  H    1.092024   1.767187   1.749319   0.000000
     5  C    1.532737   2.156710   2.180875   2.210763   0.000000
     6  O    2.368246   3.134443   3.018407   2.578244   1.197112
     7  O    2.349179   2.646894   2.618136   3.308227   1.327680
     8  C    3.685265   3.978072   3.976128   4.546210   2.358971
     9  C    4.756899   5.082664   4.784440   5.668787   3.566555
    10  C    4.961238   5.299203   4.661892   5.928038   4.125757
    11  O    4.224361   4.467395   3.757750   5.235867   3.779307
    12  O    6.173392   6.496330   5.807730   7.135824   5.352002
    13  C    5.993594   6.309240   6.103208   6.850109   4.675105
    14  H    6.896448   7.206826   6.894571   7.784242   5.649863
    15  C    6.426645   6.705931   6.749412   7.180748   4.976586
    16  H    7.499271   7.785218   7.820332   8.228267   6.033046
    17  C    5.730156   5.945559   6.251528   6.394092   4.256916
    18  H    6.339374   6.556739   6.970559   6.875774   4.862377
    19  C    4.317678   4.525634   4.883243   5.005378   2.872187
    20  H    4.007657   4.137979   4.777597   4.542938   2.659675
                    6          7          8          9         10
     6  O    0.000000
     7  O    2.262471   0.000000
     8  C    2.777596   1.407249   0.000000
     9  C    3.954187   2.465549   1.408844   0.000000
    10  C    4.699989   2.967316   2.541037   1.481849   0.000000
    11  O    4.603844   2.657280   2.884628   2.405774   1.329193
    12  O    5.869857   4.193275   3.627960   2.334883   1.233356
    13  C    4.847651   3.689039   2.382358   1.367472   2.452695
    14  H    5.856484   4.597511   3.382007   2.143694   2.674126
    15  C    4.939775   4.211817   2.805406   2.434340   3.767273
    16  H    5.915412   5.296731   3.890029   3.399954   4.601723
    17  C    4.145351   3.729254   2.458941   2.823173   4.301733
    18  H    4.553785   4.563208   3.408685   3.884633   5.364727
    19  C    2.924183   2.411075   1.399912   2.423415   3.804371
    20  H    2.606167   2.638682   2.164930   3.415030   4.698196
                   11         12         13         14         15
    11  O    0.000000
    12  O    2.221905   0.000000
    13  C    3.621798   2.729223   0.000000
    14  H    3.953642   2.430007   1.086605   0.000000
    15  C    4.822167   4.122686   1.395416   2.096740   0.000000
    16  H    5.749652   4.732399   2.149656   2.392490   1.086621
    17  C    5.085119   4.964079   2.390077   3.330449   1.377137
    18  H    6.137753   6.011067   3.369200   4.225849   2.139419
    19  C    4.264462   4.753061   2.740796   3.817725   2.409818
    20  H    4.948678   5.730933   3.827851   4.904149   3.384816
                   16         17         18         19         20
    16  H    0.000000
    17  C    2.153272   0.000000
    18  H    2.500783   1.087471   0.000000
    19  C    3.410858   1.425524   2.163089   0.000000
    20  H    4.301327   2.166268   2.472762   1.087221   0.000000
 Stoichiometry    C9H7O4(1-)
 Framework group  C1[X(C9H7O4)]
 Deg. of freedom    54
 Full point group                 C1      NOp   1
 Largest Abelian subgroup         C1      NOp   1
 Largest concise Abelian subgroup C1      NOp   1
                         Standard orientation:                         
 ---------------------------------------------------------------------
 Center     Atomic      Atomic             Coordinates (Angstroms)
 Number     Number       Type             X           Y           Z
 ---------------------------------------------------------------------
      1          6           0       -3.572853    0.657656   -0.203640
      2          1           0       -3.728716    0.664877   -1.285025
      3          1           0       -3.412208    1.688344    0.117543
      4          1           0       -4.500382    0.327014    0.268465
      5          6           0       -2.363969   -0.224059    0.128712
      6          8           0       -2.435001   -1.021622    1.018614
      7          8           0       -1.261332    0.289452   -0.403482
      8          6           0       -0.038798   -0.386701   -0.234433
      9          6           0        1.163754    0.293485    0.041349
     10          6           0        1.248806    1.768109    0.160207
     11          8           0        0.234769    2.483782   -0.315496
     12          8           0        2.362536    2.281446    0.291569
     13          6           0        2.305564   -0.445112    0.185311
     14          1           0        3.278211    0.030613    0.276713
     15          6           0        2.344217   -1.835282    0.070775
     16          1           0        3.276156   -2.361803    0.257892
     17          6           0        1.202159   -2.508454   -0.302116
     18          1           0        1.136932   -3.585482   -0.166661
     19          6           0       -0.011102   -1.771912   -0.434871
     20          1           0       -0.924438   -2.314403   -0.666325
 ---------------------------------------------------------------------
 Rotational constants (GHZ):           1.1036985           0.7077843           0.4544998
 Leave Link  202 at Sun Jul 18 13:43:40 2021, MaxMem=   104857600 cpu:               0.1 elap:               0.0
 (Enter /dades/curu/g16A03_MST/g16/l301.exe)
 Standard basis: 6-31G(d) (6D, 7F)
 Ernie: Thresh=  0.10000D-02 Tol=  0.10000D-05 Strict=F.
 There are   209 symmetry adapted cartesian basis functions of A   symmetry.
 There are   209 symmetry adapted basis functions of A   symmetry.
   209 basis functions,   392 primitive gaussians,   209 cartesian basis functions
    47 alpha electrons       47 beta electrons
       nuclear repulsion energy       756.1244130982 Hartrees.
 IExCor=  402 DFT=T Ex+Corr=B3LYP ExCW=0 ScaHFX=  0.200000
 ScaDFX=  0.800000  0.720000  1.000000  0.810000 ScalE2=  1.000000  1.000000
 IRadAn=      5 IRanWt=     -1 IRanGd=            0 ICorTp=0 IEmpDi=  4
 NAtoms=   20 NActive=   20 NUniq=   20 SFac= 1.00D+00 NAtFMM=   60 NAOKFM=F Big=F
 Integral buffers will be    131072 words long.
 Raffenetti 2 integral format.
 Two-electron integral symmetry is turned on.
 Using the following non-standard input for PCM:
 MSTModel=DFT cav MSTCharged
 --- end of non-standard input.
 MST model for solvation energy: B3LYP parametrization.
 MST cavity parameters:
 ISph   IAn     Re0     Alpha   Atom Type   QCorr
 ------------------------------------------------
   1      6     1.50     1.50      CH3        F
   2      1     1.20     1.50      CH3        F
   3      1     1.20     1.50      CH3        F
   4      1     1.20     1.50      CH3        F
   5      6     1.50     1.50      C          F
   6      8     1.40     1.50      O          F
   7      8     1.40     1.50      O          F
   8      6     1.50     1.50      C          F
   9      6     1.50     1.50      C          F
  10      6     1.50     1.15      C          T
  11      8     1.40     1.15      O          T
  12      8     1.40     1.15      O          T
  13      6     1.50     1.50      CH         F
  14      1     1.20     1.50      CH         F
  15      6     1.50     1.50      CH         F
  16      1     1.20     1.50      CH         F
  17      6     1.50     1.50      CH         F
  18      1     1.20     1.50      CH         F
  19      6     1.50     1.50      CH         F
  20      1     1.20     1.50      CH         F
 ------------------------------------------------------------------------------
 Polarizable Continuum Model (PCM)
 =================================
 Model                : PCM.
 Atomic radii         : MST.
 Polarization charges : Total charges.
 Charge compensation  : None.
 Solution method      : On-the-fly selection.
 Cavity type          : Scaled VdW (van der Waals Surface) (Alpha=1.500).
 Cavity algorithm     : GePol (No added spheres)
                        Default sphere list used, NSphG=   20.
                        Lebedev-Laikov grids with approx.  5.0 points / Ang**2.
                        Smoothing algorithm: York/Karplus (Gamma=1.0000).
                        Polarization charges: spherical gaussians, with
                                              point-specific exponents (IZeta= 3).
                        Self-potential: point-specific (ISelfS= 7).
                        Self-field    : sphere-specific E.n sum rule (ISelfD= 2).
 1st derivatives      : Analytical E(r).r(x)/FMM algorithm (CHGder, D1EAlg=3).
                        Cavity 1st derivative terms included.
 Solvent              : n-Octanol, Eps=   9.862900 Eps(inf)=   2.043470
 ------------------------------------------------------------------------------
 Spheres list:
 ISph  on   Nord     Re0    Alpha      Xe            Ye            Ze
    1   C      1    1.5000  1.500     -3.572853      0.657656     -0.203640
    2   H      2    1.2000  1.500     -3.728716      0.664877     -1.285025
    3   H      3    1.2000  1.500     -3.412208      1.688344      0.117543
    4   H      4    1.2000  1.500     -4.500382      0.327014      0.268465
    5   C      5    1.5000  1.500     -2.363969     -0.224059      0.128712
    6   O      6    1.4000  1.500     -2.435001     -1.021622      1.018614
    7   O      7    1.4000  1.500     -1.261332      0.289452     -0.403482
    8   C      8    1.5000  1.500     -0.038798     -0.386701     -0.234433
    9   C      9    1.5000  1.500      1.163754      0.293485      0.041349
   10   C     10    1.5000  1.150      1.248806      1.768109      0.160207
   11   O     11    1.4000  1.150      0.234769      2.483782     -0.315496
   12   O     12    1.4000  1.150      2.362536      2.281446      0.291569
   13   C     13    1.5000  1.500      2.305564     -0.445112      0.185311
   14   H     14    1.2000  1.500      3.278211      0.030613      0.276713
   15   C     15    1.5000  1.500      2.344217     -1.835282      0.070775
   16   H     16    1.2000  1.500      3.276156     -2.361803      0.257892
   17   C     17    1.5000  1.500      1.202159     -2.508454     -0.302116
   18   H     18    1.2000  1.500      1.136932     -3.585482     -0.166661
   19   C     19    1.5000  1.500     -0.011102     -1.771912     -0.434871
   20   H     20    1.2000  1.500     -0.924438     -2.314403     -0.666325
 ------------------------------------------------------------------------------
 GePol: Number of generator spheres                  =      20
 GePol: Total number of spheres                      =      20
 GePol: Number of exposed spheres                    =      20 (100.00%)
 GePol: Number of points                             =    2132
 GePol: Average weight of points                     =       0.11
 GePol: Minimum weight of points                     =   0.33D-08
 GePol: Maximum weight of points                     =    0.20969
 GePol: Number of points with low weight             =     118
 GePol: Fraction of low-weight points (<1% of avg)   =       5.53%
 GePol: Cavity surface area                          =    243.660 Ang**2
 GePol: Cavity volume                                =    257.388 Ang**3
 Surface areas from nonelectrostatic (unscaled) cavity and vdw tensions:
 Sphere =    1 Type =  CH3 Surf =        5.354 Tension =       -0.183
 Sphere =    2 Type =  CH3 Surf =       10.106 Tension =       -0.183
 Sphere =    3 Type =  CH3 Surf =       10.109 Tension =       -0.183
 Sphere =    4 Type =  CH3 Surf =       10.137 Tension =       -0.183
 Sphere =    5 Type =  C   Surf =        6.830 Tension =       -0.205
 Sphere =    6 Type =  O   Surf =       16.069 Tension =       -0.185
 Sphere =    7 Type =  O   Surf =        9.549 Tension =       -0.185
 Sphere =    8 Type =  C   Surf =        6.501 Tension =       -0.205
 Sphere =    9 Type =  C   Surf =        6.242 Tension =       -0.205
 Sphere =   10 Type =  C   Surf =        7.356 Tension =       -0.205
 Sphere =   11 Type =  O   Surf =       16.351 Tension =       -0.185
 Sphere =   12 Type =  O   Surf =       15.782 Tension =       -0.185
 Sphere =   13 Type =  CH  Surf =        7.359 Tension =       -0.195
 Sphere =   14 Type =  CH  Surf =        9.664 Tension =       -0.195
 Sphere =   15 Type =  CH  Surf =        7.724 Tension =       -0.195
 Sphere =   16 Type =  CH  Surf =       10.233 Tension =       -0.195
 Sphere =   17 Type =  CH  Surf =        7.923 Tension =       -0.195
 Sphere =   18 Type =  CH  Surf =       10.230 Tension =       -0.195
 Sphere =   19 Type =  CH  Surf =        7.645 Tension =       -0.195
 Sphere =   20 Type =  CH  Surf =        9.966 Tension =       -0.195
 PCM non-electrostatic energy =        -0.0093706371 Hartrees.
 Nuclear repulsion after PCM non-electrostatic terms =      756.1150424611 Hartrees.
 Leave Link  301 at Sun Jul 18 13:43:41 2021, MaxMem=   104857600 cpu:               0.1 elap:               0.9
 (Enter /dades/curu/g16A03_MST/g16/l302.exe)
 NPDir=0 NMtPBC=     1 NCelOv=     1 NCel=       1 NClECP=     1 NCelD=      1
         NCelK=      1 NCelE2=     1 NClLst=     1 CellRange=     0.0.
 One-electron integrals computed using PRISM.
 One-electron integral symmetry used in STVInt
 NBasis=   209 RedAO= T EigKep=  4.64D-04  NBF=   209
 NBsUse=   209 1.00D-06 EigRej= -1.00D+00 NBFU=   209
 Precomputing XC quadrature grid using
 IXCGrd= 4 IRadAn=           5 IRanWt=          -1 IRanGd=           0 AccXCQ= 0.00D+00.
 Generated NRdTot=       0 NPtTot=           0 NUsed=           0 NTot=          32
 NSgBfM=   208   208   208   208   208 MxSgAt=    20 MxSgA2=    20.
 Leave Link  302 at Sun Jul 18 13:43:41 2021, MaxMem=   104857600 cpu:               1.6 elap:               0.5
 (Enter /dades/curu/g16A03_MST/g16/l303.exe)
 DipDrv:  MaxL=1.
 Leave Link  303 at Sun Jul 18 13:43:41 2021, MaxMem=   104857600 cpu:               0.1 elap:               0.0
 (Enter /dades/curu/g16A03_MST/g16/l401.exe)
 ExpMin= 1.61D-01 ExpMax= 5.48D+03 ExpMxC= 8.25D+02 IAcc=3 IRadAn=         5 AccDes= 0.00D+00
 Harris functional with IExCor=  402 and IRadAn=       5 diagonalized for initial guess.
 HarFok:  IExCor=  402 AccDes= 0.00D+00 IRadAn=         5 IDoV= 1 UseB2=F ITyADJ=14
 ICtDFT=  3500011 ScaDFX=  1.000000  1.000000  1.000000  1.000000
 FoFCou: FMM=F IPFlag=           0 FMFlag=      100000 FMFlg1=           0
         NFxFlg=           0 DoJE=T BraDBF=F KetDBF=T FulRan=T
         wScrn=  0.000000 ICntrl=       500 IOpCl=  0 I1Cent=   200000004 NGrid=           0
         NMat0=    1 NMatS0=      1 NMatT0=    0 NMatD0=    1 NMtDS0=    0 NMtDT0=    0
 Petite list used in FoFCou.
 Harris En= -648.333418575693    
 JPrj=0 DoOrth=F DoCkMO=F.
 Leave Link  401 at Sun Jul 18 13:43:45 2021, MaxMem=   104857600 cpu:              14.6 elap:               3.7
 (Enter /dades/curu/g16A03_MST/g16/l502.exe)
 Integral symmetry usage will be decided dynamically.
 Closed shell SCF:
 Using DIIS extrapolation, IDIIS=  1040.
 NGot=   104857600 LenX=   104766663 LenY=   104722541
 Requested convergence on RMS density matrix=1.00D-08 within 128 cycles.
 Requested convergence on MAX density matrix=1.00D-06.
 Requested convergence on             energy=1.00D-06.
 No special actions if energy rises.
 Fock matrices will be formed incrementally for  20 cycles.

 Cycle   1  Pass 1  IDiag  1:
 FoFJK:  IHMeth= 1 ICntrl=       0 DoSepK=F KAlg= 0 I1Cent=           0 FoldK=F
 IRaf= 870000000 NMat=       1 IRICut=       1 DoRegI=T DoRafI=F ISym2E= 0 IDoP0=0 IntGTp=1.
 FoFCou: FMM=F IPFlag=           0 FMFlag=      100000 FMFlg1=           0
         NFxFlg=           0 DoJE=F BraDBF=F KetDBF=F FulRan=T
         wScrn=  0.000000 ICntrl=         0 IOpCl=  0 I1Cent=           0 NGrid=           0
         NMat0=    1 NMatS0=      1 NMatT0=    0 NMatD0=    1 NMtDS0=    0 NMtDT0=    0
 Symmetry not used in FoFCou.
 Inv3:  Mode=1 IEnd=    13636272.
 Iteration    1 A*A^-1 deviation from unit magnitude is 7.22D-15 for    503.
 Iteration    1 A*A^-1 deviation from orthogonality  is 3.67D-15 for   2091    525.
 Iteration    1 A^-1*A deviation from unit magnitude is 7.88D-15 for    503.
 Iteration    1 A^-1*A deviation from orthogonality  is 2.37D-15 for   1551    233.
 E= -647.796144112825    
 DIIS: error= 2.73D-02 at cycle   1 NSaved=   1.
 NSaved= 1 IEnMin= 1 EnMin= -647.796144112825     IErMin= 1 ErrMin= 2.73D-02
 ErrMax= 2.73D-02  0.00D+00 EMaxC= 1.00D-01 BMatC= 4.75D-01 BMatP= 4.75D-01
 IDIUse=3 WtCom= 7.27D-01 WtEn= 2.73D-01
 Coeff-Com:  0.100D+01
 Coeff-En:   0.100D+01
 Coeff:      0.100D+01
 Gap=     0.235 Goal=   None    Shift=    0.000
 GapD=    0.235 DampG=1.000 DampE=0.500 DampFc=0.5000 IDamp=-1.
 Damping current iteration by 5.00D-01
 RMSDP=8.41D-03 MaxDP=1.93D-01              OVMax= 2.30D-01

 Cycle   2  Pass 1  IDiag  1:
 RMSU=  4.19D-03    CP:  9.88D-01
 E= -647.922201689361     Delta-E=       -0.126057576536 Rises=F Damp=T
 DIIS: error= 8.81D-03 at cycle   2 NSaved=   2.
 NSaved= 2 IEnMin= 2 EnMin= -647.922201689361     IErMin= 2 ErrMin= 8.81D-03
 ErrMax= 8.81D-03  0.00D+00 EMaxC= 1.00D-01 BMatC= 6.00D-02 BMatP= 4.75D-01
 IDIUse=3 WtCom= 9.12D-01 WtEn= 8.81D-02
 Coeff-Com:  0.197D+00 0.803D+00
 Coeff-En:   0.308D+00 0.692D+00
 Coeff:      0.207D+00 0.793D+00
 Gap=     0.164 Goal=   None    Shift=    0.000
 RMSDP=2.30D-03 MaxDP=6.25D-02 DE=-1.26D-01 OVMax= 1.72D-01

 Cycle   3  Pass 1  IDiag  1:
 RMSU=  2.03D-03    CP:  9.77D-01  7.47D-01
 E= -648.156281165692     Delta-E=       -0.234079476332 Rises=F Damp=F
 DIIS: error= 1.01D-02 at cycle   3 NSaved=   3.
 NSaved= 3 IEnMin= 3 EnMin= -648.156281165692     IErMin= 2 ErrMin= 8.81D-03
 ErrMax= 1.01D-02  0.00D+00 EMaxC= 1.00D-01 BMatC= 4.64D-02 BMatP= 6.00D-02
 IDIUse=3 WtCom= 8.99D-01 WtEn= 1.01D-01
 Coeff-Com:  0.631D-01 0.467D+00 0.470D+00
 Coeff-En:   0.000D+00 0.000D+00 0.100D+01
 Coeff:      0.568D-01 0.420D+00 0.523D+00
 Gap=     0.165 Goal=   None    Shift=    0.000
 RMSDP=1.31D-03 MaxDP=3.83D-02 DE=-2.34D-01 OVMax= 7.69D-02

 Cycle   4  Pass 1  IDiag  1:
 RMSU=  8.63D-04    CP:  9.81D-01  7.85D-01  5.21D-01
 E= -648.190996495949     Delta-E=       -0.034715330256 Rises=F Damp=F
 DIIS: error= 4.34D-03 at cycle   4 NSaved=   4.
 NSaved= 4 IEnMin= 4 EnMin= -648.190996495949     IErMin= 4 ErrMin= 4.34D-03
 ErrMax= 4.34D-03  0.00D+00 EMaxC= 1.00D-01 BMatC= 8.53D-03 BMatP= 4.64D-02
 IDIUse=3 WtCom= 9.57D-01 WtEn= 4.34D-02
 Coeff-Com:  0.145D-01 0.116D+00 0.312D+00 0.558D+00
 Coeff-En:   0.000D+00 0.000D+00 0.151D+00 0.849D+00
 Coeff:      0.139D-01 0.111D+00 0.305D+00 0.570D+00
 Gap=     0.162 Goal=   None    Shift=    0.000
 RMSDP=4.35D-04 MaxDP=1.51D-02 DE=-3.47D-02 OVMax= 2.53D-02

 Cycle   5  Pass 1  IDiag  1:
 RMSU=  2.48D-04    CP:  9.81D-01  7.72D-01  6.30D-01  6.81D-01
 E= -648.197013707727     Delta-E=       -0.006017211778 Rises=F Damp=F
 DIIS: error= 1.17D-03 at cycle   5 NSaved=   5.
 NSaved= 5 IEnMin= 5 EnMin= -648.197013707727     IErMin= 5 ErrMin= 1.17D-03
 ErrMax= 1.17D-03  0.00D+00 EMaxC= 1.00D-01 BMatC= 8.30D-04 BMatP= 8.53D-03
 IDIUse=3 WtCom= 9.88D-01 WtEn= 1.17D-02
 Coeff-Com:  0.283D-02 0.882D-02 0.121D+00 0.340D+00 0.528D+00
 Coeff-En:   0.000D+00 0.000D+00 0.000D+00 0.273D-01 0.973D+00
 Coeff:      0.280D-02 0.871D-02 0.119D+00 0.336D+00 0.533D+00
 Gap=     0.166 Goal=   None    Shift=    0.000
 RMSDP=1.46D-04 MaxDP=4.28D-03 DE=-6.02D-03 OVMax= 5.19D-03

 Cycle   6  Pass 1  IDiag  1:
 RMSU=  7.51D-05    CP:  9.81D-01  7.69D-01  6.34D-01  7.10D-01  5.09D-01
 E= -648.197634806961     Delta-E=       -0.000621099234 Rises=F Damp=F
 DIIS: error= 2.46D-04 at cycle   6 NSaved=   6.
 NSaved= 6 IEnMin= 6 EnMin= -648.197634806961     IErMin= 6 ErrMin= 2.46D-04
 ErrMax= 2.46D-04  0.00D+00 EMaxC= 1.00D-01 BMatC= 4.48D-05 BMatP= 8.30D-04
 IDIUse=3 WtCom= 9.98D-01 WtEn= 2.46D-03
 Coeff-Com:  0.733D-03-0.213D-02 0.438D-01 0.137D+00 0.282D+00 0.539D+00
 Coeff-En:   0.000D+00 0.000D+00 0.000D+00 0.000D+00 0.000D+00 0.100D+01
 Coeff:      0.731D-03-0.212D-02 0.437D-01 0.137D+00 0.281D+00 0.540D+00
 Gap=     0.165 Goal=   None    Shift=    0.000
 RMSDP=3.63D-05 MaxDP=1.40D-03 DE=-6.21D-04 OVMax= 1.84D-03

 Cycle   7  Pass 1  IDiag  1:
 RMSU=  2.12D-05    CP:  9.81D-01  7.70D-01  6.34D-01  7.15D-01  5.63D-01
                    CP:  6.60D-01
 E= -648.197669841157     Delta-E=       -0.000035034196 Rises=F Damp=F
 DIIS: error= 1.05D-04 at cycle   7 NSaved=   7.
 NSaved= 7 IEnMin= 7 EnMin= -648.197669841157     IErMin= 7 ErrMin= 1.05D-04
 ErrMax= 1.05D-04  0.00D+00 EMaxC= 1.00D-01 BMatC= 3.30D-06 BMatP= 4.48D-05
 IDIUse=3 WtCom= 9.99D-01 WtEn= 1.05D-03
 Coeff-Com:  0.254D-03-0.197D-02 0.132D-01 0.427D-01 0.105D+00 0.281D+00
 Coeff-Com:  0.560D+00
 Coeff-En:   0.000D+00 0.000D+00 0.000D+00 0.000D+00 0.000D+00 0.000D+00
 Coeff-En:   0.100D+01
 Coeff:      0.254D-03-0.197D-02 0.132D-01 0.426D-01 0.105D+00 0.280D+00
 Coeff:      0.560D+00
 Gap=     0.165 Goal=   None    Shift=    0.000
 RMSDP=1.04D-05 MaxDP=3.82D-04 DE=-3.50D-05 OVMax= 8.03D-04

 Cycle   8  Pass 1  IDiag  1:
 RMSU=  6.61D-06    CP:  9.81D-01  7.70D-01  6.35D-01  7.14D-01  5.64D-01
                    CP:  6.87D-01  6.58D-01
 E= -648.197672679211     Delta-E=       -0.000002838054 Rises=F Damp=F
 DIIS: error= 2.91D-05 at cycle   8 NSaved=   8.
 NSaved= 8 IEnMin= 8 EnMin= -648.197672679211     IErMin= 8 ErrMin= 2.91D-05
 ErrMax= 2.91D-05  0.00D+00 EMaxC= 1.00D-01 BMatC= 3.81D-07 BMatP= 3.30D-06
 IDIUse=1 WtCom= 1.00D+00 WtEn= 0.00D+00
 Coeff-Com:  0.106D-03-0.921D-03 0.353D-02 0.112D-01 0.343D-01 0.108D+00
 Coeff-Com:  0.315D+00 0.529D+00
 Coeff:      0.106D-03-0.921D-03 0.353D-02 0.112D-01 0.343D-01 0.108D+00
 Coeff:      0.315D+00 0.529D+00
 Gap=     0.165 Goal=   None    Shift=    0.000
 RMSDP=3.81D-06 MaxDP=9.27D-05 DE=-2.84D-06 OVMax= 2.50D-04

 Cycle   9  Pass 1  IDiag  1:
 RMSU=  2.33D-06    CP:  9.81D-01  7.70D-01  6.35D-01  7.15D-01  5.66D-01
                    CP:  6.88D-01  7.03D-01  5.90D-01
 E= -648.197673010884     Delta-E=       -0.000000331673 Rises=F Damp=F
 DIIS: error= 9.34D-06 at cycle   9 NSaved=   9.
 NSaved= 9 IEnMin= 9 EnMin= -648.197673010884     IErMin= 9 ErrMin= 9.34D-06
 ErrMax= 9.34D-06  0.00D+00 EMaxC= 1.00D-01 BMatC= 3.77D-08 BMatP= 3.81D-07
 IDIUse=1 WtCom= 1.00D+00 WtEn= 0.00D+00
 Coeff-Com:  0.287D-04-0.228D-03-0.171D-04-0.458D-03 0.269D-02 0.140D-01
 Coeff-Com:  0.785D-01 0.274D+00 0.631D+00
 Coeff:      0.287D-04-0.228D-03-0.171D-04-0.458D-03 0.269D-02 0.140D-01
 Coeff:      0.785D-01 0.274D+00 0.631D+00
 Gap=     0.165 Goal=   None    Shift=    0.000
 RMSDP=1.20D-06 MaxDP=4.40D-05 DE=-3.32D-07 OVMax= 8.37D-05

 Cycle  10  Pass 1  IDiag  1:
 RMSU=  8.92D-07    CP:  9.81D-01  7.69D-01  6.35D-01  7.15D-01  5.66D-01
                    CP:  6.90D-01  7.11D-01  6.72D-01  7.84D-01
 E= -648.197673036458     Delta-E=       -0.000000025575 Rises=F Damp=F
 DIIS: error= 8.60D-06 at cycle  10 NSaved=  10.
 NSaved=10 IEnMin=10 EnMin= -648.197673036458     IErMin=10 ErrMin= 8.60D-06
 ErrMax= 8.60D-06  0.00D+00 EMaxC= 1.00D-01 BMatC= 1.01D-08 BMatP= 3.77D-08
 IDIUse=1 WtCom= 1.00D+00 WtEn= 0.00D+00
 Coeff-Com:  0.116D-04-0.633D-04-0.290D-03-0.125D-02-0.128D-02-0.802D-03
 Coeff-Com:  0.218D-01 0.131D+00 0.414D+00 0.436D+00
 Coeff:      0.116D-04-0.633D-04-0.290D-03-0.125D-02-0.128D-02-0.802D-03
 Coeff:      0.218D-01 0.131D+00 0.414D+00 0.436D+00
 Gap=     0.165 Goal=   None    Shift=    0.000
 RMSDP=5.47D-07 MaxDP=1.87D-05 DE=-2.56D-08 OVMax= 4.10D-05

 Cycle  11  Pass 1  IDiag  1:
 RMSU=  2.59D-07    CP:  9.81D-01  7.69D-01  6.35D-01  7.15D-01  5.66D-01
                    CP:  6.90D-01  7.13D-01  6.79D-01  8.34D-01  4.99D-01
 E= -648.197673044564     Delta-E=       -0.000000008106 Rises=F Damp=F
 DIIS: error= 1.64D-06 at cycle  11 NSaved=  11.
 NSaved=11 IEnMin=11 EnMin= -648.197673044564     IErMin=11 ErrMin= 1.64D-06
 ErrMax= 1.64D-06  0.00D+00 EMaxC= 1.00D-01 BMatC= 5.55D-10 BMatP= 1.01D-08
 IDIUse=1 WtCom= 1.00D+00 WtEn= 0.00D+00
 Coeff-Com:  0.324D-05-0.725D-05-0.130D-03-0.548D-03-0.891D-03-0.188D-02
 Coeff-Com:  0.251D-02 0.352D-01 0.127D+00 0.232D+00 0.607D+00
 Coeff:      0.324D-05-0.725D-05-0.130D-03-0.548D-03-0.891D-03-0.188D-02
 Coeff:      0.251D-02 0.352D-01 0.127D+00 0.232D+00 0.607D+00
 Gap=     0.165 Goal=   None    Shift=    0.000
 RMSDP=1.33D-07 MaxDP=4.62D-06 DE=-8.11D-09 OVMax= 8.79D-06

 Cycle  12  Pass 1  IDiag  1:
 RMSU=  8.83D-08    CP:  9.81D-01  7.69D-01  6.35D-01  7.15D-01  5.66D-01
                    CP:  6.90D-01  7.13D-01  6.82D-01  8.42D-01  5.70D-01
                    CP:  7.34D-01
 E= -648.197673044954     Delta-E=       -0.000000000390 Rises=F Damp=F
 DIIS: error= 4.99D-07 at cycle  12 NSaved=  12.
 NSaved=12 IEnMin=12 EnMin= -648.197673044954     IErMin=12 ErrMin= 4.99D-07
 ErrMax= 4.99D-07  0.00D+00 EMaxC= 1.00D-01 BMatC= 8.83D-11 BMatP= 5.55D-10
 IDIUse=1 WtCom= 1.00D+00 WtEn= 0.00D+00
 Coeff-Com:  0.203D-06 0.469D-05-0.438D-04-0.175D-03-0.410D-03-0.117D-02
 Coeff-Com: -0.178D-02 0.226D-02 0.149D-01 0.814D-01 0.357D+00 0.548D+00
 Coeff:      0.203D-06 0.469D-05-0.438D-04-0.175D-03-0.410D-03-0.117D-02
 Coeff:     -0.178D-02 0.226D-02 0.149D-01 0.814D-01 0.357D+00 0.548D+00
 Gap=     0.165 Goal=   None    Shift=    0.000
 RMSDP=4.57D-08 MaxDP=1.82D-06 DE=-3.90D-10 OVMax= 2.67D-06

 Cycle  13  Pass 1  IDiag  1:
 RMSU=  2.28D-08    CP:  9.81D-01  7.69D-01  6.35D-01  7.15D-01  5.66D-01
                    CP:  6.90D-01  7.14D-01  6.83D-01  8.44D-01  5.81D-01
                    CP:  8.01D-01  6.78D-01
 E= -648.197673045047     Delta-E=       -0.000000000093 Rises=F Damp=F
 DIIS: error= 4.33D-08 at cycle  13 NSaved=  13.
 NSaved=13 IEnMin=13 EnMin= -648.197673045047     IErMin=13 ErrMin= 4.33D-08
 ErrMax= 4.33D-08  0.00D+00 EMaxC= 1.00D-01 BMatC= 1.07D-12 BMatP= 8.83D-11
 IDIUse=1 WtCom= 1.00D+00 WtEn= 0.00D+00
 Coeff-Com: -0.119D-06 0.125D-05 0.118D-06 0.254D-06-0.308D-04-0.148D-03
 Coeff-Com: -0.562D-03-0.207D-02-0.676D-02 0.467D-02 0.465D-01 0.123D+00
 Coeff-Com:  0.836D+00
 Coeff:     -0.119D-06 0.125D-05 0.118D-06 0.254D-06-0.308D-04-0.148D-03
 Coeff:     -0.562D-03-0.207D-02-0.676D-02 0.467D-02 0.465D-01 0.123D+00
 Coeff:      0.836D+00
 Gap=     0.165 Goal=   None    Shift=    0.000
 RMSDP=9.17D-09 MaxDP=2.34D-07 DE=-9.31D-11 OVMax= 6.62D-07

 Error on total polarization charges =  0.00536
 SCF Done:  E(RB3LYP) =  -648.197673045     A.U. after   13 cycles
            NFock= 13  Conv=0.92D-08     -V/T= 2.0087
 KE= 6.426024825030D+02 PE=-3.042982687037D+03 EE= 9.960674890279D+02
 Leave Link  502 at Sun Jul 18 13:45:23 2021, MaxMem=   104857600 cpu:             379.7 elap:              98.5
 (Enter /dades/curu/g16A03_MST/g16/l601.exe)
 Copying SCF densities to generalized density rwf, IOpCl= 0 IROHF=0.

 **********************************************************************

            Population analysis using the SCF density.

 **********************************************************************

 Orbital symmetries:
       Occupied  (A) (A) (A) (A) (A) (A) (A) (A) (A) (A) (A) (A)
                 (A) (A) (A) (A) (A) (A) (A) (A) (A) (A) (A) (A)
                 (A) (A) (A) (A) (A) (A) (A) (A) (A) (A) (A) (A)
                 (A) (A) (A) (A) (A) (A) (A) (A) (A) (A) (A)
       Virtual   (A) (A) (A) (A) (A) (A) (A) (A) (A) (A) (A) (A)
                 (A) (A) (A) (A) (A) (A) (A) (A) (A) (A) (A) (A)
                 (A) (A) (A) (A) (A) (A) (A) (A) (A) (A) (A) (A)
                 (A) (A) (A) (A) (A) (A) (A) (A) (A) (A) (A) (A)
                 (A) (A) (A) (A) (A) (A) (A) (A) (A) (A) (A) (A)
                 (A) (A) (A) (A) (A) (A) (A) (A) (A) (A) (A) (A)
                 (A) (A) (A) (A) (A) (A) (A) (A) (A) (A) (A) (A)
                 (A) (A) (A) (A) (A) (A) (A) (A) (A) (A) (A) (A)
                 (A) (A) (A) (A) (A) (A) (A) (A) (A) (A) (A) (A)
                 (A) (A) (A) (A) (A) (A) (A) (A) (A) (A) (A) (A)
                 (A) (A) (A) (A) (A) (A) (A) (A) (A) (A) (A) (A)
                 (A) (A) (A) (A) (A) (A) (A) (A) (A) (A) (A) (A)
                 (A) (A) (A) (A) (A) (A) (A) (A) (A) (A) (A) (A)
                 (A) (A) (A) (A) (A) (A)
 The electronic state is 1-A.
 Alpha  occ. eigenvalues --  -19.19343 -19.12583 -19.05460 -19.03537 -10.30991
 Alpha  occ. eigenvalues --  -10.24429 -10.23778 -10.18490 -10.18338 -10.17951
 Alpha  occ. eigenvalues --  -10.17763 -10.17576 -10.17170  -1.10836  -1.01939
 Alpha  occ. eigenvalues --   -0.98470  -0.86924  -0.84507  -0.75864  -0.74059
 Alpha  occ. eigenvalues --   -0.71510  -0.63372  -0.61000  -0.55768  -0.51934
 Alpha  occ. eigenvalues --   -0.48067  -0.47375  -0.46978  -0.45459  -0.43342
 Alpha  occ. eigenvalues --   -0.41805  -0.40264  -0.39370  -0.39125  -0.37774
 Alpha  occ. eigenvalues --   -0.37021  -0.35104  -0.34369  -0.34302  -0.33541
 Alpha  occ. eigenvalues --   -0.30536  -0.26210  -0.23609  -0.22996  -0.21182
 Alpha  occ. eigenvalues --   -0.20177  -0.17713
 Alpha virt. eigenvalues --   -0.01167   0.00134   0.02777   0.09357   0.10877
 Alpha virt. eigenvalues --    0.12957   0.15373   0.16320   0.18203   0.18561
 Alpha virt. eigenvalues --    0.18988   0.20354   0.21519   0.24966   0.27838
 Alpha virt. eigenvalues --    0.29922   0.32771   0.34073   0.35737   0.36210
 Alpha virt. eigenvalues --    0.38139   0.41703   0.42654   0.52050   0.52113
 Alpha virt. eigenvalues --    0.54019   0.55302   0.56295   0.56452   0.56975
 Alpha virt. eigenvalues --    0.58328   0.59183   0.59711   0.62110   0.62483
 Alpha virt. eigenvalues --    0.62972   0.63414   0.64580   0.65497   0.66557
 Alpha virt. eigenvalues --    0.68751   0.69964   0.72216   0.72937   0.76323
 Alpha virt. eigenvalues --    0.77015   0.80165   0.82750   0.84251   0.85081
 Alpha virt. eigenvalues --    0.85497   0.87057   0.89064   0.90609   0.91378
 Alpha virt. eigenvalues --    0.91766   0.93333   0.95437   0.96242   0.97977
 Alpha virt. eigenvalues --    0.98688   1.00348   1.01855   1.04950   1.05888
 Alpha virt. eigenvalues --    1.07192   1.09894   1.10905   1.12055   1.12548
 Alpha virt. eigenvalues --    1.15135   1.16812   1.21545   1.24906   1.27604
 Alpha virt. eigenvalues --    1.29358   1.31226   1.35347   1.38679   1.39020
 Alpha virt. eigenvalues --    1.44143   1.45471   1.47865   1.49073   1.53512
 Alpha virt. eigenvalues --    1.54969   1.56446   1.58005   1.61827   1.67329
 Alpha virt. eigenvalues --    1.70885   1.74177   1.75376   1.76831   1.78502
 Alpha virt. eigenvalues --    1.79785   1.80415   1.82006   1.83721   1.86621
 Alpha virt. eigenvalues --    1.87499   1.90723   1.92277   1.92762   1.94166
 Alpha virt. eigenvalues --    1.94249   1.97748   1.98130   1.98532   2.03385
 Alpha virt. eigenvalues --    2.05555   2.08107   2.10539   2.12462   2.15238
 Alpha virt. eigenvalues --    2.16412   2.20385   2.21783   2.22487   2.27022
 Alpha virt. eigenvalues --    2.28069   2.31622   2.32823   2.33871   2.38194
 Alpha virt. eigenvalues --    2.42894   2.50106   2.51080   2.53980   2.57497
 Alpha virt. eigenvalues --    2.60994   2.63125   2.64154   2.68014   2.70941
 Alpha virt. eigenvalues --    2.72677   2.76199   2.79450   2.82910   2.84610
 Alpha virt. eigenvalues --    2.88560   2.94323   2.97890   2.99875   3.06831
 Alpha virt. eigenvalues --    3.12151   3.15697   3.32690   3.44753   3.89520
 Alpha virt. eigenvalues --    4.02694   4.09469   4.10850   4.11801   4.16124
 Alpha virt. eigenvalues --    4.18097   4.30741   4.35663   4.41948   4.46035
 Alpha virt. eigenvalues --    4.56056   4.80598
          Condensed to atoms (all electrons):
               1          2          3          4          5          6
     1  C    5.265733   0.343987   0.362183   0.362832   0.375513  -0.085139
     2  H    0.343987   0.546459  -0.022616  -0.025823  -0.019979   0.002950
     3  H    0.362183  -0.022616   0.509967  -0.026885  -0.019622   0.000231
     4  H    0.362832  -0.025823  -0.026885   0.533939  -0.021525   0.002285
     5  C    0.375513  -0.019979  -0.019622  -0.021525   4.302239   0.568334
     6  O   -0.085139   0.002950   0.000231   0.002285   0.568334   8.055299
     7  O   -0.097262   0.003447   0.001470   0.003040   0.232603  -0.073009
     8  C    0.004103  -0.000063   0.000003  -0.000067  -0.003237   0.001254
     9  C   -0.000336   0.000010  -0.000020   0.000001   0.000111  -0.000687
    10  C   -0.000084   0.000002   0.000078   0.000001   0.000397   0.000003
    11  O   -0.000281   0.000006   0.000677   0.000001   0.001097  -0.000005
    12  O   -0.000000   0.000000   0.000000   0.000000   0.000004  -0.000000
    13  C    0.000005  -0.000000  -0.000001  -0.000000  -0.000070  -0.000009
    14  H   -0.000000   0.000000  -0.000000   0.000000  -0.000002   0.000000
    15  C   -0.000000   0.000000   0.000000   0.000000   0.000013   0.000001
    16  H    0.000000  -0.000000   0.000000  -0.000000   0.000000   0.000000
    17  C   -0.000002  -0.000001   0.000000  -0.000000   0.000185  -0.000171
    18  H   -0.000000  -0.000000  -0.000000   0.000000  -0.000015   0.000008
    19  C    0.000270  -0.000006   0.000017   0.000012  -0.001848   0.001189
    20  H   -0.000267  -0.000009   0.000006   0.000016   0.006000   0.002565
               7          8          9         10         11         12
     1  C   -0.097262   0.004103  -0.000336  -0.000084  -0.000281  -0.000000
     2  H    0.003447  -0.000063   0.000010   0.000002   0.000006   0.000000
     3  H    0.001470   0.000003  -0.000020   0.000078   0.000677   0.000000
     4  H    0.003040  -0.000067   0.000001   0.000001   0.000001   0.000000
     5  C    0.232603  -0.003237   0.000111   0.000397   0.001097   0.000004
     6  O   -0.073009   0.001254  -0.000687   0.000003  -0.000005  -0.000000
     7  O    8.318166   0.195115  -0.050411  -0.004305  -0.008198   0.000006
     8  C    0.195115   4.788517   0.425227  -0.041520  -0.001507   0.003904
     9  C   -0.050411   0.425227   5.341859   0.163789  -0.115619  -0.144848
    10  C   -0.004305  -0.041520   0.163789   4.484048   0.472354   0.525273
    11  O   -0.008198  -0.001507  -0.115619   0.472354   8.480846  -0.120810
    12  O    0.000006   0.003904  -0.144848   0.525273  -0.120810   8.329980
    13  C    0.004386  -0.046570   0.449125  -0.042344   0.006016   0.005937
    14  H   -0.000031   0.006073  -0.048524  -0.008358   0.000401   0.020909
    15  C   -0.000153  -0.044348  -0.015679   0.008302  -0.000010   0.001604
    16  H    0.000002   0.000592   0.004252  -0.000073   0.000001   0.000004
    17  C    0.004017   0.002957  -0.050636  -0.001283  -0.000036  -0.000031
    18  H   -0.000046   0.003324   0.000579   0.000004  -0.000000   0.000000
    19  C   -0.062062   0.459199  -0.030085   0.008624   0.000540  -0.000068
    20  H   -0.007359  -0.036877   0.004909  -0.000045   0.000009   0.000001
              13         14         15         16         17         18
     1  C    0.000005  -0.000000  -0.000000   0.000000  -0.000002  -0.000000
     2  H   -0.000000   0.000000   0.000000  -0.000000  -0.000001  -0.000000
     3  H   -0.000001  -0.000000   0.000000   0.000000   0.000000  -0.000000
     4  H   -0.000000   0.000000   0.000000  -0.000000  -0.000000   0.000000
     5  C   -0.000070  -0.000002   0.000013   0.000000   0.000185  -0.000015
     6  O   -0.000009   0.000000   0.000001   0.000000  -0.000171   0.000008
     7  O    0.004386  -0.000031  -0.000153   0.000002   0.004017  -0.000046
     8  C   -0.046570   0.006073  -0.044348   0.000592   0.002957   0.003324
     9  C    0.449125  -0.048524  -0.015679   0.004252  -0.050636   0.000579
    10  C   -0.042344  -0.008358   0.008302  -0.000073  -0.001283   0.000004
    11  O    0.006016   0.000401  -0.000010   0.000001  -0.000036  -0.000000
    12  O    0.005937   0.020909   0.001604   0.000004  -0.000031   0.000000
    13  C    5.127316   0.352883   0.453368  -0.038713  -0.017119   0.004391
    14  H    0.352883   0.585218  -0.048832  -0.006407   0.006457  -0.000224
    15  C    0.453368  -0.048832   4.954554   0.360528   0.523914  -0.040382
    16  H   -0.038713  -0.006407   0.360528   0.590891  -0.045634  -0.004807
    17  C   -0.017119   0.006457   0.523914  -0.045634   4.937420   0.357532
    18  H    0.004391  -0.000224  -0.040382  -0.004807   0.357532   0.581814
    19  C   -0.057967  -0.000164  -0.026216   0.004984   0.478379  -0.037862
    20  H    0.000564   0.000014   0.004700  -0.000168  -0.039807  -0.005003
              19         20
     1  C    0.000270  -0.000267
     2  H   -0.000006  -0.000009
     3  H    0.000017   0.000006
     4  H    0.000012   0.000016
     5  C   -0.001848   0.006000
     6  O    0.001189   0.002565
     7  O   -0.062062  -0.007359
     8  C    0.459199  -0.036877
     9  C   -0.030085   0.004909
    10  C    0.008624  -0.000045
    11  O    0.000540   0.000009
    12  O   -0.000068   0.000001
    13  C   -0.057967   0.000564
    14  H   -0.000164   0.000014
    15  C   -0.026216   0.004700
    16  H    0.004984  -0.000168
    17  C    0.478379  -0.039807
    18  H   -0.037862  -0.005003
    19  C    5.085817   0.350942
    20  H    0.350942   0.574284
 Mulliken charges:
               1
     1  C   -0.531255
     2  H    0.171636
     3  H    0.194510
     4  H    0.172172
     5  C    0.579801
     6  O   -0.475098
     7  O   -0.459417
     8  C    0.283921
     9  C    0.066982
    10  C    0.435140
    11  O   -0.715481
    12  O   -0.621864
    13  C   -0.201198
    14  H    0.140587
    15  C   -0.131363
    16  H    0.134548
    17  C   -0.156141
    18  H    0.140688
    19  C   -0.173694
    20  H    0.145526
 Sum of Mulliken charges =  -1.00000
 Mulliken charges with hydrogens summed into heavy atoms:
               1
     1  C    0.007063
     5  C    0.579801
     6  O   -0.475098
     7  O   -0.459417
     8  C    0.283921
     9  C    0.066982
    10  C    0.435140
    11  O   -0.715481
    12  O   -0.621864
    13  C   -0.060611
    15  C    0.003185
    17  C   -0.015453
    19  C   -0.028168
 Electronic spatial extent (au):  <R**2>=           2411.4213
 Charge=             -1.0000 electrons
 Dipole moment (field-independent basis, Debye):
    X=             -4.7691    Y=            -10.6921    Z=             -1.1557  Tot=             11.7644
 Quadrupole moment (field-independent basis, Debye-Ang):
   XX=            -82.8446   YY=           -103.2352   ZZ=            -77.9960
   XY=            -19.5940   XZ=              3.6942   YZ=              3.7917
 Traceless Quadrupole moment (field-independent basis, Debye-Ang):
   XX=              5.1807   YY=            -15.2100   ZZ=             10.0293
   XY=            -19.5940   XZ=              3.6942   YZ=              3.7917
 Octapole moment (field-independent basis, Debye-Ang**2):
  XXX=            -49.0915  YYY=            -82.8852  ZZZ=              0.4098  XYY=            -33.9453
  XXY=            -21.3402  XXZ=            -13.9907  XZZ=             -3.6813  YZZ=              8.6451
  YYZ=              1.3284  XYZ=            -13.3767
 Hexadecapole moment (field-independent basis, Debye-Ang**3):
 XXXX=          -1800.5578 YYYY=          -1298.9495 ZZZZ=           -141.9392 XXXY=           -129.6222
 XXXZ=             18.3120 YYYX=            -92.8593 YYYZ=              4.7461 ZZZX=              3.2995
 ZZZY=             -4.6665 XXYY=           -572.1570 XXZZ=           -346.3644 YYZZ=           -226.8106
 XXYZ=             -1.7455 YYXZ=             -0.1891 ZZXY=              5.2153
 N-N= 7.561150424611D+02 E-N=-3.042982683422D+03  KE= 6.426024825030D+02
 No NMR shielding tensors so no spin-rotation constants.
 Leave Link  601 at Sun Jul 18 13:45:24 2021, MaxMem=   104857600 cpu:               0.6 elap:               0.2
 (Enter /dades/curu/g16A03_MST/g16/l701.exe)
 ... and contract with generalized density number  0.
 Compute integral first derivatives.
 D1PCM: PCM CHGder 1st derivatives, ID1Alg=3 FixD1E=F DoIter=F DoCFld=F I1PDM=0.
 GePol: Maximum number of non-zero 1st derivatives   =     229
 Leave Link  701 at Sun Jul 18 13:45:26 2021, MaxMem=   104857600 cpu:              10.1 elap:               2.8
 (Enter /dades/curu/g16A03_MST/g16/l702.exe)
 L702 exits ... SP integral derivatives will be done elsewhere.
 Leave Link  702 at Sun Jul 18 13:45:26 2021, MaxMem=   104857600 cpu:               0.0 elap:               0.0
 (Enter /dades/curu/g16A03_MST/g16/l703.exe)
 Integral derivatives from FoFJK, PRISM(SPDF).
 Compute integral first derivatives, UseDBF=F ICtDFT=           0.
 Calling FoFJK, ICntrl=      2127 FMM=F ISym2X=0 I1Cent= 0 IOpClX= 0 NMat=1 NMatS=1 NMatT=0.
 FoFJK:  IHMeth= 1 ICntrl=    2127 DoSepK=F KAlg= 0 I1Cent=           0 FoldK=F
 IRaf=         0 NMat=       1 IRICut=       1 DoRegI=T DoRafI=F ISym2E= 0 IDoP0=0 IntGTp=1.
 FoFCou: FMM=F IPFlag=           0 FMFlag=      100000 FMFlg1=         800
         NFxFlg=           0 DoJE=F BraDBF=F KetDBF=F FulRan=T
         wScrn=  0.000000 ICntrl=      2127 IOpCl=  0 I1Cent=           0 NGrid=           0
         NMat0=    1 NMatS0=      1 NMatT0=    0 NMatD0=    1 NMtDS0=    0 NMtDT0=    0
 Symmetry not used in FoFCou.
 Leave Link  703 at Sun Jul 18 13:45:39 2021, MaxMem=   104857600 cpu:              50.2 elap:              12.6
 (Enter /dades/curu/g16A03_MST/g16/l716.exe)
 Dipole        =-1.87631954D+00-4.20658696D+00-4.54701435D-01
 ***** Axes restored to original set *****
 -------------------------------------------------------------------
 Center     Atomic                   Forces (Hartrees/Bohr)
 Number     Number              X              Y              Z
 -------------------------------------------------------------------
      1        6          -0.002536991   -0.005407833    0.016598000
      2        1          -0.003523485   -0.002892850   -0.000705586
      3        1           0.005161073   -0.004616155    0.000065297
      4        1           0.008961832    0.002559059    0.002070540
      5        6          -0.050168809    0.003064112   -0.042049002
      6        8           0.028275531    0.024543980    0.008394099
      7        8           0.021931942   -0.017726379    0.014182341
      8        6           0.009782738    0.008810722    0.015611842
      9        6          -0.026275330    0.021103598   -0.007616606
     10        6          -0.090287768   -0.046019794    0.035230675
     11        8           0.046860326    0.025791547   -0.011959136
     12        8           0.034275602   -0.009512016   -0.028701659
     13        6           0.037633807   -0.009422112    0.012677972
     14        1          -0.009353649    0.002185470   -0.010783381
     15        6           0.001407882   -0.006939405    0.000401798
     16        1          -0.000670849   -0.000218022    0.001368469
     17        6          -0.022287514    0.025530487   -0.017132569
     18        1          -0.001928472   -0.007618586    0.010943895
     19        6           0.013002853   -0.000820367    0.004523620
     20        1          -0.000260721   -0.002395457   -0.003120611
 -------------------------------------------------------------------
 Cartesian Forces:  Max     0.090287768 RMS     0.022062798
 Leave Link  716 at Sun Jul 18 13:45:39 2021, MaxMem=   104857600 cpu:               0.1 elap:               0.0
 (Enter /dades/curu/g16A03_MST/g16/l103.exe)

 GradGradGradGradGradGradGradGradGradGradGradGradGradGradGradGradGradGrad
 Berny optimization.
 FormGI is forming the generalized inverse of G from B-inverse, IUseBI=4.
 Internal  Forces:  Max     0.050196435 RMS     0.011718684
 Search for a local minimum.
 Step number   1 out of a maximum of   99
 All quantities printed in internal units (Hartrees-Bohrs-Radians)
 RMS Force = .11719D-01 SwitMx=.10000D-02 MixMth= 1
 Mixed Optimization -- RFO/linear search
 Second derivative matrix not updated -- first step.
 ITU=  0
     Eigenvalues ---    0.00333   0.01006   0.01367   0.01596   0.01832
     Eigenvalues ---    0.01891   0.01949   0.01986   0.02002   0.02145
     Eigenvalues ---    0.02259   0.02332   0.02350   0.02408   0.02648
     Eigenvalues ---    0.06679   0.07101   0.15057   0.15887   0.15993
     Eigenvalues ---    0.15997   0.16000   0.16000   0.16000   0.22019
     Eigenvalues ---    0.22499   0.24171   0.24454   0.24929   0.24996
     Eigenvalues ---    0.25000   0.25000   0.25000   0.25000   0.29172
     Eigenvalues ---    0.34359   0.34516   0.34580   0.34645   0.35107
     Eigenvalues ---    0.35136   0.35206   0.35208   0.39826   0.41773
     Eigenvalues ---    0.44125   0.44440   0.46047   0.48378   0.50430
     Eigenvalues ---    0.59697   0.60057   0.89702   1.06288
 RFO step:  Lambda=-5.36592667D-02 EMin= 3.32902846D-03
 Linear search not attempted -- first point.
 Iteration  1 RMS(Cart)=  0.07923990 RMS(Int)=  0.01893035
 Iteration  2 RMS(Cart)=  0.01923217 RMS(Int)=  0.00870616
 Iteration  3 RMS(Cart)=  0.00111315 RMS(Int)=  0.00864190
 Iteration  4 RMS(Cart)=  0.00003398 RMS(Int)=  0.00864186
 Iteration  5 RMS(Cart)=  0.00000153 RMS(Int)=  0.00864186
 Iteration  6 RMS(Cart)=  0.00000007 RMS(Int)=  0.00864186
 ITry= 1 IFail=0 DXMaxC= 3.43D-01 DCOld= 1.00D+10 DXMaxT= 3.00D-01 DXLimC= 3.00D+00 Rises=F
 Variable       Old X    -DE/DX   Delta X   Delta X   Delta X     New X
                                 (Linear)    (Quad)   (Total)
    R1        2.06468   0.00189   0.00000   0.00473   0.00473   2.06942
    R2        2.06256   0.00099   0.00000   0.00249   0.00249   2.06504
    R3        2.06363  -0.00188   0.00000  -0.00471  -0.00471   2.05891
    R4        2.89645  -0.00849   0.00000  -0.02459  -0.02459   2.87186
    R5        2.26221   0.03198   0.00000   0.02864   0.02864   2.29085
    R6        2.50895   0.02184   0.00000   0.03338   0.03338   2.54233
    R7        2.65932  -0.00797   0.00000  -0.01600  -0.01600   2.64332
    R8        2.66233   0.00359   0.00000   0.00793   0.00777   2.67010
    R9        2.64545  -0.00692   0.00000  -0.01568  -0.01568   2.62977
   R10        2.80029   0.02678   0.00000   0.06741   0.06741   2.86769
   R11        2.58415   0.02341   0.00000   0.04370   0.04355   2.62770
   R12        2.51181  -0.05020   0.00000  -0.07715  -0.07715   2.43466
   R13        2.33070   0.03751   0.00000   0.03946   0.03946   2.37016
   R14        2.05339  -0.00229   0.00000  -0.00565  -0.00565   2.04774
   R15        2.63695   0.00391   0.00000   0.00967   0.00967   2.64663
   R16        2.05342  -0.00061   0.00000  -0.00150  -0.00150   2.05192
   R17        2.60241   0.01352   0.00000   0.02401   0.02415   2.62657
   R18        2.05502  -0.00186   0.00000  -0.00459  -0.00459   2.05043
   R19        2.69385  -0.01920   0.00000  -0.04384  -0.04368   2.65017
   R20        2.05455  -0.00320   0.00000  -0.00791  -0.00791   2.04664
    A1        1.88180  -0.00109   0.00000  -0.00618  -0.00587   1.87592
    A2        1.88465   0.00317   0.00000   0.01841   0.01892   1.90357
    A3        1.90808   0.00793   0.00000   0.03857   0.03901   1.94709
    A4        1.85846   0.00956   0.00000   0.04227   0.04122   1.89969
    A5        1.94264  -0.00688   0.00000  -0.03413  -0.03451   1.90813
    A6        1.98448  -0.01209   0.00000  -0.05607  -0.05631   1.92817
    A7        2.09168   0.02077   0.00000   0.08660   0.07765   2.16933
    A8        1.92369  -0.00447   0.00000   0.00344  -0.00585   1.91783
    A9        2.22049  -0.01115   0.00000  -0.01783  -0.02751   2.19298
   A10        2.08002   0.00806   0.00000   0.02654   0.02654   2.10656
   A11        2.13303  -0.01101   0.00000  -0.03474  -0.03479   2.09824
   A12        2.06624  -0.00002   0.00000   0.00146   0.00140   2.06764
   A13        2.08159   0.01108   0.00000   0.03391   0.03397   2.11556
   A14        2.14735   0.01264   0.00000   0.03887   0.03891   2.18626
   A15        2.06298  -0.00896   0.00000  -0.02402  -0.02411   2.03888
   A16        2.07272  -0.00368   0.00000  -0.01488  -0.01483   2.05789
   A17        2.05252  -0.00141   0.00000   0.04368  -0.00162   2.05090
   A18        2.06525  -0.00594   0.00000   0.02871  -0.01659   2.04866
   A19        2.09777   0.02052   0.00000   0.11991   0.07395   2.17172
   A20        2.11741  -0.00853   0.00000  -0.04681  -0.04706   2.07035
   A21        2.15625  -0.00678   0.00000  -0.01566  -0.01572   2.14053
   A22        2.00234   0.01554   0.00000   0.06598   0.06587   2.06821
   A23        2.08558  -0.00005   0.00000  -0.00047  -0.00067   2.08491
   A24        2.07857   0.00157   0.00000   0.00785   0.00824   2.08681
   A25        2.11884  -0.00151   0.00000  -0.00730  -0.00749   2.11134
   A26        2.09456   0.00122   0.00000   0.01942   0.01743   2.11199
   A27        2.06970   0.00287   0.00000   0.00904   0.00780   2.07751
   A28        2.06266  -0.00134   0.00000   0.00613   0.00395   2.06661
   A29        2.11152   0.00049   0.00000  -0.00768  -0.00731   2.10421
   A30        2.10318  -0.00246   0.00000  -0.00642  -0.00665   2.09653
   A31        2.06803   0.00200   0.00000   0.01450   0.01428   2.08231
    D1       -2.33607   0.00571   0.00000   0.09906   0.10143  -2.23464
    D2        1.10818  -0.00765   0.00000  -0.11924  -0.12145   0.98673
    D3        1.87015   0.00623   0.00000   0.10308   0.10593   1.97608
    D4       -0.96878  -0.00714   0.00000  -0.11521  -0.11696  -1.08574
    D5       -0.22863   0.00739   0.00000   0.11287   0.11453  -0.11409
    D6       -3.06756  -0.00597   0.00000  -0.10543  -0.10835   3.10727
    D7       -3.12093   0.01045   0.00000   0.12589   0.11983  -3.00110
    D8        0.35133  -0.01124   0.00000  -0.13580  -0.12973   0.22160
    D9       -2.42553   0.00283   0.00000   0.03784   0.03772  -2.38781
   D10        0.78999   0.00165   0.00000   0.02644   0.02657   0.81656
   D11       -0.01322   0.00011   0.00000   0.00190   0.00181  -0.01142
   D12       -3.13735   0.00037   0.00000   0.00404   0.00400  -3.13335
   D13        3.05382   0.00083   0.00000   0.01204   0.01183   3.06565
   D14       -0.07031   0.00109   0.00000   0.01418   0.01402  -0.05629
   D15        3.12163   0.00010   0.00000   0.00240   0.00245   3.12408
   D16       -0.05269   0.00124   0.00000   0.01725   0.01720  -0.03549
   D17        0.05173  -0.00010   0.00000  -0.00572  -0.00582   0.04591
   D18       -3.12259   0.00104   0.00000   0.00913   0.00893  -3.11366
   D19       -0.28071   0.01955   0.00000   0.26326   0.25985  -0.02087
   D20       -3.03674  -0.02090   0.00000  -0.28694  -0.28347   2.96298
   D21        2.84333   0.01925   0.00000   0.26102   0.25755   3.10087
   D22        0.08730  -0.02121   0.00000  -0.28918  -0.28577  -0.19846
   D23        3.00883   0.00326   0.00000   0.04008   0.03946   3.04829
   D24        0.00266  -0.00008   0.00000   0.00233   0.00262   0.00529
   D25       -0.11607   0.00334   0.00000   0.04158   0.04093  -0.07514
   D26       -3.12223  -0.00000   0.00000   0.00383   0.00409  -3.11814
   D27       -3.07632  -0.00220   0.00000  -0.02513  -0.02483  -3.10115
   D28        0.08595  -0.00266   0.00000  -0.02962  -0.02936   0.05658
   D29        0.19260  -0.00376   0.00000  -0.05306  -0.05368   0.13892
   D30       -2.92832  -0.00422   0.00000  -0.05755  -0.05821  -2.98653
   D31       -2.88339  -0.00548   0.00000  -0.07291  -0.07333  -2.95672
   D32       -0.10208   0.00271   0.00000   0.03495   0.03510  -0.06698
   D33        0.27929  -0.00597   0.00000  -0.07757  -0.07802   0.20127
   D34        3.06060   0.00222   0.00000   0.03029   0.03041   3.09101
   D35        0.03591  -0.00158   0.00000  -0.01868  -0.01860   0.01731
   D36       -3.07360  -0.00261   0.00000  -0.03285  -0.03285  -3.10645
   D37        2.82384   0.00697   0.00000   0.08995   0.08978   2.91362
   D38       -0.28567   0.00594   0.00000   0.07578   0.07553  -0.21014
         Item               Value     Threshold  Converged?
 Maximum Force            0.050196     0.000450     NO 
 RMS     Force            0.011719     0.000300     NO 
 Maximum Displacement     0.343114     0.001800     NO 
 RMS     Displacement     0.087472     0.001200     NO 
 Predicted change in Energy=-4.138847D-02
 Lowest energy point so far.  Saving SCF results.
 GradGradGradGradGradGradGradGradGradGradGradGradGradGradGradGradGradGrad

 Leave Link  103 at Sun Jul 18 13:45:39 2021, MaxMem=   104857600 cpu:               0.1 elap:               0.1
 (Enter /dades/curu/g16A03_MST/g16/l202.exe)
                          Input orientation:                          
 ---------------------------------------------------------------------
 Center     Atomic      Atomic             Coordinates (Angstroms)
 Number     Number       Type             X           Y           Z
 ---------------------------------------------------------------------
      1          6           0       -3.243209    1.240019    0.032290
      2          1           0       -3.561719    0.789234    0.978102
      3          1           0       -3.613372    0.604034   -0.775582
      4          1           0       -3.695108    2.226959   -0.061591
      5          6           0       -1.729315    1.337740   -0.057922
      6          8           0       -1.125189    2.354219   -0.325116
      7          8           0       -1.181789    0.119338    0.102289
      8          6           0        0.203357   -0.030268    0.227125
      9          6           0        0.871749   -1.066670   -0.462490
     10          6           0        0.205791   -2.093909   -1.359229
     11          8           0       -1.074754   -2.031645   -1.486568
     12          8           0        0.952711   -2.824713   -2.052874
     13          6           0        2.247277   -1.156474   -0.279744
     14          1           0        2.776439   -1.991585   -0.723365
     15          6           0        2.958375   -0.278307    0.547697
     16          1           0        4.037507   -0.371901    0.623433
     17          6           0        2.271406    0.687070    1.274332
     18          1           0        2.801288    1.483677    1.786152
     19          6           0        0.885609    0.812462    1.099440
     20          1           0        0.350945    1.584720    1.638622
 ---------------------------------------------------------------------
                    Distance matrix (angstroms):
                    1          2          3          4          5
     1  C    0.000000
     2  H    1.095087   0.000000
     3  H    1.092774   1.764193   0.000000
     4  H    1.089530   1.779272   1.774922   0.000000
     5  C    1.519724   2.175295   2.145467   2.157560   0.000000
     6  O    2.419750   3.175568   3.075243   2.586527   1.212267
     7  O    2.347398   2.622952   2.630244   3.284158   1.345345
     8  C    3.678370   3.925729   3.996896   4.514029   2.384935
     9  C    4.743258   5.017502   4.796414   5.644900   3.565164
    10  C    4.994697   5.288645   4.712276   5.964124   4.149006
    11  O    4.208671   4.496327   3.727853   5.199281   3.717826
    12  O    6.202878   6.528975   5.851230   7.147504   5.338455
    13  C    5.998831   6.253990   6.139417   6.841574   4.699318
    14  H    6.873896   7.127425   6.897075   7.753385   5.641723
    15  C    6.405513   6.620915   6.761467   7.135574   4.995279
    16  H    7.480412   7.695600   7.838727   8.186370   6.053375
    17  C    5.679736   5.841536   6.232147   6.305176   4.266620
    18  H    6.298519   6.451593   6.963053   6.794835   4.893697
    19  C    4.285878   4.449043   4.878522   4.932723   2.907444
    20  H    3.951843   4.046977   4.744042   4.435509   2.695690
                    6          7          8          9         10
     6  O    0.000000
     7  O    2.276087   0.000000
     8  C    2.784920   1.398783   0.000000
     9  C    3.963473   2.437747   1.412957   0.000000
    10  C    4.756758   2.993305   2.602910   1.517518   0.000000
    11  O    4.537325   2.676313   2.928451   2.401829   1.288366
    12  O    5.841588   4.227086   3.683592   2.372043   1.254236
    13  C    4.868321   3.678605   2.388067   1.390517   2.492336
    14  H    5.853829   4.561279   3.372084   2.133393   2.650099
    15  C    4.936343   4.182997   2.784675   2.448673   3.809133
    16  H    5.914804   5.268202   3.869688   3.418181   4.645246
    17  C    4.107856   3.690605   2.426529   2.837463   4.351580
    18  H    4.542303   4.534503   3.387010   3.909448   5.424864
    19  C    2.906833   2.397679   1.391615   2.443554   3.867066
    20  H    2.574367   2.618576   2.149951   3.422832   4.747683
                   11         12         13         14         15
    11  O    0.000000
    12  O    2.249505   0.000000
    13  C    3.641186   2.757338   0.000000
    14  H    3.926292   2.405760   1.083616   0.000000
    15  C    4.845467   4.155699   1.400534   2.141032   0.000000
    16  H    5.774259   4.763914   2.153186   2.455104   1.085828
    17  C    5.119645   5.014167   2.411303   3.379502   1.389919
    18  H    6.171862   6.059503   3.397830   4.286693   2.159406
    19  C    4.315020   4.813587   2.762787   3.841944   2.406357
    20  H    4.987738   5.782073   3.845822   4.924628   3.385214
                   16         17         18         19         20
    16  H    0.000000
    17  C    2.159675   0.000000
    18  H    2.514621   1.085043   0.000000
    19  C    3.400553   1.402407   2.142879   0.000000
    20  H    4.295313   2.150966   2.456859   1.083035   0.000000
 Stoichiometry    C9H7O4(1-)
 Framework group  C1[X(C9H7O4)]
 Deg. of freedom    54
 Full point group                 C1      NOp   1
 RotChk:  IX=0 Diff= 3.22D-02
 Largest Abelian subgroup         C1      NOp   1
 Largest concise Abelian subgroup C1      NOp   1
                         Standard orientation:                         
 ---------------------------------------------------------------------
 Center     Atomic      Atomic             Coordinates (Angstroms)
 Number     Number       Type             X           Y           Z
 ---------------------------------------------------------------------
      1          6           0       -3.556884    0.661329   -0.304398
      2          1           0       -3.660710    0.588203   -1.392097
      3          1           0       -3.414091    1.716448   -0.058448
      4          1           0       -4.475801    0.311768    0.165150
      5          6           0       -2.365870   -0.137885    0.197902
      6          8           0       -2.420520   -0.958211    1.088783
      7          8           0       -1.244550    0.274228   -0.420773
      8          6           0       -0.041059   -0.418873   -0.253998
      9          6           0        1.164919    0.288792   -0.050834
     10          6           0        1.297155    1.799873   -0.006025
     11          8           0        0.228909    2.496390   -0.189332
     12          8           0        2.394466    2.271764    0.376513
     13          6           0        2.320578   -0.470330    0.096558
     14          1           0        3.272891    0.042043    0.165812
     15          6           0        2.317001   -1.869860    0.043664
     16          1           0        3.243850   -2.412607    0.203037
     17          6           0        1.132232   -2.542761   -0.230927
     18          1           0        1.059912   -3.618776   -0.111428
     19          6           0       -0.052818   -1.805669   -0.369121
     20          1           0       -0.984010   -2.328124   -0.550469
 ---------------------------------------------------------------------
 Rotational constants (GHZ):           1.0867521           0.7088703           0.4534530
 Leave Link  202 at Sun Jul 18 13:45:39 2021, MaxMem=   104857600 cpu:               0.0 elap:               0.0
 (Enter /dades/curu/g16A03_MST/g16/l301.exe)
 Standard basis: 6-31G(d) (6D, 7F)
 Ernie: Thresh=  0.10000D-02 Tol=  0.10000D-05 Strict=F.
 There are   209 symmetry adapted cartesian basis functions of A   symmetry.
 There are   209 symmetry adapted basis functions of A   symmetry.
   209 basis functions,   392 primitive gaussians,   209 cartesian basis functions
    47 alpha electrons       47 beta electrons
       nuclear repulsion energy       753.9545869450 Hartrees.
 IExCor=  402 DFT=T Ex+Corr=B3LYP ExCW=0 ScaHFX=  0.200000
 ScaDFX=  0.800000  0.720000  1.000000  0.810000 ScalE2=  1.000000  1.000000
 IRadAn=      5 IRanWt=     -1 IRanGd=            0 ICorTp=0 IEmpDi=  4
 NAtoms=   20 NActive=   20 NUniq=   20 SFac= 1.00D+00 NAtFMM=   60 NAOKFM=F Big=F
 Integral buffers will be    131072 words long.
 Raffenetti 2 integral format.
 Two-electron integral symmetry is turned on.
 ------------------------------------------------------------------------------
 Polarizable Continuum Model (PCM)
 =================================
 Model                : PCM.
 Atomic radii         : MST.
 Polarization charges : Total charges.
 Charge compensation  : None.
 Solution method      : On-the-fly selection.
 Cavity type          : Scaled VdW (van der Waals Surface) (Alpha=1.500).
 Cavity algorithm     : GePol (No added spheres)
                        Default sphere list used, NSphG=   20.
                        Lebedev-Laikov grids with approx.  5.0 points / Ang**2.
                        Smoothing algorithm: York/Karplus (Gamma=1.0000).
                        Polarization charges: spherical gaussians, with
                                              point-specific exponents (IZeta= 3).
[...]
            NFock= 17  Conv=0.29D-08     -V/T= 2.0014
 KE= 6.436016717818D+02 PE=-3.063417415689D+03 EE= 1.007927879811D+03
 Leave Link  502 at Sun Jul 18 14:35:40 2021, MaxMem=   262144000 cpu:            1639.5 elap:             412.8
 (Enter /dades/curu/g16A03_MST/g16/l801.exe)
 ExpMin= 2.97D-02 ExpMax= 1.17D+04 ExpMxC= 4.01D+02 IAcc=3 IRadAn=         5 AccDes= 0.00D+00
 HarFok:  IExCor=  205 AccDes= 0.00D+00 IRadAn=         5 IDoV=-2 UseB2=F ITyADJ=14
 ICtDFT= 12500011 ScaDFX=  1.000000  1.000000  1.000000  1.000000
 Largest valence mixing into a core orbital is  1.19D-04
 Largest core mixing into a valence orbital is  4.15D-05
 Range of M.O.s used for correlation:    14   362
 NBasis=   362 NAE=    47 NBE=    47 NFC=    13 NFV=     0
 NROrb=    349 NOA=    34 NOB=    34 NVA=   315 NVB=   315

 **** Warning!!: The largest alpha MO coefficient is  0.11170236D+03

 Leave Link  801 at Sun Jul 18 14:35:40 2021, MaxMem=   262144000 cpu:               1.1 elap:               0.4
 (Enter /dades/curu/g16A03_MST/g16/l906.exe)
 FulOut=F Deriv=F AODrv=F NAtomX=    20
   MMem=          14  MDisk=          34 MDiskD=          34
  W3Min=     4155480 MinDsk=     4703468 NBas6D=         388
 NBas2D=       76015    NTT=       75466    LW2=     2000000
    MDV=   261163311 MDiskM=        9277 NBas2p=       73279
 Disk-based method using OVN memory for 34 occupieds at a time.
 Estimated scratch disk usage=  2157618090 words.
 IMap=   1   2   3   4   5   6   7   8   9  10  11  12  13  14  15  16  17  18  19  20
 IMap=  21  22  23  24  25  26  27  28  29  30  31  32  33  34
 Actual    scratch disk usage=  1966665642 words.
 JobTyp=1 Pass  1:  I=   1 to  34 NPSUse=  4 ParTrn=T ParDer=T DoDerP=F.
 Spin components of T(2) and E(2):
     alpha-alpha T2 =       0.9608771730D-01 E2=     -0.2749057754D+00
     alpha-beta  T2 =       0.4822727810D+00 E2=     -0.1455515149D+01
     beta-beta   T2 =       0.9608771730D-01 E2=     -0.2749057754D+00
 The integrals were generated   1 times.
 ANorm=    0.1294004720D+01
 E2 =    -0.2005326699D+01 EUMP2 =    -0.64649609996290D+03
 Leave Link  906 at Sun Jul 18 14:40:03 2021, MaxMem=   262144000 cpu:             927.5 elap:             262.3
 (Enter /dades/curu/g16A03_MST/g16/l601.exe)
 Copying SCF densities to generalized density rwf, IOpCl= 0 IROHF=0.

 **********************************************************************

            Population analysis using the SCF density.

 **********************************************************************

 Orbital symmetries:
       Occupied  (A) (A) (A) (A) (A) (A) (A) (A) (A) (A) (A) (A)
                 (A) (A) (A) (A) (A) (A) (A) (A) (A) (A) (A) (A)
                 (A) (A) (A) (A) (A) (A) (A) (A) (A) (A) (A) (A)
                 (A) (A) (A) (A) (A) (A) (A) (A) (A) (A) (A)
       Virtual   (A) (A) (A) (A) (A) (A) (A) (A) (A) (A) (A) (A)
                 (A) (A) (A) (A) (A) (A) (A) (A) (A) (A) (A) (A)
                 (A) (A) (A) (A) (A) (A) (A) (A) (A) (A) (A) (A)
                 (A) (A) (A) (A) (A) (A) (A) (A) (A) (A) (A) (A)
                 (A) (A) (A) (A) (A) (A) (A) (A) (A) (A) (A) (A)
                 (A) (A) (A) (A) (A) (A) (A) (A) (A) (A) (A) (A)
                 (A) (A) (A) (A) (A) (A) (A) (A) (A) (A) (A) (A)
                 (A) (A) (A) (A) (A) (A) (A) (A) (A) (A) (A) (A)
                 (A) (A) (A) (A) (A) (A) (A) (A) (A) (A) (A) (A)
                 (A) (A) (A) (A) (A) (A) (A) (A) (A) (A) (A) (A)
                 (A) (A) (A) (A) (A) (A) (A) (A) (A) (A) (A) (A)
                 (A) (A) (A) (A) (A) (A) (A) (A) (A) (A) (A) (A)
                 (A) (A) (A) (A) (A) (A) (A) (A) (A) (A) (A) (A)
                 (A) (A) (A) (A) (A) (A) (A) (A) (A) (A) (A) (A)
                 (A) (A) (A) (A) (A) (A) (A) (A) (A) (A) (A) (A)
                 (A) (A) (A) (A) (A) (A) (A) (A) (A) (A) (A) (A)
                 (A) (A) (A) (A) (A) (A) (A) (A) (A) (A) (A) (A)
                 (A) (A) (A) (A) (A) (A) (A) (A) (A) (A) (A) (A)
                 (A) (A) (A) (A) (A) (A) (A) (A) (A) (A) (A) (A)
                 (A) (A) (A) (A) (A) (A) (A) (A) (A) (A) (A) (A)
                 (A) (A) (A) (A) (A) (A) (A) (A) (A) (A) (A) (A)
                 (A) (A) (A) (A) (A) (A) (A) (A) (A) (A) (A) (A)
                 (A) (A) (A) (A) (A) (A) (A) (A) (A) (A) (A) (A)
                 (A) (A) (A) (A) (A) (A) (A) (A) (A) (A) (A) (A)
                 (A) (A) (A) (A) (A) (A) (A) (A) (A) (A) (A) (A)
                 (A) (A) (A) (A) (A) (A) (A) (A) (A) (A) (A) (A)
                 (A) (A) (A)
 The electronic state is 1-A.
 Alpha  occ. eigenvalues --  -20.48805 -20.42861 -20.32595 -20.32436 -11.27115
 Alpha  occ. eigenvalues --  -11.18497 -11.17707 -11.13406 -11.13068 -11.12596
 Alpha  occ. eigenvalues --  -11.12364 -11.11567 -11.11134  -1.33954  -1.24116
 Alpha  occ. eigenvalues --   -1.19563  -1.09216  -1.03293  -0.92137  -0.90190
 Alpha  occ. eigenvalues --   -0.87598  -0.74029  -0.72082  -0.65748  -0.60215
 Alpha  occ. eigenvalues --   -0.57241  -0.55937  -0.54855  -0.52878  -0.49860
 Alpha  occ. eigenvalues --   -0.48272  -0.46589  -0.45936  -0.44761  -0.42521
 Alpha  occ. eigenvalues --   -0.41698  -0.40506  -0.39616  -0.37836  -0.36201
 Alpha  occ. eigenvalues --   -0.34163  -0.32371  -0.23601  -0.23385  -0.21695
 Alpha  occ. eigenvalues --   -0.21126  -0.20661
 Alpha virt. eigenvalues --    0.10897   0.11566   0.12207   0.13259   0.14194
 Alpha virt. eigenvalues --    0.15519   0.15959   0.18407   0.20036   0.20598
 Alpha virt. eigenvalues --    0.21199   0.21554   0.21848   0.22461   0.23017
 Alpha virt. eigenvalues --    0.23152   0.23369   0.23841   0.24132   0.24974
 Alpha virt. eigenvalues --    0.25283   0.25707   0.26797   0.26848   0.27479
 Alpha virt. eigenvalues --    0.27784   0.28645   0.29268   0.29495   0.30131
 Alpha virt. eigenvalues --    0.30137   0.30374   0.31363   0.32357   0.32880
 Alpha virt. eigenvalues --    0.34135   0.35203   0.35518   0.35918   0.37670
 Alpha virt. eigenvalues --    0.38476   0.39449   0.40036   0.41188   0.41524
 Alpha virt. eigenvalues --    0.41948   0.42576   0.43876   0.43920   0.44668
 Alpha virt. eigenvalues --    0.45037   0.46038   0.46699   0.47508   0.47742
 Alpha virt. eigenvalues --    0.48609   0.48840   0.49346   0.49593   0.49842
 Alpha virt. eigenvalues --    0.50488   0.50896   0.51549   0.52033   0.52523
 Alpha virt. eigenvalues --    0.52987   0.53835   0.54443   0.54867   0.55602
 Alpha virt. eigenvalues --    0.56265   0.56636   0.57414   0.58516   0.58779
 Alpha virt. eigenvalues --    0.59164   0.60325   0.61359   0.62230   0.62343
 Alpha virt. eigenvalues --    0.64450   0.65828   0.66370   0.66591   0.67415
 Alpha virt. eigenvalues --    0.68058   0.68233   0.68672   0.69654   0.70349
 Alpha virt. eigenvalues --    0.71766   0.72101   0.72453   0.73440   0.73767
 Alpha virt. eigenvalues --    0.74118   0.74901   0.75702   0.77083   0.77604
 Alpha virt. eigenvalues --    0.78296   0.79631   0.80135   0.80312   0.81254
 Alpha virt. eigenvalues --    0.81654   0.82587   0.82748   0.83690   0.84734
 Alpha virt. eigenvalues --    0.85191   0.85591   0.86953   0.87227   0.88666
 Alpha virt. eigenvalues --    0.88980   0.89589   0.90439   0.91910   0.92814
 Alpha virt. eigenvalues --    0.93311   0.95666   0.95679   0.97276   0.98544
 Alpha virt. eigenvalues --    0.98608   1.00070   1.00549   1.01960   1.02548
 Alpha virt. eigenvalues --    1.03904   1.04354   1.05161   1.06022   1.06728
 Alpha virt. eigenvalues --    1.07754   1.08103   1.08895   1.09047   1.11301
 Alpha virt. eigenvalues --    1.11423   1.12470   1.12633   1.13643   1.15060
 Alpha virt. eigenvalues --    1.16621   1.17001   1.17546   1.18850   1.19940
 Alpha virt. eigenvalues --    1.21636   1.22024   1.22951   1.23960   1.25115
 Alpha virt. eigenvalues --    1.25816   1.27773   1.28626   1.30052   1.32002
 Alpha virt. eigenvalues --    1.32413   1.33791   1.34465   1.37647   1.40712
 Alpha virt. eigenvalues --    1.41114   1.42345   1.43608   1.45360   1.46773
 Alpha virt. eigenvalues --    1.48815   1.51356   1.52135   1.52527   1.54492
 Alpha virt. eigenvalues --    1.56822   1.57411   1.59147   1.60894   1.61831
 Alpha virt. eigenvalues --    1.63897   1.64687   1.65049   1.65705   1.66457
 Alpha virt. eigenvalues --    1.67732   1.67954   1.69927   1.70983   1.72327
 Alpha virt. eigenvalues --    1.72836   1.73694   1.74347   1.75102   1.76784
 Alpha virt. eigenvalues --    1.78111   1.80347   1.82139   1.83487   1.84382
 Alpha virt. eigenvalues --    1.85345   1.86580   1.87484   1.88142   1.89907
 Alpha virt. eigenvalues --    1.90280   1.91419   1.93074   1.94027   1.96964
 Alpha virt. eigenvalues --    1.97256   1.99283   2.00844   2.01927   2.02793
 Alpha virt. eigenvalues --    2.04032   2.05804   2.06560   2.06769   2.07107
 Alpha virt. eigenvalues --    2.07927   2.09673   2.10161   2.12098   2.12976
 Alpha virt. eigenvalues --    2.14119   2.16616   2.17135   2.19262   2.20745
 Alpha virt. eigenvalues --    2.22891   2.23133   2.25079   2.26336   2.27458
 Alpha virt. eigenvalues --    2.28539   2.31208   2.32770   2.33659   2.34927
 Alpha virt. eigenvalues --    2.36735   2.38211   2.38362   2.40078   2.40523
 Alpha virt. eigenvalues --    2.40988   2.43106   2.45898   2.46735   2.47627
 Alpha virt. eigenvalues --    2.49160   2.50359   2.50903   2.52571   2.53147
 Alpha virt. eigenvalues --    2.54911   2.56876   2.58024   2.60991   2.63181
 Alpha virt. eigenvalues --    2.64515   2.70283   2.71919   2.74860   2.77430
 Alpha virt. eigenvalues --    2.79100   2.80636   2.84123   2.85867   2.90648
 Alpha virt. eigenvalues --    2.93742   2.94758   2.97741   2.98102   3.01780
 Alpha virt. eigenvalues --    3.06206   3.08463   3.11162   3.12495   3.13360
 Alpha virt. eigenvalues --    3.16438   3.26092   3.28040   3.31828   3.38500
 Alpha virt. eigenvalues --    3.41862   3.42787   3.46048   3.48492   3.58318
 Alpha virt. eigenvalues --    3.75066   3.77618   3.78601   3.90434   3.94344
 Alpha virt. eigenvalues --    3.96963   3.97335   3.99815   4.00540   4.00993
 Alpha virt. eigenvalues --    4.04486   4.05129   4.08167   4.10178   4.13567
 Alpha virt. eigenvalues --    4.14641   4.16449   4.19341   4.26037   4.28883
 Alpha virt. eigenvalues --    4.34602   4.38399   4.43768   4.46709   4.90057
          Condensed to atoms (all electrons):
               1          2          3          4          5          6
     1  C    4.703313   0.320271   0.421503   0.287771   0.037861  -0.010671
     2  H    0.320271   0.883599  -0.060592  -0.108569   0.025867  -0.001633
     3  H    0.421503  -0.060592   0.736716  -0.101988  -0.031758   0.001977
     4  H    0.287771  -0.108569  -0.101988   0.939527  -0.055758   0.023038
     5  C    0.037861   0.025867  -0.031758  -0.055758   5.345139   0.147353
     6  O   -0.010671  -0.001633   0.001977   0.023038   0.147353   8.630249
     7  O   -0.070224  -0.053832  -0.028601   0.063310   0.194737  -0.009953
     8  C    0.096101  -0.024506  -0.013485  -0.019142  -0.590509   0.044760
     9  C    0.000211  -0.019916   0.029271   0.009887   0.113737  -0.081066
    10  C    0.056193  -0.001167  -0.004838   0.005801  -0.187181   0.019048
    11  O    0.010592   0.003727  -0.004740   0.004956  -0.041814   0.007501
    12  O    0.004265   0.000274   0.001268   0.000256  -0.013627  -0.000482
    13  C    0.051181   0.000171   0.004525   0.001436  -0.133056   0.003354
    14  H   -0.000586  -0.000047   0.000148  -0.000207   0.000508   0.000467
    15  C   -0.012654  -0.002691   0.000091   0.001198   0.044577  -0.004626
    16  H   -0.000230  -0.000017  -0.000001   0.000044   0.001891  -0.000198
    17  C    0.009312   0.007850  -0.000724  -0.002494   0.003792   0.026060
    18  H   -0.000925   0.000048  -0.000088  -0.000107   0.000285   0.000314
    19  C   -0.157791   0.019244  -0.023520  -0.002530   0.399120   0.009123
    20  H    0.006405   0.002138   0.001245  -0.000857   0.011655  -0.004222
               7          8          9         10         11         12
     1  C   -0.070224   0.096101   0.000211   0.056193   0.010592   0.004265
     2  H   -0.053832  -0.024506  -0.019916  -0.001167   0.003727   0.000274
     3  H   -0.028601  -0.013485   0.029271  -0.004838  -0.004740   0.001268
     4  H    0.063310  -0.019142   0.009887   0.005801   0.004956   0.000256
     5  C    0.194737  -0.590509   0.113737  -0.187181  -0.041814  -0.013627
     6  O   -0.009953   0.044760  -0.081066   0.019048   0.007501  -0.000482
     7  O   10.022490  -1.130115   0.364024  -0.060097  -0.043789  -0.004932
     8  C   -1.130115  18.659236  -4.720870  -0.290740   0.088139  -0.011282
     9  C    0.364024  -4.720870  14.095289  -1.333646   0.157591   0.047923
    10  C   -0.060097  -0.290740  -1.333646   7.410576   0.144864   0.201642
    11  O   -0.043789   0.088139   0.157591   0.144864   8.968162  -0.134158
    12  O   -0.004932  -0.011282   0.047923   0.201642  -0.134158   8.988082
    13  C   -0.070219   0.466654  -3.813107  -0.523534  -0.121238   0.071418
    14  H   -0.009595  -0.037994   0.739011   0.086655   0.001858  -0.029527
    15  C    0.105092  -3.586928   1.505103  -0.362855  -0.030444  -0.116042
    16  H    0.005164   0.020622  -0.062068   0.021116   0.000238   0.000962
    17  C   -0.189576   1.780247  -2.974887   0.270283  -0.007167  -0.002763
    18  H   -0.007638  -0.047690   0.017992  -0.012168  -0.000188   0.000039
    19  C    0.278061  -6.458538   1.605114  -0.316599  -0.052615  -0.019560
    20  H   -0.161387   1.016693  -0.267500   0.002242   0.000622   0.000173
              13         14         15         16         17         18
     1  C    0.051181  -0.000586  -0.012654  -0.000230   0.009312  -0.000925
     2  H    0.000171  -0.000047  -0.002691  -0.000017   0.007850   0.000048
     3  H    0.004525   0.000148   0.000091  -0.000001  -0.000724  -0.000088
     4  H    0.001436  -0.000207   0.001198   0.000044  -0.002494  -0.000107
     5  C   -0.133056   0.000508   0.044577   0.001891   0.003792   0.000285
     6  O    0.003354   0.000467  -0.004626  -0.000198   0.026060   0.000314
     7  O   -0.070219  -0.009595   0.105092   0.005164  -0.189576  -0.007638
     8  C    0.466654  -0.037994  -3.586928   0.020622   1.780247  -0.047690
     9  C   -3.813107   0.739011   1.505103  -0.062068  -2.974887   0.017992
    10  C   -0.523534   0.086655  -0.362855   0.021116   0.270283  -0.012168
    11  O   -0.121238   0.001858  -0.030444   0.000238  -0.007167  -0.000188
    12  O    0.071418  -0.029527  -0.116042   0.000962  -0.002763   0.000039
    13  C   15.777836  -1.121284  -3.833727   0.607956   2.896047  -0.177587
    14  H   -1.121284   1.888775   0.265069  -0.087245  -0.213287  -0.012918
    15  C   -3.833727   0.265069  11.806088  -0.841446  -3.094736   0.420971
    16  H    0.607956  -0.087245  -0.841446   1.692485   0.364611  -0.059129
    17  C    2.896047  -0.213287  -3.094736   0.364611  10.447473  -0.784148
    18  H   -0.177587  -0.012918   0.420971  -0.059129  -0.784148   1.704057
    19  C   -4.959738   0.140304   3.507866  -0.176134  -3.358623   0.487377
    20  H    0.182159   0.010618  -0.228871  -0.017408   0.435210  -0.068307
              19         20
     1  C   -0.157791   0.006405
     2  H    0.019244   0.002138
     3  H   -0.023520   0.001245
     4  H   -0.002530  -0.000857
     5  C    0.399120   0.011655
     6  O    0.009123  -0.004222
     7  O    0.278061  -0.161387
     8  C   -6.458538   1.016693
     9  C    1.605114  -0.267500
    10  C   -0.316599   0.002242
    11  O   -0.052615   0.000622
    12  O   -0.019560   0.000173
    13  C   -4.959738   0.182159
    14  H    0.140304   0.010618
    15  C    3.507866  -0.228871
    16  H   -0.176134  -0.017408
    17  C   -3.358623   0.435210
    18  H    0.487377  -0.068307
    19  C   16.074057  -1.311233
    20  H   -1.311233   1.997750
 Mulliken charges:
               1
     1  C    0.248101
     2  H    0.009779
     3  H    0.073593
     4  H   -0.045572
     5  C    0.727182
     6  O   -0.800391
     7  O   -1.192921
     8  C    0.759348
     9  C    0.587907
    10  C    0.874405
    11  O   -0.952099
    12  O   -0.983931
    13  C    0.690752
    14  H   -0.620724
    15  C    0.458963
    16  H   -0.471211
    17  C    0.387521
    18  H   -0.460193
    19  C    0.316616
    20  H   -0.607126
 Sum of Mulliken charges =  -1.00000
 Mulliken charges with hydrogens summed into heavy atoms:
               1
     1  C    0.285902
     5  C    0.727182
     6  O   -0.800391
     7  O   -1.192921
     8  C    0.759348
     9  C    0.587907
    10  C    0.874405
    11  O   -0.952099
    12  O   -0.983931
    13  C    0.070028
    15  C   -0.012248
    17  C   -0.072672
    19  C   -0.290511
 Electronic spatial extent (au):  <R**2>=           2263.3877
 Charge=             -1.0000 electrons
 Dipole moment (field-independent basis, Debye):
    X=              0.3931    Y=             -9.0146    Z=             -1.7041  Tot=              9.1826
 Quadrupole moment (field-independent basis, Debye-Ang):
   XX=            -79.7273   YY=           -107.5446   ZZ=            -85.6487
   XY=             -0.8175   XZ=              5.9020   YZ=              3.6658
 Traceless Quadrupole moment (field-independent basis, Debye-Ang):
   XX=             11.2462   YY=            -16.5711   ZZ=              5.3248
   XY=             -0.8175   XZ=              5.9020   YZ=              3.6658
 Octapole moment (field-independent basis, Debye-Ang**2):
  XXX=            -28.1354  YYY=            -94.2938  ZZZ=             -5.5531  XYY=            -12.3273
  XXY=             -8.6327  XXZ=             -2.8308  XZZ=             -4.0026  YZZ=             10.7796
  YYZ=             -0.3235  XYZ=             -2.5212
 Hexadecapole moment (field-independent basis, Debye-Ang**3):
 XXXX=          -1726.9232 YYYY=          -1336.1535 ZZZZ=           -221.9201 XXXY=             18.9165
 XXXZ=             30.9931 YYYX=            -35.5356 YYYZ=             16.3430 ZZZX=             10.2753
 ZZZY=              3.1889 XXYY=           -508.3461 XXZZ=           -369.8447 YYZZ=           -226.1300
 XXYZ=              8.8217 YYXZ=              8.5507 ZZXY=              3.1023
 N-N= 7.673970908331D+02 E-N=-3.063417415134D+03  KE= 6.436016717818D+02
 Leave Link  601 at Sun Jul 18 14:40:03 2021, MaxMem=   262144000 cpu:               0.3 elap:               0.2
 (Enter /dades/curu/g16A03_MST/g16/l9999.exe)
 1\1\GINC-PIRINEUS38\SP\RMP2-FC\Aug-CC-pVDZ\C9H7O4(1-)\UBATOR02\18-Jul-
 2021\0\\#p mp2/aug-cc-pVDZ scf=tight maxdisk=180GB geom=allcheck\\SET_
 328_BBB272_conf1.geo_165_045_180 geometry\\-1,1\C,0,-3.2227200736,0.97
 6039334,-0.1579111349\H,0,-3.5330654795,1.1647701351,0.8731025251\H,0,
 -3.5024049706,-0.0486396328,-0.409602639\H,0,-3.7190300596,1.675398909
 ,-0.8297470027\C,0,-1.7293407094,1.1091107985,-0.2886206688\O,0,-1.139
 8494703,1.8329219069,-1.0569215808\O,0,-1.1119712351,0.3339343114,0.64
 84414648\C,0,0.2632562523,0.1321311485,0.5225647857\C,0,0.7771832406,-
 0.816331379,-0.3731478013\C,0,-0.069051567,-1.6559376679,-1.346039444\
 O,0,-1.2569553903,-1.2921862715,-1.5614398953\O,0,0.5167324821,-2.6483
 534655,-1.8569266916\C,0,2.1652553862,-1.0134050103,-0.3520806501\H,0,
 2.5626572164,-1.7581289582,-1.0323485911\C,0,3.0032475986,-0.305106407
 6,0.5059309398\H,0,4.073941734,-0.4830560962,0.4906481209\C,0,2.458463
 7527,0.6252555678,1.3923251939\H,0,3.0952756294,1.1774663648,2.0739675
 977\C,0,1.0816984033,0.84009525,1.3995476326\H,0,0.62467726,1.54802116
 31,2.083257839\\Version=ES64L-G16RevA.03\State=1-A\HF=-644.4907733\MP2
 =-646.4961\RMSD=2.880e-09\PG=C01 [X(C9H7O4)]\\@


 NEVER LOSE YOUR IGNORANCE, IT CAN'T BE REPLACED.
   -- ANDY CAPP
 Job cpu time:       0 days  0 hours 43 minutes 11.1 seconds.
 Elapsed time:       0 days  0 hours 11 minutes 22.0 seconds.
 File lengths (MBytes):  RWF=  15080 Int=      0 D2E=      0 Chk=     12 Scr=      1
 Normal termination of Gaussian 16 at Sun Jul 18 14:40:04 2021.
