 Entering Gaussian System, Link 0=g16
 Input=SET_328_BBB321_conf1.geo_330_345_315_OCTANOL.dat
 Output=SET_328_BBB321_conf1.geo_330_345_315_OCTANOL.log
 Initial command:
 /dades/curu/g16A03_MST/g16/l1.exe "/tmp/ubator02/1839699/Gau-170633.inp" -scrdir="/tmp/ubator02/1839699/"
 Entering Link 1 = /dades/curu/g16A03_MST/g16/l1.exe PID=    170634.
  
 Copyright (c) 1988,1990,1992,1993,1995,1998,2003,2009,2016,
            Gaussian, Inc.  All Rights Reserved.
  
 This is part of the Gaussian(R) 16 program.  It is based on
 the Gaussian(R) 09 system (copyright 2009, Gaussian, Inc.),
 the Gaussian(R) 03 system (copyright 2003, Gaussian, Inc.),
 the Gaussian(R) 98 system (copyright 1998, Gaussian, Inc.),
 the Gaussian(R) 94 system (copyright 1995, Gaussian, Inc.),
 the Gaussian 92(TM) system (copyright 1992, Gaussian, Inc.),
 the Gaussian 90(TM) system (copyright 1990, Gaussian, Inc.),
 the Gaussian 88(TM) system (copyright 1988, Gaussian, Inc.),
 the Gaussian 86(TM) system (copyright 1986, Carnegie Mellon
 University), and the Gaussian 82(TM) system (copyright 1983,
 Carnegie Mellon University). Gaussian is a federally registered
 trademark of Gaussian, Inc.
  
 This software contains proprietary and confidential information,
 including trade secrets, belonging to Gaussian, Inc.
  
 This software is provided under written license and may be
 used, copied, transmitted, or stored only in accord with that
 written license.
  
 The following legend is applicable only to US Government
 contracts under FAR:
  
                    RESTRICTED RIGHTS LEGEND
  
 Use, reproduction and disclosure by the US Government is
 subject to restrictions as set forth in subparagraphs (a)
 and (c) of the Commercial Computer Software - Restricted
 Rights clause in FAR 52.227-19.
  
 Gaussian, Inc.
 340 Quinnipiac St., Bldg. 40, Wallingford CT 06492
  
  
 ---------------------------------------------------------------
 Warning -- This program may not be used in any manner that
 competes with the business of Gaussian, Inc. or will provide
 assistance to any competitor of Gaussian, Inc.  The licensee
 of this program is prohibited from giving any competitor of
 Gaussian, Inc. access to this program.  By using this program,
 the user acknowledges that Gaussian, Inc. is engaged in the
 business of creating and licensing software in the field of
 computational chemistry and represents and warrants to the
 licensee that it is not a competitor of Gaussian, Inc. and that
 it will not use this program in any manner prohibited above.
 ---------------------------------------------------------------
  

 Cite this work as:
 Gaussian 16, Revision A.03,
 M. J. Frisch, G. W. Trucks, H. B. Schlegel, G. E. Scuseria, 
 M. A. Robb, J. R. Cheeseman, G. Scalmani, V. Barone, 
 G. A. Petersson, H. Nakatsuji, X. Li, M. Caricato, A. V. Marenich, 
 J. Bloino, B. G. Janesko, R. Gomperts, B. Mennucci, H. P. Hratchian, 
 J. V. Ortiz, A. F. Izmaylov, J. L. Sonnenberg, D. Williams-Young, 
 F. Ding, F. Lipparini, F. Egidi, J. Goings, B. Peng, A. Petrone, 
 T. Henderson, D. Ranasinghe, V. G. Zakrzewski, J. Gao, N. Rega, 
 G. Zheng, W. Liang, M. Hada, M. Ehara, K. Toyota, R. Fukuda, 
 J. Hasegawa, M. Ishida, T. Nakajima, Y. Honda, O. Kitao, H. Nakai, 
 T. Vreven, K. Throssell, J. A. Montgomery, Jr., J. E. Peralta, 
 F. Ogliaro, M. J. Bearpark, J. J. Heyd, E. N. Brothers, K. N. Kudin, 
 V. N. Staroverov, T. A. Keith, R. Kobayashi, J. Normand, 
 K. Raghavachari, A. P. Rendell, J. C. Burant, S. S. Iyengar, 
 J. Tomasi, M. Cossi, J. M. Millam, M. Klene, C. Adamo, R. Cammi, 
 J. W. Ochterski, R. L. Martin, K. Morokuma, O. Farkas, 
 J. B. Foresman, and D. J. Fox, Gaussian, Inc., Wallingford CT, 2016.
 
 ******************************************
 Gaussian 16:  ES64L-G16RevA.03 25-Dec-2016
                18-Jul-2021 
 ******************************************
 %mem=800MB
 %nproc=4
 Will use up to    4 processors via shared memory.
 %chk=SET_328_BBB321_conf1.geo_330_345_315.chk
 ---------------------------------------------------------------
 #p b3lyp/6-31G(d) opt freq scrf=(iefpcm,read,solvent=n-octanol)
 ---------------------------------------------------------------
 1/18=20,19=15,26=3,38=1,40=2/1,3;
 2/9=110,12=2,17=6,18=5,40=1/2;
 3/5=1,6=6,7=1,11=2,25=1,30=1,70=2203,71=1,72=25,74=-5/1,2,3;
 4//1;
 5/5=2,38=5,53=25/2;
 6/7=2,8=2,9=2,10=2,28=1/1;
 7//1,2,3,16;
 1/18=20,19=15,26=3/3(2);
 2/9=110/2;
 99//99;
 2/9=110/2;
 3/5=1,6=6,7=1,11=2,25=1,30=1,70=2205,71=1,72=25,74=-5/1,2,3;
 4/5=5,16=3,69=1/1;
 5/5=2,38=5,53=25/2;
 7//1,2,3,16;
 1/18=20,19=15,26=3/3(-5);
 2/9=110/2;
 6/7=2,8=2,9=2,10=2,19=2,28=1/1;
 99/9=1/99;
 Leave Link    1 at Sun Jul 18 16:19:38 2021, MaxMem=   104857600 cpu:               0.0 elap:               0.0
 (Enter /dades/curu/g16A03_MST/g16/l101.exe)
 ---------------------------------------------
 SET_328_BBB321_conf1.geo_330_345_315 geometry
 ---------------------------------------------
 Symbolic Z-matrix:
 Charge =  1 Multiplicity = 1
 C                    -1.167     2.106    -4.94 
 H                    -2.241     2.282    -4.859 
 H                    -0.888     1.649    -5.891 
 H                    -0.69      3.088    -4.988 
 C                    -0.65      1.318    -3.786 
 O                    -1.436     0.649    -3.145 
 N                     0.636     1.382    -3.41 
 H                     1.166     1.949    -4.054 
 C                     1.327     0.653    -2.355 
 C                     2.631     0.237    -2.637 
 C                     3.354    -0.479    -1.635 
 C                     2.863    -0.641    -0.36 
 H                     3.518    -0.977     0.439 
 H                     4.383    -0.747    -1.86 
 H                     2.979     0.196    -3.665 
 C                     0.767     0.428    -1.076 
 H                    -0.263     0.701    -0.862 
 C                     1.535    -0.227    -0.063 
 C                     1.005    -0.439     1.321 
 N                    -0.134     0.228     1.776 
 C                     1.457    -1.471     2.048 
 H                     2.224    -2.225     1.919 
 S                     0.541    -1.595     3.451 
 C                    -0.567    -0.371     2.876 
 N                    -1.689    -0.166     3.606 
 C                    -2.072    -1.128     4.302 
 N                    -2.412    -0.813     5.492 
 H                    -3.045    -0.032     5.356 
 H                    -2.943    -1.617     5.807 
 N                    -3.309    -1.338     4.084 
 H                    -3.463    -0.449     3.62 
 H                    -3.418    -2.15      3.488 
 H                    -2.181     0.704     3.588 
 
 ITRead=  0  0  0  0  0  0  0  0  0  0  0  0  0  0  0  0  0  0  0  0
 ITRead=  0  0  0  0  0  0  0  0  0  0  0  0  0
 MicOpt= -1 -1 -1 -1 -1 -1 -1 -1 -1 -1 -1 -1 -1 -1 -1 -1 -1 -1 -1 -1
 MicOpt= -1 -1 -1 -1 -1 -1 -1 -1 -1 -1 -1 -1 -1
 NAtoms=     33 NQM=       33 NQMF=       0 NMMI=      0 NMMIF=      0
                NMic=       0 NMicF=      0.
                    Isotopes and Nuclear Properties:
 (Nuclear quadrupole moments (NQMom) in fm**2, nuclear magnetic moments (NMagM)
  in nuclear magnetons)

  Atom         1           2           3           4           5           6           7           8           9          10
 IAtWgt=          12           1           1           1          12          16          14           1          12          12
 AtmWgt=  12.0000000   1.0078250   1.0078250   1.0078250  12.0000000  15.9949146  14.0030740   1.0078250  12.0000000  12.0000000
 NucSpn=           0           1           1           1           0           0           2           1           0           0
 AtZEff=  -0.0000000  -0.0000000  -0.0000000  -0.0000000  -0.0000000  -0.0000000  -0.0000000  -0.0000000  -0.0000000  -0.0000000
 NQMom=    0.0000000   0.0000000   0.0000000   0.0000000   0.0000000   0.0000000   2.0440000   0.0000000   0.0000000   0.0000000
 NMagM=    0.0000000   2.7928460   2.7928460   2.7928460   0.0000000   0.0000000   0.4037610   2.7928460   0.0000000   0.0000000
 AtZNuc=   6.0000000   1.0000000   1.0000000   1.0000000   6.0000000   8.0000000   7.0000000   1.0000000   6.0000000   6.0000000

  Atom        11          12          13          14          15          16          17          18          19          20
 IAtWgt=          12          12           1           1           1          12           1          12          12          14
 AtmWgt=  12.0000000  12.0000000   1.0078250   1.0078250   1.0078250  12.0000000   1.0078250  12.0000000  12.0000000  14.0030740
 NucSpn=           0           0           1           1           1           0           1           0           0           2
 AtZEff=  -0.0000000  -0.0000000  -0.0000000  -0.0000000  -0.0000000  -0.0000000  -0.0000000  -0.0000000  -0.0000000  -0.0000000
 NQMom=    0.0000000   0.0000000   0.0000000   0.0000000   0.0000000   0.0000000   0.0000000   0.0000000   0.0000000   2.0440000
 NMagM=    0.0000000   0.0000000   2.7928460   2.7928460   2.7928460   0.0000000   2.7928460   0.0000000   0.0000000   0.4037610
 AtZNuc=   6.0000000   6.0000000   1.0000000   1.0000000   1.0000000   6.0000000   1.0000000   6.0000000   6.0000000   7.0000000

  Atom        21          22          23          24          25          26          27          28          29          30
 IAtWgt=          12           1          32          12          14          12          14           1           1          14
 AtmWgt=  12.0000000   1.0078250  31.9720718  12.0000000  14.0030740  12.0000000  14.0030740   1.0078250   1.0078250  14.0030740
 NucSpn=           0           1           0           0           2           0           2           1           1           2
 AtZEff=  -0.0000000  -0.0000000  -0.0000000  -0.0000000  -0.0000000  -0.0000000  -0.0000000  -0.0000000  -0.0000000  -0.0000000
 NQMom=    0.0000000   0.0000000   0.0000000   0.0000000   2.0440000   0.0000000   2.0440000   0.0000000   0.0000000   2.0440000
 NMagM=    0.0000000   2.7928460   0.0000000   0.0000000   0.4037610   0.0000000   0.4037610   2.7928460   2.7928460   0.4037610
 AtZNuc=   6.0000000   1.0000000  16.0000000   6.0000000   7.0000000   6.0000000   7.0000000   1.0000000   1.0000000   7.0000000

  Atom        31          32          33
 IAtWgt=           1           1           1
 AtmWgt=   1.0078250   1.0078250   1.0078250
 NucSpn=           1           1           1
 AtZEff=  -0.0000000  -0.0000000  -0.0000000
 NQMom=    0.0000000   0.0000000   0.0000000
 NMagM=    2.7928460   2.7928460   2.7928460
 AtZNuc=   1.0000000   1.0000000   1.0000000
 Leave Link  101 at Sun Jul 18 16:19:39 2021, MaxMem=   104857600 cpu:               0.1 elap:               0.1
 (Enter /dades/curu/g16A03_MST/g16/l103.exe)

 GradGradGradGradGradGradGradGradGradGradGradGradGradGradGradGradGradGrad
 Berny optimization.
 Initialization pass.
                           ----------------------------
                           !    Initial Parameters    !
                           ! (Angstroms and Degrees)  !
 --------------------------                            --------------------------
 ! Name  Definition              Value          Derivative Info.                !
 --------------------------------------------------------------------------------
 ! R1    R(1,2)                  1.0913         estimate D2E/DX2                !
 ! R2    R(1,3)                  1.0914         estimate D2E/DX2                !
 ! R3    R(1,4)                  1.0928         estimate D2E/DX2                !
 ! R4    R(1,5)                  1.4899         estimate D2E/DX2                !
 ! R5    R(5,6)                  1.215          estimate D2E/DX2                !
 ! R6    R(5,7)                  1.3414         estimate D2E/DX2                !
 ! R7    R(7,8)                  1.0085         estimate D2E/DX2                !
 ! R8    R(7,9)                  1.4567         estimate D2E/DX2                !
 ! R9    R(9,10)                 1.3975         estimate D2E/DX2                !
 ! R10   R(9,16)                 1.4142         estimate D2E/DX2                !
 ! R11   R(10,11)                1.4281         estimate D2E/DX2                !
 ! R12   R(10,15)                1.0861         estimate D2E/DX2                !
 ! R13   R(11,12)                1.3758         estimate D2E/DX2                !
 ! R14   R(11,14)                1.0869         estimate D2E/DX2                !
 ! R15   R(12,13)                1.0864         estimate D2E/DX2                !
 ! R16   R(12,18)                1.4224         estimate D2E/DX2                !
 ! R17   R(16,17)                1.0868         estimate D2E/DX2                !
 ! R18   R(16,18)                1.43           estimate D2E/DX2                !
 ! R19   R(18,19)                1.4971         estimate D2E/DX2                !
 ! R20   R(19,20)                1.3962         estimate D2E/DX2                !
 ! R21   R(19,21)                1.3408         estimate D2E/DX2                !
 ! R22   R(20,24)                1.3253         estimate D2E/DX2                !
 ! R23   R(21,22)                1.0833         estimate D2E/DX2                !
 ! R24   R(21,23)                1.6801         estimate D2E/DX2                !
 ! R25   R(23,24)                1.7483         estimate D2E/DX2                !
 ! R26   R(24,25)                1.3542         estimate D2E/DX2                !
 ! R27   R(25,26)                1.2476         estimate D2E/DX2                !
 ! R28   R(25,33)                0.9996         estimate D2E/DX2                !
 ! R29   R(26,27)                1.2771         estimate D2E/DX2                !
 ! R30   R(26,30)                1.2735         estimate D2E/DX2                !
 ! R31   R(27,28)                1.0145         estimate D2E/DX2                !
 ! R32   R(27,29)                1.0137         estimate D2E/DX2                !
 ! R33   R(30,31)                1.0146         estimate D2E/DX2                !
 ! R34   R(30,32)                1.0131         estimate D2E/DX2                !
 ! A1    A(2,1,3)              112.5684         estimate D2E/DX2                !
 ! A2    A(2,1,4)              106.7327         estimate D2E/DX2                !
 ! A3    A(2,1,5)              111.6716         estimate D2E/DX2                !
 ! A4    A(3,1,4)              103.0869         estimate D2E/DX2                !
 ! A5    A(3,1,5)              111.3914         estimate D2E/DX2                !
 ! A6    A(4,1,5)              110.9665         estimate D2E/DX2                !
 ! A7    A(1,5,6)              118.3821         estimate D2E/DX2                !
 ! A8    A(1,5,7)              121.6374         estimate D2E/DX2                !
 ! A9    A(6,5,7)              119.9071         estimate D2E/DX2                !
 ! A10   A(5,7,8)              110.5887         estimate D2E/DX2                !
 ! A11   A(5,7,9)              129.3398         estimate D2E/DX2                !
 ! A12   A(8,7,9)              119.6394         estimate D2E/DX2                !
 ! A13   A(7,9,10)             116.4523         estimate D2E/DX2                !
 ! A14   A(7,9,16)             123.1459         estimate D2E/DX2                !
 ! A15   A(10,9,16)            120.3058         estimate D2E/DX2                !
 ! A16   A(9,10,11)            118.6899         estimate D2E/DX2                !
 ! A17   A(9,10,15)            120.0806         estimate D2E/DX2                !
 ! A18   A(11,10,15)           118.88           estimate D2E/DX2                !
 ! A19   A(10,11,12)           121.9093         estimate D2E/DX2                !
 ! A20   A(10,11,14)           117.2386         estimate D2E/DX2                !
 ! A21   A(12,11,14)           120.0449         estimate D2E/DX2                !
 ! A22   A(11,12,13)           120.185          estimate D2E/DX2                !
 ! A23   A(11,12,18)           119.4996         estimate D2E/DX2                !
 ! A24   A(13,12,18)           119.9564         estimate D2E/DX2                !
 ! A25   A(9,16,17)            120.8888         estimate D2E/DX2                !
 ! A26   A(9,16,18)            120.0561         estimate D2E/DX2                !
 ! A27   A(17,16,18)           118.9818         estimate D2E/DX2                !
 ! A28   A(12,18,16)           119.1313         estimate D2E/DX2                !
 ! A29   A(12,18,19)           118.8383         estimate D2E/DX2                !
 ! A30   A(16,18,19)           121.978          estimate D2E/DX2                !
 ! A31   A(18,19,20)           121.4959         estimate D2E/DX2                !
 ! A32   A(18,19,21)           119.3989         estimate D2E/DX2                !
 ! A33   A(20,19,21)           117.7759         estimate D2E/DX2                !
 ! A34   A(19,20,24)           108.7307         estimate D2E/DX2                !
 ! A35   A(19,21,22)           135.2221         estimate D2E/DX2                !
 ! A36   A(19,21,23)           109.0129         estimate D2E/DX2                !
 ! A37   A(22,21,23)           115.7279         estimate D2E/DX2                !
 ! A38   A(21,23,24)            91.1007         estimate D2E/DX2                !
 ! A39   A(20,24,23)           112.4805         estimate D2E/DX2                !
 ! A40   A(20,24,25)           130.5215         estimate D2E/DX2                !
 ! A41   A(23,24,25)           116.9873         estimate D2E/DX2                !
 ! A42   A(24,25,26)           115.9988         estimate D2E/DX2                !
 ! A43   A(24,25,33)           121.9941         estimate D2E/DX2                !
 ! A44   A(26,25,33)           122.0071         estimate D2E/DX2                !
 ! A45   A(25,26,27)           114.2906         estimate D2E/DX2                !
 ! A46   A(25,26,30)           109.2591         estimate D2E/DX2                !
 ! A47   A(27,26,30)            86.6509         estimate D2E/DX2                !
 ! A48   A(26,27,28)           103.3615         estimate D2E/DX2                !
 ! A49   A(26,27,29)           103.4962         estimate D2E/DX2                !
 ! A50   A(28,27,29)           108.9903         estimate D2E/DX2                !
 ! A51   A(26,30,31)            94.6596         estimate D2E/DX2                !
 ! A52   A(26,30,32)           109.7167         estimate D2E/DX2                !
 ! A53   A(31,30,32)           114.6398         estimate D2E/DX2                !
 ! D1    D(2,1,5,6)             21.1501         estimate D2E/DX2                !
 ! D2    D(2,1,5,7)           -155.7319         estimate D2E/DX2                !
 ! D3    D(3,1,5,6)           -105.662          estimate D2E/DX2                !
 ! D4    D(3,1,5,7)             77.456          estimate D2E/DX2                !
 ! D5    D(4,1,5,6)            140.0999         estimate D2E/DX2                !
 ! D6    D(4,1,5,7)            -36.7821         estimate D2E/DX2                !
 ! D7    D(1,5,7,8)             -4.9588         estimate D2E/DX2                !
 ! D8    D(1,5,7,9)           -177.2517         estimate D2E/DX2                !
 ! D9    D(6,5,7,8)            178.2059         estimate D2E/DX2                !
 ! D10   D(6,5,7,9)              5.9129         estimate D2E/DX2                !
 ! D11   D(5,7,9,10)           141.438          estimate D2E/DX2                !
 ! D12   D(5,7,9,16)           -42.1192         estimate D2E/DX2                !
 ! D13   D(8,7,9,10)           -30.257          estimate D2E/DX2                !
 ! D14   D(8,7,9,16)           146.1858         estimate D2E/DX2                !
 ! D15   D(7,9,10,11)          179.8521         estimate D2E/DX2                !
 ! D16   D(7,9,10,15)          -17.7378         estimate D2E/DX2                !
 ! D17   D(16,9,10,11)           3.3019         estimate D2E/DX2                !
 ! D18   D(16,9,10,15)         165.7119         estimate D2E/DX2                !
 ! D19   D(7,9,16,17)            6.8783         estimate D2E/DX2                !
 ! D20   D(7,9,16,18)         -176.2681         estimate D2E/DX2                !
 ! D21   D(10,9,16,17)        -176.8108         estimate D2E/DX2                !
 ! D22   D(10,9,16,18)           0.0427         estimate D2E/DX2                !
 ! D23   D(9,10,11,12)          -7.2612         estimate D2E/DX2                !
 ! D24   D(9,10,11,14)        -176.9684         estimate D2E/DX2                !
 ! D25   D(15,10,11,12)       -169.8851         estimate D2E/DX2                !
 ! D26   D(15,10,11,14)         20.4078         estimate D2E/DX2                !
 ! D27   D(10,11,12,13)       -165.5422         estimate D2E/DX2                !
 ! D28   D(10,11,12,18)          7.5766         estimate D2E/DX2                !
 ! D29   D(14,11,12,13)          3.8827         estimate D2E/DX2                !
 ! D30   D(14,11,12,18)        177.0014         estimate D2E/DX2                !
 ! D31   D(11,12,18,16)         -3.9709         estimate D2E/DX2                !
 ! D32   D(11,12,18,19)        178.609          estimate D2E/DX2                !
 ! D33   D(13,12,18,16)        169.1638         estimate D2E/DX2                !
 ! D34   D(13,12,18,19)         -8.2563         estimate D2E/DX2                !
 ! D35   D(9,16,18,12)           0.2125         estimate D2E/DX2                !
 ! D36   D(9,16,18,19)         177.5482         estimate D2E/DX2                !
 ! D37   D(17,16,18,12)        177.1258         estimate D2E/DX2                !
 ! D38   D(17,16,18,19)         -5.5385         estimate D2E/DX2                !
 ! D39   D(12,18,19,20)        163.6662         estimate D2E/DX2                !
 ! D40   D(12,18,19,21)        -29.792          estimate D2E/DX2                !
 ! D41   D(16,18,19,20)        -13.677          estimate D2E/DX2                !
 ! D42   D(16,18,19,21)        152.8647         estimate D2E/DX2                !
 ! D43   D(18,19,20,24)        164.7911         estimate D2E/DX2                !
 ! D44   D(21,19,20,24)         -1.9606         estimate D2E/DX2                !
 ! D45   D(18,19,21,22)          5.6841         estimate D2E/DX2                !
 ! D46   D(18,19,21,23)       -171.916          estimate D2E/DX2                !
 ! D47   D(20,19,21,22)        172.7228         estimate D2E/DX2                !
 ! D48   D(20,19,21,23)         -4.8774         estimate D2E/DX2                !
 ! D49   D(19,20,24,23)          7.733          estimate D2E/DX2                !
 ! D50   D(19,20,24,25)       -173.5168         estimate D2E/DX2                !
 ! D51   D(19,21,23,24)          7.5453         estimate D2E/DX2                !
 ! D52   D(22,21,23,24)       -170.5785         estimate D2E/DX2                !
 ! D53   D(21,23,24,20)         -9.1993         estimate D2E/DX2                !
 ! D54   D(21,23,24,25)        171.8668         estimate D2E/DX2                !
 ! D55   D(20,24,25,26)        156.6013         estimate D2E/DX2                !
 ! D56   D(20,24,25,33)        -23.3808         estimate D2E/DX2                !
 ! D57   D(23,24,25,26)        -24.6947         estimate D2E/DX2                !
 ! D58   D(23,24,25,33)        155.3232         estimate D2E/DX2                !
 ! D59   D(24,25,26,27)        135.0626         estimate D2E/DX2                !
 ! D60   D(24,25,26,30)       -129.7856         estimate D2E/DX2                !
 ! D61   D(33,25,26,27)        -44.9553         estimate D2E/DX2                !
 ! D62   D(33,25,26,30)         50.1965         estimate D2E/DX2                !
 ! D63   D(25,26,27,28)         49.84           estimate D2E/DX2                !
 ! D64   D(25,26,27,29)        163.4786         estimate D2E/DX2                !
 ! D65   D(30,26,27,28)        -59.7986         estimate D2E/DX2                !
 ! D66   D(30,26,27,29)         53.84           estimate D2E/DX2                !
 ! D67   D(25,26,30,31)        -14.493          estimate D2E/DX2                !
 ! D68   D(25,26,30,32)        103.7723         estimate D2E/DX2                !
 ! D69   D(27,26,30,31)        100.0925         estimate D2E/DX2                !
 ! D70   D(27,26,30,32)       -141.6422         estimate D2E/DX2                !
 --------------------------------------------------------------------------------
 Trust Radius=3.00D-01 FncErr=1.00D-07 GrdErr=1.00D-06 EigMax=2.50D+02 EigMin=1.00D-04
 Number of steps in this run=    167 maximum allowed number of steps=    198.
 GradGradGradGradGradGradGradGradGradGradGradGradGradGradGradGradGradGrad

 Leave Link  103 at Sun Jul 18 16:19:39 2021, MaxMem=   104857600 cpu:               0.0 elap:               0.0
 (Enter /dades/curu/g16A03_MST/g16/l202.exe)
                          Input orientation:                          
 ---------------------------------------------------------------------
 Center     Atomic      Atomic             Coordinates (Angstroms)
 Number     Number       Type             X           Y           Z
 ---------------------------------------------------------------------
      1          6           0       -1.167000    2.106000   -4.940000
      2          1           0       -2.241000    2.282000   -4.859000
      3          1           0       -0.888000    1.649000   -5.891000
      4          1           0       -0.690000    3.088000   -4.988000
      5          6           0       -0.650000    1.318000   -3.786000
      6          8           0       -1.436000    0.649000   -3.145000
      7          7           0        0.636000    1.382000   -3.410000
      8          1           0        1.166000    1.949000   -4.054000
      9          6           0        1.327000    0.653000   -2.355000
     10          6           0        2.631000    0.237000   -2.637000
     11          6           0        3.354000   -0.479000   -1.635000
     12          6           0        2.863000   -0.641000   -0.360000
     13          1           0        3.518000   -0.977000    0.439000
     14          1           0        4.383000   -0.747000   -1.860000
     15          1           0        2.979000    0.196000   -3.665000
     16          6           0        0.767000    0.428000   -1.076000
     17          1           0       -0.263000    0.701000   -0.862000
     18          6           0        1.535000   -0.227000   -0.063000
     19          6           0        1.005000   -0.439000    1.321000
     20          7           0       -0.134000    0.228000    1.776000
     21          6           0        1.457000   -1.471000    2.048000
     22          1           0        2.224000   -2.225000    1.919000
     23         16           0        0.541000   -1.595000    3.451000
     24          6           0       -0.567000   -0.371000    2.876000
     25          7           0       -1.689000   -0.166000    3.606000
     26          6           0       -2.072000   -1.128000    4.302000
     27          7           0       -2.412000   -0.813000    5.492000
     28          1           0       -3.045000   -0.032000    5.356000
     29          1           0       -2.943000   -1.617000    5.807000
     30          7           0       -3.309000   -1.338000    4.084000
     31          1           0       -3.463000   -0.449000    3.620000
     32          1           0       -3.418000   -2.150000    3.488000
     33          1           0       -2.181000    0.704000    3.588000
 ---------------------------------------------------------------------
                    Distance matrix (angstroms):
                    1          2          3          4          5
     1  C    0.000000
     2  H    1.091335   0.000000
     3  H    1.091371   1.815578   0.000000
     4  H    1.092775   1.752677   1.710361   0.000000
     5  C    1.489949   2.147535   2.144115   2.139931   0.000000
     6  O    2.327495   2.500502   2.973352   3.146726   1.215005
     7  N    2.473032   3.344657   2.923906   2.675593   1.341368
     8  H    2.500507   3.516612   2.771910   2.369475   1.941093
     9  C    3.874722   4.653416   4.289701   4.114633   2.529529
    10  C    4.818898   5.731989   4.996561   4.968344   3.640566
    11  C    6.168038   7.022914   6.374675   6.349806   4.887538
    12  C    6.690539   7.405116   7.064422   6.924423   5.283590
    13  H    7.770956   8.476790   8.147246   7.980214   6.363165
    14  H    6.959059   7.876942   7.055014   7.087097   5.771030
    15  H    4.739519   5.746776   4.692545   4.855466   3.800417
    16  C    4.635357   5.176531   5.235847   4.949969   3.184979
    17  H    4.406963   4.731602   5.155596   4.785810   3.013343
    18  C    6.043908   6.599612   6.584519   6.339990   4.584973
    19  C    7.098925   7.492180   7.743135   7.424031   5.648674
    20  N    7.049725   7.258208   7.833942   7.364810   5.691239
    21  C    8.277225   8.687167   8.846533   8.654443   6.800994
    22  H    8.792174   9.283887   9.256809   9.188363   7.304776
    23  S    9.328641   9.582628   9.991924   9.729469   7.891655
    24  C    8.221033   8.346910   9.002429   8.591991   6.873271
    25  N    8.858249   8.829135   9.702002   9.243557   7.610745
    26  C    9.833227   9.776532  10.630655  10.295080   8.568591
    27  N   10.904000  10.805159  11.745497  11.314304   9.681275
    28  H   10.682020  10.504629  11.574689  11.057973   9.546449
    29  H   11.511425  11.377986  12.317994  11.989373  10.290662
    30  N    9.893527   9.706816  10.690371  10.428318   8.721325
    31  H    9.223516   8.991390  10.074292   9.710693   8.116902
    32  H    9.706272   9.523674  10.430673  10.330596   8.520559
    33  H    8.701758   8.593340   9.613340   9.025204   7.556245
                    6          7          8          9         10
     6  O    0.000000
     7  N    2.213752   0.000000
     8  H    3.047406   1.008526   0.000000
     9  C    2.873723   1.456690   2.142927   0.000000
    10  C    4.119259   2.426639   2.661777   1.397496   0.000000
    11  C    5.147483   3.741854   4.066213   2.430752   1.428072
    12  C    5.282208   4.284222   4.820119   2.830858   2.451415
    13  H    6.327009   5.355895   5.854949   3.906894   3.423790
    14  H    6.120523   4.579864   4.736153   3.397670   2.154412
    15  H    4.468538   2.638422   2.551725   2.157325   1.086080
    16  C    3.030315   2.524843   3.367659   1.414237   2.438790
    17  H    2.567240   2.786443   3.713275   2.181617   3.426537
    18  C    4.369547   3.820928   4.560616   2.463925   2.835840
    19  C    5.204554   5.082771   5.883799   3.848262   4.332045
    20  N    5.107708   5.368353   6.216168   4.402307   5.207675
    21  C    6.311188   6.213165   7.001106   4.890264   5.122964
    22  H    6.877468   6.628004   7.363312   5.230160   5.194635
    23  S    7.242326   7.479631   8.323196   6.275423   6.692389
    24  C    6.168306   6.635813   7.510698   5.656781   6.402346
    25  N    6.804722   7.551568   8.443924   6.730567   7.602622
    26  C    7.682450   8.550340   9.474983   7.683802   8.493006
    27  N    8.814068   9.661984  10.562047   8.815026   9.623668
    28  H    8.678689   9.612071  10.497856   8.890620   9.807007
    29  H    9.356501  10.332296  11.262307   9.487046  10.286298
    30  N    7.727531   8.895025   9.851753   8.180299   9.106924
    31  H    7.146996   8.341179   9.277301   7.736868   8.761135
    32  H    7.467223   8.745990   9.731219   8.031966   8.933297
    33  H    6.774315   7.574112   8.435200   6.901298   7.881882
                   11         12         13         14         15
    11  C    0.000000
    12  C    1.375845   0.000000
    13  H    2.139247   1.086426   0.000000
    14  H    1.086872   2.138138   2.467089   0.000000
    15  H    2.171900   3.411312   4.302240   2.473558   0.000000
    16  C    2.797803   2.459397   3.440531   3.882105   3.413164
    17  H    3.882347   3.438727   4.336386   4.967698   4.315368
    18  C    2.417323   1.422388   2.178714   3.407450   3.903648
    19  C    3.775889   2.513708   2.717082   4.650216   5.400009
    20  N    4.929596   3.781490   4.071449   5.880001   6.268674
    21  C    4.259949   2.909330   2.660947   4.935394   6.142780
    22  H    4.117807   2.848020   2.328592   4.596369   6.132889
    23  S    5.918262   4.563499   4.279789   6.609598   7.732333
    24  C    5.977878   4.723293   4.795147   6.861018   7.461922
    25  N    7.279966   6.056029   6.148208   8.190476   8.648047
    26  C    8.069117   6.806294   6.796593   8.932101   9.525685
    27  N    9.173464   7.880426   7.792599  10.011408  10.673875
    28  H    9.487945   8.243058   8.254870  10.380610  10.849839
    29  H    9.814816   8.526084   8.424342  10.640022  11.317060
    30  N    8.822721   7.637312   7.747533   9.738957  10.096490
    31  H    8.607405   7.476332   7.689727   9.574911   9.746108
    32  H    8.654326   7.518986   7.666839   9.561648   9.878802
    33  H    7.701652   6.545049   6.724624   8.652872   8.915698
                   16         17         18         19         20
    16  C    0.000000
    17  H    1.086842   0.000000
    18  C    1.430041   2.175405   0.000000
    19  C    2.560067   2.770002   1.497097   0.000000
    20  N    2.997617   2.683172   2.524779   1.396150   0.000000
    21  C    3.720440   4.017970   2.451518   1.340842   2.343473
    22  H    4.258084   4.741372   2.897421   2.243515   3.405558
    23  S    4.963601   4.951767   3.899699   2.467495   2.566043
    24  C    4.246912   3.900544   3.616194   2.212201   1.325251
    25  N    5.320329   4.769506   4.884614   3.543076   2.433549
    26  C    6.277256   5.769282   5.733714   4.339241   3.460528
    27  N    7.401672   6.876315   6.839607   5.404906   4.481252
    28  H    7.490899   6.851302   7.097886   5.731437   4.621463
    29  H    8.082191   7.551893   7.512755   6.090861   5.248187
    30  N    6.808681   6.156180   6.472732   5.201247   4.226091
    31  H    6.380787   5.625907   6.212389   5.024791   3.865347
    32  H    6.707489   6.083151   6.390598   5.214052   4.401191
    33  H    5.524471   4.845744   5.291996   4.073860   2.774911
                   21         22         23         24         25
    21  C    0.000000
    22  H    1.083257   0.000000
    23  S    1.680131   2.361443   0.000000
    24  C    2.447889   3.484659   1.748275   0.000000
    25  N    3.745358   4.732549   2.653105   1.354182   0.000000
    26  C    4.201429   5.033658   2.787483   2.207159   1.247617
    27  N    5.221423   6.021011   3.673883   3.231539   2.120928
    28  H    5.769020   6.662175   4.351022   3.522188   2.217925
    29  H    5.788903   6.494929   4.205886   3.973494   2.919301
    30  N    5.184375   6.007336   3.910146   3.148479   2.055838
    31  H    5.265175   6.195930   4.168200   2.991059   1.796486
    32  H    5.128378   5.856582   3.997884   3.415785   2.634316
    33  H    4.509686   5.546948   3.565593   2.065809   0.999644
                   26         27         28         29         30
    26  C    0.000000
    27  N    1.277077   0.000000
    28  H    1.805232   1.014468   0.000000
    29  H    1.806319   1.013707   1.651069   0.000000
    30  N    1.273496   1.750057   1.842096   1.783403   0.000000
    31  H    1.691463   2.177494   1.833660   2.533297   1.014560
    32  H    1.875845   2.610674   2.848592   2.426412   1.013134
    33  H    1.969239   2.445376   2.100956   3.300249   2.384987
                   31         32         33
    31  H    0.000000
    32  H    1.706707   0.000000
    33  H    1.724516   3.112151   0.000000
 Stoichiometry    C12H14N5OS(1+)
 Framework group  C1[X(C12H14N5OS)]
 Deg. of freedom    93
 Full point group                 C1      NOp   1
 Largest Abelian subgroup         C1      NOp   1
 Largest concise Abelian subgroup C1      NOp   1
                         Standard orientation:                         
 ---------------------------------------------------------------------
 Center     Atomic      Atomic             Coordinates (Angstroms)
 Number     Number       Type             X           Y           Z
 ---------------------------------------------------------------------
      1          6           0        5.315260   -2.798860   -0.074532
      2          1           0        5.004095   -3.842747   -0.007530
      3          1           0        6.158017   -2.570162    0.580103
      4          1           0        5.733456   -2.658772   -1.074354
      5          6           0        4.175535   -1.868734    0.161780
      6          8           0        3.203696   -2.286292    0.759620
      7          7           0        4.177218   -0.617059   -0.320478
      8          1           0        5.059168   -0.408696   -0.763056
      9          6           0        3.190084    0.440224   -0.148240
     10          6           0        3.687654    1.735980    0.014359
     11          6           0        2.761535    2.809742    0.183849
     12          6           0        1.404710    2.628525    0.045510
     13          1           0        0.746270    3.486970   -0.053738
     14          1           0        3.171754    3.813522    0.257575
     15          1           0        4.725617    1.889305    0.294883
     16          6           0        1.795550    0.214250   -0.213635
     17          1           0        1.396583   -0.793959   -0.288237
     18          6           0        0.886398    1.313611   -0.114315
     19          6           0       -0.594811    1.130645   -0.231978
     20          7           0       -1.146812   -0.055689   -0.718952
     21          6           0       -1.415641    1.997156    0.378967
     22          1           0       -1.286449    2.920325    0.930795
     23         16           0       -2.992991    1.429693    0.265854
     24          6           0       -2.436292   -0.081612   -0.414226
     25          7           0       -3.357138   -1.062557   -0.567843
     26          6           0       -4.349301   -1.004266    0.186321
     27          7           0       -5.466599   -1.204046   -0.399049
     28          1           0       -5.307135   -2.057629   -0.923562
     29          1           0       -6.102455   -1.400636    0.365569
     30          7           0       -4.522379   -2.137427    0.741102
     31          1           0       -3.904989   -2.634437    0.107742
     32          1           0       -4.201568   -2.100414    1.701389
     33          1           0       -3.248215   -1.789956   -1.244832
 ---------------------------------------------------------------------
 Rotational constants (GHZ):           0.6000587           0.1570474           0.1276048
 Leave Link  202 at Sun Jul 18 16:19:39 2021, MaxMem=   104857600 cpu:               0.0 elap:               0.0
 (Enter /dades/curu/g16A03_MST/g16/l301.exe)
 Standard basis: 6-31G(d) (6D, 7F)
 Ernie: Thresh=  0.10000D-02 Tol=  0.10000D-05 Strict=F.
 There are   317 symmetry adapted cartesian basis functions of A   symmetry.
 There are   317 symmetry adapted basis functions of A   symmetry.
   317 basis functions,   612 primitive gaussians,   317 cartesian basis functions
    72 alpha electrons       72 beta electrons
       nuclear repulsion energy      1470.4218351603 Hartrees.
 IExCor=  402 DFT=T Ex+Corr=B3LYP ExCW=0 ScaHFX=  0.200000
 ScaDFX=  0.800000  0.720000  1.000000  0.810000 ScalE2=  1.000000  1.000000
 IRadAn=      5 IRanWt=     -1 IRanGd=            0 ICorTp=0 IEmpDi=  4
 NAtoms=   33 NActive=   33 NUniq=   33 SFac= 1.00D+00 NAtFMM=   60 NAOKFM=F Big=F
 Integral buffers will be    131072 words long.
 Raffenetti 2 integral format.
 Two-electron integral symmetry is turned on.
 Using the following non-standard input for PCM:
 MSTModel=DFT cav MSTCharged
 --- end of non-standard input.
 MST model for solvation energy: B3LYP parametrization.
 MST cavity parameters:
 ISph   IAn     Re0     Alpha   Atom Type   QCorr
 ------------------------------------------------
   1      6     1.50     1.50      CH3        F
   2      1     1.20     1.50      CH3        F
   3      1     1.20     1.50      CH3        F
   4      1     1.20     1.50      CH3        F
   5      6     1.50     1.50      C          F
   6      8     1.40     1.50      O          F
   7      7     1.50     1.50      NH         F
   8      1     0.90     1.50      NH         F
   9      6     1.50     1.50      C          F
  10      6     1.50     1.50      CH         F
  11      6     1.50     1.50      CH         F
  12      6     1.50     1.50      CH         F
  13      1     1.20     1.50      CH         F
  14      1     1.20     1.50      CH         F
  15      1     1.20     1.50      CH         F
  16      6     1.50     1.50      CH         F
  17      1     1.20     1.50      CH         F
  18      6     1.50     1.50      C          F
  19      6     1.50     1.50      C          F
  20      7     1.50     1.50      Nc         F
  21      6     1.50     1.50      CH         F
  22      1     1.20     1.50      CH         F
  23     16     1.75     1.50      S          F
  24      6     1.50     1.50      C          F
  25      7     1.50     1.15      NH         T
  26      6     1.50     1.15      CN+        T
  27      7     1.50     1.15      NH+        T
  28      1     0.90     1.15      NH+        T
  29      1     0.90     1.15      NH+        T
  30      7     1.50     1.15      NH+        T
  31      1     0.90     1.15      NH+        T
  32      1     0.90     1.15      NH+        T
  33      1     0.90     1.15      NH         T
 ------------------------------------------------------------------------------
 Polarizable Continuum Model (PCM)
 =================================
 Model                : PCM.
 Atomic radii         : MST.
 Polarization charges : Total charges.
 Charge compensation  : None.
 Solution method      : On-the-fly selection.
 Cavity type          : Scaled VdW (van der Waals Surface) (Alpha=1.500).
 Cavity algorithm     : GePol (No added spheres)
                        Default sphere list used, NSphG=   33.
                        Lebedev-Laikov grids with approx.  5.0 points / Ang**2.
                        Smoothing algorithm: York/Karplus (Gamma=1.0000).
                        Polarization charges: spherical gaussians, with
                                              point-specific exponents (IZeta= 3).
                        Self-potential: point-specific (ISelfS= 7).
                        Self-field    : sphere-specific E.n sum rule (ISelfD= 2).
 1st derivatives      : Analytical E(r).r(x)/FMM algorithm (CHGder, D1EAlg=3).
                        Cavity 1st derivative terms included.
 Solvent              : n-Octanol, Eps=   9.862900 Eps(inf)=   2.043470
 ------------------------------------------------------------------------------
 GePol: Number of generator spheres                  =      33
 GePol: Total number of spheres                      =      33
 GePol: Number of exposed spheres                    =      33 (100.00%)
 GePol: Number of points                             =    3024
 GePol: Average weight of points                     =       0.12
 GePol: Minimum weight of points                     =   0.56D-11
 GePol: Maximum weight of points                     =    0.22065
 GePol: Number of points with low weight             =     171
 GePol: Fraction of low-weight points (<1% of avg)   =       5.65%
 GePol: Cavity surface area                          =    347.776 Ang**2
 GePol: Cavity volume                                =    387.760 Ang**3
 Surface areas from nonelectrostatic (unscaled) cavity and vdw tensions:
 Sphere =    1 Type =  CH3 Surf =        5.296 Tension =       -0.183
 Sphere =    2 Type =  CH3 Surf =       10.108 Tension =       -0.183
 Sphere =    3 Type =  CH3 Surf =       10.107 Tension =       -0.183
 Sphere =    4 Type =  CH3 Surf =       10.041 Tension =       -0.183
 Sphere =    5 Type =  C   Surf =        6.393 Tension =       -0.205
 Sphere =    6 Type =  O   Surf =       15.946 Tension =       -0.185
 Sphere =    7 Type =  NH  Surf =        9.950 Tension =       -0.234
 Sphere =    8 Type =  NH  Surf =        3.900 Tension =       -0.234
 Sphere =    9 Type =  C   Surf =        6.340 Tension =       -0.205
 Sphere =   10 Type =  CH  Surf =        7.833 Tension =       -0.195
 Sphere =   11 Type =  CH  Surf =        7.793 Tension =       -0.195
 Sphere =   12 Type =  CH  Surf =        7.662 Tension =       -0.195
 Sphere =   13 Type =  CH  Surf =        9.781 Tension =       -0.195
 Sphere =   14 Type =  CH  Surf =       10.216 Tension =       -0.195
 Sphere =   15 Type =  CH  Surf =       10.204 Tension =       -0.195
 Sphere =   16 Type =  CH  Surf =        7.875 Tension =       -0.195
 Sphere =   17 Type =  CH  Surf =        9.952 Tension =       -0.195
 Sphere =   18 Type =  C   Surf =        6.486 Tension =       -0.205
 Sphere =   19 Type =  C   Surf =        6.058 Tension =       -0.205
 Sphere =   20 Type =  Nc  Surf =       13.045 Tension =       -0.161
 Sphere =   21 Type =  CH  Surf =        7.099 Tension =       -0.195
 Sphere =   22 Type =  CH  Surf =        9.907 Tension =       -0.195
 Sphere =   23 Type =  S   Surf =       22.774 Tension =       -0.186
 Sphere =   24 Type =  C   Surf =        5.490 Tension =       -0.205
 Sphere =   25 Type =  NH  Surf =        8.234 Tension =       -0.234
 Sphere =   26 Type =  CN+ Surf =        5.828 Tension =       -0.227
 Sphere =   27 Type =  NH+ Surf =       12.997 Tension =       -0.274
 Sphere =   28 Type =  NH+ Surf =        3.582 Tension =       -0.274
 Sphere =   29 Type =  NH+ Surf =        3.507 Tension =       -0.274
 Sphere =   30 Type =  NH+ Surf =       12.105 Tension =       -0.274
 Sphere =   31 Type =  NH+ Surf =        3.139 Tension =       -0.274
 Sphere =   32 Type =  NH+ Surf =        3.929 Tension =       -0.274
 Sphere =   33 Type =  NH  Surf =        3.827 Tension =       -0.234
 PCM non-electrostatic energy =        -0.0202407987 Hartrees.
 Nuclear repulsion after PCM non-electrostatic terms =     1470.4015943616 Hartrees.
 Leave Link  301 at Sun Jul 18 16:19:39 2021, MaxMem=   104857600 cpu:               0.1 elap:               0.1
 (Enter /dades/curu/g16A03_MST/g16/l302.exe)
 NPDir=0 NMtPBC=     1 NCelOv=     1 NCel=       1 NClECP=     1 NCelD=      1
         NCelK=      1 NCelE2=     1 NClLst=     1 CellRange=     0.0.
 One-electron integrals computed using PRISM.
 One-electron integral symmetry used in STVInt
 NBasis=   317 RedAO= T EigKep=  6.20D-04  NBF=   317
 NBsUse=   317 1.00D-06 EigRej= -1.00D+00 NBFU=   317
 Precomputing XC quadrature grid using
 IXCGrd= 4 IRadAn=           5 IRanWt=          -1 IRanGd=           0 AccXCQ= 0.00D+00.
 Generated NRdTot=       0 NPtTot=           0 NUsed=           0 NTot=          32
 NSgBfM=   313   313   313   313   313 MxSgAt=    33 MxSgA2=    33.
 Leave Link  302 at Sun Jul 18 16:19:40 2021, MaxMem=   104857600 cpu:               3.7 elap:               1.0
 (Enter /dades/curu/g16A03_MST/g16/l303.exe)
 DipDrv:  MaxL=1.
 Leave Link  303 at Sun Jul 18 16:19:40 2021, MaxMem=   104857600 cpu:               0.1 elap:               0.1
 (Enter /dades/curu/g16A03_MST/g16/l401.exe)
 ExpMin= 1.17D-01 ExpMax= 2.19D+04 ExpMxC= 3.30D+03 IAcc=3 IRadAn=         5 AccDes= 0.00D+00
 Harris functional with IExCor=  402 and IRadAn=       5 diagonalized for initial guess.
 HarFok:  IExCor=  402 AccDes= 0.00D+00 IRadAn=         5 IDoV= 1 UseB2=F ITyADJ=14
 ICtDFT=  3500011 ScaDFX=  1.000000  1.000000  1.000000  1.000000
 FoFCou: FMM=F IPFlag=           0 FMFlag=      100000 FMFlg1=           0
         NFxFlg=           0 DoJE=T BraDBF=F KetDBF=T FulRan=T
         wScrn=  0.000000 ICntrl=       500 IOpCl=  0 I1Cent=   200000004 NGrid=           0
         NMat0=    1 NMatS0=      1 NMatT0=    0 NMatD0=    1 NMtDS0=    0 NMtDT0=    0
 Petite list used in FoFCou.
 Harris En= -1212.26963400918    
 JPrj=0 DoOrth=F DoCkMO=F.
 Leave Link  401 at Sun Jul 18 16:19:46 2021, MaxMem=   104857600 cpu:              25.5 elap:               6.5
 (Enter /dades/curu/g16A03_MST/g16/l502.exe)
 Integral symmetry usage will be decided dynamically.
 Closed shell SCF:
 Using DIIS extrapolation, IDIIS=  1040.
 NGot=   104857600 LenX=   104651201 LenY=   104550271
 Requested convergence on RMS density matrix=1.00D-08 within 128 cycles.
 Requested convergence on MAX density matrix=1.00D-06.
 Requested convergence on             energy=1.00D-06.
 No special actions if energy rises.
 Fock matrices will be formed incrementally for  20 cycles.

 Cycle   1  Pass 1  IDiag  1:
 FoFJK:  IHMeth= 1 ICntrl=       0 DoSepK=F KAlg= 0 I1Cent=           0 FoldK=F
 IRaf= 720000000 NMat=       1 IRICut=       1 DoRegI=T DoRafI=F ISym2E= 0 IDoP0=0 IntGTp=1.
 FoFCou: FMM=F IPFlag=           0 FMFlag=      100000 FMFlg1=           0
         NFxFlg=           0 DoJE=F BraDBF=F KetDBF=F FulRan=T
         wScrn=  0.000000 ICntrl=         0 IOpCl=  0 I1Cent=           0 NGrid=           0
         NMat0=    1 NMatS0=      1 NMatT0=    0 NMatD0=    1 NMtDS0=    0 NMtDT0=    0
 Symmetry not used in FoFCou.
 Inv3:  Mode=1 IEnd=    27433728.
 Iteration    1 A*A^-1 deviation from unit magnitude is 6.00D-15 for   3001.
 Iteration    1 A*A^-1 deviation from orthogonality  is 3.25D-15 for   2559   1517.
 Iteration    1 A^-1*A deviation from unit magnitude is 6.00D-15 for   3001.
 Iteration    1 A^-1*A deviation from orthogonality  is 2.30D-15 for   1972    464.
 E= -1211.85651354686    
 DIIS: error= 2.71D-02 at cycle   1 NSaved=   1.
 NSaved= 1 IEnMin= 1 EnMin= -1211.85651354686     IErMin= 1 ErrMin= 2.71D-02
 ErrMax= 2.71D-02  0.00D+00 EMaxC= 1.00D-01 BMatC= 5.59D-01 BMatP= 5.59D-01
 IDIUse=3 WtCom= 7.29D-01 WtEn= 2.71D-01
 Coeff-Com:  0.100D+01
 Coeff-En:   0.100D+01
 Coeff:      0.100D+01
 Gap=    -0.004 Goal=   None    Shift=    0.000
 GapD=   -0.004 DampG=0.250 DampE=0.500 DampFc=0.2500 IDamp=-1.
 Damping current iteration by 2.50D-01
 RMSDP=7.39D-03 MaxDP=3.72D-01              OVMax= 5.79D-01

 Cycle   2  Pass 1  IDiag  1:
 RMSU=  1.84D-03    CP:  9.90D-01
 E= -1211.99658294933     Delta-E=       -0.140069402473 Rises=F Damp=T
 DIIS: error= 1.51D-02 at cycle   2 NSaved=   2.
 NSaved= 2 IEnMin= 2 EnMin= -1211.99658294933     IErMin= 2 ErrMin= 1.51D-02
 ErrMax= 1.51D-02  0.00D+00 EMaxC= 1.00D-01 BMatC= 1.22D-01 BMatP= 5.59D-01
 IDIUse=3 WtCom= 8.49D-01 WtEn= 1.51D-01
 Coeff-Com: -0.328D+00 0.133D+01
 Coeff-En:   0.151D+00 0.849D+00
 Coeff:     -0.256D+00 0.126D+01
 Gap=    -0.255 Goal=   None    Shift=    0.000
 RMSDP=3.73D-03 MaxDP=1.42D-01 DE=-1.40D-01 OVMax= 7.69D-01

 Cycle   3  Pass 1  IDiag  1:
 RMSU=  3.68D-03    CP:  9.61D-01  1.07D+00
 E= -1211.99263627229     Delta-E=        0.003946677042 Rises=F Damp=F
 DIIS: error= 3.84D-02 at cycle   3 NSaved=   3.
 NSaved= 3 IEnMin= 2 EnMin= -1211.99658294933     IErMin= 2 ErrMin= 1.51D-02
 ErrMax= 3.84D-02  0.00D+00 EMaxC= 1.00D-01 BMatC= 4.28D-01 BMatP= 1.22D-01
 IDIUse=2 WtCom= 0.00D+00 WtEn= 1.00D+00
 EnCoef did     6 forward-backward iterations
 Coeff-En:   0.407D-01 0.466D+00 0.494D+00
 Coeff:      0.407D-01 0.466D+00 0.494D+00
 Gap=     0.017 Goal=   None    Shift=    0.000
 RMSDP=4.77D-03 MaxDP=3.90D-01 DE= 3.95D-03 OVMax= 5.76D-01

 Cycle   4  Pass 1  IDiag  1:
 RMSU=  2.92D-03    CP:  9.64D-01  2.03D+00  9.49D-02
 E= -1210.89628712088     Delta-E=        1.096349151410 Rises=F Damp=F
 DIIS: error= 7.00D-02 at cycle   4 NSaved=   4.
 NSaved= 4 IEnMin= 2 EnMin= -1211.99658294933     IErMin= 2 ErrMin= 1.51D-02
 ErrMax= 7.00D-02  0.00D+00 EMaxC= 1.00D-01 BMatC= 9.84D-01 BMatP= 1.22D-01
 IDIUse=2 WtCom= 0.00D+00 WtEn= 1.00D+00
 EnCoef did     2 forward-backward iterations
 Coeff-En:   0.167D+00 0.000D+00 0.590D+00 0.243D+00
 Coeff:      0.167D+00 0.000D+00 0.590D+00 0.243D+00
 Gap=    -0.067 Goal=   None    Shift=    0.000
 RMSDP=4.14D-03 MaxDP=3.01D-01 DE= 1.10D+00 OVMax= 8.55D-01

 Cycle   5  Pass 1  IDiag  1:
 RMSU=  1.92D-03    CP:  9.81D-01  7.40D-01  2.11D-01  5.53D-02
 E= -1212.26892302641     Delta-E=       -1.372635905527 Rises=F Damp=F
 DIIS: error= 1.33D-02 at cycle   5 NSaved=   5.
 NSaved= 5 IEnMin= 5 EnMin= -1212.26892302641     IErMin= 5 ErrMin= 1.33D-02
 ErrMax= 1.33D-02  0.00D+00 EMaxC= 1.00D-01 BMatC= 1.15D-01 BMatP= 1.22D-01
 IDIUse=3 WtCom= 8.67D-01 WtEn= 1.33D-01
 EnCoef did     3 forward-backward iterations
 Coeff-Com: -0.217D+00 0.605D+00 0.272D+00 0.253D-01 0.314D+00
 Coeff-En:   0.000D+00 0.000D+00 0.279D+00 0.675D-01 0.653D+00
 Coeff:     -0.188D+00 0.524D+00 0.273D+00 0.309D-01 0.359D+00
 Gap=     0.026 Goal=   None    Shift=    0.000
 RMSDP=2.52D-03 MaxDP=1.03D-01 DE=-1.37D+00 OVMax= 3.82D-01

 Cycle   6  Pass 1  IDiag  1:
 RMSU=  1.29D-03    CP:  9.72D-01  8.19D-01  6.68D-01  4.35D-02  3.00D-01
 E= -1212.33694005423     Delta-E=       -0.068017027823 Rises=F Damp=F
 DIIS: error= 1.04D-02 at cycle   6 NSaved=   6.
 NSaved= 6 IEnMin= 6 EnMin= -1212.33694005423     IErMin= 6 ErrMin= 1.04D-02
 ErrMax= 1.04D-02  0.00D+00 EMaxC= 1.00D-01 BMatC= 5.43D-02 BMatP= 1.15D-01
 IDIUse=3 WtCom= 8.96D-01 WtEn= 1.04D-01
 EnCoef did     2 forward-backward iterations
 Coeff-Com: -0.132D+00 0.208D+00 0.475D-02 0.597D-02 0.366D+00 0.547D+00
 Coeff-En:   0.000D+00 0.000D+00 0.000D+00 0.351D-02 0.349D+00 0.647D+00
 Coeff:     -0.118D+00 0.186D+00 0.426D-02 0.572D-02 0.364D+00 0.557D+00
 Gap=     0.024 Goal=   None    Shift=    0.000
 RMSDP=1.11D-03 MaxDP=4.20D-02 DE=-6.80D-02 OVMax= 1.68D-01

 Cycle   7  Pass 1  IDiag  1:
 RMSU=  4.70D-04    CP:  9.78D-01  8.32D-01  4.76D-01 -8.43D-03  6.37D-01
                    CP:  8.08D-01
 E= -1212.38938028513     Delta-E=       -0.052440230900 Rises=F Damp=F
 DIIS: error= 2.28D-03 at cycle   7 NSaved=   7.
 NSaved= 7 IEnMin= 7 EnMin= -1212.38938028513     IErMin= 7 ErrMin= 2.28D-03
 ErrMax= 2.28D-03  0.00D+00 EMaxC= 1.00D-01 BMatC= 2.24D-03 BMatP= 5.43D-02
 IDIUse=3 WtCom= 9.77D-01 WtEn= 2.28D-02
 Coeff-Com: -0.832D-01 0.125D+00-0.340D-01-0.793D-02 0.157D+00 0.261D+00
 Coeff-Com:  0.583D+00
 Coeff-En:   0.000D+00 0.000D+00 0.000D+00 0.000D+00 0.000D+00 0.000D+00
 Coeff-En:   0.100D+01
 Coeff:     -0.813D-01 0.122D+00-0.332D-01-0.775D-02 0.153D+00 0.255D+00
 Coeff:      0.593D+00
 Gap=     0.033 Goal=   None    Shift=    0.000
 RMSDP=2.28D-04 MaxDP=9.12D-03 DE=-5.24D-02 OVMax= 3.04D-02

 Cycle   8  Pass 1  IDiag  1:
 RMSU=  1.46D-04    CP:  9.77D-01  8.33D-01  4.93D-01  3.12D-03  6.36D-01
                    CP:  9.02D-01  7.77D-01
 E= -1212.39059939660     Delta-E=       -0.001219111473 Rises=F Damp=F
 DIIS: error= 1.66D-03 at cycle   8 NSaved=   8.
 NSaved= 8 IEnMin= 8 EnMin= -1212.39059939660     IErMin= 8 ErrMin= 1.66D-03
 ErrMax= 1.66D-03  0.00D+00 EMaxC= 1.00D-01 BMatC= 8.59D-04 BMatP= 2.24D-03
 IDIUse=3 WtCom= 9.83D-01 WtEn= 1.66D-02
 Coeff-Com: -0.989D-03-0.899D-04-0.156D-01 0.213D-02 0.592D-02-0.358D-01
 Coeff-Com:  0.344D+00 0.701D+00
 Coeff-En:   0.000D+00 0.000D+00 0.000D+00 0.000D+00 0.000D+00 0.000D+00
 Coeff-En:   0.254D+00 0.746D+00
 Coeff:     -0.973D-03-0.884D-04-0.153D-01 0.210D-02 0.582D-02-0.352D-01
 Coeff:      0.342D+00 0.702D+00
 Gap=     0.032 Goal=   None    Shift=    0.000
 RMSDP=1.45D-04 MaxDP=6.24D-03 DE=-1.22D-03 OVMax= 2.99D-02

 Cycle   9  Pass 1  IDiag  1:
 RMSU=  6.53D-05    CP:  9.78D-01  8.29D-01  4.71D-01  4.22D-03  6.62D-01
                    CP:  8.88D-01  9.50D-01  8.13D-01
 E= -1212.39140472254     Delta-E=       -0.000805325934 Rises=F Damp=F
 DIIS: error= 1.65D-04 at cycle   9 NSaved=   9.
 NSaved= 9 IEnMin= 9 EnMin= -1212.39140472254     IErMin= 9 ErrMin= 1.65D-04
 ErrMax= 1.65D-04  0.00D+00 EMaxC= 1.00D-01 BMatC= 3.05D-05 BMatP= 8.59D-04
 IDIUse=3 WtCom= 9.98D-01 WtEn= 1.65D-03
 Coeff-Com:  0.306D-02-0.426D-02-0.476D-02 0.115D-02-0.186D-02-0.361D-01
 Coeff-Com:  0.153D+00 0.371D+00 0.519D+00
 Coeff-En:   0.000D+00 0.000D+00 0.000D+00 0.000D+00 0.000D+00 0.000D+00
 Coeff-En:   0.000D+00 0.000D+00 0.100D+01
 Coeff:      0.305D-02-0.425D-02-0.476D-02 0.115D-02-0.186D-02-0.360D-01
 Coeff:      0.153D+00 0.370D+00 0.519D+00
 Gap=     0.033 Goal=   None    Shift=    0.000
 RMSDP=2.94D-05 MaxDP=1.11D-03 DE=-8.05D-04 OVMax= 3.83D-03

 Cycle  10  Pass 1  IDiag  1:
 RMSU=  2.49D-05    CP:  9.78D-01  8.28D-01  4.73D-01  4.38D-03  6.61D-01
                    CP:  8.87D-01  9.46D-01  8.52D-01  8.11D-01
 E= -1212.39142697518     Delta-E=       -0.000022252641 Rises=F Damp=F
 DIIS: error= 1.09D-04 at cycle  10 NSaved=  10.
 NSaved=10 IEnMin=10 EnMin= -1212.39142697518     IErMin=10 ErrMin= 1.09D-04
 ErrMax= 1.09D-04  0.00D+00 EMaxC= 1.00D-01 BMatC= 8.41D-06 BMatP= 3.05D-05
 IDIUse=3 WtCom= 9.99D-01 WtEn= 1.09D-03
 Coeff-Com:  0.178D-02-0.182D-02 0.693D-03 0.299D-03 0.144D-02-0.144D-01
 Coeff-Com:  0.293D-01 0.812D-01 0.297D+00 0.604D+00
 Coeff-En:   0.000D+00 0.000D+00 0.000D+00 0.000D+00 0.000D+00 0.000D+00
 Coeff-En:   0.000D+00 0.000D+00 0.159D+00 0.841D+00
 Coeff:      0.177D-02-0.182D-02 0.692D-03 0.298D-03 0.144D-02-0.143D-01
 Coeff:      0.293D-01 0.811D-01 0.297D+00 0.605D+00
 Gap=     0.033 Goal=   None    Shift=    0.000
 RMSDP=2.39D-05 MaxDP=5.54D-04 DE=-2.23D-05 OVMax= 5.34D-03

 Cycle  11  Pass 1  IDiag  1:
 RMSU=  1.24D-05    CP:  9.78D-01  8.28D-01  4.71D-01  4.26D-03  6.61D-01
                    CP:  8.84D-01  9.63D-01  8.56D-01  1.03D+00  6.58D-01
 E= -1212.39143550300     Delta-E=       -0.000008527825 Rises=F Damp=F
 DIIS: error= 6.07D-05 at cycle  11 NSaved=  11.
 NSaved=11 IEnMin=11 EnMin= -1212.39143550300     IErMin=11 ErrMin= 6.07D-05
 ErrMax= 6.07D-05  0.00D+00 EMaxC= 1.00D-01 BMatC= 2.46D-06 BMatP= 8.41D-06
 IDIUse=1 WtCom= 1.00D+00 WtEn= 0.00D+00
 Coeff-Com:  0.135D-02-0.163D-02 0.107D-02 0.638D-04 0.150D-02-0.695D-02
 Coeff-Com:  0.461D-02 0.171D-01 0.117D+00 0.425D+00 0.440D+00
 Coeff:      0.135D-02-0.163D-02 0.107D-02 0.638D-04 0.150D-02-0.695D-02
 Coeff:      0.461D-02 0.171D-01 0.117D+00 0.425D+00 0.440D+00
 Gap=     0.033 Goal=   None    Shift=    0.000
 RMSDP=6.56D-06 MaxDP=2.78D-04 DE=-8.53D-06 OVMax= 6.42D-04

 Cycle  12  Pass 1  IDiag  1:
 RMSU=  4.59D-06    CP:  9.78D-01  8.28D-01  4.70D-01  4.31D-03  6.62D-01
                    CP:  8.82D-01  9.66D-01  8.62D-01  1.05D+00  7.83D-01
                    CP:  1.03D+00
 E= -1212.39143810423     Delta-E=       -0.000002601231 Rises=F Damp=F
 DIIS: error= 3.45D-05 at cycle  12 NSaved=  12.
 NSaved=12 IEnMin=12 EnMin= -1212.39143810423     IErMin=12 ErrMin= 3.45D-05
 ErrMax= 3.45D-05  0.00D+00 EMaxC= 1.00D-01 BMatC= 4.94D-07 BMatP= 2.46D-06
 IDIUse=1 WtCom= 1.00D+00 WtEn= 0.00D+00
 Coeff-Com:  0.573D-03-0.781D-03 0.731D-03-0.509D-04 0.908D-03-0.805D-03
 Coeff-Com: -0.266D-02-0.391D-02-0.466D-01 0.955D-01 0.149D+00 0.808D+00
 Coeff:      0.573D-03-0.781D-03 0.731D-03-0.509D-04 0.908D-03-0.805D-03
 Coeff:     -0.266D-02-0.391D-02-0.466D-01 0.955D-01 0.149D+00 0.808D+00
 Gap=     0.033 Goal=   None    Shift=    0.000
 RMSDP=7.81D-06 MaxDP=2.04D-04 DE=-2.60D-06 OVMax= 1.57D-03

 Cycle  13  Pass 1  IDiag  1:
 RMSU=  2.24D-06    CP:  9.78D-01  8.27D-01  4.70D-01  4.25D-03  6.62D-01
                    CP:  8.80D-01  9.72D-01  8.67D-01  1.10D+00  8.31D-01
                    CP:  1.38D+00  1.39D+00
 E= -1212.39143884080     Delta-E=       -0.000000736562 Rises=F Damp=F
 DIIS: error= 1.78D-05 at cycle  13 NSaved=  13.
 NSaved=13 IEnMin=13 EnMin= -1212.39143884080     IErMin=13 ErrMin= 1.78D-05
 ErrMax= 1.78D-05  0.00D+00 EMaxC= 1.00D-01 BMatC= 2.22D-07 BMatP= 4.94D-07
 IDIUse=1 WtCom= 1.00D+00 WtEn= 0.00D+00
 Coeff-Com:  0.878D-04-0.178D-03 0.273D-03-0.343D-04-0.223D-04 0.923D-03
 Coeff-Com: -0.782D-03 0.245D-02-0.665D-01-0.476D-01-0.108D+00 0.460D+00
 Coeff-Com:  0.759D+00
 Coeff:      0.878D-04-0.178D-03 0.273D-03-0.343D-04-0.223D-04 0.923D-03
 Coeff:     -0.782D-03 0.245D-02-0.665D-01-0.476D-01-0.108D+00 0.460D+00
 Coeff:      0.759D+00
 Gap=     0.033 Goal=   None    Shift=    0.000
 RMSDP=4.62D-06 MaxDP=1.28D-04 DE=-7.37D-07 OVMax= 6.64D-04

 Cycle  14  Pass 1  IDiag  1:
 RMSU=  1.21D-06    CP:  9.78D-01  8.27D-01  4.70D-01  4.14D-03  6.62D-01
                    CP:  8.79D-01  9.74D-01  8.70D-01  1.13D+00  8.84D-01
                    CP:  1.58D+00  1.85D+00  1.20D+00
 E= -1212.39143920685     Delta-E=       -0.000000366055 Rises=F Damp=F
 DIIS: error= 1.43D-05 at cycle  14 NSaved=  14.
 NSaved=14 IEnMin=14 EnMin= -1212.39143920685     IErMin=14 ErrMin= 1.43D-05
 ErrMax= 1.43D-05  0.00D+00 EMaxC= 1.00D-01 BMatC= 6.61D-08 BMatP= 2.22D-07
 IDIUse=1 WtCom= 1.00D+00 WtEn= 0.00D+00
 Coeff-Com: -0.191D-03 0.276D-03-0.260D-04-0.189D-04-0.277D-03 0.755D-03
 Coeff-Com:  0.114D-02 0.708D-02-0.236D-01-0.398D-01-0.116D+00 0.342D-01
 Coeff-Com:  0.424D+00 0.713D+00
 Coeff:     -0.191D-03 0.276D-03-0.260D-04-0.189D-04-0.277D-03 0.755D-03
 Coeff:      0.114D-02 0.708D-02-0.236D-01-0.398D-01-0.116D+00 0.342D-01
 Coeff:      0.424D+00 0.713D+00
 Gap=     0.033 Goal=   None    Shift=    0.000
 RMSDP=2.47D-06 MaxDP=6.03D-05 DE=-3.66D-07 OVMax= 3.64D-04

 Cycle  15  Pass 1  IDiag  1:
 RMSU=  6.28D-07    CP:  9.78D-01  8.27D-01  4.70D-01  4.04D-03  6.62D-01
                    CP:  8.78D-01  9.75D-01  8.72D-01  1.14D+00  9.01D-01
                    CP:  1.71D+00  2.08D+00  1.48D+00  9.95D-01
 E= -1212.39143931479     Delta-E=       -0.000000107939 Rises=F Damp=F
 DIIS: error= 3.80D-06 at cycle  15 NSaved=  15.
 NSaved=15 IEnMin=15 EnMin= -1212.39143931479     IErMin=15 ErrMin= 3.80D-06
 ErrMax= 3.80D-06  0.00D+00 EMaxC= 1.00D-01 BMatC= 1.04D-08 BMatP= 6.61D-08
 IDIUse=1 WtCom= 1.00D+00 WtEn= 0.00D+00
 Coeff-Com: -0.163D-03 0.237D-03-0.710D-04-0.116D-04-0.177D-03 0.462D-03
 Coeff-Com: -0.123D-03 0.203D-02-0.423D-02-0.116D-01-0.367D-01-0.375D-01
 Coeff-Com:  0.579D-01 0.341D+00 0.688D+00
 Coeff:     -0.163D-03 0.237D-03-0.710D-04-0.116D-04-0.177D-03 0.462D-03
 Coeff:     -0.123D-03 0.203D-02-0.423D-02-0.116D-01-0.367D-01-0.375D-01
 Coeff:      0.579D-01 0.341D+00 0.688D+00
 Gap=     0.033 Goal=   None    Shift=    0.000
 RMSDP=1.16D-06 MaxDP=2.99D-05 DE=-1.08D-07 OVMax= 1.99D-04

 Cycle  16  Pass 1  IDiag  1:
 RMSU=  2.51D-07    CP:  9.78D-01  8.27D-01  4.70D-01  4.00D-03  6.62D-01
                    CP:  8.78D-01  9.76D-01  8.73D-01  1.15D+00  9.07D-01
                    CP:  1.76D+00  2.18D+00  1.59D+00  1.21D+00  1.06D+00
 E= -1212.39143933322     Delta-E=       -0.000000018432 Rises=F Damp=F
 DIIS: error= 2.23D-06 at cycle  16 NSaved=  16.
 NSaved=16 IEnMin=16 EnMin= -1212.39143933322     IErMin=16 ErrMin= 2.23D-06
 ErrMax= 2.23D-06  0.00D+00 EMaxC= 1.00D-01 BMatC= 3.96D-09 BMatP= 1.04D-08
 IDIUse=1 WtCom= 1.00D+00 WtEn= 0.00D+00
 Coeff-Com: -0.101D-03 0.152D-03-0.546D-04-0.529D-05-0.534D-04 0.205D-03
 Coeff-Com: -0.705D-03-0.117D-02 0.289D-02 0.375D-02 0.829D-02-0.258D-01
 Coeff-Com: -0.960D-01-0.175D-02 0.366D+00 0.744D+00
 Coeff:     -0.101D-03 0.152D-03-0.546D-04-0.529D-05-0.534D-04 0.205D-03
 Coeff:     -0.705D-03-0.117D-02 0.289D-02 0.375D-02 0.829D-02-0.258D-01
 Coeff:     -0.960D-01-0.175D-02 0.366D+00 0.744D+00
 Gap=     0.033 Goal=   None    Shift=    0.000
 RMSDP=7.80D-07 MaxDP=1.95D-05 DE=-1.84D-08 OVMax= 1.32D-04

 Cycle  17  Pass 1  IDiag  1:
 RMSU=  1.02D-07    CP:  9.78D-01  8.27D-01  4.70D-01  3.97D-03  6.62D-01
                    CP:  8.78D-01  9.76D-01  8.74D-01  1.16D+00  9.13D-01
                    CP:  1.80D+00  2.25D+00  1.67D+00  1.31D+00  1.31D+00
                    CP:  1.00D+00
 E= -1212.39143934019     Delta-E=       -0.000000006965 Rises=F Damp=F
 DIIS: error= 1.87D-06 at cycle  17 NSaved=  17.
 NSaved=17 IEnMin=17 EnMin= -1212.39143934019     IErMin=17 ErrMin= 1.87D-06
 ErrMax= 1.87D-06  0.00D+00 EMaxC= 1.00D-01 BMatC= 8.92D-10 BMatP= 3.96D-09
 IDIUse=1 WtCom= 1.00D+00 WtEn= 0.00D+00
 Coeff-Com: -0.439D-04 0.653D-04-0.223D-04-0.209D-05-0.240D-05 0.862D-04
 Coeff-Com: -0.619D-03-0.160D-02 0.143D-02 0.459D-02 0.116D-01 0.145D-02
 Coeff-Com: -0.710D-01-0.730D-01 0.508D-01 0.383D+00 0.694D+00
 Coeff:     -0.439D-04 0.653D-04-0.223D-04-0.209D-05-0.240D-05 0.862D-04
 Coeff:     -0.619D-03-0.160D-02 0.143D-02 0.459D-02 0.116D-01 0.145D-02
 Coeff:     -0.710D-01-0.730D-01 0.508D-01 0.383D+00 0.694D+00
 Gap=     0.033 Goal=   None    Shift=    0.000
 RMSDP=3.50D-07 MaxDP=8.73D-06 DE=-6.97D-09 OVMax= 6.42D-05

 Cycle  18  Pass 1  IDiag  1:
 RMSU=  5.72D-08    CP:  9.78D-01  8.27D-01  4.70D-01  3.96D-03  6.62D-01
                    CP:  8.78D-01  9.76D-01  8.74D-01  1.16D+00  9.16D-01
                    CP:  1.81D+00  2.27D+00  1.70D+00  1.37D+00  1.40D+00
                    CP:  1.18D+00  9.17D-01
 E= -1212.39143934143     Delta-E=       -0.000000001239 Rises=F Damp=F
 DIIS: error= 6.28D-07 at cycle  18 NSaved=  18.
 NSaved=18 IEnMin=18 EnMin= -1212.39143934143     IErMin=18 ErrMin= 6.28D-07
 ErrMax= 6.28D-07  0.00D+00 EMaxC= 1.00D-01 BMatC= 1.75D-10 BMatP= 8.92D-10
 IDIUse=1 WtCom= 1.00D+00 WtEn= 0.00D+00
 Coeff-Com: -0.899D-05 0.152D-04-0.271D-05-0.552D-06 0.564D-05 0.902D-06
 Coeff-Com: -0.189D-03-0.598D-03 0.572D-04 0.195D-02 0.344D-02 0.874D-02
 Coeff-Com: -0.177D-01-0.364D-01-0.694D-01-0.211D-02 0.409D+00 0.703D+00
 Coeff:     -0.899D-05 0.152D-04-0.271D-05-0.552D-06 0.564D-05 0.902D-06
 Coeff:     -0.189D-03-0.598D-03 0.572D-04 0.195D-02 0.344D-02 0.874D-02
 Coeff:     -0.177D-01-0.364D-01-0.694D-01-0.211D-02 0.409D+00 0.703D+00
 Gap=     0.033 Goal=   None    Shift=    0.000
 RMSDP=1.48D-07 MaxDP=3.45D-06 DE=-1.24D-09 OVMax= 2.62D-05

 Cycle  19  Pass 1  IDiag  1:
 RMSU=  2.28D-08    CP:  9.78D-01  8.27D-01  4.70D-01  3.95D-03  6.62D-01
                    CP:  8.78D-01  9.77D-01  8.74D-01  1.16D+00  9.17D-01
                    CP:  1.82D+00  2.28D+00  1.71D+00  1.39D+00  1.43D+00
                    CP:  1.23D+00  1.18D+00  9.59D-01
 E= -1212.39143934167     Delta-E=       -0.000000000244 Rises=F Damp=F
 DIIS: error= 1.39D-07 at cycle  19 NSaved=  19.
 NSaved=19 IEnMin=19 EnMin= -1212.39143934167     IErMin=19 ErrMin= 1.39D-07
 ErrMax= 1.39D-07  0.00D+00 EMaxC= 1.00D-01 BMatC= 7.97D-12 BMatP= 1.75D-10
 IDIUse=1 WtCom= 1.00D+00 WtEn= 0.00D+00
 Coeff-Com: -0.927D-06 0.156D-05 0.531D-06-0.108D-06 0.134D-05-0.190D-05
 Coeff-Com: -0.397D-04-0.113D-03-0.351D-03 0.330D-03-0.294D-03 0.456D-02
 Coeff-Com:  0.410D-03-0.430D-02-0.322D-01-0.411D-01 0.109D+00 0.311D+00
 Coeff-Com:  0.653D+00
 Coeff:     -0.927D-06 0.156D-05 0.531D-06-0.108D-06 0.134D-05-0.190D-05
 Coeff:     -0.397D-04-0.113D-03-0.351D-03 0.330D-03-0.294D-03 0.456D-02
 Coeff:      0.410D-03-0.430D-02-0.322D-01-0.411D-01 0.109D+00 0.311D+00
 Coeff:      0.653D+00
 Gap=     0.033 Goal=   None    Shift=    0.000
 RMSDP=1.78D-08 MaxDP=5.79D-07 DE=-2.44D-10 OVMax= 2.89D-06

 Cycle  20  Pass 1  IDiag  1:
 RMSU=  8.72D-09    CP:  9.78D-01  8.27D-01  4.70D-01  3.95D-03  6.62D-01
                    CP:  8.78D-01  9.77D-01  8.74D-01  1.16D+00  9.17D-01
                    CP:  1.82D+00  2.28D+00  1.71D+00  1.39D+00  1.43D+00
                    CP:  1.24D+00  1.21D+00  1.06D+00  9.71D-01
 E= -1212.39143934170     Delta-E=       -0.000000000025 Rises=F Damp=F
 DIIS: error= 3.97D-08 at cycle  20 NSaved=  20.
 NSaved=20 IEnMin=20 EnMin= -1212.39143934170     IErMin=20 ErrMin= 3.97D-08
 ErrMax= 3.97D-08  0.00D+00 EMaxC= 1.00D-01 BMatC= 1.70D-12 BMatP= 7.97D-12
 IDIUse=1 WtCom= 1.00D+00 WtEn= 0.00D+00
 Coeff-Com: -0.628D-07 0.248D-07 0.364D-06-0.467D-07-0.517D-06 0.378D-06
 Coeff-Com:  0.392D-05 0.313D-04-0.210D-03-0.125D-03-0.779D-03 0.823D-03
 Coeff-Com:  0.213D-02 0.335D-02-0.567D-02-0.188D-01-0.413D-02 0.566D-01
 Coeff-Com:  0.373D+00 0.593D+00
 Coeff:     -0.628D-07 0.248D-07 0.364D-06-0.467D-07-0.517D-06 0.378D-06
 Coeff:      0.392D-05 0.313D-04-0.210D-03-0.125D-03-0.779D-03 0.823D-03
 Coeff:      0.213D-02 0.335D-02-0.567D-02-0.188D-01-0.413D-02 0.566D-01
 Coeff:      0.373D+00 0.593D+00
 Gap=     0.033 Goal=   None    Shift=    0.000
 RMSDP=7.92D-09 MaxDP=2.44D-07 DE=-2.55D-11 OVMax= 1.18D-06

 Error on total polarization charges =  0.01475
 SCF Done:  E(RB3LYP) =  -1212.39143934     A.U. after   20 cycles
            NFock= 20  Conv=0.79D-08     -V/T= 2.0058
 KE= 1.205422166130D+03 PE=-5.763330698540D+03 EE= 1.875115498707D+03
 Leave Link  502 at Sun Jul 18 16:24:30 2021, MaxMem=   104857600 cpu:            1101.5 elap:             283.8
 (Enter /dades/curu/g16A03_MST/g16/l601.exe)
 Copying SCF densities to generalized density rwf, IOpCl= 0 IROHF=0.

 **********************************************************************

            Population analysis using the SCF density.

 **********************************************************************

 Orbital symmetries:
       Occupied  (A) (A) (A) (A) (A) (A) (A) (A) (A) (A) (A) (A)
                 (A) (A) (A) (A) (A) (A) (A) (A) (A) (A) (A) (A)
                 (A) (A) (A) (A) (A) (A) (A) (A) (A) (A) (A) (A)
                 (A) (A) (A) (A) (A) (A) (A) (A) (A) (A) (A) (A)
                 (A) (A) (A) (A) (A) (A) (A) (A) (A) (A) (A) (A)
                 (A) (A) (A) (A) (A) (A) (A) (A) (A) (A) (A) (A)
       Virtual   (A) (A) (A) (A) (A) (A) (A) (A) (A) (A) (A) (A)
                 (A) (A) (A) (A) (A) (A) (A) (A) (A) (A) (A) (A)
                 (A) (A) (A) (A) (A) (A) (A) (A) (A) (A) (A) (A)
                 (A) (A) (A) (A) (A) (A) (A) (A) (A) (A) (A) (A)
                 (A) (A) (A) (A) (A) (A) (A) (A) (A) (A) (A) (A)
                 (A) (A) (A) (A) (A) (A) (A) (A) (A) (A) (A) (A)
                 (A) (A) (A) (A) (A) (A) (A) (A) (A) (A) (A) (A)
                 (A) (A) (A) (A) (A) (A) (A) (A) (A) (A) (A) (A)
                 (A) (A) (A) (A) (A) (A) (A) (A) (A) (A) (A) (A)
                 (A) (A) (A) (A) (A) (A) (A) (A) (A) (A) (A) (A)
                 (A) (A) (A) (A) (A) (A) (A) (A) (A) (A) (A) (A)
                 (A) (A) (A) (A) (A) (A) (A) (A) (A) (A) (A) (A)
                 (A) (A) (A) (A) (A) (A) (A) (A) (A) (A) (A) (A)
                 (A) (A) (A) (A) (A) (A) (A) (A) (A) (A) (A) (A)
                 (A) (A) (A) (A) (A) (A) (A) (A) (A) (A) (A) (A)
                 (A) (A) (A) (A) (A) (A) (A) (A) (A) (A) (A) (A)
                 (A) (A) (A) (A) (A) (A) (A) (A) (A) (A) (A) (A)
                 (A) (A) (A) (A) (A) (A) (A) (A) (A) (A) (A) (A)
                 (A) (A) (A) (A) (A) (A) (A) (A) (A) (A) (A) (A)
                 (A) (A) (A) (A) (A) (A) (A) (A) (A) (A) (A) (A)
                 (A) (A) (A) (A) (A)
 The electronic state is 1-A.
 Alpha  occ. eigenvalues --  -88.93723 -19.11050 -14.44497 -14.39987 -14.39403
 Alpha  occ. eigenvalues --  -14.37702 -14.35349 -10.31766 -10.30666 -10.29162
 Alpha  occ. eigenvalues --  -10.25711 -10.25422 -10.23074 -10.22727 -10.21137
 Alpha  occ. eigenvalues --  -10.21013 -10.20837 -10.20642 -10.19477  -8.00027
 Alpha  occ. eigenvalues --   -5.96409  -5.96021  -5.95739  -1.18404  -1.04631
 Alpha  occ. eigenvalues --   -1.02743  -0.97073  -0.93851  -0.92071  -0.86389
 Alpha  occ. eigenvalues --   -0.83385  -0.79723  -0.76978  -0.74613  -0.73600
 Alpha  occ. eigenvalues --   -0.70131  -0.68642  -0.64160  -0.63599  -0.61719
 Alpha  occ. eigenvalues --   -0.59600  -0.57793  -0.57163  -0.56857  -0.54687
 Alpha  occ. eigenvalues --   -0.52655  -0.52127  -0.50712  -0.48703  -0.47587
 Alpha  occ. eigenvalues --   -0.46467  -0.45859  -0.45052  -0.43883  -0.43415
 Alpha  occ. eigenvalues --   -0.42656  -0.41617  -0.40736  -0.39993  -0.38562
 Alpha  occ. eigenvalues --   -0.37170  -0.36702  -0.36304  -0.34465  -0.31429
 Alpha  occ. eigenvalues --   -0.30238  -0.29616  -0.27188  -0.26367  -0.25127
 Alpha  occ. eigenvalues --   -0.24303  -0.22418
 Alpha virt. eigenvalues --   -0.19112  -0.04969  -0.02571  -0.01962   0.00882
 Alpha virt. eigenvalues --    0.03026   0.04889   0.05344   0.08209   0.08842
 Alpha virt. eigenvalues --    0.09954   0.10824   0.11091   0.11598   0.13172
 Alpha virt. eigenvalues --    0.13293   0.14045   0.14198   0.15137   0.16232
 Alpha virt. eigenvalues --    0.17323   0.17945   0.18235   0.19213   0.20335
 Alpha virt. eigenvalues --    0.22195   0.23728   0.25057   0.26205   0.27251
 Alpha virt. eigenvalues --    0.28379   0.30181   0.30729   0.32413   0.32720
 Alpha virt. eigenvalues --    0.33753   0.34681   0.35378   0.36671   0.38560
 Alpha virt. eigenvalues --    0.40253   0.41862   0.43652   0.44957   0.48313
 Alpha virt. eigenvalues --    0.49402   0.49901   0.51813   0.52399   0.52750
 Alpha virt. eigenvalues --    0.53322   0.54211   0.54668   0.54988   0.55689
 Alpha virt. eigenvalues --    0.56552   0.57591   0.58336   0.58973   0.59636
 Alpha virt. eigenvalues --    0.60361   0.60627   0.60864   0.62216   0.63028
 Alpha virt. eigenvalues --    0.64029   0.64505   0.65594   0.66221   0.68309
 Alpha virt. eigenvalues --    0.69046   0.69760   0.70958   0.73143   0.73792
 Alpha virt. eigenvalues --    0.74398   0.75106   0.75746   0.77167   0.79060
 Alpha virt. eigenvalues --    0.79283   0.80108   0.80349   0.81194   0.81831
 Alpha virt. eigenvalues --    0.81965   0.83220   0.84003   0.84559   0.84945
 Alpha virt. eigenvalues --    0.85318   0.86500   0.86954   0.87077   0.88542
 Alpha virt. eigenvalues --    0.89905   0.90322   0.90831   0.91008   0.92058
 Alpha virt. eigenvalues --    0.93046   0.93358   0.94985   0.95564   0.96732
 Alpha virt. eigenvalues --    0.97771   0.98542   0.99355   1.00371   1.01983
 Alpha virt. eigenvalues --    1.04669   1.05742   1.05993   1.08199   1.09785
 Alpha virt. eigenvalues --    1.10353   1.11710   1.13383   1.14007   1.15527
 Alpha virt. eigenvalues --    1.18710   1.20890   1.21834   1.23921   1.26609
 Alpha virt. eigenvalues --    1.28459   1.28868   1.30250   1.31566   1.33106
 Alpha virt. eigenvalues --    1.36152   1.37619   1.39730   1.41495   1.44496
 Alpha virt. eigenvalues --    1.45389   1.48074   1.49825   1.50289   1.51126
 Alpha virt. eigenvalues --    1.53247   1.55763   1.58339   1.61511   1.63146
 Alpha virt. eigenvalues --    1.65462   1.65841   1.69860   1.70266   1.73611
 Alpha virt. eigenvalues --    1.74997   1.75295   1.77492   1.79495   1.79943
 Alpha virt. eigenvalues --    1.81255   1.81667   1.82375   1.84997   1.85381
 Alpha virt. eigenvalues --    1.88538   1.89681   1.91430   1.92152   1.93394
 Alpha virt. eigenvalues --    1.94111   1.96712   1.99170   2.01656   2.02582
 Alpha virt. eigenvalues --    2.04020   2.07403   2.08919   2.09556   2.11353
 Alpha virt. eigenvalues --    2.12441   2.14817   2.15732   2.17565   2.19229
 Alpha virt. eigenvalues --    2.19331   2.20560   2.21012   2.24455   2.24678
 Alpha virt. eigenvalues --    2.27025   2.28283   2.29621   2.31175   2.35609
 Alpha virt. eigenvalues --    2.36483   2.37684   2.39207   2.40927   2.44012
 Alpha virt. eigenvalues --    2.45346   2.47050   2.47546   2.48952   2.49998
 Alpha virt. eigenvalues --    2.54030   2.55678   2.57408   2.60101   2.61225
 Alpha virt. eigenvalues --    2.64870   2.65545   2.67122   2.67684   2.69061
 Alpha virt. eigenvalues --    2.72016   2.74258   2.77250   2.79532   2.81183
 Alpha virt. eigenvalues --    2.83008   2.84785   2.92341   2.92591   2.96735
 Alpha virt. eigenvalues --    2.98355   3.07859   3.11638   3.19027   3.23984
 Alpha virt. eigenvalues --    3.35997   3.73727   3.89540   3.93826   3.99335
 Alpha virt. eigenvalues --    4.05541   4.07079   4.07628   4.09668   4.11789
 Alpha virt. eigenvalues --    4.12431   4.17063   4.20675   4.26977   4.33720
 Alpha virt. eigenvalues --    4.36509   4.41938   4.49657   4.52755   4.70837
          Condensed to atoms (all electrons):
               1          2          3          4          5          6
     1  C    5.343195   0.365926   0.354169   0.340752   0.349737  -0.091100
     2  H    0.365926   0.497823  -0.016854  -0.025913  -0.018779   0.002951
     3  H    0.354169  -0.016854   0.517499  -0.029906  -0.018035   0.000537
     4  H    0.340752  -0.025913  -0.029906   0.560471  -0.027119   0.002846
     5  C    0.349737  -0.018779  -0.018035  -0.027119   4.295786   0.621668
     6  O   -0.091100   0.002951   0.000537   0.002846   0.621668   8.096511
     7  N   -0.120565   0.003547   0.001314   0.006780   0.248060  -0.117832
     8  H    0.002970  -0.000191   0.000374   0.001051  -0.020666   0.004315
     9  C    0.005058  -0.000078  -0.000282   0.000164  -0.016946   0.001526
    10  C   -0.000279   0.000002   0.000022  -0.000016   0.003159   0.000303
    11  C    0.000001  -0.000000  -0.000000   0.000000  -0.000111  -0.000014
    12  C    0.000000  -0.000000  -0.000000  -0.000000   0.000030   0.000012
    13  H    0.000000  -0.000000  -0.000000  -0.000000   0.000000   0.000000
    14  H   -0.000000   0.000000   0.000000   0.000000   0.000000  -0.000000
    15  H   -0.000003   0.000000  -0.000001  -0.000003   0.000214   0.000012
    16  C    0.000350  -0.000002  -0.000001  -0.000029  -0.001547   0.000773
    17  H    0.000184   0.000004   0.000000  -0.000020   0.003212   0.012376
    18  C    0.000004  -0.000000   0.000000  -0.000000   0.000190   0.000386
    19  C   -0.000000   0.000000   0.000000   0.000000  -0.000008  -0.000018
    20  N   -0.000000  -0.000000   0.000000  -0.000000  -0.000000  -0.000000
    21  C   -0.000000  -0.000000  -0.000000   0.000000  -0.000000  -0.000000
    22  H   -0.000000   0.000000  -0.000000   0.000000   0.000000  -0.000000
    23  S    0.000000   0.000000  -0.000000  -0.000000   0.000000   0.000000
    24  C   -0.000000   0.000000  -0.000000   0.000000  -0.000000  -0.000000
    25  N   -0.000000   0.000000   0.000000   0.000000  -0.000000  -0.000000
    26  C   -0.000000  -0.000000   0.000000   0.000000  -0.000000  -0.000000
    27  N   -0.000000   0.000000  -0.000000   0.000000  -0.000000  -0.000000
    28  H   -0.000000   0.000000  -0.000000   0.000000  -0.000000   0.000000
    29  H    0.000000  -0.000000  -0.000000   0.000000   0.000000  -0.000000
    30  N   -0.000000   0.000000  -0.000000   0.000000  -0.000000   0.000000
    31  H   -0.000000   0.000000   0.000000   0.000000  -0.000000  -0.000000
    32  H   -0.000000   0.000000   0.000000   0.000000   0.000000  -0.000000
    33  H   -0.000000   0.000000   0.000000   0.000000  -0.000000  -0.000000
               7          8          9         10         11         12
     1  C   -0.120565   0.002970   0.005058  -0.000279   0.000001   0.000000
     2  H    0.003547  -0.000191  -0.000078   0.000002  -0.000000  -0.000000
     3  H    0.001314   0.000374  -0.000282   0.000022  -0.000000  -0.000000
     4  H    0.006780   0.001051   0.000164  -0.000016   0.000000  -0.000000
     5  C    0.248060  -0.020666  -0.016946   0.003159  -0.000111   0.000030
     6  O   -0.117832   0.004315   0.001526   0.000303  -0.000014   0.000012
     7  N    7.262571   0.297262   0.213773  -0.055862   0.004438   0.000541
     8  H    0.297262   0.377290  -0.022588  -0.003435   0.000093  -0.000007
     9  C    0.213773  -0.022588   4.613202   0.509596  -0.009028  -0.038971
    10  C   -0.055862  -0.003435   0.509596   5.039805   0.500111  -0.039956
    11  C    0.004438   0.000093  -0.009028   0.500111   4.893035   0.525133
    12  C    0.000541  -0.000007  -0.038971  -0.039956   0.525133   5.012828
    13  H    0.000004  -0.000000   0.000136   0.004604  -0.039316   0.354858
    14  H   -0.000128  -0.000003   0.003716  -0.038220   0.357904  -0.037455
    15  H   -0.005193   0.002962  -0.041638   0.356887  -0.034983   0.004485
    16  C   -0.046803   0.003257   0.490226  -0.058369  -0.042671  -0.068580
    17  H   -0.009270  -0.000087  -0.035725   0.005801  -0.000261   0.005409
    18  C    0.002482   0.000033  -0.001913  -0.036595  -0.010758   0.506009
    19  C   -0.000085   0.000001   0.004711   0.000824   0.005868  -0.040712
    20  N   -0.000002  -0.000000   0.000419  -0.000000  -0.000089   0.003937
    21  C    0.000000  -0.000000  -0.000258   0.000052   0.000090  -0.018180
    22  H    0.000000  -0.000000   0.000002  -0.000000   0.000097   0.003118
    23  S   -0.000000   0.000000   0.000018  -0.000002   0.000005   0.000410
    24  C   -0.000000   0.000000  -0.000011   0.000000   0.000001   0.000040
    25  N    0.000000  -0.000000  -0.000000   0.000000  -0.000000   0.000001
    26  C    0.000000  -0.000000   0.000000  -0.000000   0.000000   0.000000
    27  N    0.000000  -0.000000  -0.000000  -0.000000   0.000000  -0.000000
    28  H    0.000000   0.000000   0.000000  -0.000000   0.000000   0.000000
[...]
 Alpha virt. eigenvalues --    3.99407   4.03560   4.14597   4.20143   4.94285
          Condensed to atoms (all electrons):
               1          2          3          4          5          6
     1  C    4.741349   0.368779   0.327972   0.200460  -0.064817  -0.073939
     2  H    0.368779   0.744917  -0.040277  -0.096480  -0.088205   0.017874
     3  H    0.327972  -0.040277   0.718588  -0.066668  -0.034371   0.007581
     4  H    0.200460  -0.096480  -0.066668   1.133352   0.272263  -0.007087
     5  C   -0.064817  -0.088205  -0.034371   0.272263   5.944998   0.094546
     6  O   -0.073939   0.017874   0.007581  -0.007087   0.094546   8.829149
     7  N   -0.018701   0.066934   0.044398  -0.196644   0.054954  -0.100049
     8  H   -0.086966  -0.003109  -0.002317  -0.011493  -0.097710  -0.012027
     9  C    0.136872  -0.012370  -0.015733  -0.044687  -0.805190   0.231838
    10  C   -0.097668   0.002495   0.007437  -0.066858  -0.787401   0.103334
    11  C    0.026494   0.000453   0.001435  -0.000558  -0.007478   0.003885
    12  C   -0.028731   0.000002  -0.000369  -0.012338   0.081181  -0.018844
    13  H   -0.000394  -0.000015  -0.000022   0.000032   0.002027   0.000087
    14  H   -0.000094   0.000003  -0.000004  -0.000005   0.003242  -0.000686
    15  H   -0.000931   0.000110  -0.000015  -0.001511   0.002647   0.005362
    16  C   -0.092238   0.003363  -0.003929   0.064083   0.448977  -0.017382
    17  H    0.011094  -0.001374   0.000683   0.002549   0.164854  -0.069568
    18  C    0.054328   0.000438  -0.001506   0.019264   0.401755  -0.107388
    19  C   -0.000369   0.000208   0.000150   0.000886   0.073271  -0.002414
    20  N    0.002599   0.000258   0.000204  -0.000270  -0.015610  -0.000576
    21  C    0.003765  -0.000032   0.000128   0.000316  -0.006862   0.001571
    22  H    0.000325   0.000009   0.000014   0.000041   0.001162  -0.000113
    23  S   -0.000055  -0.000000  -0.000009   0.000010   0.001426  -0.000026
    24  C    0.000052   0.000556   0.000151  -0.000451  -0.001086  -0.007801
    25  N    0.000513  -0.000050  -0.000002   0.000046  -0.001768   0.001649
    26  C    0.000088  -0.000008   0.000012   0.000004   0.000087  -0.000014
    27  N    0.000009   0.000002  -0.000001   0.000001   0.000046   0.000030
    28  H    0.000006  -0.000001   0.000002   0.000000  -0.000023   0.000018
    29  H    0.000003   0.000001  -0.000000   0.000000   0.000012   0.000000
    30  N   -0.000002  -0.000001  -0.000000   0.000000  -0.000037  -0.000008
    31  H    0.000003   0.000001   0.000000  -0.000001   0.000024  -0.000007
    32  H   -0.000001  -0.000000   0.000000   0.000000  -0.000007  -0.000000
    33  H   -0.000166   0.000033  -0.000034  -0.000003   0.000990  -0.000731
               7          8          9         10         11         12
     1  C   -0.018701  -0.086966   0.136872  -0.097668   0.026494  -0.028731
     2  H    0.066934  -0.003109  -0.012370   0.002495   0.000453   0.000002
     3  H    0.044398  -0.002317  -0.015733   0.007437   0.001435  -0.000369
     4  H   -0.196644  -0.011493  -0.044687  -0.066858  -0.000558  -0.012338
     5  C    0.054954  -0.097710  -0.805190  -0.787401  -0.007478   0.081181
     6  O   -0.100049  -0.012027   0.231838   0.103334   0.003885  -0.018844
     7  N    8.357640   0.238865  -1.629774   1.154045  -0.564251   0.362611
     8  H    0.238865   1.016081   0.194106  -0.075574   0.041074   0.071145
     9  C   -1.629774   0.194106  22.420788  -9.899881   5.278519  -5.068427
    10  C    1.154045  -0.075574  -9.899881  21.234453  -6.261803   4.293217
    11  C   -0.564251   0.041074   5.278519  -6.261803  18.357155  -7.745321
    12  C    0.362611   0.071145  -5.068427   4.293217  -7.745321  28.091231
    13  H    0.011925  -0.004634  -0.137238  -0.073356   0.226102  -1.729045
    14  H   -0.001269   0.008481  -0.519931   0.517767  -1.432246   1.301445
    15  H   -0.243767   0.008090   1.868082  -2.242862   0.622446  -0.508764
    16  C    0.933462  -0.230866  -8.391579   3.360222  -4.311981  -1.818855
    17  H   -0.237023   0.005121   0.565051  -0.291288   0.105463  -0.242440
    18  C   -0.643272  -0.005838   2.218953  -6.098513   1.835051  -9.996694
    19  C    0.103397  -0.013554  -1.528685   0.536885  -0.562570   1.302891
    20  N   -0.011369   0.002456   0.263035  -0.053803   0.058140  -0.098149
    21  C   -0.058843   0.001629   0.729964  -0.428595   0.171273  -2.734255
    22  H   -0.003656   0.000018   0.034493  -0.037182   0.199823   0.330051
    23  S   -0.000853   0.000047   0.011940   0.005935  -0.087484  -0.117987
    24  C    0.009191   0.002214   0.164317  -0.030172   0.072933  -0.135918
    25  N   -0.001284  -0.000109   0.020467   0.012347  -0.019599  -0.026971
    26  C   -0.000271   0.000026   0.007114  -0.000656   0.000868  -0.018897
    27  N   -0.000001   0.000000   0.000579   0.000131  -0.000217  -0.000849
    28  H   -0.000007  -0.000001   0.000376  -0.000117   0.000096  -0.000397
    29  H   -0.000000   0.000000   0.000008   0.000021  -0.000025  -0.000052
    30  N    0.000002  -0.000004   0.000258  -0.000061   0.000150  -0.000174
    31  H   -0.000008   0.000007   0.001015   0.000367  -0.001038  -0.003139
    32  H   -0.000002  -0.000001  -0.000068  -0.000038   0.000075   0.000441
    33  H    0.000211   0.000069  -0.007328   0.000714  -0.000513   0.006272
              13         14         15         16         17         18
     1  C   -0.000394  -0.000094  -0.000931  -0.092238   0.011094   0.054328
     2  H   -0.000015   0.000003   0.000110   0.003363  -0.001374   0.000438
     3  H   -0.000022  -0.000004  -0.000015  -0.003929   0.000683  -0.001506
     4  H    0.000032  -0.000005  -0.001511   0.064083   0.002549   0.019264
     5  C    0.002027   0.003242   0.002647   0.448977   0.164854   0.401755
     6  O    0.000087  -0.000686   0.005362  -0.017382  -0.069568  -0.107388
     7  N    0.011925  -0.001269  -0.243767   0.933462  -0.237023  -0.643272
     8  H   -0.004634   0.008481   0.008090  -0.230866   0.005121  -0.005838
     9  C   -0.137238  -0.519931   1.868082  -8.391579   0.565051   2.218953
    10  C   -0.073356   0.517767  -2.242862   3.360222  -0.291288  -6.098513
    11  C    0.226102  -1.432246   0.622446  -4.311981   0.105463   1.835051
    12  C   -1.729045   1.301445  -0.508764  -1.818855  -0.242440  -9.996694
    13  H    2.165274  -0.098561  -0.005700   0.204362  -0.009560   1.071859
    14  H   -0.098561   1.782966  -0.093916   0.085640   0.008123  -0.048499
    15  H   -0.005700  -0.093916   2.243296   0.029726  -0.017396   0.048068
    16  C    0.204362   0.085640   0.029726  25.432885  -1.697071  -6.914556
    17  H   -0.009560   0.008123  -0.017396  -1.697071   2.679671   0.827489
    18  C    1.071859  -0.048499   0.048068  -6.914556   0.827489  25.745813
    19  C   -0.057626  -0.088297   0.021311   0.233198   0.161141  -8.638414
    20  N    0.000846   0.005677  -0.000419  -0.385301  -0.159969   0.670526
    21  C    0.183545   0.065210  -0.004356  -1.411005   0.018773   3.887961
    22  H   -0.088610   0.000922   0.000578  -0.112273   0.004257  -0.539802
    23  S    0.011527  -0.000884   0.000282   0.091693   0.006462   0.075703
    24  C   -0.024165   0.005049  -0.002328  -0.224942  -0.034877   0.123268
    25  N    0.000681  -0.000321   0.000293   0.024840  -0.029004  -0.082077
    26  C   -0.003747   0.000131  -0.000047  -0.028364  -0.008214   0.002255
    27  N    0.000066  -0.000005   0.000003   0.002466   0.000249   0.002499
    28  H   -0.000028   0.000003  -0.000004   0.000154  -0.000051   0.000467
    29  H   -0.000020  -0.000000   0.000001  -0.000095  -0.000087   0.000038
    30  N    0.000679  -0.000004   0.000001   0.003261   0.001318   0.005200
    31  H   -0.000125  -0.000006   0.000004   0.005042  -0.000024  -0.001247
    32  H    0.000037  -0.000000  -0.000001  -0.000910   0.000010   0.000082
    33  H   -0.000131   0.000013  -0.000004   0.006486  -0.003171  -0.004860
              19         20         21         22         23         24
     1  C   -0.000369   0.002599   0.003765   0.000325  -0.000055   0.000052
     2  H    0.000208   0.000258  -0.000032   0.000009  -0.000000   0.000556
     3  H    0.000150   0.000204   0.000128   0.000014  -0.000009   0.000151
     4  H    0.000886  -0.000270   0.000316   0.000041   0.000010  -0.000451
     5  C    0.073271  -0.015610  -0.006862   0.001162   0.001426  -0.001086
     6  O   -0.002414  -0.000576   0.001571  -0.000113  -0.000026  -0.007801
     7  N    0.103397  -0.011369  -0.058843  -0.003656  -0.000853   0.009191
     8  H   -0.013554   0.002456   0.001629   0.000018   0.000047   0.002214
     9  C   -1.528685   0.263035   0.729964   0.034493   0.011940   0.164317
    10  C    0.536885  -0.053803  -0.428595  -0.037182   0.005935  -0.030172
    11  C   -0.562570   0.058140   0.171273   0.199823  -0.087484   0.072933
    12  C    1.302891  -0.098149  -2.734255   0.330051  -0.117987  -0.135918
    13  H   -0.057626   0.000846   0.183545  -0.088610   0.011527  -0.024165
    14  H   -0.088297   0.005677   0.065210   0.000922  -0.000884   0.005049
    15  H    0.021311  -0.000419  -0.004356   0.000578   0.000282  -0.002328
    16  C    0.233198  -0.385301  -1.411005  -0.112273   0.091693  -0.224942
    17  H    0.161141  -0.159969   0.018773   0.004257   0.006462  -0.034877
    18  C   -8.638414   0.670526   3.887961  -0.539802   0.075703   0.123268
    19  C   26.277977  -1.173635  -8.884016   0.950271  -0.317992  -1.515869
    20  N   -1.173635   8.166974   0.557956  -0.017316   0.044107   0.260644
    21  C   -8.884016   0.557956  14.126501  -0.646336   0.324578  -0.791066
    22  H    0.950271  -0.017316  -0.646336   1.720339  -0.234214   0.039428
    23  S   -0.317992   0.044107   0.324578  -0.234214  15.944691  -0.032918
    24  C   -1.515869   0.260644  -0.791066   0.039428  -0.032918   8.299705
    25  N    0.009615  -0.265689   0.171973  -0.002153  -0.113333  -0.470238
    26  C   -0.394338  -0.260865   0.122893   0.016138   0.006428  -0.295828
    27  N    0.026011   0.019144   0.002316   0.000661  -0.019940   0.099108
    28  H   -0.007176  -0.001856  -0.000211  -0.000021   0.001972  -0.004942
    29  H   -0.000807   0.000821   0.001668   0.000139   0.002696  -0.004265
    30  N    0.028777   0.006302  -0.030032  -0.002602  -0.069714   0.166276
    31  H   -0.012784   0.001629  -0.003748  -0.000021   0.017434   0.037433
    32  H    0.001150   0.001396   0.002256   0.000015   0.006263  -0.044565
    33  H   -0.025710   0.019887   0.002034   0.000161  -0.002398  -0.072395
              25         26         27         28         29         30
     1  C    0.000513   0.000088   0.000009   0.000006   0.000003  -0.000002
     2  H   -0.000050  -0.000008   0.000002  -0.000001   0.000001  -0.000001
     3  H   -0.000002   0.000012  -0.000001   0.000002  -0.000000  -0.000000
     4  H    0.000046   0.000004   0.000001   0.000000   0.000000   0.000000
     5  C   -0.001768   0.000087   0.000046  -0.000023   0.000012  -0.000037
     6  O    0.001649  -0.000014   0.000030   0.000018   0.000000  -0.000008
     7  N   -0.001284  -0.000271  -0.000001  -0.000007  -0.000000   0.000002
     8  H   -0.000109   0.000026   0.000000  -0.000001   0.000000  -0.000004
     9  C    0.020467   0.007114   0.000579   0.000376   0.000008   0.000258
    10  C    0.012347  -0.000656   0.000131  -0.000117   0.000021  -0.000061
    11  C   -0.019599   0.000868  -0.000217   0.000096  -0.000025   0.000150
    12  C   -0.026971  -0.018897  -0.000849  -0.000397  -0.000052  -0.000174
    13  H    0.000681  -0.003747   0.000066  -0.000028  -0.000020   0.000679
    14  H   -0.000321   0.000131  -0.000005   0.000003  -0.000000  -0.000004
    15  H    0.000293  -0.000047   0.000003  -0.000004   0.000001   0.000001
    16  C    0.024840  -0.028364   0.002466   0.000154  -0.000095   0.003261
    17  H   -0.029004  -0.008214   0.000249  -0.000051  -0.000087   0.001318
    18  C   -0.082077   0.002255   0.002499   0.000467   0.000038   0.005200
    19  C    0.009615  -0.394338   0.026011  -0.007176  -0.000807   0.028777
    20  N   -0.265689  -0.260865   0.019144  -0.001856   0.000821   0.006302
    21  C    0.171973   0.122893   0.002316  -0.000211   0.001668  -0.030032
    22  H   -0.002153   0.016138   0.000661  -0.000021   0.000139  -0.002602
    23  S   -0.113333   0.006428  -0.019940   0.001972   0.002696  -0.069714
    24  C   -0.470238  -0.295828   0.099108  -0.004942  -0.004265   0.166276
    25  N    7.753625   0.391173  -0.077225   0.047873   0.026790  -0.162742
    26  C    0.391173   5.793921  -0.013381  -0.077588  -0.125711   0.050768
    27  N   -0.077225  -0.013381   6.434367   0.391573   0.451302  -0.074557
    28  H    0.047873  -0.077588   0.391573   0.746986  -0.141045   0.009255
    29  H    0.026790  -0.125711   0.451302  -0.141045   0.765928  -0.006845
    30  N   -0.162742   0.050768  -0.074557   0.009255  -0.006845   6.358692
    31  H   -0.008461  -0.086885   0.011102  -0.001251   0.001466   0.425232
    32  H    0.025554  -0.050024  -0.020820  -0.000286  -0.001081   0.415459
    33  H    0.453428  -0.192003   0.007199   0.007947  -0.001637   0.017596
              31         32         33
     1  C    0.000003  -0.000001  -0.000166
     2  H    0.000001  -0.000000   0.000033
     3  H    0.000000   0.000000  -0.000034
     4  H   -0.000001   0.000000  -0.000003
     5  C    0.000024  -0.000007   0.000990
     6  O   -0.000007  -0.000000  -0.000731
     7  N   -0.000008  -0.000002   0.000211
     8  H    0.000007  -0.000001   0.000069
     9  C    0.001015  -0.000068  -0.007328
    10  C    0.000367  -0.000038   0.000714
    11  C   -0.001038   0.000075  -0.000513
    12  C   -0.003139   0.000441   0.006272
    13  H   -0.000125   0.000037  -0.000131
    14  H   -0.000006  -0.000000   0.000013
    15  H    0.000004  -0.000001  -0.000004
    16  C    0.005042  -0.000910   0.006486
    17  H   -0.000024   0.000010  -0.003171
    18  C   -0.001247   0.000082  -0.004860
    19  C   -0.012784   0.001150  -0.025710
    20  N    0.001629   0.001396   0.019887
    21  C   -0.003748   0.002256   0.002034
    22  H   -0.000021   0.000015   0.000161
    23  S    0.017434   0.006263  -0.002398
    24  C    0.037433  -0.044565  -0.072395
    25  N   -0.008461   0.025554   0.453428
    26  C   -0.086885  -0.050024  -0.192003
    27  N    0.011102  -0.020820   0.007199
    28  H   -0.001251  -0.000286   0.007947
    29  H    0.001466  -0.001081  -0.001637
    30  N    0.425232   0.415459   0.017596
    31  H    0.676008  -0.123890  -0.002577
    32  H   -0.123890   0.749567   0.002244
    33  H   -0.002577   0.002244   0.842862
 Mulliken charges:
               1
     1  C    0.590361
     2  H    0.035489
     3  H    0.056504
     4  H   -0.188255
     5  C    0.362104
     6  O   -0.878267
     7  N   -0.626592
     8  H   -0.045227
     9  C   -0.086887
    10  C    1.216456
    11  C   -0.006351
    12  C    0.466130
    13  H   -0.646076
    14  H   -0.499943
    15  H   -0.728278
    16  C    0.711487
    17  H   -0.761190
    18  C    2.091649
    19  C   -0.502885
    20  N   -0.637776
    21  C    0.623044
    22  H   -0.614546
    23  S    0.444613
    24  C    0.413496
    25  N   -0.679838
    26  C    1.164935
    27  N   -0.241867
    28  H    0.028274
    29  H    0.030775
    30  N   -0.142443
    31  H    0.068443
    32  H    0.037145
    33  H   -0.054484
 Sum of Mulliken charges =   1.00000
 Mulliken charges with hydrogens summed into heavy atoms:
               1
     1  C    0.494099
     5  C    0.362104
     6  O   -0.878267
     7  N   -0.671819
     9  C   -0.086887
    10  C    0.488178
    11  C   -0.506294
    12  C   -0.179946
    16  C   -0.049703
    18  C    2.091649
    19  C   -0.502885
    20  N   -0.637776
    21  C    0.008498
    23  S    0.444613
    24  C    0.413496
    25  N   -0.734322
    26  C    1.164935
    27  N   -0.182818
    30  N   -0.036855
 Electronic spatial extent (au):  <R**2>=           7824.9656
 Charge=              1.0000 electrons
 Dipole moment (field-independent basis, Debye):
    X=            -15.0147    Y=             -4.0767    Z=              0.2165  Tot=             15.5598
 Quadrupole moment (field-independent basis, Debye-Ang):
   XX=             28.7623   YY=            -87.6605   ZZ=           -116.3739
   XY=             33.1612   XZ=             -3.7837   YZ=              6.0842
 Traceless Quadrupole moment (field-independent basis, Debye-Ang):
   XX=             87.1863   YY=            -29.2364   ZZ=            -57.9499
   XY=             33.1612   XZ=             -3.7837   YZ=              6.0842
 Octapole moment (field-independent basis, Debye-Ang**2):
  XXX=           -361.7127  YYY=            -23.1865  ZZZ=              5.4983  XYY=            -79.2848
  XXY=           -233.2048  XXZ=             35.6994  XZZ=            -43.2655  YZZ=            -30.1873
  YYZ=            -21.2778  XYZ=            -25.9739
 Hexadecapole moment (field-independent basis, Debye-Ang**3):
 XXXX=          -3295.3472 YYYY=          -2085.2084 ZZZZ=           -179.8047 XXXY=            837.1106
 XXXZ=           -209.2117 YYYX=            232.6464 YYYZ=             68.7134 ZZZX=            -14.4766
 ZZZY=             17.0182 XXYY=          -1020.8067 XXZZ=          -1243.8604 YYZZ=           -429.6243
 XXYZ=             78.2898 YYXZ=             80.8111 ZZXY=             16.2808
 N-N= 1.457479918336D+03 E-N=-5.736219241580D+03  KE= 1.205997905534D+03
 Leave Link  601 at Sun Jul 18 20:29:44 2021, MaxMem=   262144000 cpu:               0.5 elap:               0.5
 (Enter /dades/curu/g16A03_MST/g16/l9999.exe)
 1\1\GINC-PIRINEUS10\SP\RMP2-FC\Aug-CC-pVDZ\C12H14N5O1S1(1+)\UBATOR02\1
 8-Jul-2021\0\\#p mp2/aug-cc-pVDZ scf=tight maxdisk=180GB geom=allcheck
 \\SET_328_BBB321_conf1.geo_330_345_315 geometry\\1,1\C,0,-1.1042836309
 ,2.5593429238,-4.5988903948\H,0,-1.519321842,3.5303777904,-4.320925773
 7\H,0,-1.9039188348,1.9862652263,-5.0762348692\H,0,-0.3014514682,2.709
 4338603,-5.3230540137\C,0,-0.6683285995,1.8360124181,-3.3364631161\O,0
 ,-1.4232269157,1.7062094399,-2.3777012823\N,0,0.6146055792,1.344600723
 4,-3.3773891469\H,0,1.1315136893,1.5207857913,-4.2303530367\C,0,1.3183
 363089,0.6123382822,-2.401829159\C,0,2.6265591037,0.2197585777,-2.7180
 35348\C,0,3.3794512742,-0.5056939953,-1.8007258647\C,0,2.8455351351,-0
 .8498597703,-0.5631747136\H,0,3.4425688717,-1.4082398872,0.1491020125\
 H,0,4.3913739349,-0.80063721,-2.0552649585\H,0,3.0518370906,0.48461547
 89,-3.6807844405\C,0,0.7743288725,0.2693684216,-1.1577786457\H,0,-0.23
 19445121,0.5695887592,-0.9087879161\C,0,1.5371471392,-0.4639478027,-0.
 2384191083\C,0,0.9499058033,-0.8212304252,1.0657988\N,0,-0.3066582854,
 -0.3436588702,1.4029230822\C,0,1.5268687815,-1.618866767,2.017714802\H
 ,0,2.4695473681,-2.140295105,1.9790462708\S,0,0.4971677456,-1.78269057
 15,3.4033712485\C,0,-0.6724301481,-0.7596315118,2.5748766531\N,0,-1.85
 51248709,-0.2937496158,3.1491144987\C,0,-2.534165025,-0.8009558504,4.2
 082368247\N,0,-3.3815863381,-0.0103526749,4.8492172592\H,0,-3.40130991
 39,0.9886059794,4.6722983292\H,0,-3.9989424121,-0.3896897741,5.5588890
 39\N,0,-2.3187950836,-2.0569665437,4.6123332692\H,0,-2.0836274375,-2.7
 722809672,3.9322211062\H,0,-2.8203363408,-2.3826136078,5.433879438\H,0
 ,-2.2132950394,0.5690572776,2.7437891545\\Version=ES64L-G16RevA.03\Sta
 te=1-A\HF=-1207.1477118\MP2=-1209.9642976\RMSD=5.894e-09\PG=C01 [X(C12
 H14N5O1S1)]\\@


 The theorems and results in mathematical physics are
 not theorems and results about Nature, but about our
 description of it.
                   --Gerard 't Hooft
 Job cpu time:       0 days  3 hours 12 minutes 34.7 seconds.
 Elapsed time:       0 days  0 hours 59 minutes 13.5 seconds.
 File lengths (MBytes):  RWF=  87356 Int=      0 D2E=      0 Chk=     27 Scr=      1
 Normal termination of Gaussian 16 at Sun Jul 18 20:29:46 2021.
