 Entering Gaussian System, Link 0=g16
 Input=SET_328_BBB288_conf1.geo_210_105_285_OCTANOL.dat
 Output=SET_328_BBB288_conf1.geo_210_105_285_OCTANOL.log
 Initial command:
 /dades/curu/g16A03_MST/g16/l1.exe "/tmp/ubator02/1839575/Gau-224035.inp" -scrdir="/tmp/ubator02/1839575/"
 Entering Link 1 = /dades/curu/g16A03_MST/g16/l1.exe PID=    224037.
  
 Copyright (c) 1988,1990,1992,1993,1995,1998,2003,2009,2016,
            Gaussian, Inc.  All Rights Reserved.
  
 This is part of the Gaussian(R) 16 program.  It is based on
 the Gaussian(R) 09 system (copyright 2009, Gaussian, Inc.),
 the Gaussian(R) 03 system (copyright 2003, Gaussian, Inc.),
 the Gaussian(R) 98 system (copyright 1998, Gaussian, Inc.),
 the Gaussian(R) 94 system (copyright 1995, Gaussian, Inc.),
 the Gaussian 92(TM) system (copyright 1992, Gaussian, Inc.),
 the Gaussian 90(TM) system (copyright 1990, Gaussian, Inc.),
 the Gaussian 88(TM) system (copyright 1988, Gaussian, Inc.),
 the Gaussian 86(TM) system (copyright 1986, Carnegie Mellon
 University), and the Gaussian 82(TM) system (copyright 1983,
 Carnegie Mellon University). Gaussian is a federally registered
 trademark of Gaussian, Inc.
  
 This software contains proprietary and confidential information,
 including trade secrets, belonging to Gaussian, Inc.
  
 This software is provided under written license and may be
 used, copied, transmitted, or stored only in accord with that
 written license.
  
 The following legend is applicable only to US Government
 contracts under FAR:
  
                    RESTRICTED RIGHTS LEGEND
  
 Use, reproduction and disclosure by the US Government is
 subject to restrictions as set forth in subparagraphs (a)
 and (c) of the Commercial Computer Software - Restricted
 Rights clause in FAR 52.227-19.
  
 Gaussian, Inc.
 340 Quinnipiac St., Bldg. 40, Wallingford CT 06492
  
  
 ---------------------------------------------------------------
 Warning -- This program may not be used in any manner that
 competes with the business of Gaussian, Inc. or will provide
 assistance to any competitor of Gaussian, Inc.  The licensee
 of this program is prohibited from giving any competitor of
 Gaussian, Inc. access to this program.  By using this program,
 the user acknowledges that Gaussian, Inc. is engaged in the
 business of creating and licensing software in the field of
 computational chemistry and represents and warrants to the
 licensee that it is not a competitor of Gaussian, Inc. and that
 it will not use this program in any manner prohibited above.
 ---------------------------------------------------------------
  

 Cite this work as:
 Gaussian 16, Revision A.03,
 M. J. Frisch, G. W. Trucks, H. B. Schlegel, G. E. Scuseria, 
 M. A. Robb, J. R. Cheeseman, G. Scalmani, V. Barone, 
 G. A. Petersson, H. Nakatsuji, X. Li, M. Caricato, A. V. Marenich, 
 J. Bloino, B. G. Janesko, R. Gomperts, B. Mennucci, H. P. Hratchian, 
 J. V. Ortiz, A. F. Izmaylov, J. L. Sonnenberg, D. Williams-Young, 
 F. Ding, F. Lipparini, F. Egidi, J. Goings, B. Peng, A. Petrone, 
 T. Henderson, D. Ranasinghe, V. G. Zakrzewski, J. Gao, N. Rega, 
 G. Zheng, W. Liang, M. Hada, M. Ehara, K. Toyota, R. Fukuda, 
 J. Hasegawa, M. Ishida, T. Nakajima, Y. Honda, O. Kitao, H. Nakai, 
 T. Vreven, K. Throssell, J. A. Montgomery, Jr., J. E. Peralta, 
 F. Ogliaro, M. J. Bearpark, J. J. Heyd, E. N. Brothers, K. N. Kudin, 
 V. N. Staroverov, T. A. Keith, R. Kobayashi, J. Normand, 
 K. Raghavachari, A. P. Rendell, J. C. Burant, S. S. Iyengar, 
 J. Tomasi, M. Cossi, J. M. Millam, M. Klene, C. Adamo, R. Cammi, 
 J. W. Ochterski, R. L. Martin, K. Morokuma, O. Farkas, 
 J. B. Foresman, and D. J. Fox, Gaussian, Inc., Wallingford CT, 2016.
 
 ******************************************
 Gaussian 16:  ES64L-G16RevA.03 25-Dec-2016
                18-Jul-2021 
 ******************************************
 %mem=800MB
 %nproc=4
 Will use up to    4 processors via shared memory.
 %chk=SET_328_BBB288_conf1.geo_210_105_285.chk
 ---------------------------------------------------------------
 #p b3lyp/6-31G(d) opt freq scrf=(iefpcm,read,solvent=n-octanol)
 ---------------------------------------------------------------
 1/18=20,19=15,26=3,38=1,40=2/1,3;
 2/9=110,12=2,17=6,18=5,40=1/2;
 3/5=1,6=6,7=1,11=2,25=1,30=1,70=2203,71=1,72=25,74=-5/1,2,3;
 4//1;
 5/5=2,38=5,53=25/2;
 6/7=2,8=2,9=2,10=2,28=1/1;
 7//1,2,3,16;
 1/18=20,19=15,26=3/3(2);
 2/9=110/2;
 99//99;
 2/9=110/2;
 3/5=1,6=6,7=1,11=2,25=1,30=1,70=2205,71=1,72=25,74=-5/1,2,3;
 4/5=5,16=3,69=1/1;
 5/5=2,38=5,53=25/2;
 7//1,2,3,16;
 1/18=20,19=15,26=3/3(-5);
 2/9=110/2;
 6/7=2,8=2,9=2,10=2,19=2,28=1/1;
 99/9=1/99;
 Leave Link    1 at Sun Jul 18 13:45:50 2021, MaxMem=   104857600 cpu:               0.0 elap:               0.0
 (Enter /dades/curu/g16A03_MST/g16/l101.exe)
 ---------------------------------------------
 SET_328_BBB288_conf1.geo_210_105_285 geometry
 ---------------------------------------------
 Symbolic Z-matrix:
 Charge = -1 Multiplicity = 1
 C                     1.201    -4.043     0.795 
 H                     1.539    -4.046    -0.244 
 H                     0.25     -4.569     0.685 
 H                     1.719    -4.759     1.436 
 C                     1.014    -2.684     1.442 
 C                     1.571    -2.421     2.772 
 N                     1.393    -1.161     3.206 
 C                     0.783    -0.202     2.558 
 O                     0.8       0.918     3.033 
 O                     2.141    -3.167     3.472 
 C                     0.44     -1.708     0.707 
 H                     0.125    -1.759    -0.328 
 N                     0.297    -0.444     1.345 
 C                    -0.241     0.688     0.576 
 O                    -1.34      0.177    -0.328 
 C                    -1.223     0.828    -1.615 
 C                    -2.522     1.586    -2.162 
 O                    -3.636     0.82     -2.682 
 H                    -4.154     1.371    -3.296 
 H                    -2.135     2.295    -2.898 
 H                    -2.917     2.234    -1.376 
 H                    -0.9       0.095    -2.36 
 H                    -0.682     1.451     1.234 
 C                     0.767     1.239    -0.403 
 H                     1.394     0.412    -0.745 
 H                     1.568     1.885    -0.037 
 C                    -0.054     1.85     -1.504 
 H                     0.53      1.861    -2.428 
 N                    -0.439     3.194    -1.074 
 N                     0.22      4.082    -1.654 
 N                     0.63      4.956    -2.21 
 
 ITRead=  0  0  0  0  0  0  0  0  0  0  0  0  0  0  0  0  0  0  0  0
 ITRead=  0  0  0  0  0  0  0  0  0  0  0
 MicOpt= -1 -1 -1 -1 -1 -1 -1 -1 -1 -1 -1 -1 -1 -1 -1 -1 -1 -1 -1 -1
 MicOpt= -1 -1 -1 -1 -1 -1 -1 -1 -1 -1 -1
 NAtoms=     31 NQM=       31 NQMF=       0 NMMI=      0 NMMIF=      0
                NMic=       0 NMicF=      0.
                    Isotopes and Nuclear Properties:
 (Nuclear quadrupole moments (NQMom) in fm**2, nuclear magnetic moments (NMagM)
  in nuclear magnetons)

  Atom         1           2           3           4           5           6           7           8           9          10
 IAtWgt=          12           1           1           1          12          12          14          12          16          16
 AtmWgt=  12.0000000   1.0078250   1.0078250   1.0078250  12.0000000  12.0000000  14.0030740  12.0000000  15.9949146  15.9949146
 NucSpn=           0           1           1           1           0           0           2           0           0           0
 AtZEff=  -0.0000000  -0.0000000  -0.0000000  -0.0000000  -0.0000000  -0.0000000  -0.0000000  -0.0000000  -0.0000000  -0.0000000
 NQMom=    0.0000000   0.0000000   0.0000000   0.0000000   0.0000000   0.0000000   2.0440000   0.0000000   0.0000000   0.0000000
 NMagM=    0.0000000   2.7928460   2.7928460   2.7928460   0.0000000   0.0000000   0.4037610   0.0000000   0.0000000   0.0000000
 AtZNuc=   6.0000000   1.0000000   1.0000000   1.0000000   6.0000000   6.0000000   7.0000000   6.0000000   8.0000000   8.0000000

  Atom        11          12          13          14          15          16          17          18          19          20
 IAtWgt=          12           1          14          12          16          12          12          16           1           1
 AtmWgt=  12.0000000   1.0078250  14.0030740  12.0000000  15.9949146  12.0000000  12.0000000  15.9949146   1.0078250   1.0078250
 NucSpn=           0           1           2           0           0           0           0           0           1           1
 AtZEff=  -0.0000000  -0.0000000  -0.0000000  -0.0000000  -0.0000000  -0.0000000  -0.0000000  -0.0000000  -0.0000000  -0.0000000
 NQMom=    0.0000000   0.0000000   2.0440000   0.0000000   0.0000000   0.0000000   0.0000000   0.0000000   0.0000000   0.0000000
 NMagM=    0.0000000   2.7928460   0.4037610   0.0000000   0.0000000   0.0000000   0.0000000   0.0000000   2.7928460   2.7928460
 AtZNuc=   6.0000000   1.0000000   7.0000000   6.0000000   8.0000000   6.0000000   6.0000000   8.0000000   1.0000000   1.0000000

  Atom        21          22          23          24          25          26          27          28          29          30
 IAtWgt=           1           1           1          12           1           1          12           1          14          14
 AtmWgt=   1.0078250   1.0078250   1.0078250  12.0000000   1.0078250   1.0078250  12.0000000   1.0078250  14.0030740  14.0030740
 NucSpn=           1           1           1           0           1           1           0           1           2           2
 AtZEff=  -0.0000000  -0.0000000  -0.0000000  -0.0000000  -0.0000000  -0.0000000  -0.0000000  -0.0000000  -0.0000000  -0.0000000
 NQMom=    0.0000000   0.0000000   0.0000000   0.0000000   0.0000000   0.0000000   0.0000000   0.0000000   2.0440000   2.0440000
 NMagM=    2.7928460   2.7928460   2.7928460   0.0000000   2.7928460   2.7928460   0.0000000   2.7928460   0.4037610   0.4037610
 AtZNuc=   1.0000000   1.0000000   1.0000000   6.0000000   1.0000000   1.0000000   6.0000000   1.0000000   7.0000000   7.0000000

  Atom        31
 IAtWgt=          14
 AtmWgt=  14.0030740
 NucSpn=           2
 AtZEff=  -0.0000000
 NQMom=    2.0440000
 NMagM=    0.4037610
 AtZNuc=   7.0000000
 Leave Link  101 at Sun Jul 18 13:45:50 2021, MaxMem=   104857600 cpu:               0.1 elap:               0.1
 (Enter /dades/curu/g16A03_MST/g16/l103.exe)

 GradGradGradGradGradGradGradGradGradGradGradGradGradGradGradGradGradGrad
 Berny optimization.
 Initialization pass.
                           ----------------------------
                           !    Initial Parameters    !
                           ! (Angstroms and Degrees)  !
 --------------------------                            --------------------------
 ! Name  Definition              Value          Derivative Info.                !
 --------------------------------------------------------------------------------
 ! R1    R(1,2)                  1.0926         estimate D2E/DX2                !
 ! R2    R(1,3)                  1.0923         estimate D2E/DX2                !
 ! R3    R(1,4)                  1.0917         estimate D2E/DX2                !
 ! R4    R(1,5)                  1.5167         estimate D2E/DX2                !
 ! R5    R(5,6)                  1.4657         estimate D2E/DX2                !
 ! R6    R(5,11)                 1.3499         estimate D2E/DX2                !
 ! R7    R(6,7)                  1.3445         estimate D2E/DX2                !
 ! R8    R(6,10)                 1.1711         estimate D2E/DX2                !
 ! R9    R(7,8)                  1.3083         estimate D2E/DX2                !
 ! R10   R(8,9)                  1.2167         estimate D2E/DX2                !
 ! R11   R(8,13)                 1.329          estimate D2E/DX2                !
 ! R12   R(11,12)                1.0831         estimate D2E/DX2                !
 ! R13   R(11,13)                1.4231         estimate D2E/DX2                !
 ! R14   R(13,14)                1.4705         estimate D2E/DX2                !
 ! R15   R(14,15)                1.512          estimate D2E/DX2                !
 ! R16   R(14,23)                1.0998         estimate D2E/DX2                !
 ! R17   R(14,24)                1.5093         estimate D2E/DX2                !
 ! R18   R(15,16)                1.447          estimate D2E/DX2                !
 ! R19   R(16,17)                1.6004         estimate D2E/DX2                !
 ! R20   R(16,22)                1.0939         estimate D2E/DX2                !
 ! R21   R(16,27)                1.5567         estimate D2E/DX2                !
 ! R22   R(17,18)                1.4485         estimate D2E/DX2                !
 ! R23   R(17,20)                1.0928         estimate D2E/DX2                !
 ! R24   R(17,21)                1.0926         estimate D2E/DX2                !
 ! R25   R(18,19)                0.9741         estimate D2E/DX2                !
 ! R26   R(24,25)                1.0927         estimate D2E/DX2                !
 ! R27   R(24,26)                1.0922         estimate D2E/DX2                !
 ! R28   R(24,27)                1.5032         estimate D2E/DX2                !
 ! R29   R(27,28)                1.0931         estimate D2E/DX2                !
 ! R30   R(27,29)                1.4627         estimate D2E/DX2                !
 ! R31   R(29,30)                1.2487         estimate D2E/DX2                !
 ! R32   R(30,31)                1.1141         estimate D2E/DX2                !
 ! A1    A(2,1,3)               99.9184         estimate D2E/DX2                !
 ! A2    A(2,1,4)              114.1897         estimate D2E/DX2                !
 ! A3    A(2,1,5)              116.5034         estimate D2E/DX2                !
 ! A4    A(3,1,4)               98.9981         estimate D2E/DX2                !
 ! A5    A(3,1,5)              111.5358         estimate D2E/DX2                !
 ! A6    A(4,1,5)              113.3083         estimate D2E/DX2                !
 ! A7    A(1,5,6)              120.0662         estimate D2E/DX2                !
 ! A8    A(1,5,11)             117.9035         estimate D2E/DX2                !
 ! A9    A(6,5,11)             121.7301         estimate D2E/DX2                !
 ! A10   A(5,6,7)              114.2525         estimate D2E/DX2                !
 ! A11   A(5,6,10)             127.811          estimate D2E/DX2                !
 ! A12   A(7,6,10)             117.9357         estimate D2E/DX2                !
 ! A13   A(6,7,8)              126.0712         estimate D2E/DX2                !
 ! A14   A(7,8,9)              118.3513         estimate D2E/DX2                !
 ! A15   A(7,8,13)             119.2819         estimate D2E/DX2                !
 ! A16   A(9,8,13)             121.9432         estimate D2E/DX2                !
 ! A17   A(5,11,12)            127.5846         estimate D2E/DX2                !
 ! A18   A(5,11,13)            116.1554         estimate D2E/DX2                !
 ! A19   A(12,11,13)           116.1689         estimate D2E/DX2                !
 ! A20   A(8,13,11)            122.2893         estimate D2E/DX2                !
 ! A21   A(8,13,14)            118.0962         estimate D2E/DX2                !
 ! A22   A(11,13,14)           119.0831         estimate D2E/DX2                !
 ! A23   A(13,14,15)           108.5684         estimate D2E/DX2                !
 ! A24   A(13,14,23)           111.5858         estimate D2E/DX2                !
 ! A25   A(13,14,24)           112.08           estimate D2E/DX2                !
 ! A26   A(15,14,23)           107.5005         estimate D2E/DX2                !
 ! A27   A(15,14,24)           102.7675         estimate D2E/DX2                !
 ! A28   A(23,14,24)           113.74           estimate D2E/DX2                !
 ! A29   A(14,15,16)           108.7204         estimate D2E/DX2                !
 ! A30   A(15,16,17)           116.8372         estimate D2E/DX2                !
 ! A31   A(15,16,22)           109.1562         estimate D2E/DX2                !
 ! A32   A(15,16,27)           107.0171         estimate D2E/DX2                !
 ! A33   A(17,16,22)           108.921          estimate D2E/DX2                !
 ! A34   A(17,16,27)           108.8414         estimate D2E/DX2                !
 ! A35   A(22,16,27)           105.4704         estimate D2E/DX2                !
 ! A36   A(16,17,18)           119.7672         estimate D2E/DX2                !
 ! A37   A(16,17,20)           104.4807         estimate D2E/DX2                !
 ! A38   A(16,17,21)           109.1763         estimate D2E/DX2                !
 ! A39   A(18,17,20)           111.9428         estimate D2E/DX2                !
 ! A40   A(18,17,21)           107.089          estimate D2E/DX2                !
 ! A41   A(20,17,21)           103.1651         estimate D2E/DX2                !
 ! A42   A(17,18,19)           109.6404         estimate D2E/DX2                !
 ! A43   A(14,24,25)           108.0549         estimate D2E/DX2                !
 ! A44   A(14,24,26)           119.2324         estimate D2E/DX2                !
 ! A45   A(14,24,27)           104.9937         estimate D2E/DX2                !
 ! A46   A(25,24,26)            97.5683         estimate D2E/DX2                !
 ! A47   A(25,24,27)           113.0655         estimate D2E/DX2                !
 ! A48   A(26,24,27)           113.9281         estimate D2E/DX2                !
 ! A49   A(16,27,24)           101.275          estimate D2E/DX2                !
 ! A50   A(16,27,28)           110.3356         estimate D2E/DX2                !
 ! A51   A(16,27,29)           115.2483         estimate D2E/DX2                !
 ! A52   A(24,27,28)           109.3548         estimate D2E/DX2                !
 ! A53   A(24,27,29)           107.5732         estimate D2E/DX2                !
 ! A54   A(28,27,29)           112.3254         estimate D2E/DX2                !
 ! A55   A(27,29,30)           112.2085         estimate D2E/DX2                !
 ! A56   L(29,30,31,28,-1)     185.1303         estimate D2E/DX2                !
 ! A57   L(29,30,31,28,-2)     169.8067         estimate D2E/DX2                !
 ! D1    D(2,1,5,6)           -132.4009         estimate D2E/DX2                !
 ! D2    D(2,1,5,11)            41.417          estimate D2E/DX2                !
 ! D3    D(3,1,5,6)            113.7892         estimate D2E/DX2                !
 ! D4    D(3,1,5,11)           -72.3929         estimate D2E/DX2                !
 ! D5    D(4,1,5,6)              3.1119         estimate D2E/DX2                !
 ! D6    D(4,1,5,11)           176.9298         estimate D2E/DX2                !
 ! D7    D(1,5,6,7)            176.934          estimate D2E/DX2                !
 ! D8    D(1,5,6,10)            -2.7504         estimate D2E/DX2                !
 ! D9    D(11,5,6,7)             3.3584         estimate D2E/DX2                !
 ! D10   D(11,5,6,10)         -176.326          estimate D2E/DX2                !
 ! D11   D(1,5,11,12)           -2.9145         estimate D2E/DX2                !
 ! D12   D(1,5,11,13)         -179.2867         estimate D2E/DX2                !
 ! D13   D(6,5,11,12)          170.7946         estimate D2E/DX2                !
 ! D14   D(6,5,11,13)           -5.5776         estimate D2E/DX2                !
 ! D15   D(5,6,7,8)              0.2604         estimate D2E/DX2                !
 ! D16   D(10,6,7,8)           179.9782         estimate D2E/DX2                !
 ! D17   D(6,7,8,9)           -173.8668         estimate D2E/DX2                !
 ! D18   D(6,7,8,13)            -1.1885         estimate D2E/DX2                !
 ! D19   D(7,8,13,11)           -1.3539         estimate D2E/DX2                !
 ! D20   D(7,8,13,14)         -172.9094         estimate D2E/DX2                !
 ! D21   D(9,8,13,11)          171.0513         estimate D2E/DX2                !
 ! D22   D(9,8,13,14)           -0.5043         estimate D2E/DX2                !
 ! D23   D(5,11,13,8)            4.661          estimate D2E/DX2                !
 ! D24   D(5,11,13,14)         176.1363         estimate D2E/DX2                !
 ! D25   D(12,11,13,8)        -172.1362         estimate D2E/DX2                !
 ! D26   D(12,11,13,14)         -0.6609         estimate D2E/DX2                !
 ! D27   D(8,13,14,15)        -149.8493         estimate D2E/DX2                !
 ! D28   D(8,13,14,23)         -31.5513         estimate D2E/DX2                !
 ! D29   D(8,13,14,24)          97.33           estimate D2E/DX2                !
 ! D30   D(11,13,14,15)         38.3173         estimate D2E/DX2                !
 ! D31   D(11,13,14,23)        156.6153         estimate D2E/DX2                !
 ! D32   D(11,13,14,24)        -74.5034         estimate D2E/DX2                !
 ! D33   D(13,14,15,16)       -139.2064         estimate D2E/DX2                !
 ! D34   D(23,14,15,16)         99.9397         estimate D2E/DX2                !
 ! D35   D(24,14,15,16)        -20.3435         estimate D2E/DX2                !
 ! D36   D(13,14,24,25)         32.2157         estimate D2E/DX2                !
 ! D37   D(13,14,24,26)        -77.7326         estimate D2E/DX2                !
 ! D38   D(13,14,24,27)        153.1399         estimate D2E/DX2                !
 ! D39   D(15,14,24,25)        -84.161          estimate D2E/DX2                !
 ! D40   D(15,14,24,26)        165.8907         estimate D2E/DX2                !
 ! D41   D(15,14,24,27)         36.7632         estimate D2E/DX2                !
 ! D42   D(23,14,24,25)        159.9584         estimate D2E/DX2                !
 ! D43   D(23,14,24,26)         50.0101         estimate D2E/DX2                !
 ! D44   D(23,14,24,27)        -79.1174         estimate D2E/DX2                !
 ! D45   D(14,15,16,17)       -125.3851         estimate D2E/DX2                !
 ! D46   D(14,15,16,22)        110.5269         estimate D2E/DX2                !
 ! D47   D(14,15,16,27)         -3.1527         estimate D2E/DX2                !
 ! D48   D(15,16,17,18)        -74.6573         estimate D2E/DX2                !
 ! D49   D(15,16,17,20)        159.0211         estimate D2E/DX2                !
 ! D50   D(15,16,17,21)         49.2133         estimate D2E/DX2                !
 ! D51   D(22,16,17,18)         49.5503         estimate D2E/DX2                !
 ! D52   D(22,16,17,20)        -76.7713         estimate D2E/DX2                !
 ! D53   D(22,16,17,21)        173.4209         estimate D2E/DX2                !
 ! D54   D(27,16,17,18)        164.064          estimate D2E/DX2                !
 ! D55   D(27,16,17,20)         37.7424         estimate D2E/DX2                !
 ! D56   D(27,16,17,21)        -72.0653         estimate D2E/DX2                !
 ! D57   D(15,16,27,24)         25.363          estimate D2E/DX2                !
 ! D58   D(15,16,27,28)        141.1031         estimate D2E/DX2                !
 ! D59   D(15,16,27,29)        -90.3844         estimate D2E/DX2                !
 ! D60   D(17,16,27,24)        152.4693         estimate D2E/DX2                !
 ! D61   D(17,16,27,28)        -91.7906         estimate D2E/DX2                !
 ! D62   D(17,16,27,29)         36.7219         estimate D2E/DX2                !
 ! D63   D(22,16,27,24)        -90.7905         estimate D2E/DX2                !
 ! D64   D(22,16,27,28)         24.9496         estimate D2E/DX2                !
 ! D65   D(22,16,27,29)        153.4622         estimate D2E/DX2                !
 ! D66   D(16,17,18,19)       -156.2125         estimate D2E/DX2                !
 ! D67   D(20,17,18,19)        -33.4622         estimate D2E/DX2                !
 ! D68   D(21,17,18,19)         78.9174         estimate D2E/DX2                !
 ! D69   D(14,24,27,16)        -38.0965         estimate D2E/DX2                !
 ! D70   D(14,24,27,28)       -154.5592         estimate D2E/DX2                !
 ! D71   D(14,24,27,29)         83.1933         estimate D2E/DX2                !
 ! D72   D(25,24,27,16)         79.47           estimate D2E/DX2                !
 ! D73   D(25,24,27,28)        -36.9926         estimate D2E/DX2                !
 ! D74   D(25,24,27,29)       -159.2401         estimate D2E/DX2                !
 ! D75   D(26,24,27,16)       -170.3139         estimate D2E/DX2                !
 ! D76   D(26,24,27,28)         73.2235         estimate D2E/DX2                !
 ! D77   D(26,24,27,29)        -49.0241         estimate D2E/DX2                !
 ! D78   D(16,27,29,30)       -143.0101         estimate D2E/DX2                !
 ! D79   D(24,27,29,30)        104.8971         estimate D2E/DX2                !
 ! D80   D(28,27,29,30)        -15.4916         estimate D2E/DX2                !
 --------------------------------------------------------------------------------
 Trust Radius=3.00D-01 FncErr=1.00D-07 GrdErr=1.00D-06 EigMax=2.50D+02 EigMin=1.00D-04
 Number of steps in this run=    179 maximum allowed number of steps=    186.
 GradGradGradGradGradGradGradGradGradGradGradGradGradGradGradGradGradGrad

 Leave Link  103 at Sun Jul 18 13:45:50 2021, MaxMem=   104857600 cpu:               0.1 elap:               0.0
 (Enter /dades/curu/g16A03_MST/g16/l202.exe)
                          Input orientation:                          
 ---------------------------------------------------------------------
 Center     Atomic      Atomic             Coordinates (Angstroms)
 Number     Number       Type             X           Y           Z
 ---------------------------------------------------------------------
      1          6           0        1.201000   -4.043000    0.795000
      2          1           0        1.539000   -4.046000   -0.244000
      3          1           0        0.250000   -4.569000    0.685000
      4          1           0        1.719000   -4.759000    1.436000
      5          6           0        1.014000   -2.684000    1.442000
      6          6           0        1.571000   -2.421000    2.772000
      7          7           0        1.393000   -1.161000    3.206000
      8          6           0        0.783000   -0.202000    2.558000
      9          8           0        0.800000    0.918000    3.033000
     10          8           0        2.141000   -3.167000    3.472000
     11          6           0        0.440000   -1.708000    0.707000
     12          1           0        0.125000   -1.759000   -0.328000
     13          7           0        0.297000   -0.444000    1.345000
     14          6           0       -0.241000    0.688000    0.576000
     15          8           0       -1.340000    0.177000   -0.328000
     16          6           0       -1.223000    0.828000   -1.615000
     17          6           0       -2.522000    1.586000   -2.162000
     18          8           0       -3.636000    0.820000   -2.682000
     19          1           0       -4.154000    1.371000   -3.296000
     20          1           0       -2.135000    2.295000   -2.898000
     21          1           0       -2.917000    2.234000   -1.376000
     22          1           0       -0.900000    0.095000   -2.360000
     23          1           0       -0.682000    1.451000    1.234000
     24          6           0        0.767000    1.239000   -0.403000
     25          1           0        1.394000    0.412000   -0.745000
     26          1           0        1.568000    1.885000   -0.037000
     27          6           0       -0.054000    1.850000   -1.504000
     28          1           0        0.530000    1.861000   -2.428000
     29          7           0       -0.439000    3.194000   -1.074000
     30          7           0        0.220000    4.082000   -1.654000
     31          7           0        0.630000    4.956000   -2.210000
 ---------------------------------------------------------------------
                    Distance matrix (angstroms):
                    1          2          3          4          5
     1  C    0.000000
     2  H    1.092600   0.000000
     3  H    1.092326   1.672750   0.000000
     4  H    1.091724   1.833894   1.660741   0.000000
     5  C    1.516726   2.230082   2.170247   2.191503   0.000000
     6  C    2.583856   3.426063   3.273303   2.696858   1.465714
     7  N    3.762407   4.499671   4.390484   4.023031   2.361115
     8  C    4.246902   4.816542   4.781517   4.785523   2.731143
     9  O    5.457194   5.993842   5.993561   5.968526   3.943537
    10  O    2.969395   3.865708   3.648130   2.618749   2.371564
    11  C    2.457456   2.752898   2.867386   3.387607   1.349917
    12  H    2.763252   2.690134   2.989631   3.827863   2.186057
    13  N    3.751335   4.128182   4.177731   4.544182   2.353954
    14  C    4.950726   5.123627   5.281005   5.852436   3.700725
    15  O    5.052347   5.111695   5.106739   6.069042   4.106037
    16  C    5.950674   5.767509   6.048747   7.012741   5.165613
    17  C    7.368190   7.203462   7.326214   8.437459   6.612489
    18  O    7.689920   7.510155   7.448423   8.761232   7.134977
    19  H    8.644287   8.430234   8.398046   9.719097   8.099376
    20  H    8.058374   7.794246   8.101889   9.132129   7.317256
    21  H    7.814851   7.783043   7.781929   8.848835   6.897870
    22  H    5.611708   5.251101   5.687479   6.695528   5.083448
    23  H    5.824298   6.110183   6.116406   6.661059   4.474137
    24  C    5.433515   5.343453   5.931602   6.345410   4.342230
    25  H    4.717613   4.488406   5.306976   5.621532   3.809539
    26  H    5.997341   5.934682   6.626653   6.807001   4.834265
    27  C    6.448866   6.236030   6.788792   7.447551   5.511506
    28  H    6.759821   6.378133   7.149410   7.756843   5.989005
    29  N    7.652250   7.551092   7.989554   8.614364   6.556855
    30  N    8.542575   8.354175   8.961675   9.484639   7.482941
    31  N    9.504634   9.258911   9.962482  10.433622   8.476683
                    6          7          8          9         10
     6  C    0.000000
     7  N    1.344485   0.000000
     8  C    2.364466   1.308314   0.000000
     9  O    3.436784   2.168829   1.216682   0.000000
    10  O    1.171075   2.157382   3.386855   4.321831   0.000000
    11  C    2.460032   2.729912   2.410785   3.526436   3.559116
    12  H    3.484130   3.801918   3.344579   4.349514   4.526226
    13  N    2.750988   2.275659   1.328958   2.226521   3.916528
    14  C    4.215642   3.606336   2.401874   2.678326   5.377896
    15  O    4.983325   4.663549   3.602744   4.052777   6.143264
    16  C    6.132553   5.834520   4.743297   5.069964   7.290685
    17  C    7.559964   7.189482   6.033106   6.202413   8.722186
    18  O    8.207499   7.992731   6.930342   7.235256   9.334967
    19  H    9.163815   8.913823   7.817776   8.050066  10.296907
    20  H    8.253726   7.851722   6.672156   6.759224   9.417777
    21  H    7.682257   7.148206   5.924563   5.915000   8.846314
    22  H    6.226839   6.149450   5.206479   5.714173   7.341699
    23  H    4.736437   3.875171   2.575191   2.390986   5.856953
    24  C    4.911481   4.379127   3.293062   3.451120   6.026304
    25  H    4.519569   4.252615   3.414693   3.857740   5.581249
    26  H    5.141218   4.452616   3.421377   3.309050   6.177711
    27  C    6.258294   5.774429   4.627215   4.709810   7.399249
    28  H    6.816099   6.451295   5.401868   5.548393   7.917456
    29  N    7.096481   6.375002   5.120305   4.856207   8.233155
    30  N    7.981459   7.244624   6.034117   5.684652   9.083728
    31  N    8.951309   8.205664   7.025824   6.619924  10.027531
                   11         12         13         14         15
    11  C    0.000000
    12  H    1.083075   0.000000
    13  N    1.423091   2.134886   0.000000
    14  C    2.494341   2.634195   1.470452   0.000000
    15  O    2.791568   2.427822   2.421640   1.511998   0.000000
    16  C    3.819496   3.188423   3.562300   2.405079   1.447017
    17  C    5.277788   4.643187   4.936265   3.675052   2.597299
    18  O    5.872809   5.132025   5.769135   4.707230   3.350579
    19  H    6.827085   6.075835   6.681655   5.547111   4.260664
    20  H    5.970817   5.305414   5.605336   4.270639   3.423865
    21  H    5.581013   5.127974   4.990523   3.655324   2.795797
    22  H    3.801697   2.935467   3.930694   3.066925   2.080709
    23  H    3.393508   3.659944   2.135834   1.099825   2.120350
    24  C    3.166045   3.066887   2.471617   1.509340   2.360703
    25  H    2.740952   2.549018   2.510826   2.120010   2.775585
    26  H    3.838694   3.930097   2.991589   2.254120   3.385027
    27  C    4.218047   3.799987   3.674566   2.389898   2.415720
    28  H    4.751219   4.204572   4.427510   3.315778   3.277614
    29  N    5.289065   5.040518   4.430384   3.006949   3.235832
    30  N    6.256742   5.990374   5.429973   4.087133   4.409184
    31  N    7.276942   6.992008   6.473709   5.170712   5.501060
                   16         17         18         19         20
    16  C    0.000000
    17  C    1.600367   0.000000
    18  O    2.638394   1.448500   0.000000
    19  H    3.422188   1.998901   0.974126   0.000000
    20  H    2.151725   1.092770   2.115486   2.255779   0.000000
    21  H    2.214406   1.092577   2.054749   2.441585   1.712229
    22  H    1.093912   2.212051   2.848685   3.618396   2.579665
    23  H    2.966077   3.864795   4.945638   5.708072   4.460602
    24  C    2.366002   3.745933   4.975521   5.709914   3.970109
    25  H    2.789022   4.326803   5.405491   6.181229   4.542570
    26  H    3.375946   4.618780   5.933959   6.605041   4.697407
    27  C    1.556716   2.567817   3.908876   4.500078   2.543978
    28  H    2.191134   3.075888   4.301599   4.788881   2.740708
    29  N    2.550548   2.847507   4.294456   4.697003   2.647941
    30  N    3.559815   3.742545   5.154237   5.401626   3.207324
    31  N    4.563772   4.614576   5.960540   6.076041   3.898652
                   21         22         23         24         25
    21  H    0.000000
    22  H    3.100301   0.000000
    23  H    3.524261   3.847479   0.000000
    24  C    3.938097   2.813801   2.196432   0.000000
    25  H    4.722559   2.823323   3.050531   1.092713   0.000000
    26  H    4.693607   3.832943   2.620362   1.092187   1.643554
    27  C    2.891472   2.128022   2.837293   1.503184   2.177299
    28  H    3.623209   2.273385   3.879083   2.131590   2.382978
    29  N    2.674563   3.386756   2.902406   2.393053   3.347783
    30  N    3.651460   4.201072   4.009527   3.153864   3.958972
    31  N    4.548192   5.098306   5.086011   4.135228   4.835065
                   26         27         28         29         30
    26  H    0.000000
    27  C    2.187281   0.000000
    28  H    2.606703   1.093139   0.000000
    29  N    2.610919   1.462690   2.132877   0.000000
    30  N    3.042795   2.253752   2.372344   1.248689   0.000000
    31  N    3.877217   3.257841   3.104279   2.353275   1.114052
                   31
    31  N    0.000000
 Stoichiometry    C10H12N5O4(1-)
 Framework group  C1[X(C10H12N5O4)]
 Deg. of freedom    87
 Full point group                 C1      NOp   1
 Largest Abelian subgroup         C1      NOp   1
 Largest concise Abelian subgroup C1      NOp   1
                         Standard orientation:                         
 ---------------------------------------------------------------------
 Center     Atomic      Atomic             Coordinates (Angstroms)
 Number     Number       Type             X           Y           Z
 ---------------------------------------------------------------------
      1          6           0        3.788122    1.941841    1.332606
      2          1           0        3.275484    2.222638    2.255715
      3          1           0        3.767106    2.899184    0.807031
      4          1           0        4.868839    1.828478    1.437774
      5          6           0        3.146437    0.840901    0.510030
      6          6           0        3.960702   -0.268645    0.005851
      7          7           0        3.263273   -1.210792   -0.652627
      8          6           0        1.972891   -1.204066   -0.868389
      9          8           0        1.467968   -2.184317   -1.382661
     10          8           0        5.116754   -0.419095    0.116866
     11          6           0        1.803480    0.855062    0.373858
     12          1           0        1.101165    1.546267    0.823347
     13          7           0        1.239409   -0.203492   -0.391959
     14          6           0       -0.223138   -0.299602   -0.510058
     15          8           0       -0.789114    1.097117   -0.632479
     16          6           0       -1.996196    1.180301    0.161179
     17          6           0       -3.320488    1.676860   -0.587723
     18          8           0       -3.476020    3.078025   -0.920434
     19          1           0       -4.422498    3.289965   -1.010892
     20          1           0       -4.140241    1.311800    0.035882
     21          1           0       -3.442054    1.111361   -1.514630
     22          1           0       -1.813960    1.826081    1.025124
     23          1           0       -0.520621   -0.857077   -1.410247
     24          6           0       -0.862584   -0.808584    0.758860
     25          1           0       -0.262717   -0.460915    1.603435
     26          1           0       -0.823547   -1.876471    0.984616
     27          6           0       -2.253161   -0.237818    0.749626
     28          1           0       -2.620563   -0.162201    1.776393
     29          7           0       -3.084766   -1.114160   -0.074946
     30          7           0       -3.843150   -1.829223    0.612633
     31          7           0       -4.663263   -2.400968    1.104195
 ---------------------------------------------------------------------
 Rotational constants (GHZ):           0.6682912           0.1976725           0.1687367
 Leave Link  202 at Sun Jul 18 13:45:50 2021, MaxMem=   104857600 cpu:               0.1 elap:               0.0
 (Enter /dades/curu/g16A03_MST/g16/l301.exe)
 Standard basis: 6-31G(d) (6D, 7F)
 Ernie: Thresh=  0.10000D-02 Tol=  0.10000D-05 Strict=F.
 There are   309 symmetry adapted cartesian basis functions of A   symmetry.
 There are   309 symmetry adapted basis functions of A   symmetry.
   309 basis functions,   580 primitive gaussians,   309 cartesian basis functions
    70 alpha electrons       70 beta electrons
       nuclear repulsion energy      1437.3427614855 Hartrees.
 IExCor=  402 DFT=T Ex+Corr=B3LYP ExCW=0 ScaHFX=  0.200000
 ScaDFX=  0.800000  0.720000  1.000000  0.810000 ScalE2=  1.000000  1.000000
 IRadAn=      5 IRanWt=     -1 IRanGd=            0 ICorTp=0 IEmpDi=  4
 NAtoms=   31 NActive=   31 NUniq=   31 SFac= 1.00D+00 NAtFMM=   60 NAOKFM=F Big=F
 Integral buffers will be    131072 words long.
 Raffenetti 2 integral format.
 Two-electron integral symmetry is turned on.
 Using the following non-standard input for PCM:
 MSTModel=DFT cav MSTCharged
 --- end of non-standard input.
 MST model for solvation energy: B3LYP parametrization.
 MST cavity parameters:
 ISph   IAn     Re0     Alpha   Atom Type   QCorr
 ------------------------------------------------
   1      6     1.50     1.50      CH3        F
   2      1     1.20     1.50      CH3        F
   3      1     1.20     1.50      CH3        F
   4      1     1.20     1.50      CH3        F
   5      6     1.50     1.50      C          F
   6      6     1.50     1.50      C          F
   7      7     1.50     1.15      Nc         T
   8      6     1.50     1.50      C          F
   9      8     1.40     1.50      O          F
  10      8     1.40     1.50      O          F
  11      6     1.50     1.50      CH         F
  12      1     1.20     1.50      CH         F
  13      7     1.50     1.50      Nc         F
  14      6     1.50     1.50      CH         F
  15      8     1.40     1.50      O          F
  16      6     1.50     1.50      CH         F
  17      6     1.50     1.50      CH2        F
  18      8     1.40     1.50      OH         F
  19      1     0.90     1.50      OH         F
  20      1     1.20     1.50      CH2        F
  21      1     1.20     1.50      CH2        F
  22      1     1.20     1.50      CH         F
  23      1     1.20     1.50      CH         F
  24      6     1.50     1.50      CH2        F
  25      1     1.20     1.50      CH2        F
  26      1     1.20     1.50      CH2        F
  27      6     1.50     1.50      CH         F
  28      1     1.20     1.50      CH         F
  29      7     1.50     1.50      N          F
  30      7     1.50     1.50      N          F
  31      7     1.50     1.50      N          F
 ------------------------------------------------------------------------------
 Polarizable Continuum Model (PCM)
 =================================
 Model                : PCM.
 Atomic radii         : MST.
 Polarization charges : Total charges.
 Charge compensation  : None.
 Solution method      : On-the-fly selection.
 Cavity type          : Scaled VdW (van der Waals Surface) (Alpha=1.500).
 Cavity algorithm     : GePol (No added spheres)
                        Default sphere list used, NSphG=   31.
                        Lebedev-Laikov grids with approx.  5.0 points / Ang**2.
                        Smoothing algorithm: York/Karplus (Gamma=1.0000).
                        Polarization charges: spherical gaussians, with
                                              point-specific exponents (IZeta= 3).
                        Self-potential: point-specific (ISelfS= 7).
                        Self-field    : sphere-specific E.n sum rule (ISelfD= 2).
 1st derivatives      : Analytical E(r).r(x)/FMM algorithm (CHGder, D1EAlg=3).
                        Cavity 1st derivative terms included.
 Solvent              : n-Octanol, Eps=   9.862900 Eps(inf)=   2.043470
 ------------------------------------------------------------------------------
 GePol: Number of generator spheres                  =      31
 GePol: Total number of spheres                      =      31
 GePol: Number of exposed spheres                    =      31 (100.00%)
 GePol: Number of points                             =    2949
 GePol: Average weight of points                     =       0.12
 GePol: Minimum weight of points                     =   0.13D-10
 GePol: Maximum weight of points                     =    0.20969
 GePol: Number of points with low weight             =     157
 GePol: Fraction of low-weight points (<1% of avg)   =       5.32%
 GePol: Cavity surface area                          =    349.522 Ang**2
 GePol: Cavity volume                                =    400.314 Ang**3
 Surface areas from nonelectrostatic (unscaled) cavity and vdw tensions:
 Sphere =    1 Type =  CH3 Surf =        5.410 Tension =       -0.183
 Sphere =    2 Type =  CH3 Surf =       10.132 Tension =       -0.183
 Sphere =    3 Type =  CH3 Surf =        9.935 Tension =       -0.183
 Sphere =    4 Type =  CH3 Surf =        9.981 Tension =       -0.183
 Sphere =    5 Type =  C   Surf =        6.367 Tension =       -0.205
 Sphere =    6 Type =  C   Surf =        6.400 Tension =       -0.205
 Sphere =    7 Type =  Nc  Surf =       11.944 Tension =       -0.161
 Sphere =    8 Type =  C   Surf =        5.774 Tension =       -0.205
 Sphere =    9 Type =  O   Surf =       15.455 Tension =       -0.185
 Sphere =   10 Type =  O   Surf =       16.001 Tension =       -0.185
 Sphere =   11 Type =  CH  Surf =        7.511 Tension =       -0.195
 Sphere =   12 Type =  CH  Surf =        9.617 Tension =       -0.195
 Sphere =   13 Type =  Nc  Surf =        5.396 Tension =       -0.161
 Sphere =   14 Type =  CH  Surf =        2.975 Tension =       -0.195
 Sphere =   15 Type =  O   Surf =       10.590 Tension =       -0.185
 Sphere =   16 Type =  CH  Surf =        3.492 Tension =       -0.195
 Sphere =   17 Type =  CH2 Surf =        4.558 Tension =       -0.194
 Sphere =   18 Type =  OH  Surf =       14.818 Tension =       -0.238
 Sphere =   19 Type =  OH  Surf =        4.484 Tension =       -0.238
 Sphere =   20 Type =  CH2 Surf =        9.618 Tension =       -0.194
 Sphere =   21 Type =  CH2 Surf =        9.912 Tension =       -0.194
 Sphere =   22 Type =  CH  Surf =        9.929 Tension =       -0.195
 Sphere =   23 Type =  CH  Surf =        9.508 Tension =       -0.195
 Sphere =   24 Type =  CH2 Surf =        3.457 Tension =       -0.194
 Sphere =   25 Type =  CH2 Surf =        9.606 Tension =       -0.194
 Sphere =   26 Type =  CH2 Surf =       10.017 Tension =       -0.194
 Sphere =   27 Type =  CH  Surf =        2.396 Tension =       -0.195
 Sphere =   28 Type =  CH  Surf =        9.618 Tension =       -0.195
 Sphere =   29 Type =  N   Surf =       11.836 Tension =       -0.115
 Sphere =   30 Type =  N   Surf =       10.324 Tension =       -0.115
 Sphere =   31 Type =  N   Surf =       19.387 Tension =       -0.115
 PCM non-electrostatic energy =        -0.0087561255 Hartrees.
 Nuclear repulsion after PCM non-electrostatic terms =     1437.3340053599 Hartrees.
 Leave Link  301 at Sun Jul 18 13:45:50 2021, MaxMem=   104857600 cpu:               0.1 elap:               0.1
 (Enter /dades/curu/g16A03_MST/g16/l302.exe)
 NPDir=0 NMtPBC=     1 NCelOv=     1 NCel=       1 NClECP=     1 NCelD=      1
         NCelK=      1 NCelE2=     1 NClLst=     1 CellRange=     0.0.
 One-electron integrals computed using PRISM.
 One-electron integral symmetry used in STVInt
 NBasis=   309 RedAO= T EigKep=  9.98D-04  NBF=   309
 NBsUse=   309 1.00D-06 EigRej= -1.00D+00 NBFU=   309
 Precomputing XC quadrature grid using
 IXCGrd= 4 IRadAn=           5 IRanWt=          -1 IRanGd=           0 AccXCQ= 0.00D+00.
 Generated NRdTot=       0 NPtTot=           0 NUsed=           0 NTot=          32
 NSgBfM=   306   306   306   306   306 MxSgAt=    31 MxSgA2=    31.
 Leave Link  302 at Sun Jul 18 13:45:52 2021, MaxMem=   104857600 cpu:               6.3 elap:               1.7
 (Enter /dades/curu/g16A03_MST/g16/l303.exe)
 DipDrv:  MaxL=1.
 Leave Link  303 at Sun Jul 18 13:45:52 2021, MaxMem=   104857600 cpu:               0.1 elap:               0.1
 (Enter /dades/curu/g16A03_MST/g16/l401.exe)
 ExpMin= 1.61D-01 ExpMax= 5.48D+03 ExpMxC= 8.25D+02 IAcc=3 IRadAn=         5 AccDes= 0.00D+00
 Harris functional with IExCor=  402 and IRadAn=       5 diagonalized for initial guess.
 HarFok:  IExCor=  402 AccDes= 0.00D+00 IRadAn=         5 IDoV= 1 UseB2=F ITyADJ=14
 ICtDFT=  3500011 ScaDFX=  1.000000  1.000000  1.000000  1.000000
 FoFCou: FMM=F IPFlag=           0 FMFlag=      100000 FMFlg1=           0
         NFxFlg=           0 DoJE=T BraDBF=F KetDBF=T FulRan=T
         wScrn=  0.000000 ICntrl=       500 IOpCl=  0 I1Cent=   200000004 NGrid=           0
         NMat0=    1 NMatS0=      1 NMatT0=    0 NMatD0=    1 NMtDS0=    0 NMtDT0=    0
 Petite list used in FoFCou.
 Harris En= -963.014396397901    
 JPrj=0 DoOrth=F DoCkMO=F.
 Leave Link  401 at Sun Jul 18 13:45:59 2021, MaxMem=   104857600 cpu:              26.7 elap:               6.7
 (Enter /dades/curu/g16A03_MST/g16/l502.exe)
 Integral symmetry usage will be decided dynamically.
 Closed shell SCF:
 Using DIIS extrapolation, IDIIS=  1040.
 NGot=   104857600 LenX=   104661388 LenY=   104565466
 Requested convergence on RMS density matrix=1.00D-08 within 128 cycles.
 Requested convergence on MAX density matrix=1.00D-06.
 Requested convergence on             energy=1.00D-06.
 No special actions if energy rises.
 Fock matrices will be formed incrementally for  20 cycles.

 Cycle   1  Pass 1  IDiag  1:
 FoFJK:  IHMeth= 1 ICntrl=       0 DoSepK=F KAlg= 0 I1Cent=           0 FoldK=F
 IRaf= 780000000 NMat=       1 IRICut=       1 DoRegI=T DoRafI=F ISym2E= 0 IDoP0=0 IntGTp=1.
 FoFCou: FMM=F IPFlag=           0 FMFlag=      100000 FMFlg1=           0
         NFxFlg=           0 DoJE=F BraDBF=F KetDBF=F FulRan=T
         wScrn=  0.000000 ICntrl=         0 IOpCl=  0 I1Cent=           0 NGrid=           0
         NMat0=    1 NMatS0=      1 NMatT0=    0 NMatD0=    1 NMtDS0=    0 NMtDT0=    0
 Symmetry not used in FoFCou.
 Inv3:  Mode=1 IEnd=    26089803.
 Iteration    1 A*A^-1 deviation from unit magnitude is 6.33D-15 for   2941.
 Iteration    1 A*A^-1 deviation from orthogonality  is 4.87D-15 for   2938    348.
 Iteration    1 A^-1*A deviation from unit magnitude is 6.33D-15 for   2941.
 Iteration    1 A^-1*A deviation from orthogonality  is 8.99D-15 for   2196   2135.
 E= -962.447084363625    
 DIIS: error= 2.59D-02 at cycle   1 NSaved=   1.
 NSaved= 1 IEnMin= 1 EnMin= -962.447084363625     IErMin= 1 ErrMin= 2.59D-02
 ErrMax= 2.59D-02  0.00D+00 EMaxC= 1.00D-01 BMatC= 5.86D-01 BMatP= 5.86D-01
 IDIUse=3 WtCom= 7.41D-01 WtEn= 2.59D-01
 Coeff-Com:  0.100D+01
 Coeff-En:   0.100D+01
 Coeff:      0.100D+01
 Gap=     0.291 Goal=   None    Shift=    0.000
 GapD=    0.291 DampG=1.000 DampE=0.500 DampFc=0.5000 IDamp=-1.
 Damping current iteration by 5.00D-01
 RMSDP=7.52D-03 MaxDP=2.79D-01              OVMax= 9.82D-01

 Cycle   2  Pass 1  IDiag  1:
 RMSU=  3.73D-03    CP:  9.79D-01
 E= -962.233962427297     Delta-E=        0.213121936328 Rises=F Damp=T
 DIIS: error= 1.86D-02 at cycle   2 NSaved=   2.
 NSaved= 2 IEnMin= 1 EnMin= -962.447084363625     IErMin= 2 ErrMin= 1.86D-02
 ErrMax= 1.86D-02  0.00D+00 EMaxC= 1.00D-01 BMatC= 2.01D-01 BMatP= 5.86D-01
 IDIUse=3 WtCom= 8.14D-01 WtEn= 1.86D-01
 Coeff-Com:  0.323D+00 0.677D+00
 Coeff-En:   0.636D+00 0.364D+00
 Coeff:      0.381D+00 0.619D+00
 Gap=     0.000 Goal=   None    Shift=    0.000
 RMSDP=3.26D-03 MaxDP=1.40D-01 DE= 2.13D-01 OVMax= 6.09D-01

 Cycle   3  Pass 1  IDiag  1:
 RMSU=  2.44D-03    CP:  9.75D-01  4.21D-01
 E= -962.767962326317     Delta-E=       -0.533999899020 Rises=F Damp=F
 DIIS: error= 1.59D-02 at cycle   3 NSaved=   3.
 NSaved= 3 IEnMin= 3 EnMin= -962.767962326317     IErMin= 3 ErrMin= 1.59D-02
 ErrMax= 1.59D-02  0.00D+00 EMaxC= 1.00D-01 BMatC= 1.76D-01 BMatP= 2.01D-01
 IDIUse=3 WtCom= 8.41D-01 WtEn= 1.59D-01
 EnCoef did     1 forward-backward iterations
 Coeff-Com:  0.142D+00 0.446D+00 0.412D+00
 Coeff-En:   0.211D-02 0.615D-01 0.936D+00
 Coeff:      0.120D+00 0.385D+00 0.495D+00
 Gap=     0.216 Goal=   None    Shift=    0.000
 RMSDP=1.67D-03 MaxDP=7.62D-02 DE=-5.34D-01 OVMax= 1.27D-01

 Cycle   4  Pass 1  IDiag  1:
 RMSU=  1.36D-03    CP:  9.82D-01  4.25D-01  6.07D-01
 E= -962.912635029165     Delta-E=       -0.144672702848 Rises=F Damp=F
 DIIS: error= 8.00D-03 at cycle   4 NSaved=   4.
 NSaved= 4 IEnMin= 4 EnMin= -962.912635029165     IErMin= 4 ErrMin= 8.00D-03
 ErrMax= 8.00D-03  0.00D+00 EMaxC= 1.00D-01 BMatC= 3.19D-02 BMatP= 1.76D-01
 IDIUse=3 WtCom= 9.20D-01 WtEn= 8.00D-02
 Coeff-Com:  0.365D-01 0.258D+00 0.272D+00 0.434D+00
 Coeff-En:   0.000D+00 0.000D+00 0.000D+00 0.100D+01
 Coeff:      0.335D-01 0.237D+00 0.250D+00 0.479D+00
 Gap=     0.200 Goal=   None    Shift=    0.000
 RMSDP=7.81D-04 MaxDP=3.90D-02 DE=-1.45D-01 OVMax= 8.20D-02

 Cycle   5  Pass 1  IDiag  1:
 RMSU=  6.63D-04    CP:  9.82D-01  4.41D-01  6.64D-01  7.17D-01
 E= -962.920950391829     Delta-E=       -0.008315362664 Rises=F Damp=F
 DIIS: error= 7.97D-03 at cycle   5 NSaved=   5.
 NSaved= 5 IEnMin= 5 EnMin= -962.920950391829     IErMin= 5 ErrMin= 7.97D-03
 ErrMax= 7.97D-03  0.00D+00 EMaxC= 1.00D-01 BMatC= 2.11D-02 BMatP= 3.19D-02
 IDIUse=3 WtCom= 9.20D-01 WtEn= 7.97D-02
 Coeff-Com: -0.306D-01 0.104D+00 0.209D-01 0.401D+00 0.506D+00
 Coeff-En:   0.000D+00 0.000D+00 0.000D+00 0.421D+00 0.579D+00
 Coeff:     -0.282D-01 0.954D-01 0.193D-01 0.402D+00 0.511D+00
 Gap=     0.155 Goal=   None    Shift=    0.000
 RMSDP=4.44D-04 MaxDP=2.73D-02 DE=-8.32D-03 OVMax= 5.82D-02

 Cycle   6  Pass 1  IDiag  1:
 RMSU=  2.75D-04    CP:  9.82D-01  4.64D-01  6.37D-01  9.30D-01  7.53D-01
 E= -962.938396311842     Delta-E=       -0.017445920013 Rises=F Damp=F
 DIIS: error= 1.79D-03 at cycle   6 NSaved=   6.
 NSaved= 6 IEnMin= 6 EnMin= -962.938396311842     IErMin= 6 ErrMin= 1.79D-03
 ErrMax= 1.79D-03  0.00D+00 EMaxC= 1.00D-01 BMatC= 2.39D-03 BMatP= 2.11D-02
 IDIUse=3 WtCom= 9.82D-01 WtEn= 1.79D-02
 Coeff-Com: -0.290D-01 0.439D-01-0.445D-01 0.190D+00 0.361D+00 0.478D+00
 Coeff-En:   0.000D+00 0.000D+00 0.000D+00 0.000D+00 0.000D+00 0.100D+01
 Coeff:     -0.285D-01 0.431D-01-0.437D-01 0.187D+00 0.355D+00 0.487D+00
 Gap=     0.157 Goal=   None    Shift=    0.000
 RMSDP=1.71D-04 MaxDP=8.95D-03 DE=-1.74D-02 OVMax= 1.50D-02

 Cycle   7  Pass 1  IDiag  1:
 RMSU=  9.95D-05    CP:  9.82D-01  4.72D-01  6.28D-01  9.76D-01  8.43D-01
                    CP:  6.28D-01
 E= -962.940246695048     Delta-E=       -0.001850383207 Rises=F Damp=F
 DIIS: error= 5.91D-04 at cycle   7 NSaved=   7.
 NSaved= 7 IEnMin= 7 EnMin= -962.940246695048     IErMin= 7 ErrMin= 5.91D-04
 ErrMax= 5.91D-04  0.00D+00 EMaxC= 1.00D-01 BMatC= 2.22D-04 BMatP= 2.39D-03
 IDIUse=3 WtCom= 9.94D-01 WtEn= 5.91D-03
 Coeff-Com: -0.109D-01 0.105D-01-0.349D-01 0.163D-01 0.925D-01 0.258D+00
 Coeff-Com:  0.669D+00
 Coeff-En:   0.000D+00 0.000D+00 0.000D+00 0.000D+00 0.000D+00 0.000D+00
 Coeff-En:   0.100D+01
 Coeff:     -0.108D-01 0.105D-01-0.347D-01 0.162D-01 0.919D-01 0.256D+00
 Coeff:      0.671D+00
 Gap=     0.151 Goal=   None    Shift=    0.000
 RMSDP=6.71D-05 MaxDP=2.10D-03 DE=-1.85D-03 OVMax= 5.35D-03

 Cycle   8  Pass 1  IDiag  1:
 RMSU=  3.43D-05    CP:  9.82D-01  4.76D-01  6.24D-01  9.99D-01  8.80D-01
                    CP:  7.48D-01  8.16D-01
 E= -962.940458842393     Delta-E=       -0.000212147345 Rises=F Damp=F
 DIIS: error= 1.71D-04 at cycle   8 NSaved=   8.
 NSaved= 8 IEnMin= 8 EnMin= -962.940458842393     IErMin= 8 ErrMin= 1.71D-04
 ErrMax= 1.71D-04  0.00D+00 EMaxC= 1.00D-01 BMatC= 2.92D-05 BMatP= 2.22D-04
 IDIUse=3 WtCom= 9.98D-01 WtEn= 1.71D-03
 Coeff-Com: -0.219D-02 0.764D-03-0.145D-01-0.215D-01 0.968D-03 0.700D-01
 Coeff-Com:  0.383D+00 0.584D+00
 Coeff-En:   0.000D+00 0.000D+00 0.000D+00 0.000D+00 0.000D+00 0.000D+00
 Coeff-En:   0.000D+00 0.100D+01
 Coeff:     -0.218D-02 0.763D-03-0.145D-01-0.215D-01 0.966D-03 0.699D-01
 Coeff:      0.382D+00 0.584D+00
 Gap=     0.150 Goal=   None    Shift=    0.000
 RMSDP=2.21D-05 MaxDP=9.04D-04 DE=-2.12D-04 OVMax= 1.04D-03

 Cycle   9  Pass 1  IDiag  1:
 RMSU=  1.04D-05    CP:  9.82D-01  4.77D-01  6.22D-01  1.00D+00  8.97D-01
                    CP:  7.61D-01  9.00D-01  7.17D-01
 E= -962.940484259065     Delta-E=       -0.000025416672 Rises=F Damp=F
 DIIS: error= 6.40D-05 at cycle   9 NSaved=   9.
 NSaved= 9 IEnMin= 9 EnMin= -962.940484259065     IErMin= 9 ErrMin= 6.40D-05
 ErrMax= 6.40D-05  0.00D+00 EMaxC= 1.00D-01 BMatC= 1.92D-06 BMatP= 2.92D-05
 IDIUse=1 WtCom= 1.00D+00 WtEn= 0.00D+00
 Coeff-Com: -0.163D-03 0.259D-03-0.341D-02-0.107D-01-0.505D-02 0.101D-01
 Coeff-Com:  0.119D+00 0.276D+00 0.614D+00
 Coeff:     -0.163D-03 0.259D-03-0.341D-02-0.107D-01-0.505D-02 0.101D-01
 Coeff:      0.119D+00 0.276D+00 0.614D+00
 Gap=     0.151 Goal=   None    Shift=    0.000
 RMSDP=4.50D-06 MaxDP=2.37D-04 DE=-2.54D-05 OVMax= 3.05D-04

 Cycle  10  Pass 1  IDiag  1:
 RMSU=  3.82D-06    CP:  9.82D-01  4.77D-01  6.22D-01  1.00D+00  8.96D-01
                    CP:  7.62D-01  9.05D-01  7.33D-01  8.00D-01
 E= -962.940485465701     Delta-E=       -0.000001206635 Rises=F Damp=F
 DIIS: error= 1.74D-05 at cycle  10 NSaved=  10.
 NSaved=10 IEnMin=10 EnMin= -962.940485465701     IErMin=10 ErrMin= 1.74D-05
 ErrMax= 1.74D-05  0.00D+00 EMaxC= 1.00D-01 BMatC= 3.41D-07 BMatP= 1.92D-06
 IDIUse=1 WtCom= 1.00D+00 WtEn= 0.00D+00
 Coeff-Com:  0.111D-03 0.867D-04-0.330D-03-0.355D-02-0.215D-02-0.194D-02
 Coeff-Com:  0.229D-01 0.879D-01 0.359D+00 0.538D+00
 Coeff:      0.111D-03 0.867D-04-0.330D-03-0.355D-02-0.215D-02-0.194D-02
 Coeff:      0.229D-01 0.879D-01 0.359D+00 0.538D+00
 Gap=     0.151 Goal=   None    Shift=    0.000
 RMSDP=2.05D-06 MaxDP=6.49D-05 DE=-1.21D-06 OVMax= 9.22D-05

 Cycle  11  Pass 1  IDiag  1:
 RMSU=  1.21D-06    CP:  9.82D-01  4.77D-01  6.22D-01  1.00D+00  8.97D-01
                    CP:  7.61D-01  9.05D-01  7.55D-01  8.45D-01  6.82D-01
 E= -962.940485747964     Delta-E=       -0.000000282263 Rises=F Damp=F
 DIIS: error= 4.04D-06 at cycle  11 NSaved=  11.
 NSaved=11 IEnMin=11 EnMin= -962.940485747964     IErMin=11 ErrMin= 4.04D-06
 ErrMax= 4.04D-06  0.00D+00 EMaxC= 1.00D-01 BMatC= 1.19D-08 BMatP= 3.41D-07
 IDIUse=1 WtCom= 1.00D+00 WtEn= 0.00D+00
 Coeff-Com:  0.697D-04-0.460D-04 0.126D-03-0.659D-03-0.442D-03-0.162D-02
 Coeff-Com: -0.138D-02 0.110D-01 0.958D-01 0.215D+00 0.682D+00
 Coeff:      0.697D-04-0.460D-04 0.126D-03-0.659D-03-0.442D-03-0.162D-02
 Coeff:     -0.138D-02 0.110D-01 0.958D-01 0.215D+00 0.682D+00
 Gap=     0.151 Goal=   None    Shift=    0.000
 RMSDP=5.70D-07 MaxDP=1.67D-05 DE=-2.82D-07 OVMax= 3.16D-05

 Cycle  12  Pass 1  IDiag  1:
 RMSU=  4.04D-07    CP:  9.82D-01  4.77D-01  6.22D-01  1.00D+00  8.97D-01
                    CP:  7.62D-01  9.06D-01  7.55D-01  8.58D-01  7.23D-01
                    CP:  7.92D-01
 E= -962.940485757358     Delta-E=       -0.000000009394 Rises=F Damp=F
 DIIS: error= 1.27D-06 at cycle  12 NSaved=  12.
 NSaved=12 IEnMin=12 EnMin= -962.940485757358     IErMin=12 ErrMin= 1.27D-06
 ErrMax= 1.27D-06  0.00D+00 EMaxC= 1.00D-01 BMatC= 2.73D-09 BMatP= 1.19D-08
 IDIUse=1 WtCom= 1.00D+00 WtEn= 0.00D+00
 Coeff-Com:  0.210D-04-0.196D-04 0.104D-03 0.598D-04 0.103D-03-0.491D-03
 Coeff-Com: -0.290D-02-0.371D-02 0.120D-01 0.501D-01 0.362D+00 0.583D+00
 Coeff:      0.210D-04-0.196D-04 0.104D-03 0.598D-04 0.103D-03-0.491D-03
 Coeff:     -0.290D-02-0.371D-02 0.120D-01 0.501D-01 0.362D+00 0.583D+00
 Gap=     0.151 Goal=   None    Shift=    0.000
 RMSDP=2.02D-07 MaxDP=5.70D-06 DE=-9.39D-09 OVMax= 1.08D-05

 Cycle  13  Pass 1  IDiag  1:
 RMSU=  1.12D-07    CP:  9.82D-01  4.77D-01  6.22D-01  1.00D+00  8.97D-01
                    CP:  7.62D-01  9.05D-01  7.56D-01  8.62D-01  7.27D-01
                    CP:  8.64D-01  7.25D-01
 E= -962.940485759628     Delta-E=       -0.000000002270 Rises=F Damp=F
 DIIS: error= 7.80D-07 at cycle  13 NSaved=  13.
 NSaved=13 IEnMin=13 EnMin= -962.940485759628     IErMin=13 ErrMin= 7.80D-07
 ErrMax= 7.80D-07  0.00D+00 EMaxC= 1.00D-01 BMatC= 2.71D-10 BMatP= 2.73D-09
 IDIUse=1 WtCom= 1.00D+00 WtEn= 0.00D+00
 Coeff-Com:  0.468D-05-0.518D-05 0.438D-04 0.858D-04 0.116D-03-0.711D-04
 Coeff-Com: -0.122D-02-0.271D-02-0.166D-02 0.620D-02 0.125D+00 0.280D+00
 Coeff-Com:  0.595D+00
 Coeff:      0.468D-05-0.518D-05 0.438D-04 0.858D-04 0.116D-03-0.711D-04
 Coeff:     -0.122D-02-0.271D-02-0.166D-02 0.620D-02 0.125D+00 0.280D+00
 Coeff:      0.595D+00
 Gap=     0.151 Goal=   None    Shift=    0.000
 RMSDP=5.96D-08 MaxDP=2.34D-06 DE=-2.27D-09 OVMax= 3.01D-06

 Cycle  14  Pass 1  IDiag  1:
 RMSU=  4.10D-08    CP:  9.82D-01  4.77D-01  6.22D-01  1.00D+00  8.97D-01
                    CP:  7.62D-01  9.05D-01  7.56D-01  8.61D-01  7.30D-01
                    CP:  8.73D-01  7.61D-01  7.82D-01
 E= -962.940485759786     Delta-E=       -0.000000000158 Rises=F Damp=F
 DIIS: error= 2.23D-07 at cycle  14 NSaved=  14.
 NSaved=14 IEnMin=14 EnMin= -962.940485759786     IErMin=14 ErrMin= 2.23D-07
 ErrMax= 2.23D-07  0.00D+00 EMaxC= 1.00D-01 BMatC= 3.67D-11 BMatP= 2.71D-10
 IDIUse=1 WtCom= 1.00D+00 WtEn= 0.00D+00
 Coeff-Com:  0.567D-06-0.208D-05 0.981D-05 0.306D-04 0.451D-04 0.330D-04
 Coeff-Com: -0.217D-03-0.883D-03-0.248D-02-0.429D-02 0.130D-01 0.531D-01
 Coeff-Com:  0.287D+00 0.655D+00
 Coeff:      0.567D-06-0.208D-05 0.981D-05 0.306D-04 0.451D-04 0.330D-04
 Coeff:     -0.217D-03-0.883D-03-0.248D-02-0.429D-02 0.130D-01 0.531D-01
 Coeff:      0.287D+00 0.655D+00
 Gap=     0.151 Goal=   None    Shift=    0.000
 RMSDP=2.34D-08 MaxDP=8.83D-07 DE=-1.58D-10 OVMax= 1.41D-06

 Cycle  15  Pass 1  IDiag  1:
 RMSU=  1.34D-08    CP:  9.82D-01  4.77D-01  6.22D-01  1.00D+00  8.97D-01
                    CP:  7.62D-01  9.05D-01  7.55D-01  8.62D-01  7.30D-01
                    CP:  8.77D-01  7.71D-01  8.65D-01  7.70D-01
 E= -962.940485759848     Delta-E=       -0.000000000062 Rises=F Damp=F
 DIIS: error= 7.04D-08 at cycle  15 NSaved=  15.
 NSaved=15 IEnMin=15 EnMin= -962.940485759848     IErMin=15 ErrMin= 7.04D-08
 ErrMax= 7.04D-08  0.00D+00 EMaxC= 1.00D-01 BMatC= 3.48D-12 BMatP= 3.67D-11
 IDIUse=1 WtCom= 1.00D+00 WtEn= 0.00D+00
 Coeff-Com: -0.796D-08-0.869D-06 0.780D-06 0.502D-05 0.108D-04 0.234D-04
 Coeff-Com:  0.260D-04-0.141D-03-0.918D-03-0.258D-02-0.574D-02-0.505D-02
 Coeff-Com:  0.703D-01 0.303D+00 0.641D+00
 Coeff:     -0.796D-08-0.869D-06 0.780D-06 0.502D-05 0.108D-04 0.234D-04
 Coeff:      0.260D-04-0.141D-03-0.918D-03-0.258D-02-0.574D-02-0.505D-02
 Coeff:      0.703D-01 0.303D+00 0.641D+00
 Gap=     0.151 Goal=   None    Shift=    0.000
 RMSDP=7.49D-09 MaxDP=4.09D-07 DE=-6.23D-11 OVMax= 5.81D-07

 Error on total polarization charges =  0.00195
 SCF Done:  E(RB3LYP) =  -962.940485760     A.U. after   15 cycles
            NFock= 15  Conv=0.75D-08     -V/T= 2.0082
 KE= 9.551453149495D+02 PE=-5.142203801177D+03 EE= 1.786783995108D+03
 Leave Link  502 at Sun Jul 18 13:50:04 2021, MaxMem=   104857600 cpu:             951.0 elap:             245.6
 (Enter /dades/curu/g16A03_MST/g16/l601.exe)
 Copying SCF densities to generalized density rwf, IOpCl= 0 IROHF=0.

 **********************************************************************

            Population analysis using the SCF density.

 **********************************************************************

 Orbital symmetries:
       Occupied  (A) (A) (A) (A) (A) (A) (A) (A) (A) (A) (A) (A)
                 (A) (A) (A) (A) (A) (A) (A) (A) (A) (A) (A) (A)
                 (A) (A) (A) (A) (A) (A) (A) (A) (A) (A) (A) (A)
                 (A) (A) (A) (A) (A) (A) (A) (A) (A) (A) (A) (A)
                 (A) (A) (A) (A) (A) (A) (A) (A) (A) (A) (A) (A)
                 (A) (A) (A) (A) (A) (A) (A) (A) (A) (A)
       Virtual   (A) (A) (A) (A) (A) (A) (A) (A) (A) (A) (A) (A)
                 (A) (A) (A) (A) (A) (A) (A) (A) (A) (A) (A) (A)
                 (A) (A) (A) (A) (A) (A) (A) (A) (A) (A) (A) (A)
                 (A) (A) (A) (A) (A) (A) (A) (A) (A) (A) (A) (A)
                 (A) (A) (A) (A) (A) (A) (A) (A) (A) (A) (A) (A)
                 (A) (A) (A) (A) (A) (A) (A) (A) (A) (A) (A) (A)
                 (A) (A) (A) (A) (A) (A) (A) (A) (A) (A) (A) (A)
                 (A) (A) (A) (A) (A) (A) (A) (A) (A) (A) (A) (A)
                 (A) (A) (A) (A) (A) (A) (A) (A) (A) (A) (A) (A)
                 (A) (A) (A) (A) (A) (A) (A) (A) (A) (A) (A) (A)
                 (A) (A) (A) (A) (A) (A) (A) (A) (A) (A) (A) (A)
                 (A) (A) (A) (A) (A) (A) (A) (A) (A) (A) (A) (A)
                 (A) (A) (A) (A) (A) (A) (A) (A) (A) (A) (A) (A)
                 (A) (A) (A) (A) (A) (A) (A) (A) (A) (A) (A) (A)
                 (A) (A) (A) (A) (A) (A) (A) (A) (A) (A) (A) (A)
                 (A) (A) (A) (A) (A) (A) (A) (A) (A) (A) (A) (A)
                 (A) (A) (A) (A) (A) (A) (A) (A) (A) (A) (A) (A)
                 (A) (A) (A) (A) (A) (A) (A) (A) (A) (A) (A) (A)
                 (A) (A) (A) (A) (A) (A) (A) (A) (A) (A) (A) (A)
                 (A) (A) (A) (A) (A) (A) (A) (A) (A) (A) (A)
 The electronic state is 1-A.
 Alpha  occ. eigenvalues --  -19.14728 -19.13690 -19.04647 -19.03361 -14.51556
 Alpha  occ. eigenvalues --  -14.41061 -14.37935 -14.34290 -14.21946 -10.26357
 Alpha  occ. eigenvalues --  -10.24829 -10.23973 -10.23221 -10.23079 -10.21033
 Alpha  occ. eigenvalues --  -10.20426 -10.18187 -10.15564 -10.15540  -1.15614
 Alpha  occ. eigenvalues --   -1.02589  -1.00541  -0.99703  -0.98988  -0.98565
 Alpha  occ. eigenvalues --   -0.90939  -0.82521  -0.80507  -0.76386  -0.74208
 Alpha  occ. eigenvalues --   -0.67622  -0.66179  -0.63188  -0.60029  -0.59472
 Alpha  occ. eigenvalues --   -0.55511  -0.54128  -0.52347  -0.51828  -0.50239
 Alpha  occ. eigenvalues --   -0.49798  -0.49097  -0.46645  -0.45757  -0.44698
 Alpha  occ. eigenvalues --   -0.43333  -0.42347  -0.42176  -0.40079  -0.39320
 Alpha  occ. eigenvalues --   -0.38148  -0.37701  -0.37230  -0.36721  -0.35785
 Alpha  occ. eigenvalues --   -0.35626  -0.33952  -0.33611  -0.33198  -0.32494
 Alpha  occ. eigenvalues --   -0.30533  -0.28440  -0.26247  -0.25387  -0.24988
 Alpha  occ. eigenvalues --   -0.21485  -0.20038  -0.18583  -0.17864  -0.17424
 Alpha virt. eigenvalues --   -0.02359   0.01078   0.01866   0.07707   0.08289
 Alpha virt. eigenvalues --    0.09524   0.11604   0.12438   0.13999   0.14621
 Alpha virt. eigenvalues --    0.15197   0.16685   0.16808   0.17395   0.18189
 Alpha virt. eigenvalues --    0.18338   0.18990   0.19476   0.20965   0.21447
 Alpha virt. eigenvalues --    0.23249   0.23629   0.25268   0.25516   0.26952
 Alpha virt. eigenvalues --    0.27527   0.28272   0.29644   0.33073   0.34787
 Alpha virt. eigenvalues --    0.36304   0.39802   0.40799   0.43967   0.46072
 Alpha virt. eigenvalues --    0.47029   0.50534   0.51257   0.52608   0.53455
 Alpha virt. eigenvalues --    0.54759   0.55354   0.56676   0.56857   0.57323
 Alpha virt. eigenvalues --    0.58738   0.59232   0.59763   0.60813   0.61313
 Alpha virt. eigenvalues --    0.62957   0.63691   0.65232   0.66649   0.66737
 Alpha virt. eigenvalues --    0.67791   0.69525   0.69895   0.71486   0.72332
 Alpha virt. eigenvalues --    0.73627   0.74336   0.75793   0.76282   0.76912
 Alpha virt. eigenvalues --    0.78900   0.79290   0.79990   0.80261   0.81300
 Alpha virt. eigenvalues --    0.82419   0.83655   0.84328   0.85043   0.85908
 Alpha virt. eigenvalues --    0.86749   0.87157   0.88262   0.88782   0.90050
 Alpha virt. eigenvalues --    0.90325   0.91847   0.92813   0.93434   0.93566
 Alpha virt. eigenvalues --    0.94489   0.95653   0.96620   0.97780   0.98352
 Alpha virt. eigenvalues --    0.99162   1.01050   1.01779   1.02678   1.04182
 Alpha virt. eigenvalues --    1.06331   1.08579   1.09397   1.10040   1.10799
 Alpha virt. eigenvalues --    1.12331   1.13729   1.17799   1.18363   1.19071
 Alpha virt. eigenvalues --    1.20046   1.21881   1.24563   1.26391   1.27782
 Alpha virt. eigenvalues --    1.29267   1.31030   1.32404   1.36479   1.38692
 Alpha virt. eigenvalues --    1.42079   1.43128   1.43848   1.45644   1.46485
 Alpha virt. eigenvalues --    1.49154   1.49327   1.50504   1.51519   1.53454
 Alpha virt. eigenvalues --    1.54566   1.55375   1.58108   1.59002   1.60313
 Alpha virt. eigenvalues --    1.61018   1.61677   1.66072   1.68102   1.69349
 Alpha virt. eigenvalues --    1.70959   1.73644   1.74982   1.78463   1.79133
 Alpha virt. eigenvalues --    1.79418   1.81012   1.82870   1.83685   1.84447
 Alpha virt. eigenvalues --    1.86242   1.87151   1.87737   1.88956   1.90391
 Alpha virt. eigenvalues --    1.92803   1.93661   1.94168   1.95574   1.96231
 Alpha virt. eigenvalues --    1.97427   1.97537   1.98703   1.99616   2.02909
 Alpha virt. eigenvalues --    2.03986   2.05458   2.06017   2.07348   2.08853
 Alpha virt. eigenvalues --    2.09806   2.11892   2.12510   2.13796   2.14436
 Alpha virt. eigenvalues --    2.17785   2.18103   2.18916   2.22705   2.23197
 Alpha virt. eigenvalues --    2.24635   2.28868   2.30184   2.32833   2.33594
 Alpha virt. eigenvalues --    2.35352   2.36706   2.38978   2.41417   2.42097
 Alpha virt. eigenvalues --    2.43426   2.45696   2.46299   2.48482   2.51069
 Alpha virt. eigenvalues --    2.51835   2.53255   2.56668   2.58739   2.58881
 Alpha virt. eigenvalues --    2.62714   2.67001   2.71204   2.73748   2.74652
 Alpha virt. eigenvalues --    2.76701   2.78123   2.79851   2.81208   2.81623
 Alpha virt. eigenvalues --    2.84294   2.86092   2.87130   2.89181   2.92451
 Alpha virt. eigenvalues --    2.96413   3.00597   3.03434   3.06712   3.08600
 Alpha virt. eigenvalues --    3.12500   3.13908   3.21189   3.43268   3.53986
 Alpha virt. eigenvalues --    3.57570   3.74715   3.86983   4.06191   4.07843
 Alpha virt. eigenvalues --    4.10514   4.18664   4.21430   4.23114   4.25660
 Alpha virt. eigenvalues --    4.34801   4.36893   4.40248   4.44390   4.49436
 Alpha virt. eigenvalues --    4.61481   4.69100   4.73678   4.83869
          Condensed to atoms (all electrons):
               1          2          3          4          5          6
     1  C    5.262528   0.366226   0.356103   0.359452   0.307525  -0.021312
     2  H    0.366226   0.577222  -0.044795  -0.021018  -0.025283   0.001012
     3  H    0.356103  -0.044795   0.615203  -0.039836  -0.028783  -0.000056
     4  H    0.359452  -0.021018  -0.039836   0.559546  -0.035424  -0.001263
     5  C    0.307525  -0.025283  -0.028783  -0.035424   5.163940   0.337652
     6  C   -0.021312   0.001012  -0.000056  -0.001263   0.337652   4.331934
     7  N    0.009182  -0.000115  -0.000156   0.000609  -0.117895   0.362523
     8  C    0.000381  -0.000021   0.000004  -0.000070   0.012232  -0.040532
     9  O    0.000005  -0.000000  -0.000000   0.000000   0.000558   0.001517
    10  O   -0.006507   0.000086   0.000257   0.016602  -0.106980   0.625798
    11  C   -0.083318  -0.002524  -0.003016   0.004605   0.526302  -0.022713
    12  H   -0.007185   0.002923   0.001054  -0.000091  -0.036204   0.002838
    13  N    0.005077   0.000034  -0.000009  -0.000069  -0.037182  -0.009149
    14  C   -0.000171  -0.000002   0.000002   0.000001   0.005357   0.000413
    15  O   -0.000009   0.000001  -0.000001  -0.000000   0.001069  -0.000010
    16  C   -0.000000  -0.000000   0.000000  -0.000000   0.000042   0.000000
    17  C   -0.000000   0.000000  -0.000000  -0.000000   0.000001  -0.000000
    18  O    0.000000  -0.000000  -0.000000   0.000000  -0.000000   0.000000
    19  H   -0.000000   0.000000   0.000000  -0.000000   0.000000  -0.000000
    20  H    0.000000  -0.000000   0.000000   0.000000  -0.000000   0.000000
    21  H    0.000000   0.000000  -0.000000   0.000000  -0.000000  -0.000000
    22  H    0.000000   0.000000   0.000000   0.000000  -0.000050  -0.000000
    23  H    0.000001   0.000000  -0.000000  -0.000000  -0.000016  -0.000068
    24  C    0.000001  -0.000001   0.000001   0.000000  -0.000378   0.000026
    25  H   -0.000003  -0.000006   0.000002  -0.000001  -0.000048   0.000030
    26  H   -0.000000  -0.000000   0.000000  -0.000000   0.000031  -0.000011
    27  C   -0.000000   0.000000  -0.000000   0.000000  -0.000013  -0.000000
    28  H    0.000000  -0.000000   0.000000  -0.000000  -0.000000  -0.000000
    29  N    0.000000   0.000000  -0.000000   0.000000  -0.000000   0.000000
    30  N    0.000000  -0.000000   0.000000  -0.000000  -0.000000   0.000000
    31  N   -0.000000  -0.000000   0.000000   0.000000  -0.000000  -0.000000
               7          8          9         10         11         12
     1  C    0.009182   0.000381   0.000005  -0.006507  -0.083318  -0.007185
     2  H   -0.000115  -0.000021  -0.000000   0.000086  -0.002524   0.002923
     3  H   -0.000156   0.000004  -0.000000   0.000257  -0.003016   0.001054
     4  H    0.000609  -0.000070   0.000000   0.016602   0.004605  -0.000091
     5  C   -0.117895   0.012232   0.000558  -0.106980   0.526302  -0.036204
     6  C    0.362523  -0.040532   0.001517   0.625798  -0.022713   0.002838
     7  N    7.383714   0.421411  -0.125266  -0.134034  -0.044125  -0.001118
     8  C    0.421411   4.212963   0.598244   0.002391  -0.047440   0.001660
     9  O   -0.125266   0.598244   8.255437  -0.000019   0.000912  -0.000144
    10  O   -0.134034   0.002391  -0.000019   8.159517   0.003776  -0.000061
    11  C   -0.044125  -0.047440   0.000912   0.003776   5.030300   0.363159
    12  H   -0.001118   0.001660  -0.000144  -0.000061   0.363159   0.546819
    13  N   -0.115587   0.225683  -0.128270   0.000045   0.283986  -0.048036
    14  C    0.006509  -0.020854   0.009972   0.000007  -0.032371  -0.004573
    15  O   -0.000048   0.001078   0.000210  -0.000000   0.004748   0.010422
    16  C    0.000002  -0.000013  -0.000004   0.000000  -0.000202   0.000517
    17  C   -0.000000  -0.000001  -0.000000  -0.000000   0.000038   0.000040
    18  O    0.000000  -0.000000  -0.000000   0.000000   0.000000  -0.000001
    19  H   -0.000000  -0.000000   0.000000  -0.000000   0.000000   0.000000
    20  H    0.000000   0.000000   0.000000   0.000000  -0.000001  -0.000002
    21  H   -0.000000   0.000000   0.000000  -0.000000  -0.000002  -0.000000
    22  H   -0.000000   0.000009   0.000000  -0.000000  -0.000165  -0.000008
    23  H    0.000516   0.000120   0.018499   0.000000   0.004645   0.000306
    24  C   -0.000276   0.000416  -0.000365  -0.000000  -0.005528  -0.000022
    25  H   -0.000127  -0.000088  -0.000021  -0.000000   0.007277   0.002530
    26  H   -0.000022   0.001234   0.001889   0.000000   0.000140  -0.000037
    27  C    0.000002   0.000083   0.000079   0.000000  -0.000088  -0.000302
    28  H   -0.000000  -0.000000   0.000000  -0.000000  -0.000017  -0.000016
    29  N   -0.000000  -0.000025  -0.000004  -0.000000  -0.000001   0.000003
    30  N   -0.000000  -0.000000  -0.000000  -0.000000   0.000000   0.000000
    31  N    0.000000   0.000000   0.000000  -0.000000  -0.000000  -0.000000
              13         14         15         16         17         18
     1  C    0.005077  -0.000171  -0.000009  -0.000000  -0.000000   0.000000
     2  H    0.000034  -0.000002   0.000001  -0.000000   0.000000  -0.000000
     3  H   -0.000009   0.000002  -0.000001   0.000000  -0.000000  -0.000000
     4  H   -0.000069   0.000001  -0.000000  -0.000000  -0.000000   0.000000
     5  C   -0.037182   0.005357   0.001069   0.000042   0.000001  -0.000000
     6  C   -0.009149   0.000413  -0.000010   0.000000  -0.000000   0.000000
     7  N   -0.115587   0.006509  -0.000048   0.000002  -0.000000   0.000000
     8  C    0.225683  -0.020854   0.001078  -0.000013  -0.000001  -0.000000
     9  O   -0.128270   0.009972   0.000210  -0.000004  -0.000000  -0.000000
    10  O    0.000045   0.000007  -0.000000   0.000000  -0.000000   0.000000
    11  C    0.283986  -0.032371   0.004748  -0.000202   0.000038   0.000000
    12  H   -0.048036  -0.004573   0.010422   0.000517   0.000040  -0.000001
    13  N    7.190760   0.268069  -0.047817   0.001919  -0.000118  -0.000000
    14  C    0.268069   4.729789   0.191566  -0.044953   0.000441  -0.000014
    15  O   -0.047817   0.191566   8.353479   0.231620  -0.034257   0.000484
    16  C    0.001919  -0.044953   0.231620   4.890711   0.332642  -0.027014
    17  C   -0.000118   0.000441  -0.034257   0.332642   4.895005   0.245510
    18  O   -0.000000  -0.000014   0.000484  -0.027014   0.245510   8.273956
    19  H   -0.000000   0.000001  -0.000056   0.003608  -0.017986   0.239141
    20  H    0.000003  -0.000013   0.003078  -0.038614   0.342421  -0.030713
    21  H    0.000006   0.000504  -0.000172  -0.036014   0.357715  -0.046019
    22  H    0.000362   0.004246  -0.047909   0.352664  -0.055611   0.002479
    23  H   -0.050205   0.369982  -0.032567   0.003191   0.000747   0.000002
    24  C   -0.054617   0.339539  -0.046873  -0.080624   0.004037  -0.000029
    25  H   -0.008597  -0.035302  -0.002582   0.003308   0.000042   0.000000
    26  H   -0.000647  -0.012587   0.003186   0.005058  -0.000028   0.000000
    27  C    0.004163  -0.059188  -0.038417   0.319396  -0.020916   0.001334
    28  H   -0.000071   0.005694   0.002868  -0.030090   0.001037  -0.000025
    29  N    0.000047  -0.001760  -0.000086  -0.045629  -0.009724   0.000121
    30  N   -0.000004   0.000148   0.000063   0.002219  -0.000189  -0.000001
    31  N   -0.000000   0.000006   0.000001  -0.000022   0.000001  -0.000000
              19         20         21         22         23         24
     1  C   -0.000000   0.000000   0.000000   0.000000   0.000001   0.000001
     2  H    0.000000  -0.000000   0.000000   0.000000   0.000000  -0.000001
     3  H    0.000000   0.000000  -0.000000   0.000000  -0.000000   0.000001
     4  H   -0.000000   0.000000   0.000000   0.000000  -0.000000   0.000000
     5  C    0.000000  -0.000000  -0.000000  -0.000050  -0.000016  -0.000378
     6  C   -0.000000   0.000000  -0.000000  -0.000000  -0.000068   0.000026
     7  N   -0.000000   0.000000  -0.000000  -0.000000   0.000516  -0.000276
     8  C   -0.000000   0.000000   0.000000   0.000009   0.000120   0.000416
     9  O    0.000000   0.000000   0.000000   0.000000   0.018499  -0.000365
    10  O   -0.000000   0.000000  -0.000000  -0.000000   0.000000  -0.000000
    11  C    0.000000  -0.000001  -0.000002  -0.000165   0.004645  -0.005528
    12  H    0.000000  -0.000002  -0.000000  -0.000008   0.000306  -0.000022
    13  N   -0.000000   0.000003   0.000006   0.000362  -0.050205  -0.054617
    14  C    0.000001  -0.000013   0.000504   0.004246   0.369982   0.339539
    15  O   -0.000056   0.003078  -0.000172  -0.047909  -0.032567  -0.046873
    16  C    0.003608  -0.038614  -0.036014   0.352664   0.003191  -0.080624
    17  C   -0.017986   0.342421   0.357715  -0.055611   0.000747   0.004037
    18  O    0.239141  -0.030713  -0.046019   0.002479   0.000002  -0.000029
    19  H    0.361544  -0.008273   0.000734  -0.000106   0.000000   0.000003
    20  H   -0.008273   0.642521  -0.050976   0.001298  -0.000047   0.000475
    21  H    0.000734  -0.050976   0.621018   0.005878  -0.000110  -0.000450
    22  H   -0.000106   0.001298   0.005878   0.630415  -0.000408  -0.003222
    23  H    0.000000  -0.000047  -0.000110  -0.000408   0.556338  -0.052923
    24  C    0.000003   0.000475  -0.000450  -0.003222  -0.052923   5.263269
    25  H   -0.000000  -0.000018  -0.000004   0.000390   0.004797   0.353740
    26  H   -0.000000  -0.000013   0.000003  -0.000229  -0.001901   0.350050
    27  C   -0.000197   0.000523  -0.007238  -0.036483  -0.002116   0.344967
    28  H    0.000003   0.001412   0.000049  -0.004832  -0.000082  -0.036234
    29  N    0.000011   0.001835   0.008710   0.004448   0.005455  -0.072902
    30  N    0.000000  -0.000486   0.000140  -0.000064   0.000051  -0.005569
    31  N   -0.000000  -0.000093   0.000007  -0.000002   0.000001   0.000136
              25         26         27         28         29         30
     1  C   -0.000003  -0.000000  -0.000000   0.000000   0.000000   0.000000
     2  H   -0.000006  -0.000000   0.000000  -0.000000   0.000000  -0.000000
     3  H    0.000002   0.000000  -0.000000   0.000000  -0.000000   0.000000
     4  H   -0.000001  -0.000000   0.000000  -0.000000   0.000000  -0.000000
     5  C   -0.000048   0.000031  -0.000013  -0.000000  -0.000000  -0.000000
     6  C    0.000030  -0.000011  -0.000000  -0.000000   0.000000   0.000000
     7  N   -0.000127  -0.000022   0.000002  -0.000000  -0.000000  -0.000000
     8  C   -0.000088   0.001234   0.000083  -0.000000  -0.000025  -0.000000
     9  O   -0.000021   0.001889   0.000079   0.000000  -0.000004  -0.000000
    10  O   -0.000000   0.000000   0.000000  -0.000000  -0.000000  -0.000000
    11  C    0.007277   0.000140  -0.000088  -0.000017  -0.000001   0.000000
    12  H    0.002530  -0.000037  -0.000302  -0.000016   0.000003   0.000000
    13  N   -0.008597  -0.000647   0.004163  -0.000071   0.000047  -0.000004
    14  C   -0.035302  -0.012587  -0.059188   0.005694  -0.001760   0.000148
    15  O   -0.002582   0.003186  -0.038417   0.002868  -0.000086   0.000063
    16  C    0.003308   0.005058   0.319396  -0.030090  -0.045629   0.002219
    17  C    0.000042  -0.000028  -0.020916   0.001037  -0.009724  -0.000189
    18  O    0.000000   0.000000   0.001334  -0.000025   0.000121  -0.000001
    19  H   -0.000000  -0.000000  -0.000197   0.000003   0.000011   0.000000
    20  H   -0.000018  -0.000013   0.000523   0.001412   0.001835  -0.000486
    21  H   -0.000004   0.000003  -0.007238   0.000049   0.008710   0.000140
    22  H    0.000390  -0.000229  -0.036483  -0.004832   0.004448  -0.000064
    23  H    0.004797  -0.001901  -0.002116  -0.000082   0.005455   0.000051
    24  C    0.353740   0.350050   0.344967  -0.036234  -0.072902  -0.005569
    25  H    0.579926  -0.041185  -0.028213  -0.004709   0.005617   0.000135
[...]
 Alpha virt. eigenvalues --    2.48026   2.48411   2.49551   2.50404   2.51369
 Alpha virt. eigenvalues --    2.52394   2.53393   2.54427   2.54815   2.56965
 Alpha virt. eigenvalues --    2.57201   2.57993   2.58546   2.59338   2.59919
 Alpha virt. eigenvalues --    2.62348   2.62767   2.63325   2.64135   2.65170
 Alpha virt. eigenvalues --    2.66416   2.67453   2.68097   2.69209   2.70328
 Alpha virt. eigenvalues --    2.71388   2.73281   2.73676   2.75541   2.76060
 Alpha virt. eigenvalues --    2.76983   2.78607   2.79135   2.80154   2.80887
 Alpha virt. eigenvalues --    2.82885   2.83332   2.85083   2.85483   2.86077
 Alpha virt. eigenvalues --    2.87885   2.90746   2.92024   2.92205   2.94554
 Alpha virt. eigenvalues --    2.95421   2.95674   2.97907   2.98422   2.99255
 Alpha virt. eigenvalues --    2.99906   3.02846   3.04154   3.05538   3.07186
 Alpha virt. eigenvalues --    3.08313   3.09621   3.11872   3.12885   3.13885
 Alpha virt. eigenvalues --    3.14681   3.17826   3.18782   3.19658   3.20533
 Alpha virt. eigenvalues --    3.20733   3.22306   3.25478   3.27131   3.30040
 Alpha virt. eigenvalues --    3.30316   3.34291   3.36249   3.39258   3.40235
 Alpha virt. eigenvalues --    3.43494   3.44464   3.48524   3.51524   3.55472
 Alpha virt. eigenvalues --    3.57415   3.61042   3.61725   3.64089   3.66299
 Alpha virt. eigenvalues --    3.75869   3.79273   3.84807   3.88409   3.89322
 Alpha virt. eigenvalues --    3.91288   3.93008   3.98464   3.99763   4.00210
 Alpha virt. eigenvalues --    4.01904   4.02498   4.03762   4.05099   4.08645
 Alpha virt. eigenvalues --    4.09609   4.11967   4.15219   4.19510   4.22231
 Alpha virt. eigenvalues --    4.26147   4.29266   4.33023   4.35795   4.39940
 Alpha virt. eigenvalues --    4.44220   4.47854   4.67473   4.75941   4.83790
          Condensed to atoms (all electrons):
               1          2          3          4          5          6
     1  C    5.237969   0.122929   0.329060   0.368049   0.316836  -0.228319
     2  H    0.122929   1.155875  -0.115091  -0.095439   0.202962  -0.073747
     3  H    0.329060  -0.115091   0.822268  -0.117729   0.058983  -0.009327
     4  H    0.368049  -0.095439  -0.117729   0.809280  -0.021484   0.009759
     5  C    0.316836   0.202962   0.058983  -0.021484   8.239551  -1.493085
     6  C   -0.228319  -0.073747  -0.009327   0.009759  -1.493085   7.807643
     7  N   -0.007058  -0.007171   0.000420  -0.000380   0.312114  -0.188140
     8  C   -0.043407   0.016031  -0.009177  -0.013431   0.193329  -0.468747
     9  O    0.002489   0.000170   0.000140   0.000288   0.047093   0.047430
    10  O   -0.000516  -0.005781   0.023131   0.023966  -0.125201   0.147299
    11  C   -0.610439  -0.088944  -0.031217  -0.005421  -1.841787   0.025833
    12  H    0.076072  -0.044164   0.006987  -0.020706   0.095956  -0.093221
    13  N    0.015885   0.056193  -0.012167  -0.004623  -0.051364  -0.019684
    14  C   -0.030197   0.037696  -0.008094  -0.004944  -0.040281  -0.065248
    15  O   -0.004651  -0.001764  -0.000402   0.000209  -0.052545   0.012662
    16  C    0.001485   0.001890  -0.002460   0.000062  -0.016642  -0.000147
    17  C   -0.000694   0.000971  -0.000500   0.000013  -0.015056  -0.001075
    18  O    0.000722   0.000152   0.000031   0.000036   0.000256  -0.000123
    19  H   -0.000082  -0.000107   0.000010  -0.000010  -0.000798   0.000015
    20  H   -0.000022   0.000126  -0.000013   0.000012   0.000268   0.000014
    21  H    0.000295   0.000201  -0.000036   0.000003   0.002114  -0.000444
    22  H    0.003016  -0.001668  -0.000058   0.000823   0.007735   0.004308
    23  H   -0.008014   0.000714  -0.000196  -0.000669  -0.018518  -0.008445
    24  C    0.001951   0.002158  -0.000252  -0.001532   0.060717  -0.058712
    25  H    0.003438   0.000228  -0.001461   0.002507  -0.075675   0.010689
    26  H    0.001161  -0.000190  -0.000034   0.000038   0.014466   0.000081
    27  C    0.005293  -0.003893   0.001500   0.000415  -0.003008   0.024403
    28  H    0.000203  -0.000334   0.000178  -0.000112   0.007472  -0.000223
    29  N    0.000287  -0.000044  -0.000005   0.000005   0.001549  -0.001193
    30  N   -0.000362   0.000123  -0.000029  -0.000017   0.001242  -0.001142
    31  N    0.000011  -0.000007   0.000001   0.000001   0.000121   0.000012
               7          8          9         10         11         12
     1  C   -0.007058  -0.043407   0.002489  -0.000516  -0.610439   0.076072
     2  H   -0.007171   0.016031   0.000170  -0.005781  -0.088944  -0.044164
     3  H    0.000420  -0.009177   0.000140   0.023131  -0.031217   0.006987
     4  H   -0.000380  -0.013431   0.000288   0.023966  -0.005421  -0.020706
     5  C    0.312114   0.193329   0.047093  -0.125201  -1.841787   0.095956
     6  C   -0.188140  -0.468747   0.047430   0.147299   0.025833  -0.093221
     7  N    8.173868   0.146418  -0.200858  -0.155448  -0.066770   0.029263
     8  C    0.146418   5.443088   0.194963   0.061642  -0.701935  -0.011459
     9  O   -0.200858   0.194963   8.967152  -0.007090  -0.101610   0.000855
    10  O   -0.155448   0.061642  -0.007090   9.032832   0.051921   0.005354
    11  C   -0.066770  -0.701935  -0.101610   0.051921  11.401101  -1.186728
    12  H    0.029263  -0.011459   0.000855   0.005354  -1.186728   2.751976
    13  N   -0.066048   0.111093  -0.168435   0.000229  -0.485162   0.103562
    14  C   -0.123373   0.207658   0.214481  -0.000382  -1.960292   0.162415
    15  O   -0.003697  -0.079427   0.008354   0.000425   0.338464  -0.063000
    16  C   -0.007877  -0.051843   0.005295   0.000992  -0.111954  -0.018710
    17  C    0.000622  -0.004793   0.002052   0.000042   0.027876  -0.000202
    18  O    0.000047  -0.000114  -0.000064   0.000002   0.002057  -0.000564
    19  H   -0.000025   0.000024  -0.000041   0.000002  -0.000101   0.001196
    20  H    0.000037  -0.000259   0.000027  -0.000004   0.003390  -0.003120
    21  H   -0.000053  -0.000169   0.000571   0.000026  -0.004204  -0.005245
    22  H   -0.000987  -0.004900   0.000199  -0.000106   0.089576  -0.032246
    23  H   -0.021738   0.147348  -0.040087   0.000220  -0.029426   0.028057
    24  C    0.004109   0.019553  -0.040555   0.003964  -0.334571  -0.036809
    25  H   -0.001480  -0.005311  -0.013020   0.000849   0.230742  -0.045937
    26  H    0.000891  -0.049744   0.016968   0.000363   0.011821   0.008673
    27  C    0.019795  -0.033851  -0.000116  -0.000912   0.360110  -0.013942
    28  H    0.000420   0.005950   0.000304  -0.000043  -0.050486   0.002749
    29  N   -0.000118  -0.007291  -0.000253   0.000022   0.035068   0.006960
    30  N   -0.000534  -0.010477  -0.000956   0.000003  -0.021216  -0.001670
    31  N   -0.000019   0.002003  -0.000404  -0.000000  -0.000550   0.000525
              13         14         15         16         17         18
     1  C    0.015885  -0.030197  -0.004651   0.001485  -0.000694   0.000722
     2  H    0.056193   0.037696  -0.001764   0.001890   0.000971   0.000152
     3  H   -0.012167  -0.008094  -0.000402  -0.002460  -0.000500   0.000031
     4  H   -0.004623  -0.004944   0.000209   0.000062   0.000013   0.000036
     5  C   -0.051364  -0.040281  -0.052545  -0.016642  -0.015056   0.000256
     6  C   -0.019684  -0.065248   0.012662  -0.000147  -0.001075  -0.000123
     7  N   -0.066048  -0.123373  -0.003697  -0.007877   0.000622   0.000047
     8  C    0.111093   0.207658  -0.079427  -0.051843  -0.004793  -0.000114
     9  O   -0.168435   0.214481   0.008354   0.005295   0.002052  -0.000064
    10  O    0.000229  -0.000382   0.000425   0.000992   0.000042   0.000002
    11  C   -0.485162  -1.960292   0.338464  -0.111954   0.027876   0.002057
    12  H    0.103562   0.162415  -0.063000  -0.018710  -0.000202  -0.000564
    13  N    8.973908  -1.045802  -0.029860  -0.023354  -0.036533   0.004489
    14  C   -1.045802  10.756064  -0.297818  -1.046858   0.025701  -0.002091
    15  O   -0.029860  -0.297818   9.813580  -0.147853  -0.041420  -0.012073
    16  C   -0.023354  -1.046858  -0.147853   8.694396   0.179146  -0.012895
    17  C   -0.036533   0.025701  -0.041420   0.179146   4.844912  -0.017802
    18  O    0.004489  -0.002091  -0.012073  -0.012895  -0.017802   8.552121
    19  H   -0.001163  -0.003310  -0.004967   0.086105  -0.114712   0.412448
    20  H    0.007620  -0.054081   0.084207  -0.012877   0.154559  -0.112489
    21  H   -0.003487   0.017718  -0.009311  -0.264735   0.219592  -0.084063
    22  H    0.020446  -0.073675  -0.058763  -0.628268  -0.241294   0.006859
    23  H   -0.105541  -0.402704  -0.304905   0.030349   0.016948  -0.001983
    24  C    0.465081  -1.590764  -0.103391   1.065947  -0.098483  -0.027365
    25  H   -0.058774  -0.305965   0.044491  -0.029893   0.044801  -0.001874
    26  H   -0.109439   0.375048   0.068929   0.059241  -0.017642  -0.001166
    27  C    0.222855   0.198696   0.077345  -2.636412  -0.123379   0.043410
    28  H   -0.019082   0.172567  -0.016624   0.260887  -0.028601  -0.001630
    29  N   -0.019888   0.122243   0.030756   0.040235  -0.042571   0.011441
    30  N    0.029124  -0.245664  -0.040732  -0.096622   0.045030  -0.004623
    31  N   -0.002320   0.015474  -0.000328   0.074663   0.002426  -0.000496
              19         20         21         22         23         24
     1  C   -0.000082  -0.000022   0.000295   0.003016  -0.008014   0.001951
     2  H   -0.000107   0.000126   0.000201  -0.001668   0.000714   0.002158
     3  H    0.000010  -0.000013  -0.000036  -0.000058  -0.000196  -0.000252
     4  H   -0.000010   0.000012   0.000003   0.000823  -0.000669  -0.001532
     5  C   -0.000798   0.000268   0.002114   0.007735  -0.018518   0.060717
     6  C    0.000015   0.000014  -0.000444   0.004308  -0.008445  -0.058712
     7  N   -0.000025   0.000037  -0.000053  -0.000987  -0.021738   0.004109
     8  C    0.000024  -0.000259  -0.000169  -0.004900   0.147348   0.019553
     9  O   -0.000041   0.000027   0.000571   0.000199  -0.040087  -0.040555
    10  O    0.000002  -0.000004   0.000026  -0.000106   0.000220   0.003964
    11  C   -0.000101   0.003390  -0.004204   0.089576  -0.029426  -0.334571
    12  H    0.001196  -0.003120  -0.005245  -0.032246   0.028057  -0.036809
    13  N   -0.001163   0.007620  -0.003487   0.020446  -0.105541   0.465081
    14  C   -0.003310  -0.054081   0.017718  -0.073675  -0.402704  -1.590764
    15  O   -0.004967   0.084207  -0.009311  -0.058763  -0.304905  -0.103391
    16  C    0.086105  -0.012877  -0.264735  -0.628268   0.030349   1.065947
    17  C   -0.114712   0.154559   0.219592  -0.241294   0.016948  -0.098483
    18  O    0.412448  -0.112489  -0.084063   0.006859  -0.001983  -0.027365
    19  H    0.548437  -0.018817  -0.040280  -0.013547  -0.000970   0.000049
    20  H   -0.018817   1.172938  -0.075736  -0.040714   0.001661   0.065087
    21  H   -0.040280  -0.075736   1.101232   0.097090   0.009148   0.029304
    22  H   -0.013547  -0.040714   0.097090   1.840735  -0.001332  -0.111515
    23  H   -0.000970   0.001661   0.009148  -0.001332   2.084272   0.248979
    24  C    0.000049   0.065087   0.029304  -0.111515   0.248979   7.234905
    25  H    0.000041   0.008113   0.001180   0.007071   0.062738   0.117468
    26  H    0.000032  -0.001868   0.000094   0.005813  -0.131369  -0.091631
    27  C   -0.004915  -0.096591  -0.008424   0.424794  -0.182264  -2.002889
    28  H    0.000318   0.007379  -0.002729  -0.132469   0.008770   0.277867
    29  N    0.004123  -0.022027   0.015677   0.097572   0.002117   0.005524
    30  N   -0.002112   0.031271   0.042398  -0.007830   0.041413   0.293802
    31  N    0.000068   0.001015  -0.001156  -0.000064   0.002614   0.028557
              25         26         27         28         29         30
     1  C    0.003438   0.001161   0.005293   0.000203   0.000287  -0.000362
     2  H    0.000228  -0.000190  -0.003893  -0.000334  -0.000044   0.000123
     3  H   -0.001461  -0.000034   0.001500   0.000178  -0.000005  -0.000029
     4  H    0.002507   0.000038   0.000415  -0.000112   0.000005  -0.000017
     5  C   -0.075675   0.014466  -0.003008   0.007472   0.001549   0.001242
     6  C    0.010689   0.000081   0.024403  -0.000223  -0.001193  -0.001142
     7  N   -0.001480   0.000891   0.019795   0.000420  -0.000118  -0.000534
     8  C   -0.005311  -0.049744  -0.033851   0.005950  -0.007291  -0.010477
     9  O   -0.013020   0.016968  -0.000116   0.000304  -0.000253  -0.000956
    10  O    0.000849   0.000363  -0.000912  -0.000043   0.000022   0.000003
    11  C    0.230742   0.011821   0.360110  -0.050486   0.035068  -0.021216
    12  H   -0.045937   0.008673  -0.013942   0.002749   0.006960  -0.001670
    13  N   -0.058774  -0.109439   0.222855  -0.019082  -0.019888   0.029124
    14  C   -0.305965   0.375048   0.198696   0.172567   0.122243  -0.245664
    15  O    0.044491   0.068929   0.077345  -0.016624   0.030756  -0.040732
    16  C   -0.029893   0.059241  -2.636412   0.260887   0.040235  -0.096622
    17  C    0.044801  -0.017642  -0.123379  -0.028601  -0.042571   0.045030
    18  O   -0.001874  -0.001166   0.043410  -0.001630   0.011441  -0.004623
    19  H    0.000041   0.000032  -0.004915   0.000318   0.004123  -0.002112
    20  H    0.008113  -0.001868  -0.096591   0.007379  -0.022027   0.031271
    21  H    0.001180   0.000094  -0.008424  -0.002729   0.015677   0.042398
    22  H    0.007071   0.005813   0.424794  -0.132469   0.097572  -0.007830
    23  H    0.062738  -0.131369  -0.182264   0.008770   0.002117   0.041413
    24  C    0.117468  -0.091631  -2.002889   0.277867   0.005524   0.293802
    25  H    1.544271  -0.297493  -0.038770  -0.094275   0.048475   0.014524
    26  H   -0.297493   1.452512  -0.146291   0.031448   0.072224  -0.115382
    27  C   -0.038770  -0.146291  10.926977  -0.719561  -0.613139  -0.182437
    28  H   -0.094275   0.031448  -0.719561   1.646729  -0.066211  -0.030194
    29  N    0.048475   0.072224  -0.613139  -0.066211   9.907581  -1.762959
    30  N    0.014524  -0.115382  -0.182437  -0.030194  -1.762959   8.737901
    31  N    0.001797  -0.016313  -0.183632   0.010998  -0.017799  -0.130085
              31
     1  C    0.000011
     2  H   -0.000007
     3  H    0.000001
     4  H    0.000001
     5  C    0.000121
     6  C    0.000012
     7  N   -0.000019
     8  C    0.002003
     9  O   -0.000404
    10  O   -0.000000
    11  C   -0.000550
    12  H    0.000525
    13  N   -0.002320
    14  C    0.015474
    15  O   -0.000328
    16  C    0.074663
    17  C    0.002426
    18  O   -0.000496
    19  H    0.000068
    20  H    0.001015
    21  H   -0.001156
    22  H   -0.000064
    23  H    0.002614
    24  C    0.028557
    25  H    0.001797
    26  H   -0.016313
    27  C   -0.183632
    28  H    0.010998
    29  N   -0.017799
    30  N   -0.130085
    31  N    7.616980
 Mulliken charges:
               1
     1  C    0.446611
     2  H   -0.160073
     3  H    0.065539
     4  H    0.071031
     5  C    0.192682
     6  C    0.620874
     7  N   -0.836227
     8  C    0.947233
     9  O   -0.935341
    10  O   -1.057802
    11  C    1.054852
    12  H   -0.702877
    13  N   -0.747760
    14  C    0.995780
    15  O   -1.205891
    16  C    0.608706
    17  C    1.220068
    18  O   -0.752655
    19  H    0.153090
    20  H   -0.099107
    21  H   -0.036571
    22  H   -0.256601
    23  H   -0.427187
    24  C    0.573446
    25  H   -0.173498
    26  H   -0.141242
    27  C    0.688831
    28  H   -0.271665
    29  N   -0.848363
    30  N    0.418212
    31  N   -0.404095
 Sum of Mulliken charges =  -1.00000
 Mulliken charges with hydrogens summed into heavy atoms:
               1
     1  C    0.423109
     5  C    0.192682
     6  C    0.620874
     7  N   -0.836227
     8  C    0.947233
     9  O   -0.935341
    10  O   -1.057802
    11  C    0.351976
    13  N   -0.747760
    14  C    0.568592
    15  O   -1.205891
    16  C    0.352105
    17  C    1.084389
    18  O   -0.599565
    24  C    0.258706
    27  C    0.417166
    29  N   -0.848363
    30  N    0.418212
    31  N   -0.404095
 Electronic spatial extent (au):  <R**2>=           6077.8336
 Charge=             -1.0000 electrons
 Dipole moment (field-independent basis, Debye):
    X=            -17.0802    Y=              7.6279    Z=              4.6915  Tot=             19.2854
 Quadrupole moment (field-independent basis, Debye-Ang):
   XX=           -192.0433   YY=           -139.7124   ZZ=           -115.5410
   XY=              9.6918   XZ=              6.9829   YZ=             -9.5150
 Traceless Quadrupole moment (field-independent basis, Debye-Ang):
   XX=            -42.9444   YY=              9.3865   ZZ=             33.5579
   XY=              9.6918   XZ=              6.9829   YZ=             -9.5150
 Octapole moment (field-independent basis, Debye-Ang**2):
  XXX=           -392.0761  YYY=             59.8776  ZZZ=             -5.6384  XYY=            -41.5011
  XXY=            120.5257  XXZ=             -9.5731  XZZ=            -28.8585  YZZ=             21.4100
  YYZ=              6.7750  XYZ=            -12.1882
 Hexadecapole moment (field-independent basis, Debye-Ang**3):
 XXXX=          -7998.2715 YYYY=          -1975.8518 ZZZZ=           -481.1945 XXXY=            -48.0139
 XXXZ=            119.6864 YYYX=            -73.8159 YYYZ=           -115.9180 ZZZX=             24.2072
 ZZZY=            -49.5345 XXYY=          -1407.9218 XXZZ=          -1049.2630 YYZZ=           -381.7899
 XXYZ=            -71.2969 YYXZ=            115.7372 ZZXY=            -33.3114
 N-N= 1.441555222312D+03 E-N=-5.146993979498D+03  KE= 9.559042150040D+02
 Leave Link  601 at Sun Jul 18 17:08:33 2021, MaxMem=   262144000 cpu:               0.5 elap:               0.3
 (Enter /dades/curu/g16A03_MST/g16/l9999.exe)
 1\1\GINC-PIRINEUS39\SP\RMP2-FC\Aug-CC-pVDZ\C10H12N5O4(1-)\UBATOR02\18-
 Jul-2021\0\\#p mp2/aug-cc-pVDZ scf=tight maxdisk=180GB geom=allcheck\\
 SET_328_BBB288_conf1.geo_210_105_285 geometry\\-1,1\C,0,0.9246778621,-
 4.0407450107,0.7644120681\H,0,0.53879144,-4.0568884696,-0.2597217055\H
 ,0,0.334082092,-4.7396085004,1.3669743943\H,0,1.9467247638,-4.43733207
 38,0.7554336785\C,0,0.882226189,-2.6580840569,1.3409413064\C,0,1.35369
 96703,-2.439776838,2.7218478905\N,0,1.302453258,-1.1781449893,3.256959
 872\C,0,0.8368842574,-0.1225459623,2.5603918552\O,0,0.7976950578,1.045
 7632819,2.9937531342\O,0,1.79064806,-3.4080474975,3.3795322993\C,0,0.4
 084243607,-1.5922032969,0.6619431621\H,0,0.0025480737,-1.6559459954,-0
 .3405776149\N,0,0.3635817885,-0.3399337177,1.2280613829\C,0,-0.1125820
 819,0.799353465,0.4653661474\O,0,-1.2343317968,0.4175599377,-0.3434266
 237\C,0,-1.0770372561,0.884159288,-1.6905195362\C,0,-2.4050221854,1.37
 31476103,-2.2354277515\O,0,-3.2366519593,0.2398101174,-2.4395454159\H,
 0,-4.122822648,0.5635596477,-2.6582913734\H,0,-2.2219616719,1.91176099
 38,-3.1785081909\H,0,-2.8400000686,2.0817619429,-1.5216752735\H,0,-0.7
 37866586,0.0521530217,-2.3234592106\H,0,-0.4170431049,1.5386085036,1.2
 050707411\C,0,0.9160759123,1.3883675529,-0.5148465961\H,0,1.5560478728
 ,0.5915762406,-0.9060020233\H,0,1.5547846079,2.1390702951,-0.043723826
 2\C,0,0.0405941103,1.9358471797,-1.6441424951\H,0,0.5634494472,2.01340
 70785,-2.6001659571\N,0,-0.5614719519,3.2548166991,-1.2975686859\N,0,0
 .1961659798,4.2229348549,-1.3733773921\N,0,0.7962365072,5.1945986977,-
 1.4127082601\\Version=ES64L-G16RevA.03\State=1-A\HF=-957.4521016\MP2=-
 960.5044631\RMSD=4.428e-09\PG=C01 [X(C10H12N5O4)]\\@


 DO NOT LET SELFISH MEN OR GREEDY INTERESTS SKIN YOUR COUNTRY OF ITS
 BEAUTY, ITS RICHES, OR ITS ROMANCE. -- THEODORE ROOSEVELT
 Job cpu time:       0 days  3 hours  7 minutes  3.3 seconds.
 Elapsed time:       0 days  1 hours  4 minutes  8.8 seconds.
 File lengths (MBytes):  RWF=  85331 Int=      0 D2E=      0 Chk=     25 Scr=      1
 Normal termination of Gaussian 16 at Sun Jul 18 17:08:35 2021.
