 Entering Gaussian System, Link 0=g16
 Input=SET_328_BBB321_conf1.geo_195_210_120_OCTANOL.dat
 Output=SET_328_BBB321_conf1.geo_195_210_120_OCTANOL.log
 Initial command:
 /dades/curu/g16A03_MST/g16/l1.exe "/tmp/ubator02/1839697/Gau-205539.inp" -scrdir="/tmp/ubator02/1839697/"
 Entering Link 1 = /dades/curu/g16A03_MST/g16/l1.exe PID=    205540.
  
 Copyright (c) 1988,1990,1992,1993,1995,1998,2003,2009,2016,
            Gaussian, Inc.  All Rights Reserved.
  
 This is part of the Gaussian(R) 16 program.  It is based on
 the Gaussian(R) 09 system (copyright 2009, Gaussian, Inc.),
 the Gaussian(R) 03 system (copyright 2003, Gaussian, Inc.),
 the Gaussian(R) 98 system (copyright 1998, Gaussian, Inc.),
 the Gaussian(R) 94 system (copyright 1995, Gaussian, Inc.),
 the Gaussian 92(TM) system (copyright 1992, Gaussian, Inc.),
 the Gaussian 90(TM) system (copyright 1990, Gaussian, Inc.),
 the Gaussian 88(TM) system (copyright 1988, Gaussian, Inc.),
 the Gaussian 86(TM) system (copyright 1986, Carnegie Mellon
 University), and the Gaussian 82(TM) system (copyright 1983,
 Carnegie Mellon University). Gaussian is a federally registered
 trademark of Gaussian, Inc.
  
 This software contains proprietary and confidential information,
 including trade secrets, belonging to Gaussian, Inc.
  
 This software is provided under written license and may be
 used, copied, transmitted, or stored only in accord with that
 written license.
  
 The following legend is applicable only to US Government
 contracts under FAR:
  
                    RESTRICTED RIGHTS LEGEND
  
 Use, reproduction and disclosure by the US Government is
 subject to restrictions as set forth in subparagraphs (a)
 and (c) of the Commercial Computer Software - Restricted
 Rights clause in FAR 52.227-19.
  
 Gaussian, Inc.
 340 Quinnipiac St., Bldg. 40, Wallingford CT 06492
  
  
 ---------------------------------------------------------------
 Warning -- This program may not be used in any manner that
 competes with the business of Gaussian, Inc. or will provide
 assistance to any competitor of Gaussian, Inc.  The licensee
 of this program is prohibited from giving any competitor of
 Gaussian, Inc. access to this program.  By using this program,
 the user acknowledges that Gaussian, Inc. is engaged in the
 business of creating and licensing software in the field of
 computational chemistry and represents and warrants to the
 licensee that it is not a competitor of Gaussian, Inc. and that
 it will not use this program in any manner prohibited above.
 ---------------------------------------------------------------
  

 Cite this work as:
 Gaussian 16, Revision A.03,
 M. J. Frisch, G. W. Trucks, H. B. Schlegel, G. E. Scuseria, 
 M. A. Robb, J. R. Cheeseman, G. Scalmani, V. Barone, 
 G. A. Petersson, H. Nakatsuji, X. Li, M. Caricato, A. V. Marenich, 
 J. Bloino, B. G. Janesko, R. Gomperts, B. Mennucci, H. P. Hratchian, 
 J. V. Ortiz, A. F. Izmaylov, J. L. Sonnenberg, D. Williams-Young, 
 F. Ding, F. Lipparini, F. Egidi, J. Goings, B. Peng, A. Petrone, 
 T. Henderson, D. Ranasinghe, V. G. Zakrzewski, J. Gao, N. Rega, 
 G. Zheng, W. Liang, M. Hada, M. Ehara, K. Toyota, R. Fukuda, 
 J. Hasegawa, M. Ishida, T. Nakajima, Y. Honda, O. Kitao, H. Nakai, 
 T. Vreven, K. Throssell, J. A. Montgomery, Jr., J. E. Peralta, 
 F. Ogliaro, M. J. Bearpark, J. J. Heyd, E. N. Brothers, K. N. Kudin, 
 V. N. Staroverov, T. A. Keith, R. Kobayashi, J. Normand, 
 K. Raghavachari, A. P. Rendell, J. C. Burant, S. S. Iyengar, 
 J. Tomasi, M. Cossi, J. M. Millam, M. Klene, C. Adamo, R. Cammi, 
 J. W. Ochterski, R. L. Martin, K. Morokuma, O. Farkas, 
 J. B. Foresman, and D. J. Fox, Gaussian, Inc., Wallingford CT, 2016.
 
 ******************************************
 Gaussian 16:  ES64L-G16RevA.03 25-Dec-2016
                18-Jul-2021 
 ******************************************
 %mem=800MB
 %nproc=4
 Will use up to    4 processors via shared memory.
 %chk=SET_328_BBB321_conf1.geo_195_210_120.chk
 ---------------------------------------------------------------
 #p b3lyp/6-31G(d) opt freq scrf=(iefpcm,read,solvent=n-octanol)
 ---------------------------------------------------------------
 1/18=20,19=15,26=3,38=1,40=2/1,3;
 2/9=110,12=2,17=6,18=5,40=1/2;
 3/5=1,6=6,7=1,11=2,25=1,30=1,70=2203,71=1,72=25,74=-5/1,2,3;
 4//1;
 5/5=2,38=5,53=25/2;
 6/7=2,8=2,9=2,10=2,28=1/1;
 7//1,2,3,16;
 1/18=20,19=15,26=3/3(2);
 2/9=110/2;
 99//99;
 2/9=110/2;
 3/5=1,6=6,7=1,11=2,25=1,30=1,70=2205,71=1,72=25,74=-5/1,2,3;
 4/5=5,16=3,69=1/1;
 5/5=2,38=5,53=25/2;
 7//1,2,3,16;
 1/18=20,19=15,26=3/3(-5);
 2/9=110/2;
 6/7=2,8=2,9=2,10=2,19=2,28=1/1;
 99/9=1/99;
 Leave Link    1 at Sun Jul 18 16:18:04 2021, MaxMem=   104857600 cpu:               0.0 elap:               0.0
 (Enter /dades/curu/g16A03_MST/g16/l101.exe)
 ---------------------------------------------
 SET_328_BBB321_conf1.geo_195_210_120 geometry
 ---------------------------------------------
 Symbolic Z-matrix:
 Charge =  1 Multiplicity = 1
 C                    -4.34     -3.218     2.764 
 H                    -4.722    -2.421     3.406 
 H                    -3.664    -3.784     3.407 
 H                    -5.225    -3.845     2.637 
 C                    -3.653    -2.742     1.564 
 O                    -4.312    -2.53      0.58 
 N                    -2.324    -2.552     1.674 
 H                    -1.933    -2.49      2.601 
 C                    -1.517    -1.981     0.678 
 C                    -1.336    -2.735    -0.444 
 C                    -0.474    -2.375    -1.479 
 C                     0.294    -1.215    -1.318 
 H                     1.031    -0.934    -2.066 
 H                    -0.382    -2.998    -2.365 
 H                    -1.815    -3.7      -0.592 
 C                    -0.818    -0.826     0.835 
 H                    -0.936    -0.317     1.789 
 C                     0.154    -0.486    -0.095 
 C                     0.975     0.724     0.165 
 N                     1.492     1.497    -0.867 
 C                     1.398     1.026     1.415 
 H                     1.138     0.563     2.359 
 S                     2.518     2.388     1.373 
 C                     2.293     2.401    -0.283 
 N                     3.185     3.259    -0.912 
 C                     2.908     3.578    -2.073 
 N                     3.945     3.824    -2.781 
 H                     4.639     3.144    -2.49 
 H                     3.668     3.853    -3.756 
 N                     2.396     4.75     -2.123 
 H                     2.168     4.946    -1.155 
 H                     3.246     5.199    -2.446 
 H                     4.005     3.599    -0.452 
 
 ITRead=  0  0  0  0  0  0  0  0  0  0  0  0  0  0  0  0  0  0  0  0
 ITRead=  0  0  0  0  0  0  0  0  0  0  0  0  0
 MicOpt= -1 -1 -1 -1 -1 -1 -1 -1 -1 -1 -1 -1 -1 -1 -1 -1 -1 -1 -1 -1
 MicOpt= -1 -1 -1 -1 -1 -1 -1 -1 -1 -1 -1 -1 -1
 NAtoms=     33 NQM=       33 NQMF=       0 NMMI=      0 NMMIF=      0
                NMic=       0 NMicF=      0.
                    Isotopes and Nuclear Properties:
 (Nuclear quadrupole moments (NQMom) in fm**2, nuclear magnetic moments (NMagM)
  in nuclear magnetons)

  Atom         1           2           3           4           5           6           7           8           9          10
 IAtWgt=          12           1           1           1          12          16          14           1          12          12
 AtmWgt=  12.0000000   1.0078250   1.0078250   1.0078250  12.0000000  15.9949146  14.0030740   1.0078250  12.0000000  12.0000000
 NucSpn=           0           1           1           1           0           0           2           1           0           0
 AtZEff=  -0.0000000  -0.0000000  -0.0000000  -0.0000000  -0.0000000  -0.0000000  -0.0000000  -0.0000000  -0.0000000  -0.0000000
 NQMom=    0.0000000   0.0000000   0.0000000   0.0000000   0.0000000   0.0000000   2.0440000   0.0000000   0.0000000   0.0000000
 NMagM=    0.0000000   2.7928460   2.7928460   2.7928460   0.0000000   0.0000000   0.4037610   2.7928460   0.0000000   0.0000000
 AtZNuc=   6.0000000   1.0000000   1.0000000   1.0000000   6.0000000   8.0000000   7.0000000   1.0000000   6.0000000   6.0000000

  Atom        11          12          13          14          15          16          17          18          19          20
 IAtWgt=          12          12           1           1           1          12           1          12          12          14
 AtmWgt=  12.0000000  12.0000000   1.0078250   1.0078250   1.0078250  12.0000000   1.0078250  12.0000000  12.0000000  14.0030740
 NucSpn=           0           0           1           1           1           0           1           0           0           2
 AtZEff=  -0.0000000  -0.0000000  -0.0000000  -0.0000000  -0.0000000  -0.0000000  -0.0000000  -0.0000000  -0.0000000  -0.0000000
 NQMom=    0.0000000   0.0000000   0.0000000   0.0000000   0.0000000   0.0000000   0.0000000   0.0000000   0.0000000   2.0440000
 NMagM=    0.0000000   0.0000000   2.7928460   2.7928460   2.7928460   0.0000000   2.7928460   0.0000000   0.0000000   0.4037610
 AtZNuc=   6.0000000   6.0000000   1.0000000   1.0000000   1.0000000   6.0000000   1.0000000   6.0000000   6.0000000   7.0000000

  Atom        21          22          23          24          25          26          27          28          29          30
 IAtWgt=          12           1          32          12          14          12          14           1           1          14
 AtmWgt=  12.0000000   1.0078250  31.9720718  12.0000000  14.0030740  12.0000000  14.0030740   1.0078250   1.0078250  14.0030740
 NucSpn=           0           1           0           0           2           0           2           1           1           2
 AtZEff=  -0.0000000  -0.0000000  -0.0000000  -0.0000000  -0.0000000  -0.0000000  -0.0000000  -0.0000000  -0.0000000  -0.0000000
 NQMom=    0.0000000   0.0000000   0.0000000   0.0000000   2.0440000   0.0000000   2.0440000   0.0000000   0.0000000   2.0440000
 NMagM=    0.0000000   2.7928460   0.0000000   0.0000000   0.4037610   0.0000000   0.4037610   2.7928460   2.7928460   0.4037610
 AtZNuc=   6.0000000   1.0000000  16.0000000   6.0000000   7.0000000   6.0000000   7.0000000   1.0000000   1.0000000   7.0000000

  Atom        31          32          33
 IAtWgt=           1           1           1
 AtmWgt=   1.0078250   1.0078250   1.0078250
 NucSpn=           1           1           1
 AtZEff=  -0.0000000  -0.0000000  -0.0000000
 NQMom=    0.0000000   0.0000000   0.0000000
 NMagM=    2.7928460   2.7928460   2.7928460
 AtZNuc=   1.0000000   1.0000000   1.0000000
 Leave Link  101 at Sun Jul 18 16:18:04 2021, MaxMem=   104857600 cpu:               0.1 elap:               0.1
 (Enter /dades/curu/g16A03_MST/g16/l103.exe)

 GradGradGradGradGradGradGradGradGradGradGradGradGradGradGradGradGradGrad
 Berny optimization.
 Initialization pass.
                           ----------------------------
                           !    Initial Parameters    !
                           ! (Angstroms and Degrees)  !
 --------------------------                            --------------------------
 ! Name  Definition              Value          Derivative Info.                !
 --------------------------------------------------------------------------------
 ! R1    R(1,2)                  1.0924         estimate D2E/DX2                !
 ! R2    R(1,3)                  1.0912         estimate D2E/DX2                !
 ! R3    R(1,4)                  1.092          estimate D2E/DX2                !
 ! R4    R(1,5)                  1.4624         estimate D2E/DX2                !
 ! R5    R(5,6)                  1.2031         estimate D2E/DX2                !
 ! R6    R(5,7)                  1.347          estimate D2E/DX2                !
 ! R7    R(7,8)                  1.008          estimate D2E/DX2                !
 ! R8    R(7,9)                  1.4033         estimate D2E/DX2                !
 ! R9    R(9,10)                 1.3639         estimate D2E/DX2                !
 ! R10   R(9,16)                 1.3591         estimate D2E/DX2                !
 ! R11   R(10,11)                1.3942         estimate D2E/DX2                !
 ! R12   R(10,15)                1.0875         estimate D2E/DX2                !
 ! R13   R(11,12)                1.4005         estimate D2E/DX2                !
 ! R14   R(11,14)                1.087          estimate D2E/DX2                !
 ! R15   R(12,13)                1.087          estimate D2E/DX2                !
 ! R16   R(12,18)                1.4307         estimate D2E/DX2                !
 ! R17   R(16,17)                1.0877         estimate D2E/DX2                !
 ! R18   R(16,18)                1.3875         estimate D2E/DX2                !
 ! R19   R(18,19)                1.4852         estimate D2E/DX2                !
 ! R20   R(19,20)                1.3892         estimate D2E/DX2                !
 ! R21   R(19,21)                1.3537         estimate D2E/DX2                !
 ! R22   R(20,24)                1.3416         estimate D2E/DX2                !
 ! R23   R(21,22)                1.0831         estimate D2E/DX2                !
 ! R24   R(21,23)                1.7639         estimate D2E/DX2                !
 ! R25   R(23,24)                1.6713         estimate D2E/DX2                !
 ! R26   R(24,25)                1.3883         estimate D2E/DX2                !
 ! R27   R(25,26)                1.2355         estimate D2E/DX2                !
 ! R28   R(25,33)                0.9998         estimate D2E/DX2                !
 ! R29   R(26,27)                1.2795         estimate D2E/DX2                !
 ! R30   R(26,30)                1.2799         estimate D2E/DX2                !
 ! R31   R(27,28)                1.0143         estimate D2E/DX2                !
 ! R32   R(27,29)                1.014          estimate D2E/DX2                !
 ! R33   R(30,31)                1.0136         estimate D2E/DX2                !
 ! R34   R(30,32)                1.0141         estimate D2E/DX2                !
 ! A1    A(2,1,3)              104.404          estimate D2E/DX2                !
 ! A2    A(2,1,4)              101.7628         estimate D2E/DX2                !
 ! A3    A(2,1,5)              114.1458         estimate D2E/DX2                !
 ! A4    A(3,1,4)              105.829          estimate D2E/DX2                !
 ! A5    A(3,1,5)              111.1818         estimate D2E/DX2                !
 ! A6    A(4,1,5)              118.1763         estimate D2E/DX2                !
 ! A7    A(1,5,6)              118.1103         estimate D2E/DX2                !
 ! A8    A(1,5,7)              116.2573         estimate D2E/DX2                !
 ! A9    A(6,5,7)              125.6164         estimate D2E/DX2                !
 ! A10   A(5,7,8)              117.8066         estimate D2E/DX2                !
 ! A11   A(5,7,9)              124.528          estimate D2E/DX2                !
 ! A12   A(8,7,9)              113.8674         estimate D2E/DX2                !
 ! A13   A(7,9,10)             115.8011         estimate D2E/DX2                !
 ! A14   A(7,9,16)             124.0242         estimate D2E/DX2                !
 ! A15   A(10,9,16)            119.7737         estimate D2E/DX2                !
 ! A16   A(9,10,11)            123.3669         estimate D2E/DX2                !
 ! A17   A(9,10,15)            122.9622         estimate D2E/DX2                !
 ! A18   A(11,10,15)           113.605          estimate D2E/DX2                !
 ! A19   A(10,11,12)           117.877          estimate D2E/DX2                !
 ! A20   A(10,11,14)           120.6247         estimate D2E/DX2                !
 ! A21   A(12,11,14)           121.467          estimate D2E/DX2                !
 ! A22   A(11,12,13)           120.4515         estimate D2E/DX2                !
 ! A23   A(11,12,18)           117.8184         estimate D2E/DX2                !
 ! A24   A(13,12,18)           121.5244         estimate D2E/DX2                !
 ! A25   A(9,16,17)            116.3074         estimate D2E/DX2                !
 ! A26   A(9,16,18)            119.4117         estimate D2E/DX2                !
 ! A27   A(17,16,18)           123.311          estimate D2E/DX2                !
 ! A28   A(12,18,16)           121.1081         estimate D2E/DX2                !
 ! A29   A(12,18,19)           120.7108         estimate D2E/DX2                !
 ! A30   A(16,18,19)           118.0047         estimate D2E/DX2                !
 ! A31   A(18,19,20)           121.9393         estimate D2E/DX2                !
 ! A32   A(18,19,21)           121.0729         estimate D2E/DX2                !
 ! A33   A(20,19,21)           116.4571         estimate D2E/DX2                !
 ! A34   A(19,20,24)           105.8884         estimate D2E/DX2                !
 ! A35   A(19,21,22)           129.3759         estimate D2E/DX2                !
 ! A36   A(19,21,23)           110.4065         estimate D2E/DX2                !
 ! A37   A(22,21,23)           120.2162         estimate D2E/DX2                !
 ! A38   A(21,23,24)            86.7964         estimate D2E/DX2                !
 ! A39   A(20,24,23)           120.4287         estimate D2E/DX2                !
 ! A40   A(20,24,25)           127.0717         estimate D2E/DX2                !
 ! A41   A(23,24,25)           111.545          estimate D2E/DX2                !
 ! A42   A(24,25,26)           116.1848         estimate D2E/DX2                !
 ! A43   A(24,25,33)           121.9155         estimate D2E/DX2                !
 ! A44   A(26,25,33)           121.8998         estimate D2E/DX2                !
 ! A45   A(25,26,27)           112.8245         estimate D2E/DX2                !
 ! A46   A(25,26,30)           111.2736         estimate D2E/DX2                !
 ! A47   A(27,26,30)            97.2697         estimate D2E/DX2                !
 ! A48   A(26,27,28)           105.4799         estimate D2E/DX2                !
 ! A49   A(26,27,29)           108.4305         estimate D2E/DX2                !
 ! A50   A(28,27,29)           118.814          estimate D2E/DX2                !
 ! A51   A(26,30,31)           103.2814         estimate D2E/DX2                !
 ! A52   A(26,30,32)            94.7364         estimate D2E/DX2                !
 ! A53   A(31,30,32)           114.0222         estimate D2E/DX2                !
 ! D1    D(2,1,5,6)            -87.7093         estimate D2E/DX2                !
 ! D2    D(2,1,5,7)             90.9203         estimate D2E/DX2                !
 ! D3    D(3,1,5,6)            154.511          estimate D2E/DX2                !
 ! D4    D(3,1,5,7)            -26.8595         estimate D2E/DX2                !
 ! D5    D(4,1,5,6)             31.866          estimate D2E/DX2                !
 ! D6    D(4,1,5,7)           -149.5044         estimate D2E/DX2                !
 ! D7    D(1,5,7,8)            -16.9564         estimate D2E/DX2                !
 ! D8    D(1,5,7,9)           -173.6056         estimate D2E/DX2                !
 ! D9    D(6,5,7,8)            161.5566         estimate D2E/DX2                !
 ! D10   D(6,5,7,9)              4.9075         estimate D2E/DX2                !
 ! D11   D(5,7,9,10)           -69.4035         estimate D2E/DX2                !
 ! D12   D(5,7,9,16)           117.9054         estimate D2E/DX2                !
 ! D13   D(8,7,9,10)           133.1395         estimate D2E/DX2                !
 ! D14   D(8,7,9,16)           -39.5516         estimate D2E/DX2                !
 ! D15   D(7,9,10,11)         -174.2279         estimate D2E/DX2                !
 ! D16   D(7,9,10,15)            2.6303         estimate D2E/DX2                !
 ! D17   D(16,9,10,11)          -1.2051         estimate D2E/DX2                !
 ! D18   D(16,9,10,15)         175.6532         estimate D2E/DX2                !
 ! D19   D(7,9,16,17)           -2.1097         estimate D2E/DX2                !
 ! D20   D(7,9,16,18)          166.9983         estimate D2E/DX2                !
 ! D21   D(10,9,16,17)        -174.5272         estimate D2E/DX2                !
 ! D22   D(10,9,16,18)          -5.4191         estimate D2E/DX2                !
 ! D23   D(9,10,11,12)           3.5017         estimate D2E/DX2                !
 ! D24   D(9,10,11,14)        -178.5035         estimate D2E/DX2                !
 ! D25   D(15,10,11,12)       -173.6218         estimate D2E/DX2                !
 ! D26   D(15,10,11,14)          4.373          estimate D2E/DX2                !
 ! D27   D(10,11,12,13)        175.6007         estimate D2E/DX2                !
 ! D28   D(10,11,12,18)          0.7327         estimate D2E/DX2                !
 ! D29   D(14,11,12,13)         -2.3763         estimate D2E/DX2                !
 ! D30   D(14,11,12,18)       -177.2442         estimate D2E/DX2                !
 ! D31   D(11,12,18,16)         -7.263          estimate D2E/DX2                !
 ! D32   D(11,12,18,19)        177.66           estimate D2E/DX2                !
 ! D33   D(13,12,18,16)        177.9273         estimate D2E/DX2                !
 ! D34   D(13,12,18,19)          2.8503         estimate D2E/DX2                !
 ! D35   D(9,16,18,12)           9.7086         estimate D2E/DX2                !
 ! D36   D(9,16,18,19)        -175.085          estimate D2E/DX2                !
 ! D37   D(17,16,18,12)        178.0144         estimate D2E/DX2                !
 ! D38   D(17,16,18,19)         -6.7792         estimate D2E/DX2                !
 ! D39   D(12,18,19,20)         25.5757         estimate D2E/DX2                !
 ! D40   D(12,18,19,21)       -145.7714         estimate D2E/DX2                !
 ! D41   D(16,18,19,20)       -149.6506         estimate D2E/DX2                !
 ! D42   D(16,18,19,21)         39.0022         estimate D2E/DX2                !
 ! D43   D(18,19,20,24)       -173.1752         estimate D2E/DX2                !
 ! D44   D(21,19,20,24)         -1.4508         estimate D2E/DX2                !
 ! D45   D(18,19,21,22)         -7.8819         estimate D2E/DX2                !
 ! D46   D(18,19,21,23)        172.5489         estimate D2E/DX2                !
 ! D47   D(20,19,21,22)       -179.6832         estimate D2E/DX2                !
 ! D48   D(20,19,21,23)          0.7476         estimate D2E/DX2                !
 ! D49   D(19,20,24,23)          1.6585         estimate D2E/DX2                !
 ! D50   D(19,20,24,25)        169.4948         estimate D2E/DX2                !
 ! D51   D(19,21,23,24)          0.1597         estimate D2E/DX2                !
 ! D52   D(22,21,23,24)       -179.455          estimate D2E/DX2                !
 ! D53   D(21,23,24,20)         -1.1189         estimate D2E/DX2                !
 ! D54   D(21,23,24,25)       -170.7055         estimate D2E/DX2                !
 ! D55   D(20,24,25,26)         27.5271         estimate D2E/DX2                !
 ! D56   D(20,24,25,33)       -152.4408         estimate D2E/DX2                !
 ! D57   D(23,24,25,26)       -163.737          estimate D2E/DX2                !
 ! D58   D(23,24,25,33)         16.2951         estimate D2E/DX2                !
 ! D59   D(24,25,26,27)       -150.3855         estimate D2E/DX2                !
 ! D60   D(24,25,26,30)        101.4833         estimate D2E/DX2                !
 ! D61   D(33,25,26,27)         29.5823         estimate D2E/DX2                !
 ! D62   D(33,25,26,30)        -78.5489         estimate D2E/DX2                !
 ! D63   D(25,26,27,28)         38.0309         estimate D2E/DX2                !
 ! D64   D(25,26,27,29)        166.3061         estimate D2E/DX2                !
 ! D65   D(30,26,27,28)        154.8082         estimate D2E/DX2                !
 ! D66   D(30,26,27,29)        -76.9166         estimate D2E/DX2                !
 ! D67   D(25,26,30,31)        -13.8895         estimate D2E/DX2                !
 ! D68   D(25,26,30,32)        102.1677         estimate D2E/DX2                !
 ! D69   D(27,26,30,31)       -131.8795         estimate D2E/DX2                !
 ! D70   D(27,26,30,32)        -15.8222         estimate D2E/DX2                !
 --------------------------------------------------------------------------------
 Trust Radius=3.00D-01 FncErr=1.00D-07 GrdErr=1.00D-06 EigMax=2.50D+02 EigMin=1.00D-04
 Number of steps in this run=    167 maximum allowed number of steps=    198.
 GradGradGradGradGradGradGradGradGradGradGradGradGradGradGradGradGradGrad

 Leave Link  103 at Sun Jul 18 16:18:04 2021, MaxMem=   104857600 cpu:               0.0 elap:               0.0
 (Enter /dades/curu/g16A03_MST/g16/l202.exe)
                          Input orientation:                          
 ---------------------------------------------------------------------
 Center     Atomic      Atomic             Coordinates (Angstroms)
 Number     Number       Type             X           Y           Z
 ---------------------------------------------------------------------
      1          6           0       -4.340000   -3.218000    2.764000
      2          1           0       -4.722000   -2.421000    3.406000
      3          1           0       -3.664000   -3.784000    3.407000
      4          1           0       -5.225000   -3.845000    2.637000
      5          6           0       -3.653000   -2.742000    1.564000
      6          8           0       -4.312000   -2.530000    0.580000
      7          7           0       -2.324000   -2.552000    1.674000
      8          1           0       -1.933000   -2.490000    2.601000
      9          6           0       -1.517000   -1.981000    0.678000
     10          6           0       -1.336000   -2.735000   -0.444000
     11          6           0       -0.474000   -2.375000   -1.479000
     12          6           0        0.294000   -1.215000   -1.318000
     13          1           0        1.031000   -0.934000   -2.066000
     14          1           0       -0.382000   -2.998000   -2.365000
     15          1           0       -1.815000   -3.700000   -0.592000
     16          6           0       -0.818000   -0.826000    0.835000
     17          1           0       -0.936000   -0.317000    1.789000
     18          6           0        0.154000   -0.486000   -0.095000
     19          6           0        0.975000    0.724000    0.165000
     20          7           0        1.492000    1.497000   -0.867000
     21          6           0        1.398000    1.026000    1.415000
     22          1           0        1.138000    0.563000    2.359000
     23         16           0        2.518000    2.388000    1.373000
     24          6           0        2.293000    2.401000   -0.283000
     25          7           0        3.185000    3.259000   -0.912000
     26          6           0        2.908000    3.578000   -2.073000
     27          7           0        3.945000    3.824000   -2.781000
     28          1           0        4.639000    3.144000   -2.490000
     29          1           0        3.668000    3.853000   -3.756000
     30          7           0        2.396000    4.750000   -2.123000
     31          1           0        2.168000    4.946000   -1.155000
     32          1           0        3.246000    5.199000   -2.446000
     33          1           0        4.005000    3.599000   -0.452000
 ---------------------------------------------------------------------
                    Distance matrix (angstroms):
                    1          2          3          4          5
     1  C    0.000000
     2  H    1.092381   0.000000
     3  H    1.091229   1.725437   0.000000
     4  H    1.092009   1.694741   1.741649   0.000000
     5  C    1.462376   2.153779   2.117200   2.199800   0.000000
     6  O    2.289975   2.857666   3.159802   2.606539   1.203113
     7  N    2.386611   2.960978   2.513307   3.318888   1.347012
     8  H    2.519961   2.903671   2.306606   3.560138   2.024172
     9  C    3.721679   4.231738   3.912526   4.589275   2.434464
    10  C    4.421376   5.136739   4.620626   5.084189   3.066040
    11  C    5.801694   6.473859   6.002864   6.455568   4.415946
    12  C    6.492202   6.995060   6.677661   7.281366   5.120201
    13  H    7.575830   8.077807   7.753661   8.350429   6.195613
    14  H    6.482346   7.243823   6.686203   7.013705   5.118791
    15  H    4.227373   5.105927   4.406570   4.698464   2.990710
    16  C    4.674098   4.939158   4.844034   5.637660   3.498531
    17  H    4.577515   4.623343   4.698936   5.617954   3.648745
    18  C    5.986129   6.306869   6.141493   6.905096   4.725999
    19  C    7.109387   7.269863   7.235534   8.088668   5.948844
    20  N    8.332323   8.498414   8.528797   9.270009   7.095767
    21  C    7.263331   7.300705   7.261405   8.311682   6.303382
    22  H    6.668468   6.658834   6.561548   7.745677   5.874413
    23  S    8.966286   8.926207   8.969273  10.020082   8.027118
    24  C    9.211626   9.277426   9.346452  10.200943   8.075690
    25  N   10.587263  10.650266  10.731561  11.566776   9.428723
    26  C   11.050597  11.145597  11.288075  11.976256   9.809021
    27  N   12.205655  12.344873  12.412489  13.124678  10.941709
    28  H   12.194343  12.383875  12.317126  13.131289  10.947017
    29  H   12.515491  12.690525  12.782432  13.387124  11.197922
    30  N   11.521523  11.517769  11.837806  12.434278  10.310889
    31  H   11.151839  11.070118  11.447138  12.096173  10.019099
    32  H   12.471463  12.481960  12.755391  13.393605  11.257699
    33  H   11.245140  11.282070  11.323168  12.253488  10.144826
                    6          7          8          9         10
     6  O    0.000000
     7  N    2.269243   0.000000
     8  H    3.121807   1.007995   0.000000
     9  C    2.850093   1.403320   2.032256   0.000000
    10  C    3.153915   2.344260   3.112629   1.363877   0.000000
    11  C    4.358182   3.659951   4.334548   2.428113   1.394227
    12  C    5.152365   4.194467   4.684412   2.801873   2.393987
    13  H    6.172210   5.278404   5.743459   3.888194   3.387798
    14  H    4.933249   4.503754   5.227315   3.403287   2.160909
    15  H    2.996246   2.590703   3.416617   2.157931   1.087460
    16  C    3.895725   2.439474   2.670370   1.359145   2.355514
    17  H    4.213837   2.633438   2.524932   2.083453   3.315571
    18  C    4.957693   3.679429   3.954744   2.371665   2.720276
    19  C    6.221986   4.888012   4.971957   3.713524   4.204317
    20  N    7.210891   6.116612   6.297128   4.851555   5.107479
    21  C    6.778382   5.169376   4.986423   4.252346   5.007570
    22  H    6.514138   4.707217   4.337097   4.043108   4.985408
    23  S    8.453666   6.923811   6.716716   5.987688   6.663328
    24  C    8.287675   7.048315   7.078023   5.885707   6.290792
    25  N    9.588722   8.414523   8.460857   7.217652   7.522400
    26  C    9.822142   8.887673   9.061025   7.619128   7.779405
    27  N   10.947497   9.990033  10.167763   8.688852   8.739051
    28  H   11.033566   9.912955  10.042481   8.613837   8.628406
    29  H   11.100630  10.315667  10.583775   8.976644   8.911291
    30  N   10.261670   9.487614   9.668196   8.274269   8.530656
    31  H   10.044461   9.187019   9.285464   8.057446   8.472384
    32  H   11.225751  10.396023  10.555329   9.165039   9.378224
    33  H   10.382782   9.078046   9.036403   7.931317   8.285282
                   11         12         13         14         15
    11  C    0.000000
    12  C    1.400480   0.000000
    13  H    2.164734   1.087030   0.000000
    14  H    1.087009   2.175379   2.519140   0.000000
    15  H    2.083429   3.339189   4.233574   2.385335   0.000000
    16  C    2.805768   2.454236   3.441840   3.892002   3.360091
    17  H    3.889554   3.460167   4.371590   4.974977   4.229242
    18  C    2.424492   1.430654   2.203332   3.427877   3.801811
    19  C    3.795542   2.534319   2.780191   4.700599   5.284782
    20  N    4.385440   2.998925   2.749524   5.095184   6.166091
    21  C    4.842150   3.702727   4.011689   5.800808   6.056938
    22  H    5.095158   4.170605   4.672588   6.107970   5.966723
    23  S    6.306515   5.016898   5.007352   7.168796   7.726568
    24  C    5.647732   4.259423   3.986723   6.374916   7.361613
    25  N    6.741790   5.342227   4.853110   7.347431   8.574968
    26  C    6.872334   5.511431   4.886852   7.358882   8.801669
    27  N    7.723365   6.392315   5.625050   8.089232   9.725220
    28  H    7.591064   6.265261   5.461458   7.934118   9.596711
    29  H    7.818496   6.558380   5.720598   8.079207   9.855049
    30  N    7.708259   6.375551   5.845881   8.234522   9.564465
    31  H    7.789877   6.441767   6.057812   8.430524   9.535962
    32  H    8.493466   7.150251   6.531793   8.964360  10.404001
    33  H    7.536899   6.139713   5.656656   8.150199   9.336348
                   16         17         18         19         20
    16  C    0.000000
    17  H    1.087714   0.000000
    18  C    1.387546   2.183144   0.000000
    19  C    2.462976   2.715323   1.485174   0.000000
    20  N    3.691779   4.029903   2.513666   1.389188   0.000000
    21  C    2.945668   2.718654   2.472606   1.353748   2.331995
    22  H    2.842153   2.323957   2.844428   2.205930   3.377092
    23  S    4.663490   4.406835   4.000424   2.570799   2.619954
    24  C    4.619716   4.701824   3.597976   2.179485   1.341593
    25  N    5.980238   6.088170   4.886663   3.531325   2.443955
    26  C    6.460244   6.697940   5.292740   4.109799   2.791067
    27  N    7.575231   7.864918   6.337379   5.206709   3.885297
    28  H    7.522990   7.833836   6.247251   5.131308   3.905169
    29  H    7.943206   8.326628   6.676679   5.693604   4.316484
    30  N    7.083173   7.216679   6.046077   4.843848   3.602327
    31  H    6.796490   6.782413   5.889518   4.581586   3.526403
    32  H    7.973812   8.114839   6.885266   5.656888   4.390280
    33  H    6.670706   6.691085   5.625378   4.222229   3.302393
                   21         22         23         24         25
    21  C    0.000000
    22  H    1.083100   0.000000
    23  S    1.763862   2.491430   0.000000
    24  C    2.361113   3.419420   1.671266   0.000000
    25  N    3.687084   4.707235   2.534710   1.388333   0.000000
    26  C    4.578094   5.644976   3.666486   2.228823   1.235480
    27  N    5.649994   6.703206   4.621054   3.315726   2.095229
    28  H    5.499003   6.513936   4.471347   3.305543   2.148819
    29  H    6.315384   7.390414   5.456681   4.007575   2.945244
    30  N    5.232745   6.261139   4.220894   2.985634   2.076565
    31  H    4.750179   5.711373   3.613398   2.693146   1.984769
    32  H    5.977989   7.001727   4.797548   3.662729   2.473960
    33  H    4.111261   5.033757   2.647322   2.096356   0.999800
                   26         27         28         29         30
    26  C    0.000000
    27  N    1.279511   0.000000
    28  H    1.832650   1.014257   0.000000
    29  H    1.867007   1.014000   1.745932   0.000000
    30  N    1.279933   1.920896   2.782979   2.255944   0.000000
    31  H    1.806031   2.657158   3.336955   3.195286   1.013619
    32  H    1.697355   1.578433   2.483024   1.925071   1.014115
    33  H    1.957419   2.340612   2.182298   3.330841   2.589580
                   31         32         33
    31  H    0.000000
    32  H    1.700816   0.000000
    33  H    2.383944   2.666855   0.000000
 Stoichiometry    C12H14N5OS(1+)
 Framework group  C1[X(C12H14N5OS)]
 Deg. of freedom    93
 Full point group                 C1      NOp   1
 Largest Abelian subgroup         C1      NOp   1
 Largest concise Abelian subgroup C1      NOp   1
                         Standard orientation:                         
 ---------------------------------------------------------------------
 Center     Atomic      Atomic             Coordinates (Angstroms)
 Number     Number       Type             X           Y           Z
 ---------------------------------------------------------------------
      1          6           0       -6.309532   -1.185552    0.616196
      2          1           0       -6.196735   -2.028003    1.302380
      3          1           0       -6.419174   -1.648243   -0.365983
      4          1           0       -7.300913   -0.812917    0.882259
      5          6           0       -5.190206   -0.244649    0.635064
      6          8           0       -5.218161    0.653614    1.434952
      7          7           0       -4.194783   -0.485087   -0.240016
      8          1           0       -4.143757   -1.402911   -0.653597
      9          6           0       -2.985547    0.225622   -0.284143
     10          6           0       -3.072266    1.518967   -0.708287
     11          6           0       -1.959986    2.331602   -0.923522
     12          6           0       -0.691171    1.761203   -0.761970
     13          1           0        0.203786    2.335322   -0.987965
     14          1           0       -2.081703    3.364704   -1.238916
     15          1           0       -4.016200    1.997728   -0.957983
     16          6           0       -1.765547   -0.335482   -0.074293
     17          1           0       -1.758242   -1.394507    0.173768
     18          6           0       -0.621753    0.378211   -0.402410
     19          6           0        0.689841   -0.304863   -0.265031
     20          7           0        1.852164    0.390961    0.042663
     21          6           0        0.838229   -1.607182   -0.603527
     22          1           0        0.085886   -2.334593   -0.882738
     23         16           0        2.538568   -2.070999   -0.533323
     24          6           0        2.851289   -0.498152   -0.062700
     25          7           0        4.213732   -0.231687   -0.048028
     26          6           0        4.565197    0.777605    0.571821
     27          7           0        5.627256    1.308292    0.094798
     28          1           0        5.548340    1.213942   -0.911973
     29          1           0        5.728651    2.235606    0.492295
     30          7           0        5.037935    0.474999    1.722115
     31          1           0        4.752585   -0.489875    1.844664
     32          1           0        6.007386    0.586961    1.446327
     33          1           0        4.872886   -0.822458   -0.512898
 ---------------------------------------------------------------------
 Rotational constants (GHZ):           0.9027682           0.1287183           0.1203439
 Leave Link  202 at Sun Jul 18 16:18:04 2021, MaxMem=   104857600 cpu:               0.1 elap:               0.0
 (Enter /dades/curu/g16A03_MST/g16/l301.exe)
 Standard basis: 6-31G(d) (6D, 7F)
 Ernie: Thresh=  0.10000D-02 Tol=  0.10000D-05 Strict=F.
 There are   317 symmetry adapted cartesian basis functions of A   symmetry.
 There are   317 symmetry adapted basis functions of A   symmetry.
   317 basis functions,   612 primitive gaussians,   317 cartesian basis functions
    72 alpha electrons       72 beta electrons
       nuclear repulsion energy      1462.9518714597 Hartrees.
 IExCor=  402 DFT=T Ex+Corr=B3LYP ExCW=0 ScaHFX=  0.200000
 ScaDFX=  0.800000  0.720000  1.000000  0.810000 ScalE2=  1.000000  1.000000
 IRadAn=      5 IRanWt=     -1 IRanGd=            0 ICorTp=0 IEmpDi=  4
 NAtoms=   33 NActive=   33 NUniq=   33 SFac= 1.00D+00 NAtFMM=   60 NAOKFM=F Big=F
 Integral buffers will be    131072 words long.
 Raffenetti 2 integral format.
 Two-electron integral symmetry is turned on.
 Using the following non-standard input for PCM:
 MSTModel=DFT cav MSTCharged
 --- end of non-standard input.
 MST model for solvation energy: B3LYP parametrization.
 MST cavity parameters:
 ISph   IAn     Re0     Alpha   Atom Type   QCorr
 ------------------------------------------------
   1      6     1.50     1.50      CH3        F
   2      1     1.20     1.50      CH3        F
   3      1     1.20     1.50      CH3        F
   4      1     1.20     1.50      CH3        F
   5      6     1.50     1.50      C          F
   6      8     1.40     1.50      O          F
   7      7     1.50     1.50      NH         F
   8      1     0.90     1.50      NH         F
   9      6     1.50     1.50      C          F
  10      6     1.50     1.50      CH         F
  11      6     1.50     1.50      CH         F
  12      6     1.50     1.50      CH         F
  13      1     1.20     1.50      CH         F
  14      1     1.20     1.50      CH         F
  15      1     1.20     1.50      CH         F
  16      6     1.50     1.50      CH         F
  17      1     1.20     1.50      CH         F
  18      6     1.50     1.50      C          F
  19      6     1.50     1.50      C          F
  20      7     1.50     1.50      Nc         F
  21      6     1.50     1.50      CH         F
  22      1     1.20     1.50      CH         F
  23     16     1.75     1.50      S          F
  24      6     1.50     1.50      C          F
  25      7     1.50     1.15      NH         T
  26      6     1.50     1.15      CN+        T
  27      7     1.50     1.15      NH+        T
  28      1     0.90     1.15      NH+        T
  29      1     0.90     1.15      NH+        T
  30      7     1.50     1.15      NH+        T
  31      1     0.90     1.15      NH+        T
  32      1     0.90     1.15      NH+        T
  33      1     0.90     1.15      NH         T
 ------------------------------------------------------------------------------
 Polarizable Continuum Model (PCM)
 =================================
 Model                : PCM.
 Atomic radii         : MST.
 Polarization charges : Total charges.
 Charge compensation  : None.
 Solution method      : On-the-fly selection.
 Cavity type          : Scaled VdW (van der Waals Surface) (Alpha=1.500).
 Cavity algorithm     : GePol (No added spheres)
                        Default sphere list used, NSphG=   33.
                        Lebedev-Laikov grids with approx.  5.0 points / Ang**2.
                        Smoothing algorithm: York/Karplus (Gamma=1.0000).
                        Polarization charges: spherical gaussians, with
                                              point-specific exponents (IZeta= 3).
                        Self-potential: point-specific (ISelfS= 7).
                        Self-field    : sphere-specific E.n sum rule (ISelfD= 2).
 1st derivatives      : Analytical E(r).r(x)/FMM algorithm (CHGder, D1EAlg=3).
                        Cavity 1st derivative terms included.
 Solvent              : n-Octanol, Eps=   9.862900 Eps(inf)=   2.043470
 ------------------------------------------------------------------------------
 GePol: Number of generator spheres                  =      33
 GePol: Total number of spheres                      =      33
 GePol: Number of exposed spheres                    =      33 (100.00%)
 GePol: Number of points                             =    3014
 GePol: Average weight of points                     =       0.12
 GePol: Minimum weight of points                     =   0.25D-10
 GePol: Maximum weight of points                     =    0.22065
 GePol: Number of points with low weight             =     179
 GePol: Fraction of low-weight points (<1% of avg)   =       5.94%
 GePol: Cavity surface area                          =    351.215 Ang**2
 GePol: Cavity volume                                =    389.809 Ang**3
 Surface areas from nonelectrostatic (unscaled) cavity and vdw tensions:
 Sphere =    1 Type =  CH3 Surf =        5.089 Tension =       -0.183
 Sphere =    2 Type =  CH3 Surf =       10.052 Tension =       -0.183
 Sphere =    3 Type =  CH3 Surf =        9.906 Tension =       -0.183
 Sphere =    4 Type =  CH3 Surf =       10.091 Tension =       -0.183
 Sphere =    5 Type =  C   Surf =        6.320 Tension =       -0.205
 Sphere =    6 Type =  O   Surf =       16.235 Tension =       -0.185
 Sphere =    7 Type =  NH  Surf =        9.490 Tension =       -0.234
 Sphere =    8 Type =  NH  Surf =        3.904 Tension =       -0.234
 Sphere =    9 Type =  C   Surf =        5.785 Tension =       -0.205
 Sphere =   10 Type =  CH  Surf =        7.374 Tension =       -0.195
 Sphere =   11 Type =  CH  Surf =        7.833 Tension =       -0.195
 Sphere =   12 Type =  CH  Surf =        7.926 Tension =       -0.195
 Sphere =   13 Type =  CH  Surf =       10.239 Tension =       -0.195
 Sphere =   14 Type =  CH  Surf =       10.249 Tension =       -0.195
 Sphere =   15 Type =  CH  Surf =       10.131 Tension =       -0.195
 Sphere =   16 Type =  CH  Surf =        7.443 Tension =       -0.195
 Sphere =   17 Type =  CH  Surf =        9.812 Tension =       -0.195
 Sphere =   18 Type =  C   Surf =        6.291 Tension =       -0.205
 Sphere =   19 Type =  C   Surf =        6.018 Tension =       -0.205
 Sphere =   20 Type =  Nc  Surf =       13.162 Tension =       -0.161
 Sphere =   21 Type =  CH  Surf =        7.501 Tension =       -0.195
 Sphere =   22 Type =  CH  Surf =        9.969 Tension =       -0.195
 Sphere =   23 Type =  S   Surf =       23.881 Tension =       -0.186
 Sphere =   24 Type =  C   Surf =        5.102 Tension =       -0.205
 Sphere =   25 Type =  NH  Surf =        7.851 Tension =       -0.234
 Sphere =   26 Type =  CN+ Surf =        6.171 Tension =       -0.227
 Sphere =   27 Type =  NH+ Surf =       12.440 Tension =       -0.274
 Sphere =   28 Type =  NH+ Surf =        3.840 Tension =       -0.274
 Sphere =   29 Type =  NH+ Surf =        3.918 Tension =       -0.274
 Sphere =   30 Type =  NH+ Surf =       13.987 Tension =       -0.274
 Sphere =   31 Type =  NH+ Surf =        3.620 Tension =       -0.274
 Sphere =   32 Type =  NH+ Surf =        2.721 Tension =       -0.274
 Sphere =   33 Type =  NH  Surf =        3.833 Tension =       -0.234
 PCM non-electrostatic energy =        -0.0204033691 Hartrees.
 Nuclear repulsion after PCM non-electrostatic terms =     1462.9314680905 Hartrees.
 Leave Link  301 at Sun Jul 18 16:18:05 2021, MaxMem=   104857600 cpu:               0.1 elap:               0.1
 (Enter /dades/curu/g16A03_MST/g16/l302.exe)
 NPDir=0 NMtPBC=     1 NCelOv=     1 NCel=       1 NClECP=     1 NCelD=      1
         NCelK=      1 NCelE2=     1 NClLst=     1 CellRange=     0.0.
 One-electron integrals computed using PRISM.
 One-electron integral symmetry used in STVInt
 NBasis=   317 RedAO= T EigKep=  4.52D-04  NBF=   317
 NBsUse=   317 1.00D-06 EigRej= -1.00D+00 NBFU=   317
 Precomputing XC quadrature grid using
 IXCGrd= 4 IRadAn=           5 IRanWt=          -1 IRanGd=           0 AccXCQ= 0.00D+00.
 Generated NRdTot=       0 NPtTot=           0 NUsed=           0 NTot=          32
 NSgBfM=   311   311   311   311   311 MxSgAt=    33 MxSgA2=    33.
 Leave Link  302 at Sun Jul 18 16:18:06 2021, MaxMem=   104857600 cpu:               3.8 elap:               1.0
 (Enter /dades/curu/g16A03_MST/g16/l303.exe)
 DipDrv:  MaxL=1.
 Leave Link  303 at Sun Jul 18 16:18:06 2021, MaxMem=   104857600 cpu:               0.1 elap:               0.1
 (Enter /dades/curu/g16A03_MST/g16/l401.exe)
 ExpMin= 1.17D-01 ExpMax= 2.19D+04 ExpMxC= 3.30D+03 IAcc=3 IRadAn=         5 AccDes= 0.00D+00
 Harris functional with IExCor=  402 and IRadAn=       5 diagonalized for initial guess.
 HarFok:  IExCor=  402 AccDes= 0.00D+00 IRadAn=         5 IDoV= 1 UseB2=F ITyADJ=14
 ICtDFT=  3500011 ScaDFX=  1.000000  1.000000  1.000000  1.000000
 FoFCou: FMM=F IPFlag=           0 FMFlag=      100000 FMFlg1=           0
         NFxFlg=           0 DoJE=T BraDBF=F KetDBF=T FulRan=T
         wScrn=  0.000000 ICntrl=       500 IOpCl=  0 I1Cent=   200000004 NGrid=           0
         NMat0=    1 NMatS0=      1 NMatT0=    0 NMatD0=    1 NMtDS0=    0 NMtDT0=    0
 Petite list used in FoFCou.
 Harris En= -1212.40936222486    
 JPrj=0 DoOrth=F DoCkMO=F.
 Leave Link  401 at Sun Jul 18 16:18:12 2021, MaxMem=   104857600 cpu:              25.9 elap:               6.6
 (Enter /dades/curu/g16A03_MST/g16/l502.exe)
 Integral symmetry usage will be decided dynamically.
 Closed shell SCF:
 Using DIIS extrapolation, IDIIS=  1040.
 NGot=   104857600 LenX=   104651201 LenY=   104550271
 Requested convergence on RMS density matrix=1.00D-08 within 128 cycles.
 Requested convergence on MAX density matrix=1.00D-06.
 Requested convergence on             energy=1.00D-06.
 No special actions if energy rises.
 Fock matrices will be formed incrementally for  20 cycles.

 Cycle   1  Pass 1  IDiag  1:
 FoFJK:  IHMeth= 1 ICntrl=       0 DoSepK=F KAlg= 0 I1Cent=           0 FoldK=F
 IRaf= 710000000 NMat=       1 IRICut=       1 DoRegI=T DoRafI=F ISym2E= 0 IDoP0=0 IntGTp=1.
 FoFCou: FMM=F IPFlag=           0 FMFlag=      100000 FMFlg1=           0
         NFxFlg=           0 DoJE=F BraDBF=F KetDBF=F FulRan=T
         wScrn=  0.000000 ICntrl=         0 IOpCl=  0 I1Cent=           0 NGrid=           0
         NMat0=    1 NMatS0=      1 NMatT0=    0 NMatD0=    1 NMtDS0=    0 NMtDT0=    0
 Symmetry not used in FoFCou.
 Inv3:  Mode=1 IEnd=    27252588.
 Iteration    1 A*A^-1 deviation from unit magnitude is 4.55D-15 for   2996.
 Iteration    1 A*A^-1 deviation from orthogonality  is 2.22D-15 for   3000   2998.
 Iteration    1 A^-1*A deviation from unit magnitude is 4.55D-15 for   2996.
 Iteration    1 A^-1*A deviation from orthogonality  is 1.67D-15 for   3000   2998.
 E= -1211.99714059636    
 DIIS: error= 2.35D-02 at cycle   1 NSaved=   1.
 NSaved= 1 IEnMin= 1 EnMin= -1211.99714059636     IErMin= 1 ErrMin= 2.35D-02
 ErrMax= 2.35D-02  0.00D+00 EMaxC= 1.00D-01 BMatC= 5.47D-01 BMatP= 5.47D-01
 IDIUse=3 WtCom= 7.65D-01 WtEn= 2.35D-01
 Coeff-Com:  0.100D+01
 Coeff-En:   0.100D+01
 Coeff:      0.100D+01
 Gap=     0.071 Goal=   None    Shift=    0.000
 GapD=    0.071 DampG=0.500 DampE=0.500 DampFc=0.2500 IDamp=-1.
 Damping current iteration by 2.50D-01
 RMSDP=7.26D-03 MaxDP=3.96D-01              OVMax= 7.05D-01

 Cycle   2  Pass 1  IDiag  1:
 RMSU=  1.80D-03    CP:  9.88D-01
 E= -1212.11089699743     Delta-E=       -0.113756401068 Rises=F Damp=T
 DIIS: error= 1.30D-02 at cycle   2 NSaved=   2.
 NSaved= 2 IEnMin= 2 EnMin= -1212.11089699743     IErMin= 2 ErrMin= 1.30D-02
 ErrMax= 1.30D-02  0.00D+00 EMaxC= 1.00D-01 BMatC= 1.28D-01 BMatP= 5.47D-01
 IDIUse=3 WtCom= 8.70D-01 WtEn= 1.30D-01
 Coeff-Com: -0.351D+00 0.135D+01
 Coeff-En:   0.204D+00 0.796D+00
 Coeff:     -0.278D+00 0.128D+01
 Gap=    -0.254 Goal=   None    Shift=    0.000
 RMSDP=2.82D-03 MaxDP=1.27D-01 DE=-1.14D-01 OVMax= 7.51D-01

 Cycle   3  Pass 1  IDiag  1:
 RMSU=  2.79D-03    CP:  9.68D-01  9.56D-01
 E= -1212.19070623182     Delta-E=       -0.079809234385 Rises=F Damp=F
 DIIS: error= 3.70D-02 at cycle   3 NSaved=   3.
 NSaved= 3 IEnMin= 3 EnMin= -1212.19070623182     IErMin= 2 ErrMin= 1.30D-02
 ErrMax= 3.70D-02  0.00D+00 EMaxC= 1.00D-01 BMatC= 3.52D-01 BMatP= 1.28D-01
 IDIUse=2 WtCom= 0.00D+00 WtEn= 1.00D+00
 Coeff-En:   0.000D+00 0.416D+00 0.584D+00
 Coeff:      0.000D+00 0.416D+00 0.584D+00
 Gap=     0.135 Goal=   None    Shift=    0.000
 RMSDP=5.32D-03 MaxDP=4.26D-01 DE=-7.98D-02 OVMax= 9.78D-01

 Cycle   4  Pass 1  IDiag  1:
 RMSU=  2.00D-03    CP:  9.63D-01  2.67D+00 -3.81D-01
 E= -1210.77820584551     Delta-E=        1.412500386306 Rises=F Damp=F
 DIIS: error= 6.89D-02 at cycle   4 NSaved=   4.
 NSaved= 4 IEnMin= 3 EnMin= -1212.19070623182     IErMin= 2 ErrMin= 1.30D-02
 ErrMax= 6.89D-02  0.00D+00 EMaxC= 1.00D-01 BMatC= 1.09D+00 BMatP= 1.28D-01
 IDIUse=2 WtCom= 0.00D+00 WtEn= 1.00D+00
 EnCoef did     1 forward-backward iterations
 Coeff-En:   0.732D-01 0.000D+00 0.708D+00 0.218D+00
 Coeff:      0.732D-01 0.000D+00 0.708D+00 0.218D+00
 Gap=    -0.078 Goal=   None    Shift=    0.000
 RMSDP=4.87D-03 MaxDP=3.06D-01 DE= 1.41D+00 OVMax= 9.56D-01

 Cycle   5  Pass 1  IDiag  1:
 RMSU=  1.77D-03    CP:  9.80D-01  7.21D-01  3.64D-01  1.59D-02
 E= -1212.46230639115     Delta-E=       -1.684100545637 Rises=F Damp=F
 DIIS: error= 1.04D-02 at cycle   5 NSaved=   5.
 NSaved= 5 IEnMin= 5 EnMin= -1212.46230639115     IErMin= 5 ErrMin= 1.04D-02
 ErrMax= 1.04D-02  0.00D+00 EMaxC= 1.00D-01 BMatC= 5.40D-02 BMatP= 1.28D-01
 IDIUse=3 WtCom= 8.96D-01 WtEn= 1.04D-01
 Coeff-Com: -0.194D+00 0.473D+00 0.297D+00 0.163D-01 0.408D+00
 Coeff-En:   0.000D+00 0.000D+00 0.748D-01 0.000D+00 0.925D+00
 Coeff:     -0.174D+00 0.423D+00 0.274D+00 0.146D-01 0.462D+00
 Gap=     0.075 Goal=   None    Shift=    0.000
 RMSDP=1.05D-03 MaxDP=5.39D-02 DE=-1.68D+00 OVMax= 6.44D-02

 Cycle   6  Pass 1  IDiag  1:
 RMSU=  6.45D-04    CP:  9.77D-01  7.52D-01  5.39D-01  2.09D-02  6.24D-01
 E= -1212.48820174828     Delta-E=       -0.025895357135 Rises=F Damp=F
 DIIS: error= 8.19D-03 at cycle   6 NSaved=   6.
 NSaved= 6 IEnMin= 6 EnMin= -1212.48820174828     IErMin= 6 ErrMin= 8.19D-03
 ErrMax= 8.19D-03  0.00D+00 EMaxC= 1.00D-01 BMatC= 2.24D-02 BMatP= 5.40D-02
 IDIUse=3 WtCom= 9.18D-01 WtEn= 8.19D-02
 Coeff-Com: -0.161D+00 0.250D+00 0.415D-01-0.119D-01 0.317D+00 0.565D+00
 Coeff-En:   0.000D+00 0.000D+00 0.000D+00 0.000D+00 0.312D+00 0.688D+00
 Coeff:     -0.148D+00 0.229D+00 0.381D-01-0.109D-01 0.317D+00 0.575D+00
 Gap=     0.072 Goal=   None    Shift=    0.000
 RMSDP=5.08D-04 MaxDP=2.40D-02 DE=-2.59D-02 OVMax= 3.35D-02

 Cycle   7  Pass 1  IDiag  1:
 RMSU=  2.06D-04    CP:  9.78D-01  8.23D-01  4.82D-01 -4.82D-02  8.24D-01
                    CP:  7.36D-01
 E= -1212.50724474336     Delta-E=       -0.019042995081 Rises=F Damp=F
 DIIS: error= 1.57D-03 at cycle   7 NSaved=   7.
 NSaved= 7 IEnMin= 7 EnMin= -1212.50724474336     IErMin= 7 ErrMin= 1.57D-03
 ErrMax= 1.57D-03  0.00D+00 EMaxC= 1.00D-01 BMatC= 1.16D-03 BMatP= 2.24D-02
 IDIUse=3 WtCom= 9.84D-01 WtEn= 1.57D-02
 Coeff-Com: -0.709D-01 0.979D-01-0.228D-01-0.261D-02 0.114D+00 0.326D+00
 Coeff-Com:  0.558D+00
 Coeff-En:   0.000D+00 0.000D+00 0.000D+00 0.000D+00 0.000D+00 0.000D+00
 Coeff-En:   0.100D+01
 Coeff:     -0.698D-01 0.963D-01-0.224D-01-0.257D-02 0.112D+00 0.321D+00
 Coeff:      0.565D+00
 Gap=     0.072 Goal=   None    Shift=    0.000
 RMSDP=1.34D-04 MaxDP=6.07D-03 DE=-1.90D-02 OVMax= 9.43D-03

 Cycle   8  Pass 1  IDiag  1:
 RMSU=  8.74D-05    CP:  9.78D-01  8.07D-01  4.68D-01 -3.83D-02  8.42D-01
                    CP:  8.39D-01  7.68D-01
 E= -1212.50821886596     Delta-E=       -0.000974122597 Rises=F Damp=F
 DIIS: error= 5.03D-04 at cycle   8 NSaved=   8.
 NSaved= 8 IEnMin= 8 EnMin= -1212.50821886596     IErMin= 8 ErrMin= 5.03D-04
 ErrMax= 5.03D-04  0.00D+00 EMaxC= 1.00D-01 BMatC= 2.35D-04 BMatP= 1.16D-03
 IDIUse=3 WtCom= 9.95D-01 WtEn= 5.03D-03
 Coeff-Com: -0.155D-01 0.201D-01-0.318D-01 0.712D-03-0.156D-01 0.685D-01
 Coeff-Com:  0.354D+00 0.620D+00
 Coeff-En:   0.000D+00 0.000D+00 0.000D+00 0.000D+00 0.000D+00 0.000D+00
 Coeff-En:   0.000D+00 0.100D+01
 Coeff:     -0.154D-01 0.200D-01-0.317D-01 0.709D-03-0.155D-01 0.682D-01
 Coeff:      0.352D+00 0.622D+00
 Gap=     0.071 Goal=   None    Shift=    0.000
 RMSDP=6.74D-05 MaxDP=2.19D-03 DE=-9.74D-04 OVMax= 7.19D-03

 Cycle   9  Pass 1  IDiag  1:
 RMSU=  3.36D-05    CP:  9.78D-01  8.12D-01  4.60D-01 -4.42D-02  8.58D-01
                    CP:  8.70D-01  9.33D-01  8.00D-01
 E= -1212.50846703368     Delta-E=       -0.000248167725 Rises=F Damp=F
 DIIS: error= 2.34D-04 at cycle   9 NSaved=   9.
 NSaved= 9 IEnMin= 9 EnMin= -1212.50846703368     IErMin= 9 ErrMin= 2.34D-04
 ErrMax= 2.34D-04  0.00D+00 EMaxC= 1.00D-01 BMatC= 1.79D-05 BMatP= 2.35D-04
 IDIUse=3 WtCom= 9.98D-01 WtEn= 2.34D-03
 Coeff-Com: -0.321D-02 0.533D-02-0.101D-01 0.225D-03-0.150D-01-0.461D-02
 Coeff-Com:  0.452D-01 0.219D+00 0.763D+00
 Coeff-En:   0.000D+00 0.000D+00 0.000D+00 0.000D+00 0.000D+00 0.000D+00
 Coeff-En:   0.000D+00 0.000D+00 0.100D+01
 Coeff:     -0.320D-02 0.532D-02-0.101D-01 0.225D-03-0.150D-01-0.460D-02
 Coeff:      0.451D-01 0.219D+00 0.764D+00
 Gap=     0.071 Goal=   None    Shift=    0.000
 RMSDP=2.14D-05 MaxDP=8.36D-04 DE=-2.48D-04 OVMax= 2.58D-03

 Cycle  10  Pass 1  IDiag  1:
 RMSU=  1.52D-05    CP:  9.78D-01  8.12D-01  4.58D-01 -4.56D-02  8.61D-01
                    CP:  8.81D-01  9.55D-01  8.94D-01  1.00D+00
 E= -1212.50848392934     Delta-E=       -0.000016895654 Rises=F Damp=F
 DIIS: error= 5.33D-05 at cycle  10 NSaved=  10.
 NSaved=10 IEnMin=10 EnMin= -1212.50848392934     IErMin=10 ErrMin= 5.33D-05
 ErrMax= 5.33D-05  0.00D+00 EMaxC= 1.00D-01 BMatC= 3.35D-06 BMatP= 1.79D-05
 IDIUse=1 WtCom= 1.00D+00 WtEn= 0.00D+00
 Coeff-Com: -0.106D-02 0.215D-02-0.122D-02-0.403D-04-0.344D-02-0.832D-02
 Coeff-Com: -0.290D-01 0.276D-01 0.431D+00 0.582D+00
 Coeff:     -0.106D-02 0.215D-02-0.122D-02-0.403D-04-0.344D-02-0.832D-02
 Coeff:     -0.290D-01 0.276D-01 0.431D+00 0.582D+00
 Gap=     0.071 Goal=   None    Shift=    0.000
 RMSDP=7.81D-06 MaxDP=2.69D-04 DE=-1.69D-05 OVMax= 9.85D-04

 Cycle  11  Pass 1  IDiag  1:
 RMSU=  5.47D-06    CP:  9.78D-01  8.13D-01  4.57D-01 -4.61D-02  8.62D-01
                    CP:  8.85D-01  9.63D-01  9.09D-01  1.10D+00  8.83D-01
 E= -1212.50848732126     Delta-E=       -0.000003391917 Rises=F Damp=F
 DIIS: error= 2.10D-05 at cycle  11 NSaved=  11.
 NSaved=11 IEnMin=11 EnMin= -1212.50848732126     IErMin=11 ErrMin= 2.10D-05
 ErrMax= 2.10D-05  0.00D+00 EMaxC= 1.00D-01 BMatC= 3.07D-07 BMatP= 3.35D-06
 IDIUse=1 WtCom= 1.00D+00 WtEn= 0.00D+00
 Coeff-Com: -0.816D-04 0.224D-03 0.512D-03-0.176D-04 0.227D-03-0.400D-02
 Coeff-Com: -0.228D-01-0.136D-01 0.126D+00 0.280D+00 0.634D+00
 Coeff:     -0.816D-04 0.224D-03 0.512D-03-0.176D-04 0.227D-03-0.400D-02
 Coeff:     -0.228D-01-0.136D-01 0.126D+00 0.280D+00 0.634D+00
 Gap=     0.071 Goal=   None    Shift=    0.000
 RMSDP=4.08D-06 MaxDP=1.48D-04 DE=-3.39D-06 OVMax= 6.50D-04

 Cycle  12  Pass 1  IDiag  1:
 RMSU=  2.10D-06    CP:  9.78D-01  8.13D-01  4.57D-01 -4.60D-02  8.63D-01
                    CP:  8.85D-01  9.66D-01  9.21D-01  1.16D+00  9.97D-01
                    CP:  9.22D-01
 E= -1212.50848772995     Delta-E=       -0.000000408696 Rises=F Damp=F
 DIIS: error= 8.48D-06 at cycle  12 NSaved=  12.
 NSaved=12 IEnMin=12 EnMin= -1212.50848772995     IErMin=12 ErrMin= 8.48D-06
 ErrMax= 8.48D-06  0.00D+00 EMaxC= 1.00D-01 BMatC= 4.18D-08 BMatP= 3.07D-07
 IDIUse=1 WtCom= 1.00D+00 WtEn= 0.00D+00
 Coeff-Com:  0.606D-05-0.528D-06 0.417D-03-0.171D-04 0.600D-03-0.933D-03
 Coeff-Com: -0.798D-02-0.850D-02 0.136D-01 0.619D-01 0.341D+00 0.600D+00
 Coeff:      0.606D-05-0.528D-06 0.417D-03-0.171D-04 0.600D-03-0.933D-03
 Coeff:     -0.798D-02-0.850D-02 0.136D-01 0.619D-01 0.341D+00 0.600D+00
 Gap=     0.071 Goal=   None    Shift=    0.000
 RMSDP=1.47D-06 MaxDP=4.77D-05 DE=-4.09D-07 OVMax= 2.27D-04

 Cycle  13  Pass 1  IDiag  1:
 RMSU=  7.77D-07    CP:  9.78D-01  8.13D-01  4.57D-01 -4.61D-02  8.63D-01
                    CP:  8.86D-01  9.67D-01  9.25D-01  1.18D+00  1.04D+00
                    CP:  1.07D+00  9.86D-01
 E= -1212.50848779220     Delta-E=       -0.000000062252 Rises=F Damp=F
 DIIS: error= 2.75D-06 at cycle  13 NSaved=  13.
 NSaved=13 IEnMin=13 EnMin= -1212.50848779220     IErMin=13 ErrMin= 2.75D-06
 ErrMax= 2.75D-06  0.00D+00 EMaxC= 1.00D-01 BMatC= 8.42D-09 BMatP= 4.18D-08
 IDIUse=1 WtCom= 1.00D+00 WtEn= 0.00D+00
 Coeff-Com:  0.368D-04-0.597D-04 0.178D-03-0.820D-05 0.321D-03 0.308D-03
 Coeff-Com:  0.527D-03-0.130D-02-0.206D-01-0.350D-01 0.601D-01 0.299D+00
 Coeff-Com:  0.697D+00
 Coeff:      0.368D-04-0.597D-04 0.178D-03-0.820D-05 0.321D-03 0.308D-03
 Coeff:      0.527D-03-0.130D-02-0.206D-01-0.350D-01 0.601D-01 0.299D+00
 Coeff:      0.697D+00
 Gap=     0.071 Goal=   None    Shift=    0.000
 RMSDP=8.56D-07 MaxDP=3.33D-05 DE=-6.23D-08 OVMax= 1.39D-04

 Cycle  14  Pass 1  IDiag  1:
 RMSU=  2.81D-07    CP:  9.78D-01  8.13D-01  4.57D-01 -4.61D-02  8.63D-01
                    CP:  8.86D-01  9.68D-01  9.27D-01  1.19D+00  1.07D+00
                    CP:  1.14D+00  1.13D+00  9.98D-01
 E= -1212.50848780552     Delta-E=       -0.000000013316 Rises=F Damp=F
 DIIS: error= 1.90D-06 at cycle  14 NSaved=  14.
 NSaved=14 IEnMin=14 EnMin= -1212.50848780552     IErMin=14 ErrMin= 1.90D-06
 ErrMax= 1.90D-06  0.00D+00 EMaxC= 1.00D-01 BMatC= 1.65D-09 BMatP= 8.42D-09
 IDIUse=1 WtCom= 1.00D+00 WtEn= 0.00D+00
 Coeff-Com:  0.450D-04-0.709D-04-0.177D-04 0.222D-05-0.346D-04 0.296D-03
 Coeff-Com:  0.223D-02 0.217D-02-0.111D-01-0.324D-01-0.438D-01-0.114D-01
 Coeff-Com:  0.273D+00 0.821D+00
 Coeff:      0.450D-04-0.709D-04-0.177D-04 0.222D-05-0.346D-04 0.296D-03
 Coeff:      0.223D-02 0.217D-02-0.111D-01-0.324D-01-0.438D-01-0.114D-01
 Coeff:      0.273D+00 0.821D+00
 Gap=     0.071 Goal=   None    Shift=    0.000
 RMSDP=4.60D-07 MaxDP=1.84D-05 DE=-1.33D-08 OVMax= 7.30D-05

 Cycle  15  Pass 1  IDiag  1:
 RMSU=  1.11D-07    CP:  9.78D-01  8.13D-01  4.57D-01 -4.61D-02  8.63D-01
                    CP:  8.86D-01  9.68D-01  9.28D-01  1.19D+00  1.08D+00
                    CP:  1.18D+00  1.21D+00  1.16D+00  9.62D-01
 E= -1212.50848780818     Delta-E=       -0.000000002662 Rises=F Damp=F
 DIIS: error= 7.56D-07 at cycle  15 NSaved=  15.
 NSaved=15 IEnMin=15 EnMin= -1212.50848780818     IErMin=15 ErrMin= 7.56D-07
 ErrMax= 7.56D-07  0.00D+00 EMaxC= 1.00D-01 BMatC= 2.88D-10 BMatP= 1.65D-09
 IDIUse=1 WtCom= 1.00D+00 WtEn= 0.00D+00
 Coeff-Com:  0.198D-04-0.290D-04-0.178D-04 0.125D-05-0.432D-04 0.100D-03
 Coeff-Com:  0.981D-03 0.124D-02-0.289D-02-0.119D-01-0.234D-01-0.355D-01
 Coeff-Com:  0.473D-01 0.413D+00 0.611D+00
 Coeff:      0.198D-04-0.290D-04-0.178D-04 0.125D-05-0.432D-04 0.100D-03
 Coeff:      0.981D-03 0.124D-02-0.289D-02-0.119D-01-0.234D-01-0.355D-01
 Coeff:      0.473D-01 0.413D+00 0.611D+00
 Gap=     0.071 Goal=   None    Shift=    0.000
 RMSDP=8.87D-08 MaxDP=2.48D-06 DE=-2.66D-09 OVMax= 9.52D-06

 Cycle  16  Pass 1  IDiag  1:
 RMSU=  3.98D-08    CP:  9.78D-01  8.13D-01  4.57D-01 -4.61D-02  8.63D-01
                    CP:  8.86D-01  9.68D-01  9.28D-01  1.19D+00  1.08D+00
                    CP:  1.18D+00  1.22D+00  1.19D+00  1.04D+00  8.07D-01
 E= -1212.50848780850     Delta-E=       -0.000000000316 Rises=F Damp=F
 DIIS: error= 2.43D-07 at cycle  16 NSaved=  16.
 NSaved=16 IEnMin=16 EnMin= -1212.50848780850     IErMin=16 ErrMin= 2.43D-07
 ErrMax= 2.43D-07  0.00D+00 EMaxC= 1.00D-01 BMatC= 3.35D-11 BMatP= 2.88D-10
 IDIUse=1 WtCom= 1.00D+00 WtEn= 0.00D+00
 Coeff-Com:  0.338D-05-0.410D-05-0.680D-05 0.195D-06-0.168D-04 0.195D-04
 Coeff-Com:  0.257D-03 0.453D-03 0.209D-04-0.211D-02-0.611D-02-0.183D-01
 Coeff-Com: -0.141D-01 0.116D+00 0.305D+00 0.619D+00
 Coeff:      0.338D-05-0.410D-05-0.680D-05 0.195D-06-0.168D-04 0.195D-04
 Coeff:      0.257D-03 0.453D-03 0.209D-04-0.211D-02-0.611D-02-0.183D-01
 Coeff:     -0.141D-01 0.116D+00 0.305D+00 0.619D+00
 Gap=     0.071 Goal=   None    Shift=    0.000
 RMSDP=2.81D-08 MaxDP=1.05D-06 DE=-3.16D-10 OVMax= 1.94D-06

 Cycle  17  Pass 1  IDiag  1:
 RMSU=  1.26D-08    CP:  9.78D-01  8.13D-01  4.57D-01 -4.61D-02  8.63D-01
                    CP:  8.86D-01  9.68D-01  9.28D-01  1.19D+00  1.09D+00
                    CP:  1.18D+00  1.22D+00  1.20D+00  1.07D+00  8.91D-01
                    CP:  7.51D-01
 E= -1212.50848780852     Delta-E=       -0.000000000026 Rises=F Damp=F
 DIIS: error= 6.49D-08 at cycle  17 NSaved=  17.
 NSaved=17 IEnMin=17 EnMin= -1212.50848780852     IErMin=17 ErrMin= 6.49D-08
 ErrMax= 6.49D-08  0.00D+00 EMaxC= 1.00D-01 BMatC= 2.48D-12 BMatP= 3.35D-11
 IDIUse=1 WtCom= 1.00D+00 WtEn= 0.00D+00
 Coeff-Com:  0.188D-07 0.538D-07-0.231D-05 0.368D-07-0.487D-05 0.288D-05
 Coeff-Com:  0.547D-04 0.138D-03 0.230D-03-0.110D-03-0.119D-02-0.680D-02
 Coeff-Com: -0.124D-01 0.247D-01 0.995D-01 0.327D+00 0.569D+00
 Coeff:      0.188D-07 0.538D-07-0.231D-05 0.368D-07-0.487D-05 0.288D-05
 Coeff:      0.547D-04 0.138D-03 0.230D-03-0.110D-03-0.119D-02-0.680D-02
 Coeff:     -0.124D-01 0.247D-01 0.995D-01 0.327D+00 0.569D+00
 Gap=     0.071 Goal=   None    Shift=    0.000
 RMSDP=7.79D-09 MaxDP=2.48D-07 DE=-2.57D-11 OVMax= 5.98D-07

 Error on total polarization charges =  0.01493
 SCF Done:  E(RB3LYP) =  -1212.50848781     A.U. after   17 cycles
            NFock= 17  Conv=0.78D-08     -V/T= 2.0056
 KE= 1.205723366160D+03 PE=-5.748137108226D+03 EE= 1.866973786166D+03
 Leave Link  502 at Sun Jul 18 16:22:29 2021, MaxMem=   104857600 cpu:             995.9 elap:             257.2
 (Enter /dades/curu/g16A03_MST/g16/l601.exe)
 Copying SCF densities to generalized density rwf, IOpCl= 0 IROHF=0.

 **********************************************************************

            Population analysis using the SCF density.

 **********************************************************************

 Orbital symmetries:
       Occupied  (A) (A) (A) (A) (A) (A) (A) (A) (A) (A) (A) (A)
                 (A) (A) (A) (A) (A) (A) (A) (A) (A) (A) (A) (A)
                 (A) (A) (A) (A) (A) (A) (A) (A) (A) (A) (A) (A)
                 (A) (A) (A) (A) (A) (A) (A) (A) (A) (A) (A) (A)
                 (A) (A) (A) (A) (A) (A) (A) (A) (A) (A) (A) (A)
                 (A) (A) (A) (A) (A) (A) (A) (A) (A) (A) (A) (A)
       Virtual   (A) (A) (A) (A) (A) (A) (A) (A) (A) (A) (A) (A)
                 (A) (A) (A) (A) (A) (A) (A) (A) (A) (A) (A) (A)
                 (A) (A) (A) (A) (A) (A) (A) (A) (A) (A) (A) (A)
                 (A) (A) (A) (A) (A) (A) (A) (A) (A) (A) (A) (A)
                 (A) (A) (A) (A) (A) (A) (A) (A) (A) (A) (A) (A)
                 (A) (A) (A) (A) (A) (A) (A) (A) (A) (A) (A) (A)
                 (A) (A) (A) (A) (A) (A) (A) (A) (A) (A) (A) (A)
                 (A) (A) (A) (A) (A) (A) (A) (A) (A) (A) (A) (A)
                 (A) (A) (A) (A) (A) (A) (A) (A) (A) (A) (A) (A)
                 (A) (A) (A) (A) (A) (A) (A) (A) (A) (A) (A) (A)
                 (A) (A) (A) (A) (A) (A) (A) (A) (A) (A) (A) (A)
                 (A) (A) (A) (A) (A) (A) (A) (A) (A) (A) (A) (A)
                 (A) (A) (A) (A) (A) (A) (A) (A) (A) (A) (A) (A)
                 (A) (A) (A) (A) (A) (A) (A) (A) (A) (A) (A) (A)
                 (A) (A) (A) (A) (A) (A) (A) (A) (A) (A) (A) (A)
                 (A) (A) (A) (A) (A) (A) (A) (A) (A) (A) (A) (A)
                 (A) (A) (A) (A) (A) (A) (A) (A) (A) (A) (A) (A)
                 (A) (A) (A) (A) (A) (A) (A) (A) (A) (A) (A) (A)
                 (A) (A) (A) (A) (A) (A) (A) (A) (A) (A) (A) (A)
                 (A) (A) (A) (A) (A) (A) (A) (A) (A) (A) (A) (A)
                 (A) (A) (A) (A) (A)
 The electronic state is 1-A.
 Alpha  occ. eigenvalues --  -88.94278 -19.11607 -14.41240 -14.39041 -14.37282
 Alpha  occ. eigenvalues --  -14.37007 -14.36725 -10.36425 -10.32376 -10.29231
 Alpha  occ. eigenvalues --  -10.25376 -10.23870 -10.23639 -10.22363 -10.20891
 Alpha  occ. eigenvalues --  -10.20574 -10.20508 -10.19700 -10.18636  -8.00648
 Alpha  occ. eigenvalues --   -5.97024  -5.96681  -5.96320  -1.15610  -1.05311
 Alpha  occ. eigenvalues --   -1.02691  -0.97066  -0.95528  -0.93007  -0.87212
 Alpha  occ. eigenvalues --   -0.83936  -0.80239  -0.77600  -0.75484  -0.73405
 Alpha  occ. eigenvalues --   -0.69420  -0.67263  -0.64136  -0.63575  -0.63356
 Alpha  occ. eigenvalues --   -0.60299  -0.58268  -0.56538  -0.55141  -0.54540
 Alpha  occ. eigenvalues --   -0.53131  -0.50766  -0.50122  -0.48747  -0.47837
 Alpha  occ. eigenvalues --   -0.47353  -0.46043  -0.45131  -0.44729  -0.43764
 Alpha  occ. eigenvalues --   -0.42929  -0.41967  -0.40324  -0.39996  -0.39093
 Alpha  occ. eigenvalues --   -0.37523  -0.36492  -0.36064  -0.34294  -0.32176
 Alpha  occ. eigenvalues --   -0.31425  -0.30520  -0.29419  -0.27344  -0.25801
 Alpha  occ. eigenvalues --   -0.25001  -0.23103
 Alpha virt. eigenvalues --   -0.15968  -0.04975  -0.02997  -0.02184  -0.01285
 Alpha virt. eigenvalues --    0.02585   0.04772   0.07036   0.07940   0.08756
 Alpha virt. eigenvalues --    0.09951   0.10674   0.11289   0.11779   0.13200
 Alpha virt. eigenvalues --    0.13633   0.14678   0.15229   0.15412   0.15836
 Alpha virt. eigenvalues --    0.16584   0.17892   0.18395   0.18979   0.20977
 Alpha virt. eigenvalues --    0.23638   0.24361   0.25606   0.26032   0.27978
 Alpha virt. eigenvalues --    0.28277   0.29136   0.30137   0.31322   0.32808
 Alpha virt. eigenvalues --    0.34150   0.34912   0.34982   0.36533   0.37748
 Alpha virt. eigenvalues --    0.39981   0.41884   0.42293   0.45151   0.47538
 Alpha virt. eigenvalues --    0.49826   0.50076   0.51004   0.51630   0.52720
 Alpha virt. eigenvalues --    0.53178   0.54136   0.54551   0.54951   0.55695
 Alpha virt. eigenvalues --    0.57184   0.57668   0.57915   0.58664   0.59984
 Alpha virt. eigenvalues --    0.60284   0.61115   0.61575   0.63151   0.63840
 Alpha virt. eigenvalues --    0.65678   0.66450   0.66673   0.68553   0.69388
 Alpha virt. eigenvalues --    0.69849   0.70370   0.71900   0.73803   0.74304
 Alpha virt. eigenvalues --    0.74528   0.75108   0.76611   0.77092   0.77650
 Alpha virt. eigenvalues --    0.78859   0.79582   0.80371   0.81539   0.81737
 Alpha virt. eigenvalues --    0.82212   0.82881   0.83598   0.84112   0.84801
 Alpha virt. eigenvalues --    0.85093   0.85296   0.86342   0.87078   0.87296
 Alpha virt. eigenvalues --    0.87685   0.88703   0.90230   0.90421   0.91743
 Alpha virt. eigenvalues --    0.92304   0.93102   0.94694   0.95192   0.96155
 Alpha virt. eigenvalues --    0.98024   0.98613   0.99410   1.00798   1.03117
 Alpha virt. eigenvalues --    1.03824   1.04575   1.05560   1.07165   1.08788
 Alpha virt. eigenvalues --    1.10952   1.11416   1.13487   1.15085   1.17273
 Alpha virt. eigenvalues --    1.18183   1.20357   1.21981   1.24688   1.25500
 Alpha virt. eigenvalues --    1.26768   1.28584   1.30278   1.31935   1.35744
 Alpha virt. eigenvalues --    1.37409   1.38818   1.40048   1.41100   1.44251
 Alpha virt. eigenvalues --    1.45757   1.46568   1.47909   1.48677   1.51529
 Alpha virt. eigenvalues --    1.52098   1.55350   1.58386   1.60692   1.62215
 Alpha virt. eigenvalues --    1.66150   1.67413   1.69802   1.72711   1.73635
 Alpha virt. eigenvalues --    1.75662   1.78347   1.78838   1.80702   1.80917
 Alpha virt. eigenvalues --    1.81756   1.83057   1.84928   1.88475   1.88969
 Alpha virt. eigenvalues --    1.90196   1.91181   1.93515   1.93852   1.94229
 Alpha virt. eigenvalues --    1.96361   1.97356   1.99301   2.01892   2.02699
 Alpha virt. eigenvalues --    2.06420   2.06574   2.08028   2.09541   2.11325
 Alpha virt. eigenvalues --    2.14435   2.15455   2.16101   2.19108   2.19789
 Alpha virt. eigenvalues --    2.21195   2.21733   2.22457   2.24474   2.25494
 Alpha virt. eigenvalues --    2.26707   2.28906   2.29510   2.31616   2.33384
 Alpha virt. eigenvalues --    2.34369   2.35593   2.38517   2.41083   2.43336
 Alpha virt. eigenvalues --    2.44367   2.46188   2.46867   2.47920   2.50964
 Alpha virt. eigenvalues --    2.51953   2.58904   2.59630   2.59979   2.61719
 Alpha virt. eigenvalues --    2.62406   2.65759   2.69140   2.70108   2.71603
 Alpha virt. eigenvalues --    2.74614   2.75388   2.77073   2.78391   2.79810
 Alpha virt. eigenvalues --    2.82684   2.87352   2.94277   2.95994   3.00415
 Alpha virt. eigenvalues --    3.02229   3.05574   3.14747   3.18810   3.23348
 Alpha virt. eigenvalues --    3.43913   3.78484   3.85349   3.91950   4.01998
 Alpha virt. eigenvalues --    4.04860   4.06688   4.08476   4.09818   4.11497
 Alpha virt. eigenvalues --    4.16902   4.18539   4.22116   4.27271   4.32529
 Alpha virt. eigenvalues --    4.34855   4.43087   4.52277   4.52402   4.74190
          Condensed to atoms (all electrons):
               1          2          3          4          5          6
     1  C    5.378048   0.358312   0.333928   0.368243   0.353752  -0.101168
     2  H    0.358312   0.524319  -0.026819  -0.028960  -0.017104  -0.000348
     3  H    0.333928  -0.026819   0.574173  -0.027414  -0.029951   0.004175
     4  H    0.368243  -0.028960  -0.027414   0.510477  -0.015040   0.000390
     5  C    0.353752  -0.017104  -0.029951  -0.015040   4.256321   0.638054
     6  O   -0.101168  -0.000348   0.004175   0.000390   0.638054   8.065698
     7  N   -0.131246   0.000294   0.010139   0.002932   0.235834  -0.102904
     8  H    0.000616   0.000342   0.000992  -0.000014  -0.019816   0.002852
     9  C    0.006917  -0.000307   0.000352  -0.000071  -0.007511   0.010371
    10  C    0.000334   0.000001  -0.000040   0.000001  -0.003828   0.003775
    11  C    0.000004   0.000000  -0.000000  -0.000000   0.000213  -0.000023
    12  C    0.000000  -0.000000   0.000000  -0.000000   0.000003  -0.000006
    13  H    0.000000  -0.000000   0.000000  -0.000000  -0.000000   0.000000
    14  H   -0.000000  -0.000000  -0.000000   0.000000  -0.000011   0.000001
    15  H   -0.000157   0.000002   0.000002   0.000004   0.002674   0.000665
    16  C   -0.000373   0.000029  -0.000022   0.000002   0.000614  -0.000646
    17  H   -0.000029  -0.000004  -0.000002   0.000001   0.000076  -0.000007
    18  C    0.000004  -0.000000  -0.000000   0.000000  -0.000038  -0.000007
    19  C   -0.000000   0.000000   0.000000   0.000000   0.000001   0.000000
    20  N    0.000000  -0.000000  -0.000000  -0.000000  -0.000000  -0.000000
    21  C    0.000000   0.000000   0.000000  -0.000000  -0.000000  -0.000000
    22  H   -0.000000  -0.000000  -0.000000   0.000000   0.000000  -0.000000
    23  S   -0.000000   0.000000   0.000000   0.000000  -0.000000  -0.000000
    24  C   -0.000000  -0.000000   0.000000   0.000000   0.000000   0.000000
    25  N    0.000000  -0.000000   0.000000   0.000000  -0.000000   0.000000
    26  C    0.000000  -0.000000  -0.000000   0.000000   0.000000   0.000000
    27  N   -0.000000   0.000000   0.000000   0.000000  -0.000000  -0.000000
    28  H   -0.000000  -0.000000  -0.000000  -0.000000   0.000000   0.000000
    29  H   -0.000000   0.000000   0.000000   0.000000  -0.000000  -0.000000
    30  N    0.000000  -0.000000   0.000000  -0.000000   0.000000  -0.000000
    31  H   -0.000000  -0.000000  -0.000000   0.000000   0.000000   0.000000
    32  H    0.000000  -0.000000  -0.000000   0.000000   0.000000   0.000000
    33  H   -0.000000  -0.000000  -0.000000   0.000000   0.000000   0.000000
               7          8          9         10         11         12
     1  C   -0.131246   0.000616   0.006917   0.000334   0.000004   0.000000
     2  H    0.000294   0.000342  -0.000307   0.000001   0.000000  -0.000000
     3  H    0.010139   0.000992   0.000352  -0.000040  -0.000000   0.000000
     4  H    0.002932  -0.000014  -0.000071   0.000001  -0.000000  -0.000000
     5  C    0.235834  -0.019816  -0.007511  -0.003828   0.000213   0.000003
     6  O   -0.102904   0.002852   0.010371   0.003775  -0.000023  -0.000006
     7  N    7.305902   0.303886   0.190193  -0.069380   0.005333   0.000766
     8  H    0.303886   0.369998  -0.026949   0.004817  -0.000103   0.000005
     9  C    0.190193  -0.026949   4.562794   0.571819  -0.012075  -0.038438
    10  C   -0.069380   0.004817   0.571819   4.917092   0.531293  -0.044080
    11  C    0.005333  -0.000103  -0.012075   0.531293   4.903348   0.498266
    12  C    0.000766   0.000005  -0.038438  -0.044080   0.498266   5.017270
    13  H    0.000006  -0.000000   0.000620   0.004513  -0.042885   0.361302
    14  H   -0.000146   0.000004   0.003973  -0.034956   0.359501  -0.038636
    15  H   -0.008927   0.000075  -0.038894   0.356465  -0.047113   0.005997
    16  C   -0.052158  -0.003868   0.505971  -0.069730  -0.046031  -0.065299
    17  H   -0.004771   0.003881  -0.040187   0.006717   0.000081   0.004811
    18  C    0.005166  -0.000147  -0.009664  -0.038612  -0.008638   0.503008
    19  C   -0.000221   0.000009   0.005498   0.001409   0.005630  -0.046136
    20  N    0.000000   0.000000  -0.000105  -0.000011   0.000397  -0.003616
    21  C    0.000002  -0.000003   0.000353   0.000050  -0.000245   0.007848
    22  H    0.000002  -0.000001  -0.000017   0.000003  -0.000000  -0.000188
    23  S   -0.000000   0.000000  -0.000005  -0.000001   0.000011  -0.000002
    24  C   -0.000000   0.000000   0.000004   0.000000  -0.000007  -0.000058
    25  N   -0.000000   0.000000  -0.000000   0.000000  -0.000000  -0.000013
    26  C    0.000000   0.000000  -0.000000   0.000000   0.000000   0.000007
    27  N   -0.000000   0.000000   0.000000  -0.000000   0.000000  -0.000000
    28  H    0.000000  -0.000000  -0.000000   0.000000  -0.000000  -0.000000
    29  H   -0.000000   0.000000   0.000000   0.000000  -0.000000  -0.000000
    30  N    0.000000  -0.000000  -0.000000   0.000000   0.000000   0.000000
    31  H    0.000000  -0.000000  -0.000000  -0.000000   0.000000   0.000000
    32  H    0.000000  -0.000000  -0.000000  -0.000000  -0.000000   0.000000
    33  H    0.000000  -0.000000  -0.000000   0.000000  -0.000000  -0.000000
              13         14         15         16         17         18
     1  C    0.000000  -0.000000  -0.000157  -0.000373  -0.000029   0.000004
     2  H   -0.000000  -0.000000   0.000002   0.000029  -0.000004  -0.000000
     3  H    0.000000  -0.000000   0.000002  -0.000022  -0.000002  -0.000000
     4  H   -0.000000   0.000000   0.000004   0.000002   0.000001   0.000000
     5  C   -0.000000  -0.000011   0.002674   0.000614   0.000076  -0.000038
     6  O    0.000000   0.000001   0.000665  -0.000646  -0.000007  -0.000007
     7  N    0.000006  -0.000146  -0.008927  -0.052158  -0.004771   0.005166
     8  H   -0.000000   0.000004   0.000075  -0.003868   0.003881  -0.000147
     9  C    0.000620   0.003973  -0.038894   0.505971  -0.040187  -0.009664
    10  C    0.004513  -0.034956   0.356465  -0.069730   0.006717  -0.038612
    11  C   -0.042885   0.359501  -0.047113  -0.046031   0.000081  -0.008638
    12  C    0.361302  -0.038636   0.005997  -0.065299   0.004811   0.503008
    13  H    0.564645  -0.003917  -0.000198   0.004409  -0.000107  -0.040656
    14  H   -0.003917   0.561528  -0.006514   0.000849   0.000018   0.002939
    15  H   -0.000198  -0.006514   0.580256   0.007455  -0.000195   0.000232
    16  C    0.004409   0.000849   0.007455   5.133710   0.346061   0.487760
    17  H   -0.000107   0.000018  -0.000195   0.346061   0.575896  -0.039295
    18  C   -0.040656   0.002939   0.000232   0.487760  -0.039295   4.846669
    19  C   -0.008271  -0.000154   0.000003  -0.030553  -0.010061   0.337560
    20  N    0.007658  -0.000002   0.000000   0.003293   0.000005  -0.060278
    21  C    0.000413   0.000002  -0.000000  -0.015395   0.005901  -0.055974
    22  H   -0.000011   0.000000  -0.000000   0.003404   0.002561  -0.005569
    23  S    0.000033  -0.000000   0.000000   0.000217  -0.000093   0.005288
    24  C   -0.000181   0.000000  -0.000000  -0.000007  -0.000007   0.007619
    25  N   -0.000014   0.000000  -0.000000   0.000002   0.000000  -0.000122
    26  C    0.000025  -0.000000  -0.000000  -0.000000  -0.000000  -0.000033
    27  N   -0.000000  -0.000000  -0.000000   0.000000   0.000000  -0.000000
    28  H    0.000000  -0.000000  -0.000000  -0.000000  -0.000000   0.000000
    29  H    0.000000  -0.000000   0.000000  -0.000000  -0.000000   0.000000
    30  N    0.000000  -0.000000   0.000000  -0.000000  -0.000000   0.000000
    31  H    0.000000   0.000000  -0.000000   0.000000  -0.000000   0.000000
    32  H    0.000000   0.000000  -0.000000  -0.000000   0.000000   0.000000
    33  H   -0.000000   0.000000  -0.000000  -0.000000  -0.000000   0.000003
              19         20         21         22         23         24
     1  C   -0.000000   0.000000   0.000000  -0.000000  -0.000000  -0.000000
     2  H    0.000000  -0.000000   0.000000  -0.000000   0.000000  -0.000000
     3  H    0.000000  -0.000000   0.000000  -0.000000   0.000000   0.000000
     4  H    0.000000  -0.000000  -0.000000   0.000000   0.000000   0.000000
     5  C    0.000001  -0.000000  -0.000000   0.000000  -0.000000   0.000000
     6  O    0.000000  -0.000000  -0.000000  -0.000000  -0.000000   0.000000
     7  N   -0.000221   0.000000   0.000002   0.000002  -0.000000  -0.000000
     8  H    0.000009   0.000000  -0.000003  -0.000001   0.000000   0.000000
     9  C    0.005498  -0.000105   0.000353  -0.000017  -0.000005   0.000004
    10  C    0.001409  -0.000011   0.000050   0.000003  -0.000001   0.000000
    11  C    0.005630   0.000397  -0.000245  -0.000000   0.000011  -0.000007
[...]
 Alpha virt. eigenvalues --    4.10504   4.15852   4.21297   4.94325
          Condensed to atoms (all electrons):
               1          2          3          4          5          6
     1  C    4.673210   0.336170   0.253270   0.397938   0.010870  -0.056460
     2  H    0.336170   0.686663  -0.058558  -0.049830  -0.001563   0.001997
     3  H    0.253270  -0.058558   1.059576  -0.109536   0.178632  -0.001981
     4  H    0.397938  -0.049830  -0.109536   0.763291  -0.108548   0.026518
     5  C    0.010870  -0.001563   0.178632  -0.108548   5.609476   0.141130
     6  O   -0.056460   0.001997  -0.001981   0.026518   0.141130   8.782564
     7  N   -0.054116   0.039275  -0.175245   0.077964   0.098033  -0.147579
     8  H   -0.076914   0.003084   0.012755  -0.011892  -0.081121  -0.009013
     9  C    0.230777  -0.046679  -0.009571   0.005995  -0.280113   0.202028
    10  C   -0.030004   0.002317   0.019843  -0.007082   0.200249   0.035714
    11  C    0.001656   0.003295  -0.002440   0.002809  -0.005290  -0.076897
    12  C   -0.018996  -0.000821  -0.003124  -0.001155   0.051783   0.004565
    13  H   -0.000612  -0.000045  -0.000070  -0.000009  -0.009484   0.000631
    14  H    0.001831   0.000183   0.000101   0.000182   0.020522  -0.000927
    15  H   -0.019667  -0.001739   0.001471  -0.002101   0.126591  -0.090768
    16  C   -0.170653   0.015022  -0.046149   0.003064  -0.435800   0.016527
    17  H    0.038582  -0.000131  -0.002984   0.002294  -0.068236   0.011050
    18  C    0.037030  -0.004536   0.017697  -0.000331  -0.032483   0.018351
    19  C    0.001595   0.000527  -0.002245   0.000486   0.020089  -0.008185
    20  N   -0.000119   0.000006   0.000052   0.000007   0.004130  -0.000133
    21  C    0.001000   0.000151   0.000997  -0.000123   0.003215   0.000846
    22  H   -0.000268  -0.000016   0.000737  -0.000012   0.006840  -0.000432
    23  S    0.000002  -0.000005   0.000005  -0.000008  -0.000303   0.000032
    24  C    0.000043   0.000033  -0.000128   0.000026   0.005117  -0.000215
    25  N   -0.000005  -0.000001  -0.000001  -0.000001  -0.000090   0.000002
    26  C    0.000004  -0.000000  -0.000000  -0.000000  -0.000065   0.000004
    27  N   -0.000000  -0.000000   0.000000  -0.000000  -0.000000  -0.000000
    28  H    0.000000  -0.000000   0.000000   0.000000  -0.000001   0.000000
    29  H    0.000000   0.000000  -0.000000  -0.000000   0.000000   0.000000
    30  N   -0.000000  -0.000000   0.000001  -0.000000  -0.000037   0.000001
    31  H    0.000007   0.000005  -0.000003  -0.000001   0.000767  -0.000046
    32  H   -0.000001  -0.000000   0.000000  -0.000000  -0.000021   0.000001
    33  H    0.000000   0.000000  -0.000000   0.000000   0.000028  -0.000000
               7          8          9         10         11         12
     1  C   -0.054116  -0.076914   0.230777  -0.030004   0.001656  -0.018996
     2  H    0.039275   0.003084  -0.046679   0.002317   0.003295  -0.000821
     3  H   -0.175245   0.012755  -0.009571   0.019843  -0.002440  -0.003124
     4  H    0.077964  -0.011892   0.005995  -0.007082   0.002809  -0.001155
     5  C    0.098033  -0.081121  -0.280113   0.200249  -0.005290   0.051783
     6  O   -0.147579  -0.009013   0.202028   0.035714  -0.076897   0.004565
     7  N    8.095663   0.302665  -1.176243   0.895830  -0.295726   0.265677
     8  H    0.302665   0.972446  -0.223587  -0.142662  -0.008707   0.017314
     9  C   -1.176243  -0.223587  19.031046  -6.654365   4.191282  -3.944313
    10  C    0.895830  -0.142662  -6.654365  16.725420  -7.012978   3.426076
    11  C   -0.295726  -0.008707   4.191282  -7.012978  19.568380  -6.878556
    12  C    0.265677   0.017314  -3.944313   3.426076  -6.878556  22.249124
    13  H    0.000628  -0.003922  -0.027061  -0.236173   0.730889  -1.452214
    14  H   -0.004999  -0.000431  -0.357856   1.178992  -1.775564   0.964946
    15  H   -0.176296   0.010417   0.907629  -1.757882   0.811292  -0.239179
    16  C    0.641592   0.331372  -6.910515   2.859940  -4.603472  -1.767478
    17  H   -0.222055  -0.032229   0.694827  -0.249319   0.058852  -0.073148
    18  C   -0.589084  -0.058506   1.426487  -4.546573   1.846182  -6.274322
    19  C    0.055156   0.030241  -2.273878   0.627597  -0.701944   0.968645
    20  N   -0.003706   0.000161   0.208413  -0.068176  -0.021226  -0.150864
    21  C   -0.034153  -0.006638   1.266140  -0.319474   0.137842  -1.717953
    22  H   -0.001049  -0.002916  -0.056458  -0.022607   0.016897   0.125860
    23  S    0.001318   0.001382  -0.019890   0.021135  -0.029183   0.061161
    24  C   -0.003258   0.008747   0.231465  -0.117589   0.183193  -0.380860
    25  N    0.000355   0.000001  -0.016957   0.009351  -0.027764   0.032629
    26  C   -0.000213   0.000149  -0.003283  -0.001654   0.043818  -0.025637
    27  N    0.000001  -0.000004  -0.000236   0.000362  -0.001508   0.000140
    28  H   -0.000002  -0.000006  -0.000055   0.000042  -0.000060   0.000578
    29  H    0.000000   0.000004  -0.000009   0.000025   0.000402  -0.000134
    30  N   -0.000086  -0.000095   0.001831  -0.001357  -0.029154  -0.005316
    31  H    0.000699   0.000399  -0.004561   0.016304  -0.024896  -0.011676
    32  H   -0.000025  -0.000014  -0.000075  -0.000194   0.005289   0.006036
    33  H    0.000031   0.000072   0.000847  -0.000096  -0.000196  -0.004137
              13         14         15         16         17         18
     1  C   -0.000612   0.001831  -0.019667  -0.170653   0.038582   0.037030
     2  H   -0.000045   0.000183  -0.001739   0.015022  -0.000131  -0.004536
     3  H   -0.000070   0.000101   0.001471  -0.046149  -0.002984   0.017697
     4  H   -0.000009   0.000182  -0.002101   0.003064   0.002294  -0.000331
     5  C   -0.009484   0.020522   0.126591  -0.435800  -0.068236  -0.032483
     6  O    0.000631  -0.000927  -0.090768   0.016527   0.011050   0.018351
     7  N    0.000628  -0.004999  -0.176296   0.641592  -0.222055  -0.589084
     8  H   -0.003922  -0.000431   0.010417   0.331372  -0.032229  -0.058506
     9  C   -0.027061  -0.357856   0.907629  -6.910515   0.694827   1.426487
    10  C   -0.236173   1.178992  -1.757882   2.859940  -0.249319  -4.546573
    11  C    0.730889  -1.775564   0.811292  -4.603472   0.058852   1.846182
    12  C   -1.452214   0.964946  -0.239179  -1.767478  -0.073148  -6.274322
    13  H    2.218818  -0.137908  -0.006178  -0.191244  -0.003738   0.751467
    14  H   -0.137908   1.893283  -0.103463   0.106028   0.011320  -0.262811
    15  H   -0.006178  -0.103463   2.367638  -0.127660  -0.036829  -0.036920
    16  C   -0.191244   0.106028  -0.127660  29.358828  -2.323970  -9.562619
    17  H   -0.003738   0.011320  -0.036829  -2.323970   2.571990   1.428970
    18  C    0.751467  -0.262811  -0.036920  -9.562619   1.428970  25.626553
    19  C    0.105932  -0.009051   0.014233  -0.314889  -0.198720  -9.216767
    20  N   -0.088690   0.005185   0.001128  -0.033650   0.012120   0.671161
    21  C    0.014036   0.004178  -0.000154  -1.830551   0.284316   3.018248
    22  H    0.006332  -0.000658   0.002001   0.064142  -0.071403  -0.255418
    23  S    0.002257  -0.001155   0.000441  -0.006960  -0.011474  -0.323530
    24  C   -0.059065   0.006524  -0.002603  -0.232302  -0.054722   0.855311
    25  N    0.007594  -0.001392   0.000276   0.065949   0.003105  -0.276092
    26  C    0.002647   0.001506  -0.000183  -0.050622  -0.001454   0.022535
    27  N    0.002397  -0.000153   0.000009   0.001917   0.000163  -0.004636
    28  H   -0.000188  -0.000001   0.000001   0.000273   0.000094   0.000115
    29  H   -0.000065   0.000017  -0.000003  -0.000472  -0.000042  -0.000194
    30  N    0.001844  -0.000331   0.000075   0.018861   0.000497   0.033891
    31  H   -0.021684   0.003977  -0.000071   0.010973  -0.001841   0.038339
    32  H   -0.000665  -0.000105   0.000022   0.000537   0.000105  -0.009126
    33  H   -0.001058   0.000015   0.000001  -0.004024  -0.001364   0.013177
              19         20         21         22         23         24
     1  C    0.001595  -0.000119   0.001000  -0.000268   0.000002   0.000043
     2  H    0.000527   0.000006   0.000151  -0.000016  -0.000005   0.000033
     3  H   -0.002245   0.000052   0.000997   0.000737   0.000005  -0.000128
     4  H    0.000486   0.000007  -0.000123  -0.000012  -0.000008   0.000026
     5  C    0.020089   0.004130   0.003215   0.006840  -0.000303   0.005117
     6  O   -0.008185  -0.000133   0.000846  -0.000432   0.000032  -0.000215
     7  N    0.055156  -0.003706  -0.034153  -0.001049   0.001318  -0.003258
     8  H    0.030241   0.000161  -0.006638  -0.002916   0.001382   0.008747
     9  C   -2.273878   0.208413   1.266140  -0.056458  -0.019890   0.231465
    10  C    0.627597  -0.068176  -0.319474  -0.022607   0.021135  -0.117589
    11  C   -0.701944  -0.021226   0.137842   0.016897  -0.029183   0.183193
    12  C    0.968645  -0.150864  -1.717953   0.125860   0.061161  -0.380860
    13  H    0.105932  -0.088690   0.014036   0.006332   0.002257  -0.059065
    14  H   -0.009051   0.005185   0.004178  -0.000658  -0.001155   0.006524
    15  H    0.014233   0.001128  -0.000154   0.002001   0.000441  -0.002603
    16  C   -0.314889  -0.033650  -1.830551   0.064142  -0.006960  -0.232302
    17  H   -0.198720   0.012120   0.284316  -0.071403  -0.011474  -0.054722
    18  C   -9.216767   0.671161   3.018248  -0.255418  -0.323530   0.855311
    19  C   29.280678  -1.681408  -9.641050   1.040101   0.255515  -2.249403
    20  N   -1.681408   8.088310   0.759435   0.002179  -0.225444   0.370729
    21  C   -9.641050   0.759435  14.963361  -0.612019   0.092989  -0.642630
    22  H    1.040101   0.002179  -0.612019   1.658607  -0.245171  -0.037180
    23  S    0.255515  -0.225444   0.092989  -0.245171  15.895559   0.197205
    24  C   -2.249403   0.370729  -0.642630  -0.037180   0.197205   8.157686
    25  N    0.750895  -0.170217  -0.080841  -0.013514  -0.117848  -0.340129
    26  C    0.052252   0.057068  -0.192489  -0.008606  -0.055401  -0.337846
    27  N    0.030237   0.004678  -0.001823  -0.000203   0.005519   0.021413
    28  H   -0.000842   0.000236   0.001067   0.000029  -0.002284  -0.026284
    29  H    0.002715   0.002995  -0.003942  -0.000157  -0.000174  -0.015203
    30  N   -0.101923  -0.024607   0.086311   0.002924  -0.013595  -0.002666
    31  H   -0.042488  -0.016827  -0.053442  -0.003723   0.001397   0.009359
    32  H    0.011411   0.000158   0.000812   0.000050  -0.000793   0.000010
    33  H   -0.094327  -0.009726   0.002351   0.001592   0.019955  -0.095980
              25         26         27         28         29         30
     1  C   -0.000005   0.000004  -0.000000   0.000000   0.000000  -0.000000
     2  H   -0.000001  -0.000000  -0.000000  -0.000000   0.000000  -0.000000
     3  H   -0.000001  -0.000000   0.000000   0.000000  -0.000000   0.000001
     4  H   -0.000001  -0.000000  -0.000000   0.000000  -0.000000  -0.000000
     5  C   -0.000090  -0.000065  -0.000000  -0.000001   0.000000  -0.000037
     6  O    0.000002   0.000004  -0.000000   0.000000   0.000000   0.000001
     7  N    0.000355  -0.000213   0.000001  -0.000002   0.000000  -0.000086
     8  H    0.000001   0.000149  -0.000004  -0.000006   0.000004  -0.000095
     9  C   -0.016957  -0.003283  -0.000236  -0.000055  -0.000009   0.001831
    10  C    0.009351  -0.001654   0.000362   0.000042   0.000025  -0.001357
    11  C   -0.027764   0.043818  -0.001508  -0.000060   0.000402  -0.029154
    12  C    0.032629  -0.025637   0.000140   0.000578  -0.000134  -0.005316
    13  H    0.007594   0.002647   0.002397  -0.000188  -0.000065   0.001844
    14  H   -0.001392   0.001506  -0.000153  -0.000001   0.000017  -0.000331
    15  H    0.000276  -0.000183   0.000009   0.000001  -0.000003   0.000075
    16  C    0.065949  -0.050622   0.001917   0.000273  -0.000472   0.018861
    17  H    0.003105  -0.001454   0.000163   0.000094  -0.000042   0.000497
    18  C   -0.276092   0.022535  -0.004636   0.000115  -0.000194   0.033891
    19  C    0.750895   0.052252   0.030237  -0.000842   0.002715  -0.101923
    20  N   -0.170217   0.057068   0.004678   0.000236   0.002995  -0.024607
    21  C   -0.080841  -0.192489  -0.001823   0.001067  -0.003942   0.086311
    22  H   -0.013514  -0.008606  -0.000203   0.000029  -0.000157   0.002924
    23  S   -0.117848  -0.055401   0.005519  -0.002284  -0.000174  -0.013595
    24  C   -0.340129  -0.337846   0.021413  -0.026284  -0.015203  -0.002666
    25  N    7.450946   0.180112  -0.104061   0.018802  -0.023118  -0.026289
    26  C    0.180112   5.175963   0.119392  -0.083790  -0.068379   0.172356
    27  N   -0.104061   0.119392   6.386770   0.453091   0.459346  -0.113580
    28  H    0.018802  -0.083790   0.453091   0.782718  -0.145878   0.005279
    29  H   -0.023118  -0.068379   0.459346  -0.145878   0.786776  -0.017378
    30  N   -0.026289   0.172356  -0.113580   0.005279  -0.017378   6.291989
    31  H   -0.039513  -0.113190   0.013486   0.000342   0.002021   0.409480
    32  H    0.014751  -0.126805  -0.003249   0.002654  -0.009162   0.440929
    33  H    0.429836  -0.096504  -0.007999  -0.004378   0.002804   0.010804
              31         32         33
     1  C    0.000007  -0.000001   0.000000
     2  H    0.000005  -0.000000   0.000000
     3  H   -0.000003   0.000000  -0.000000
     4  H   -0.000001  -0.000000   0.000000
     5  C    0.000767  -0.000021   0.000028
     6  O   -0.000046   0.000001  -0.000000
     7  N    0.000699  -0.000025   0.000031
     8  H    0.000399  -0.000014   0.000072
     9  C   -0.004561  -0.000075   0.000847
    10  C    0.016304  -0.000194  -0.000096
    11  C   -0.024896   0.005289  -0.000196
    12  C   -0.011676   0.006036  -0.004137
    13  H   -0.021684  -0.000665  -0.001058
    14  H    0.003977  -0.000105   0.000015
    15  H   -0.000071   0.000022   0.000001
    16  C    0.010973   0.000537  -0.004024
    17  H   -0.001841   0.000105  -0.001364
    18  C    0.038339  -0.009126   0.013177
    19  C   -0.042488   0.011411  -0.094327
    20  N   -0.016827   0.000158  -0.009726
    21  C   -0.053442   0.000812   0.002351
    22  H   -0.003723   0.000050   0.001592
    23  S    0.001397  -0.000793   0.019955
    24  C    0.009359   0.000010  -0.095980
    25  N   -0.039513   0.014751   0.429836
    26  C   -0.113190  -0.126805  -0.096504
    27  N    0.013486  -0.003249  -0.007999
    28  H    0.000342   0.002654  -0.004378
    29  H    0.002021  -0.009162   0.002804
    30  N    0.409480   0.440929   0.010804
    31  H    0.905070  -0.198042   0.002765
    32  H   -0.198042   0.858634  -0.000895
    33  H    0.002765  -0.000895   0.849747
 Mulliken charges:
               1
     1  C    0.443829
     2  H    0.075197
     3  H   -0.133103
     4  H    0.010055
     5  C    0.545684
     6  O   -0.849325
     7  N   -0.591054
     8  H   -0.032554
     9  C   -0.393062
    10  C    1.148990
    11  C   -0.106516
    12  C    0.775352
    13  H   -0.605402
    14  H   -0.541983
    15  H   -0.641530
    16  C    1.118005
    17  H   -0.764630
    18  C    1.648435
    19  C   -0.711184
    20  N   -0.693361
    21  C    0.499986
    22  H   -0.596480
    23  S    0.497345
    24  C    0.551202
    25  N   -0.726770
    26  C    1.338315
    27  N   -0.261471
    28  H   -0.001554
    29  H    0.027203
    30  N   -0.140661
    31  H    0.116613
    32  H    0.007771
    33  H   -0.013342
 Sum of Mulliken charges =   1.00000
 Mulliken charges with hydrogens summed into heavy atoms:
               1
     1  C    0.395979
     5  C    0.545684
     6  O   -0.849325
     7  N   -0.623608
     9  C   -0.393062
    10  C    0.507460
    11  C   -0.648499
    12  C    0.169950
    16  C    0.353375
    18  C    1.648435
    19  C   -0.711184
    20  N   -0.693361
    21  C   -0.096493
    23  S    0.497345
    24  C    0.551202
    25  N   -0.740113
    26  C    1.338315
    27  N   -0.235822
    30  N   -0.016277
 Electronic spatial extent (au):  <R**2>=           8733.9389
 Charge=              1.0000 electrons
 Dipole moment (field-independent basis, Debye):
    X=             19.9690    Y=             -0.8912    Z=             -0.5687  Tot=             19.9969
 Quadrupole moment (field-independent basis, Debye-Ang):
   XX=             16.0132   YY=            -87.8608   ZZ=           -124.3219
   XY=             40.7525   XZ=             -1.0309   YZ=             -0.7845
 Traceless Quadrupole moment (field-independent basis, Debye-Ang):
   XX=             81.4031   YY=            -22.4710   ZZ=            -58.9321
   XY=             40.7525   XZ=             -1.0309   YZ=             -0.7845
 Octapole moment (field-independent basis, Debye-Ang**2):
  XXX=            736.9458  YYY=             35.6839  ZZZ=             -1.7989  XYY=             83.1771
  XXY=             -6.6054  XXZ=            -22.9537  XZZ=             -1.6937  YZZ=             -0.7405
  YYZ=             -1.9281  XYZ=             -9.7202
 Hexadecapole moment (field-independent basis, Debye-Ang**3):
 XXXX=          -4801.9498 YYYY=          -1274.1478 ZZZZ=           -152.3683 XXXY=           1414.3157
 XXXZ=            -29.0328 YYYX=            246.3395 YYYZ=             -6.9298 ZZZX=             -2.1692
 ZZZY=             -3.2547 XXYY=          -1444.5020 XXZZ=          -1704.9440 YYZZ=           -305.9438
 XXYZ=            -36.5945 YYXZ=            -19.2877 ZZXY=             17.8217
 N-N= 1.443000983487D+03 E-N=-5.706522984930D+03  KE= 1.206017642572D+03
 Leave Link  601 at Sun Jul 18 20:18:20 2021, MaxMem=   262144000 cpu:               0.5 elap:               0.3
 (Enter /dades/curu/g16A03_MST/g16/l9999.exe)
 1\1\GINC-PIRINEUS17\SP\RMP2-FC\Aug-CC-pVDZ\C12H14N5O1S1(1+)\UBATOR02\1
 8-Jul-2021\0\\#p mp2/aug-cc-pVDZ scf=tight maxdisk=180GB geom=allcheck
 \\SET_328_BBB321_conf1.geo_195_210_120 geometry\\1,1\C,0,-3.8849990627
 ,-3.8620643431,2.8957128657\H,0,-4.7757767121,-3.3234990795,3.23398555
 92\H,0,-3.1281892305,-3.8016994787,3.6806822284\H,0,-4.1650991464,-4.9
 053492469,2.7429838674\C,0,-3.4283930421,-3.2823042783,1.5694211869\O,
 0,-3.9680662205,-3.5838346902,0.510597828\N,0,-2.3918518717,-2.3833837
 994,1.6707618633\H,0,-2.0309925406,-2.2188118333,2.6038367303\C,0,-1.7
 771343534,-1.6317742777,0.6510732982\C,0,-2.1485787953,-1.7279674485,-
 0.7012407242\C,0,-1.4833526186,-0.9462339485,-1.6430988061\C,0,-0.4622
 360677,-0.0744441539,-1.2750452013\H,0,0.0419578132,0.5336885161,-2.01
 45414367\H,0,-1.7722114044,-1.0207761677,-2.686273032\H,0,-2.941003088
 3,-2.4056069123,-0.9797903345\C,0,-0.7479732826,-0.7579870277,1.024012
 4348\H,0,-0.4559224768,-0.6935014312,2.0672751634\C,0,-0.0859689574,0.
 0265553888,0.0718652479\C,0,0.98487153,0.9528260389,0.4772276468\N,0,1
 .7180616908,1.6141895773,-0.4998665401\C,0,1.3491927996,1.2608139588,1
 .7587317265\H,0,0.9296881903,0.8993942816,2.684088777\S,0,2.6519488913
 ,2.4090891746,1.7815330443\C,0,2.610669458,2.3996048933,0.0250564268\N
 ,0,3.4941759426,3.190151917,-0.6953340771\C,0,3.6024975501,3.256843297
 3,-2.0571573323\N,0,4.5075385744,4.0898054925,-2.5608728784\H,0,5.1026
 306412,4.645835767,-1.9577212552\H,0,4.6300159992,4.1662581069,-3.5640
 335838\N,0,2.8318011531,2.5148259058,-2.8346142448\H,0,2.1449929838,1.
 8958134871,-2.4077242974\H,0,2.9251294993,2.5685410978,-3.8428978951\H
 ,0,4.1245761541,3.7970012163,-0.1786342562\\Version=ES64L-G16RevA.03\S
 tate=1-A\HF=-1207.1555593\MP2=-1209.971686\RMSD=7.024e-09\PG=C01 [X(C1
 2H14N5O1S1)]\\@


 WERE I TO AWAIT PERFECTION, MY BOOK WOULD NEVER BE FINISHED.
                                    -- HISTORY OF CHINESE WRITING

                                       TAI T'UNG, 13TH CENTURY
 Job cpu time:       0 days  3 hours 21 minutes 42.9 seconds.
 Elapsed time:       0 days  0 hours 58 minutes 44.0 seconds.
 File lengths (MBytes):  RWF=  86281 Int=      0 D2E=      0 Chk=     27 Scr=      1
 Normal termination of Gaussian 16 at Sun Jul 18 20:18:21 2021.
