 Entering Gaussian System, Link 0=g16
 Input=SET_328_BBB292_conf1.geo_090_300_120_OCTANOL.dat
 Output=SET_328_BBB292_conf1.geo_090_300_120_OCTANOL.log
 Initial command:
 /dades/curu/g16A03_MST/g16/l1.exe "/tmp/ubator02/1839586/Gau-185290.inp" -scrdir="/tmp/ubator02/1839586/"
 Entering Link 1 = /dades/curu/g16A03_MST/g16/l1.exe PID=    185309.
  
 Copyright (c) 1988,1990,1992,1993,1995,1998,2003,2009,2016,
            Gaussian, Inc.  All Rights Reserved.
  
 This is part of the Gaussian(R) 16 program.  It is based on
 the Gaussian(R) 09 system (copyright 2009, Gaussian, Inc.),
 the Gaussian(R) 03 system (copyright 2003, Gaussian, Inc.),
 the Gaussian(R) 98 system (copyright 1998, Gaussian, Inc.),
 the Gaussian(R) 94 system (copyright 1995, Gaussian, Inc.),
 the Gaussian 92(TM) system (copyright 1992, Gaussian, Inc.),
 the Gaussian 90(TM) system (copyright 1990, Gaussian, Inc.),
 the Gaussian 88(TM) system (copyright 1988, Gaussian, Inc.),
 the Gaussian 86(TM) system (copyright 1986, Carnegie Mellon
 University), and the Gaussian 82(TM) system (copyright 1983,
 Carnegie Mellon University). Gaussian is a federally registered
 trademark of Gaussian, Inc.
  
 This software contains proprietary and confidential information,
 including trade secrets, belonging to Gaussian, Inc.
  
 This software is provided under written license and may be
 used, copied, transmitted, or stored only in accord with that
 written license.
  
 The following legend is applicable only to US Government
 contracts under FAR:
  
                    RESTRICTED RIGHTS LEGEND
  
 Use, reproduction and disclosure by the US Government is
 subject to restrictions as set forth in subparagraphs (a)
 and (c) of the Commercial Computer Software - Restricted
 Rights clause in FAR 52.227-19.
  
 Gaussian, Inc.
 340 Quinnipiac St., Bldg. 40, Wallingford CT 06492
  
  
 ---------------------------------------------------------------
 Warning -- This program may not be used in any manner that
 competes with the business of Gaussian, Inc. or will provide
 assistance to any competitor of Gaussian, Inc.  The licensee
 of this program is prohibited from giving any competitor of
 Gaussian, Inc. access to this program.  By using this program,
 the user acknowledges that Gaussian, Inc. is engaged in the
 business of creating and licensing software in the field of
 computational chemistry and represents and warrants to the
 licensee that it is not a competitor of Gaussian, Inc. and that
 it will not use this program in any manner prohibited above.
 ---------------------------------------------------------------
  

 Cite this work as:
 Gaussian 16, Revision A.03,
 M. J. Frisch, G. W. Trucks, H. B. Schlegel, G. E. Scuseria, 
 M. A. Robb, J. R. Cheeseman, G. Scalmani, V. Barone, 
 G. A. Petersson, H. Nakatsuji, X. Li, M. Caricato, A. V. Marenich, 
 J. Bloino, B. G. Janesko, R. Gomperts, B. Mennucci, H. P. Hratchian, 
 J. V. Ortiz, A. F. Izmaylov, J. L. Sonnenberg, D. Williams-Young, 
 F. Ding, F. Lipparini, F. Egidi, J. Goings, B. Peng, A. Petrone, 
 T. Henderson, D. Ranasinghe, V. G. Zakrzewski, J. Gao, N. Rega, 
 G. Zheng, W. Liang, M. Hada, M. Ehara, K. Toyota, R. Fukuda, 
 J. Hasegawa, M. Ishida, T. Nakajima, Y. Honda, O. Kitao, H. Nakai, 
 T. Vreven, K. Throssell, J. A. Montgomery, Jr., J. E. Peralta, 
 F. Ogliaro, M. J. Bearpark, J. J. Heyd, E. N. Brothers, K. N. Kudin, 
 V. N. Staroverov, T. A. Keith, R. Kobayashi, J. Normand, 
 K. Raghavachari, A. P. Rendell, J. C. Burant, S. S. Iyengar, 
 J. Tomasi, M. Cossi, J. M. Millam, M. Klene, C. Adamo, R. Cammi, 
 J. W. Ochterski, R. L. Martin, K. Morokuma, O. Farkas, 
 J. B. Foresman, and D. J. Fox, Gaussian, Inc., Wallingford CT, 2016.
 
 ******************************************
 Gaussian 16:  ES64L-G16RevA.03 25-Dec-2016
                18-Jul-2021 
 ******************************************
 %mem=800MB
 %nproc=4
 Will use up to    4 processors via shared memory.
 %chk=SET_328_BBB292_conf1.geo_090_300_120.chk
 ---------------------------------------------------------------
 #p b3lyp/6-31G(d) opt freq scrf=(iefpcm,read,solvent=n-octanol)
 ---------------------------------------------------------------
 1/18=20,19=15,26=3,38=1,40=2/1,3;
 2/9=110,12=2,17=6,18=5,40=1/2;
 3/5=1,6=6,7=1,11=2,25=1,30=1,70=2203,71=1,72=25,74=-5/1,2,3;
 4//1;
 5/5=2,38=5,53=25/2;
 6/7=2,8=2,9=2,10=2,28=1/1;
 7//1,2,3,16;
 1/18=20,19=15,26=3/3(2);
 2/9=110/2;
 99//99;
 2/9=110/2;
 3/5=1,6=6,7=1,11=2,25=1,30=1,70=2205,71=1,72=25,74=-5/1,2,3;
 4/5=5,16=3,69=1/1;
 5/5=2,38=5,53=25/2;
 7//1,2,3,16;
 1/18=20,19=15,26=3/3(-5);
 2/9=110/2;
 6/7=2,8=2,9=2,10=2,19=2,28=1/1;
 99/9=1/99;
 Leave Link    1 at Sun Jul 18 13:47:46 2021, MaxMem=   104857600 cpu:               0.1 elap:               0.1
 (Enter /dades/curu/g16A03_MST/g16/l101.exe)
 ---------------------------------------------
 SET_328_BBB292_conf1.geo_090_300_120 geometry
 ---------------------------------------------
 Symbolic Z-matrix:
 Charge =  1 Multiplicity = 1
 N                     1.776    -0.101    -2.208 
 H                     2.464    -0.814    -2.074 
 H                     1.931     0.351    -3.087 
 C                     0.431    -0.708    -2.197 
 C                    -0.737     0.302    -2.451 
 O                    -0.312     1.599    -2.482 
 H                     0.515     1.525    -1.973 
 O                    -1.918    -0.011    -2.506 
 H                     0.285    -1.44     -2.995 
 C                     0.208    -1.497    -0.933 
 H                     1.071    -2.148    -0.775 
 H                    -0.6      -2.227    -1.018 
 C                     0.13     -0.629     0.365 
 C                    -1.135    -0.183     0.745 
 H                    -1.972    -0.483     0.12 
 C                    -1.266     0.598     1.877 
 O                    -2.443     1.109     2.247 
 H                    -3.088     0.391     2.112 
 C                    -0.184     0.881     2.653 
 O                    -0.301     1.751     3.698 
 H                    -1.258     1.93      3.701 
 C                     1.082     0.383     2.337 
 H                     1.985     0.5       2.93 
 C                     1.243    -0.345     1.165 
 H                     2.236    -0.608     0.809 
 H                     1.844     0.572    -1.471 
 
 ITRead=  0  0  0  0  0  0  0  0  0  0  0  0  0  0  0  0  0  0  0  0
 ITRead=  0  0  0  0  0  0
 MicOpt= -1 -1 -1 -1 -1 -1 -1 -1 -1 -1 -1 -1 -1 -1 -1 -1 -1 -1 -1 -1
 MicOpt= -1 -1 -1 -1 -1 -1
 NAtoms=     26 NQM=       26 NQMF=       0 NMMI=      0 NMMIF=      0
                NMic=       0 NMicF=      0.
                    Isotopes and Nuclear Properties:
 (Nuclear quadrupole moments (NQMom) in fm**2, nuclear magnetic moments (NMagM)
  in nuclear magnetons)

  Atom         1           2           3           4           5           6           7           8           9          10
 IAtWgt=          14           1           1          12          12          16           1          16           1          12
 AtmWgt=  14.0030740   1.0078250   1.0078250  12.0000000  12.0000000  15.9949146   1.0078250  15.9949146   1.0078250  12.0000000
 NucSpn=           2           1           1           0           0           0           1           0           1           0
 AtZEff=  -0.0000000  -0.0000000  -0.0000000  -0.0000000  -0.0000000  -0.0000000  -0.0000000  -0.0000000  -0.0000000  -0.0000000
 NQMom=    2.0440000   0.0000000   0.0000000   0.0000000   0.0000000   0.0000000   0.0000000   0.0000000   0.0000000   0.0000000
 NMagM=    0.4037610   2.7928460   2.7928460   0.0000000   0.0000000   0.0000000   2.7928460   0.0000000   2.7928460   0.0000000
 AtZNuc=   7.0000000   1.0000000   1.0000000   6.0000000   6.0000000   8.0000000   1.0000000   8.0000000   1.0000000   6.0000000

  Atom        11          12          13          14          15          16          17          18          19          20
 IAtWgt=           1           1          12          12           1          12          16           1          12          16
 AtmWgt=   1.0078250   1.0078250  12.0000000  12.0000000   1.0078250  12.0000000  15.9949146   1.0078250  12.0000000  15.9949146
 NucSpn=           1           1           0           0           1           0           0           1           0           0
 AtZEff=  -0.0000000  -0.0000000  -0.0000000  -0.0000000  -0.0000000  -0.0000000  -0.0000000  -0.0000000  -0.0000000  -0.0000000
 NQMom=    0.0000000   0.0000000   0.0000000   0.0000000   0.0000000   0.0000000   0.0000000   0.0000000   0.0000000   0.0000000
 NMagM=    2.7928460   2.7928460   0.0000000   0.0000000   2.7928460   0.0000000   0.0000000   2.7928460   0.0000000   0.0000000
 AtZNuc=   1.0000000   1.0000000   6.0000000   6.0000000   1.0000000   6.0000000   8.0000000   1.0000000   6.0000000   8.0000000

  Atom        21          22          23          24          25          26
 IAtWgt=           1          12           1          12           1           1
 AtmWgt=   1.0078250  12.0000000   1.0078250  12.0000000   1.0078250   1.0078250
 NucSpn=           1           0           1           0           1           1
 AtZEff=  -0.0000000  -0.0000000  -0.0000000  -0.0000000  -0.0000000  -0.0000000
 NQMom=    0.0000000   0.0000000   0.0000000   0.0000000   0.0000000   0.0000000
 NMagM=    2.7928460   0.0000000   2.7928460   0.0000000   2.7928460   2.7928460
 AtZNuc=   1.0000000   6.0000000   1.0000000   6.0000000   1.0000000   1.0000000
 Leave Link  101 at Sun Jul 18 13:47:46 2021, MaxMem=   104857600 cpu:               0.1 elap:               0.2
 (Enter /dades/curu/g16A03_MST/g16/l103.exe)

 GradGradGradGradGradGradGradGradGradGradGradGradGradGradGradGradGradGrad
 Berny optimization.
 Initialization pass.
                           ----------------------------
                           !    Initial Parameters    !
                           ! (Angstroms and Degrees)  !
 --------------------------                            --------------------------
 ! Name  Definition              Value          Derivative Info.                !
 --------------------------------------------------------------------------------
 ! R1    R(1,2)                  0.9998         estimate D2E/DX2                !
 ! R2    R(1,3)                  1.0005         estimate D2E/DX2                !
 ! R3    R(1,4)                  1.4757         estimate D2E/DX2                !
 ! R4    R(1,26)                 1.0004         estimate D2E/DX2                !
 ! R5    R(4,5)                  1.5649         estimate D2E/DX2                !
 ! R6    R(4,9)                  1.0927         estimate D2E/DX2                !
 ! R7    R(4,10)                 1.5066         estimate D2E/DX2                !
 ! R8    R(5,6)                  1.3652         estimate D2E/DX2                !
 ! R9    R(5,8)                  1.223          estimate D2E/DX2                !
 ! R10   R(6,7)                  0.9739         estimate D2E/DX2                !
 ! R11   R(10,11)                1.0925         estimate D2E/DX2                !
 ! R12   R(10,12)                1.0922         estimate D2E/DX2                !
 ! R13   R(10,13)                1.5634         estimate D2E/DX2                !
 ! R14   R(13,14)                1.3941         estimate D2E/DX2                !
 ! R15   R(13,24)                1.3998         estimate D2E/DX2                !
 ! R16   R(14,15)                1.0868         estimate D2E/DX2                !
 ! R17   R(14,16)                1.3815         estimate D2E/DX2                !
 ! R18   R(16,17)                1.3354         estimate D2E/DX2                !
 ! R19   R(16,19)                1.3612         estimate D2E/DX2                !
 ! R20   R(17,18)                0.9746         estimate D2E/DX2                !
 ! R21   R(19,20)                1.3648         estimate D2E/DX2                !
 ! R22   R(19,22)                1.3966         estimate D2E/DX2                !
 ! R23   R(20,21)                0.9736         estimate D2E/DX2                !
 ! R24   R(22,23)                1.0866         estimate D2E/DX2                !
 ! R25   R(22,24)                1.3891         estimate D2E/DX2                !
 ! R26   R(24,25)                1.0872         estimate D2E/DX2                !
 ! A1    A(2,1,3)              109.4701         estimate D2E/DX2                !
 ! A2    A(2,1,4)              109.4419         estimate D2E/DX2                !
 ! A3    A(2,1,26)             109.5264         estimate D2E/DX2                !
 ! A4    A(3,1,4)              109.4869         estimate D2E/DX2                !
 ! A5    A(3,1,26)             109.4391         estimate D2E/DX2                !
 ! A6    A(4,1,26)             109.4629         estimate D2E/DX2                !
 ! A7    A(1,4,5)              114.431          estimate D2E/DX2                !
 ! A8    A(1,4,9)              113.073          estimate D2E/DX2                !
 ! A9    A(1,4,10)             110.8898         estimate D2E/DX2                !
 ! A10   A(5,4,9)              102.363          estimate D2E/DX2                !
 ! A11   A(5,4,10)             111.3273         estimate D2E/DX2                !
 ! A12   A(9,4,10)             104.0107         estimate D2E/DX2                !
 ! A13   A(4,5,6)              112.6128         estimate D2E/DX2                !
 ! A14   A(4,5,8)              124.2543         estimate D2E/DX2                !
 ! A15   A(6,5,8)              122.8698         estimate D2E/DX2                !
 ! A16   A(5,6,7)              100.387          estimate D2E/DX2                !
 ! A17   A(4,10,11)            108.4495         estimate D2E/DX2                !
 ! A18   A(4,10,12)            113.2167         estimate D2E/DX2                !
 ! A19   A(4,10,13)            114.4037         estimate D2E/DX2                !
 ! A20   A(11,10,12)           101.3827         estimate D2E/DX2                !
 ! A21   A(11,10,13)           104.4876         estimate D2E/DX2                !
 ! A22   A(12,10,13)           113.5009         estimate D2E/DX2                !
 ! A23   A(10,13,14)           116.6913         estimate D2E/DX2                !
 ! A24   A(10,13,24)           123.1927         estimate D2E/DX2                !
 ! A25   A(14,13,24)           120.0525         estimate D2E/DX2                !
 ! A26   A(13,14,15)           116.9847         estimate D2E/DX2                !
 ! A27   A(13,14,16)           119.3569         estimate D2E/DX2                !
 ! A28   A(15,14,16)           123.6578         estimate D2E/DX2                !
 ! A29   A(14,16,17)           121.798          estimate D2E/DX2                !
 ! A30   A(14,16,19)           120.6152         estimate D2E/DX2                !
 ! A31   A(17,16,19)           117.5852         estimate D2E/DX2                !
 ! A32   A(16,17,18)           105.2497         estimate D2E/DX2                !
 ! A33   A(16,19,20)           120.0584         estimate D2E/DX2                !
 ! A34   A(16,19,22)           121.1578         estimate D2E/DX2                !
 ! A35   A(20,19,22)           118.5714         estimate D2E/DX2                !
 ! A36   A(19,20,21)           101.7608         estimate D2E/DX2                !
 ! A37   A(19,22,23)           126.2574         estimate D2E/DX2                !
 ! A38   A(19,22,24)           118.8711         estimate D2E/DX2                !
 ! A39   A(23,22,24)           114.8701         estimate D2E/DX2                !
 ! A40   A(13,24,22)           119.7607         estimate D2E/DX2                !
 ! A41   A(13,24,25)           119.3416         estimate D2E/DX2                !
 ! A42   A(22,24,25)           120.5928         estimate D2E/DX2                !
 ! D1    D(2,1,4,5)           -177.8566         estimate D2E/DX2                !
 ! D2    D(2,1,4,9)            -61.1694         estimate D2E/DX2                !
 ! D3    D(2,1,4,10)            55.2058         estimate D2E/DX2                !
 ! D4    D(3,1,4,5)            -57.8663         estimate D2E/DX2                !
 ! D5    D(3,1,4,9)             58.8209         estimate D2E/DX2                !
 ! D6    D(3,1,4,10)           175.1961         estimate D2E/DX2                !
 ! D7    D(26,1,4,5)            62.0989         estimate D2E/DX2                !
 ! D8    D(26,1,4,9)           178.7861         estimate D2E/DX2                !
 ! D9    D(26,1,4,10)          -64.8387         estimate D2E/DX2                !
 ! D10   D(1,4,5,6)             -7.2605         estimate D2E/DX2                !
 ! D11   D(1,4,5,8)            178.4983         estimate D2E/DX2                !
 ! D12   D(9,4,5,6)           -129.9602         estimate D2E/DX2                !
 ! D13   D(9,4,5,8)             55.7987         estimate D2E/DX2                !
 ! D14   D(10,4,5,6)           119.4516         estimate D2E/DX2                !
 ! D15   D(10,4,5,8)           -54.7896         estimate D2E/DX2                !
 ! D16   D(1,4,10,11)          -48.5519         estimate D2E/DX2                !
 ! D17   D(1,4,10,12)         -160.2361         estimate D2E/DX2                !
 ! D18   D(1,4,10,13)           67.6132         estimate D2E/DX2                !
 ! D19   D(5,4,10,11)         -177.1794         estimate D2E/DX2                !
 ! D20   D(5,4,10,12)           71.1364         estimate D2E/DX2                !
 ! D21   D(5,4,10,13)          -61.0143         estimate D2E/DX2                !
 ! D22   D(9,4,10,11)           73.2897         estimate D2E/DX2                !
 ! D23   D(9,4,10,12)          -38.3946         estimate D2E/DX2                !
 ! D24   D(9,4,10,13)         -170.5452         estimate D2E/DX2                !
 ! D25   D(4,5,6,7)            -22.8084         estimate D2E/DX2                !
 ! D26   D(8,5,6,7)            151.5247         estimate D2E/DX2                !
 ! D27   D(4,10,13,14)          90.6945         estimate D2E/DX2                !
 ! D28   D(4,10,13,24)         -92.2072         estimate D2E/DX2                !
 ! D29   D(11,10,13,14)       -150.8707         estimate D2E/DX2                !
 ! D30   D(11,10,13,24)         26.2277         estimate D2E/DX2                !
 ! D31   D(12,10,13,14)        -41.3203         estimate D2E/DX2                !
 ! D32   D(12,10,13,24)        135.7781         estimate D2E/DX2                !
 ! D33   D(10,13,14,15)          0.84           estimate D2E/DX2                !
 ! D34   D(10,13,14,16)       -179.4374         estimate D2E/DX2                !
 ! D35   D(24,13,14,15)       -176.3548         estimate D2E/DX2                !
 ! D36   D(24,13,14,16)          3.3678         estimate D2E/DX2                !
 ! D37   D(10,13,24,22)       -177.0537         estimate D2E/DX2                !
 ! D38   D(10,13,24,25)          9.2483         estimate D2E/DX2                !
 ! D39   D(14,13,24,22)         -0.0488         estimate D2E/DX2                !
 ! D40   D(14,13,24,25)       -173.7468         estimate D2E/DX2                !
 ! D41   D(13,14,16,17)        176.4657         estimate D2E/DX2                !
 ! D42   D(13,14,16,19)         -3.0608         estimate D2E/DX2                !
 ! D43   D(15,14,16,17)         -3.8313         estimate D2E/DX2                !
 ! D44   D(15,14,16,19)        176.6422         estimate D2E/DX2                !
 ! D45   D(14,16,17,18)         42.3668         estimate D2E/DX2                !
 ! D46   D(19,16,17,18)       -138.093          estimate D2E/DX2                !
 ! D47   D(14,16,19,20)        174.0311         estimate D2E/DX2                !
 ! D48   D(14,16,19,22)         -0.5967         estimate D2E/DX2                !
 ! D49   D(17,16,19,20)         -5.5149         estimate D2E/DX2                !
 ! D50   D(17,16,19,22)        179.8574         estimate D2E/DX2                !
 ! D51   D(16,19,20,21)          5.517          estimate D2E/DX2                !
 ! D52   D(22,19,20,21)       -179.7174         estimate D2E/DX2                !
 ! D53   D(16,19,22,23)       -175.6215         estimate D2E/DX2                !
 ! D54   D(16,19,22,24)          3.9152         estimate D2E/DX2                !
 ! D55   D(20,19,22,23)          9.6729         estimate D2E/DX2                !
 ! D56   D(20,19,22,24)       -170.7905         estimate D2E/DX2                !
 ! D57   D(19,22,24,13)         -3.536          estimate D2E/DX2                !
 ! D58   D(19,22,24,25)        170.0818         estimate D2E/DX2                !
 ! D59   D(23,22,24,13)        176.0522         estimate D2E/DX2                !
 ! D60   D(23,22,24,25)        -10.33           estimate D2E/DX2                !
 --------------------------------------------------------------------------------
 Trust Radius=3.00D-01 FncErr=1.00D-07 GrdErr=1.00D-06 EigMax=2.50D+02 EigMin=1.00D-04
 Number of steps in this run=    138 maximum allowed number of steps=    156.
 GradGradGradGradGradGradGradGradGradGradGradGradGradGradGradGradGradGrad

 Leave Link  103 at Sun Jul 18 13:47:47 2021, MaxMem=   104857600 cpu:               0.0 elap:               0.5
 (Enter /dades/curu/g16A03_MST/g16/l202.exe)
                          Input orientation:                          
 ---------------------------------------------------------------------
 Center     Atomic      Atomic             Coordinates (Angstroms)
 Number     Number       Type             X           Y           Z
 ---------------------------------------------------------------------
      1          7           0        1.776000   -0.101000   -2.208000
      2          1           0        2.464000   -0.814000   -2.074000
      3          1           0        1.931000    0.351000   -3.087000
      4          6           0        0.431000   -0.708000   -2.197000
      5          6           0       -0.737000    0.302000   -2.451000
      6          8           0       -0.312000    1.599000   -2.482000
      7          1           0        0.515000    1.525000   -1.973000
      8          8           0       -1.918000   -0.011000   -2.506000
      9          1           0        0.285000   -1.440000   -2.995000
     10          6           0        0.208000   -1.497000   -0.933000
     11          1           0        1.071000   -2.148000   -0.775000
     12          1           0       -0.600000   -2.227000   -1.018000
     13          6           0        0.130000   -0.629000    0.365000
     14          6           0       -1.135000   -0.183000    0.745000
     15          1           0       -1.972000   -0.483000    0.120000
     16          6           0       -1.266000    0.598000    1.877000
     17          8           0       -2.443000    1.109000    2.247000
     18          1           0       -3.088000    0.391000    2.112000
     19          6           0       -0.184000    0.881000    2.653000
     20          8           0       -0.301000    1.751000    3.698000
     21          1           0       -1.258000    1.930000    3.701000
     22          6           0        1.082000    0.383000    2.337000
     23          1           0        1.985000    0.500000    2.930000
     24          6           0        1.243000   -0.345000    1.165000
     25          1           0        2.236000   -0.608000    0.809000
     26          1           0        1.844000    0.572000   -1.471000
 ---------------------------------------------------------------------
                    Distance matrix (angstroms):
                    1          2          3          4          5
     1  N    0.000000
     2  H    0.999834   0.000000
     3  H    1.000485   1.633243   0.000000
     4  C    1.475668   2.039474   2.040485   0.000000
     5  C    2.556683   3.410863   2.743195   1.564877   0.000000
     6  O    2.706440   3.700704   2.637153   2.440394   1.365209
     7  H    2.071044   3.046264   2.150425   2.245778   1.814309
     8  O    3.707093   4.475864   3.909400   2.469634   1.223011
     9  H    2.152991   2.447071   2.434227   1.092677   2.091646
    10  C    2.456230   2.618760   3.320173   1.506634   2.536484
    11  H    2.596290   2.325383   3.511402   2.122565   3.475678
    12  H    3.403139   3.535506   4.163269   2.181826   2.910000
    13  C    3.099747   3.380903   4.015010   2.580830   3.090033
    14  C    4.147391   4.614946   4.936571   3.373921   3.256999
    15  H    4.428658   4.959969   5.119943   3.345672   2.958292
    16  C    5.140972   5.614004   5.909578   4.602491   4.370245
    17  O    6.253886   6.815249   6.939596   5.595579   5.062893
    18  H    6.524029   7.056864   7.226449   5.670859   5.133818
    19  C    5.332471   5.677099   6.140173   5.140588   5.166417
    20  O    6.528757   6.894957   7.278602   6.429116   6.332448
    21  H    6.945963   7.398206   7.664196   6.678186   6.385055
    22  C    4.623085   4.774898   5.490137   4.708634   5.122525
    23  H    5.177251   5.195773   6.019087   5.491840   6.033544
    24  C    3.423559   3.493125   4.363171   3.477665   4.173064
    25  H    3.093693   2.899329   4.023869   3.507714   4.504934
    26  H    1.000361   1.633709   1.633360   2.040109   2.773961
                    6          7          8          9         10
     6  O    0.000000
     7  H    0.973902   0.000000
     8  O    2.274184   2.926239   0.000000
     9  H    3.139283   3.144616   2.671024   0.000000
    10  C    3.500717   3.210659   3.033546   2.064224   0.000000
    11  H    4.343564   3.903238   4.061681   2.459158   1.092490
    12  H    4.106643   4.028989   2.976898   2.304587   1.092240
    13  C    3.642081   3.202216   3.580345   3.459963   1.563430
    14  C    3.777086   3.609333   3.348384   4.193334   2.519113
    15  H    3.723000   3.820717   2.668628   3.963978   2.624768
    16  C    4.573073   4.342095   4.472882   5.504128   3.802342
    17  O    5.210058   5.170224   4.911317   6.435678   4.891977
    18  H    5.501843   5.563703   4.780840   6.388360   4.868284
    19  C    5.186534   4.722628   5.515224   6.124288   4.320642
    20  O    6.181879   5.733862   6.648981   7.437885   5.679326
    21  H    6.263702   5.958341   6.536813   7.653376   5.947053
    22  C    5.161846   4.494636   5.710507   5.691113   3.871844
    23  H    5.981116   5.220243   6.711529   6.462138   4.697713
    24  C    4.415628   3.724772   4.855895   4.407084   2.607668
    25  H    4.711033   3.905260   5.348023   4.355346   2.817387
    26  H    2.593296   1.710688   3.945093   2.966682   2.691970
                   11         12         13         14         15
    11  H    0.000000
    12  H    1.690423   0.000000
    13  C    2.119538   2.235888   0.000000
    14  C    3.322358   2.751787   1.394109   0.000000
    15  H    3.582332   2.493785   2.121260   1.086827   0.000000
    16  C    4.476068   4.099415   2.395932   1.381501   2.180377
    17  O    5.664691   5.018543   3.630826   2.374054   2.698228
    18  H    5.663795   4.779223   3.801044   2.452014   2.444871
    19  C    4.743527   4.827935   2.759283   2.382637   3.387260
    20  O    6.090346   6.176936   4.118137   3.627137   4.537078
    21  H    6.487596   6.323178   4.427632   3.635634   4.376748
    22  C    4.011312   4.571351   2.412308   2.787456   3.871945
    23  H    4.644817   5.450271   3.360787   3.869769   4.951791
    24  C    2.654052   3.421120   1.399795   2.420233   3.383385
    25  H    2.497575   3.741923   2.152397   3.398288   4.265866
    26  H    2.912103   3.743360   2.784078   3.788815   4.266868
                   16         17         18         19         20
    16  C    0.000000
    17  O    1.335421   0.000000
    18  H    1.848718   0.974563   0.000000
    19  C    1.361245   2.306491   2.994327   0.000000
    20  O    2.361498   2.665657   3.483154   1.364776   0.000000
    21  H    2.258598   2.047531   2.870948   1.830896   0.973601
    22  C    2.402276   3.600111   4.176073   1.396645   2.374118
    23  H    3.418686   4.521565   5.139682   2.219561   2.716730
    24  C    2.773315   4.107485   4.494003   2.398656   3.632250
    25  H    3.854746   5.187386   5.571426   3.387308   4.510828
    26  H    4.569670   5.700023   6.098793   4.606044   5.719233
                   21         22         23         24         25
    21  H    0.000000
    22  C    3.119183   0.000000
    23  H    3.627174   1.086622   0.000000
    24  C    4.226337   1.389060   2.092801   0.000000
    25  H    5.197417   2.156057   2.406098   1.087177   0.000000
    26  H    6.181921   3.888088   4.403847   2.854923   2.597011
                   26
    26  H    0.000000
 Stoichiometry    C9H12NO4(1+)
 Framework group  C1[X(C9H12NO4)]
 Deg. of freedom    72
 Full point group                 C1      NOp   1
 Largest Abelian subgroup         C1      NOp   1
 Largest concise Abelian subgroup C1      NOp   1
                         Standard orientation:                         
 ---------------------------------------------------------------------
 Center     Atomic      Atomic             Coordinates (Angstroms)
 Number     Number       Type             X           Y           Z
 ---------------------------------------------------------------------
      1          7           0        2.587220   -1.529877    0.610407
      2          1           0        2.701661   -2.390335    0.114236
      3          1           0        3.369105   -1.389049    1.218513
      4          6           0        2.505423   -0.414726   -0.352578
      5          6           0        2.377513    0.999758    0.304472
      6          8           0        2.205606    0.936522    1.657337
      7          1           0        1.847222    0.035395    1.746870
      8          8           0        2.323640    2.048033   -0.323199
      9          1           0        3.405771   -0.308780   -0.962573
     10          6           0        1.409286   -0.652829   -1.358431
     11          1           0        1.513189   -1.667701   -1.749293
     12          1           0        1.523048   -0.058841   -2.267950
     13          6           0       -0.035273   -0.609374   -0.762048
     14          6           0       -0.676674    0.628423   -0.764215
     15          1           0       -0.131456    1.465621   -1.192035
     16          6           0       -1.950467    0.732095   -0.239572
     17          8           0       -2.582663    1.905233   -0.153403
     18          1           0       -2.399357    2.357764   -0.996841
     19          6           0       -2.603058   -0.370840    0.219391
     20          8           0       -3.808644   -0.240595    0.845659
     21          1           0       -3.986212    0.710655    0.738459
     22          6           0       -2.012933   -1.635421    0.162786
     23          1           0       -2.480464   -2.575837    0.441677
     24          6           0       -0.706829   -1.746079   -0.296926
     25          1           0       -0.165141   -2.684102   -0.203972
     26          1           0        1.746654   -1.565238    1.151628
 ---------------------------------------------------------------------
 Rotational constants (GHZ):           1.1623695           0.4421810           0.3790581
 Leave Link  202 at Sun Jul 18 13:47:47 2021, MaxMem=   104857600 cpu:               0.1 elap:               0.1
 (Enter /dades/curu/g16A03_MST/g16/l301.exe)
 Standard basis: 6-31G(d) (6D, 7F)
 Ernie: Thresh=  0.10000D-02 Tol=  0.10000D-05 Strict=F.
 There are   234 symmetry adapted cartesian basis functions of A   symmetry.
 There are   234 symmetry adapted basis functions of A   symmetry.
   234 basis functions,   440 primitive gaussians,   234 cartesian basis functions
    52 alpha electrons       52 beta electrons
       nuclear repulsion energy       925.7134891444 Hartrees.
 IExCor=  402 DFT=T Ex+Corr=B3LYP ExCW=0 ScaHFX=  0.200000
 ScaDFX=  0.800000  0.720000  1.000000  0.810000 ScalE2=  1.000000  1.000000
 IRadAn=      5 IRanWt=     -1 IRanGd=            0 ICorTp=0 IEmpDi=  4
 NAtoms=   26 NActive=   26 NUniq=   26 SFac= 1.00D+00 NAtFMM=   60 NAOKFM=F Big=F
 Integral buffers will be    131072 words long.
 Raffenetti 2 integral format.
 Two-electron integral symmetry is turned on.
 Using the following non-standard input for PCM:
 MSTModel=DFT cav MSTCharged
 --- end of non-standard input.
 MST model for solvation energy: B3LYP parametrization.
 MST cavity parameters:
 ISph   IAn     Re0     Alpha   Atom Type   QCorr
 ------------------------------------------------
   1      7     1.50     1.15      NH+        T
   2      1     0.90     1.15      NH+        T
   3      1     0.90     1.15      NH+        T
   4      6     1.50     1.50      CN+        F
   5      6     1.50     1.50      C          F
   6      8     1.40     1.50      OH         F
   7      1     0.90     1.50      OH         F
   8      8     1.40     1.50      O          F
   9      1     1.20     1.50      CN+        F
  10      6     1.50     1.50      CH2        F
  11      1     1.20     1.50      CH2        F
  12      1     1.20     1.50      CH2        F
  13      6     1.50     1.50      C          F
  14      6     1.50     1.50      CH         F
  15      1     1.20     1.50      CH         F
  16      6     1.50     1.50      C          F
  17      8     1.40     1.50      OH         F
  18      1     0.90     1.50      OH         F
  19      6     1.50     1.50      C          F
  20      8     1.40     1.50      OH         F
  21      1     0.90     1.50      OH         F
  22      6     1.50     1.50      CH         F
  23      1     1.20     1.50      CH         F
  24      6     1.50     1.50      CH         F
  25      1     1.20     1.50      CH         F
  26      1     0.90     1.15      NH+        T
 ------------------------------------------------------------------------------
 Polarizable Continuum Model (PCM)
 =================================
 Model                : PCM.
 Atomic radii         : MST.
 Polarization charges : Total charges.
 Charge compensation  : None.
 Solution method      : On-the-fly selection.
 Cavity type          : Scaled VdW (van der Waals Surface) (Alpha=1.500).
 Cavity algorithm     : GePol (No added spheres)
                        Default sphere list used, NSphG=   26.
                        Lebedev-Laikov grids with approx.  5.0 points / Ang**2.
                        Smoothing algorithm: York/Karplus (Gamma=1.0000).
                        Polarization charges: spherical gaussians, with
                                              point-specific exponents (IZeta= 3).
                        Self-potential: point-specific (ISelfS= 7).
                        Self-field    : sphere-specific E.n sum rule (ISelfD= 2).
 1st derivatives      : Analytical E(r).r(x)/FMM algorithm (CHGder, D1EAlg=3).
                        Cavity 1st derivative terms included.
 Solvent              : n-Octanol, Eps=   9.862900 Eps(inf)=   2.043470
 ------------------------------------------------------------------------------
 GePol: Number of generator spheres                  =      26
 GePol: Total number of spheres                      =      26
 GePol: Number of exposed spheres                    =      26 (100.00%)
 GePol: Number of points                             =    2165
 GePol: Average weight of points                     =       0.12
 GePol: Minimum weight of points                     =   0.12D-11
 GePol: Maximum weight of points                     =    0.21373
 GePol: Number of points with low weight             =     133
 GePol: Fraction of low-weight points (<1% of avg)   =       6.14%
 GePol: Cavity surface area                          =    261.449 Ang**2
 GePol: Cavity volume                                =    289.367 Ang**3
 Surface areas from nonelectrostatic (unscaled) cavity and vdw tensions:
 Sphere =    1 Type =  NH+ Surf =       11.567 Tension =       -0.274
 Sphere =    2 Type =  NH+ Surf =        3.850 Tension =       -0.274
 Sphere =    3 Type =  NH+ Surf =        3.860 Tension =       -0.274
 Sphere =    4 Type =  CN+ Surf =        2.887 Tension =       -0.227
 Sphere =    5 Type =  C   Surf =        7.313 Tension =       -0.205
 Sphere =    6 Type =  OH  Surf =       14.387 Tension =       -0.238
 Sphere =    7 Type =  OH  Surf =        3.330 Tension =       -0.238
 Sphere =    8 Type =  O   Surf =       16.505 Tension =       -0.185
 Sphere =    9 Type =  CN+ Surf =        9.717 Tension =       -0.227
 Sphere =   10 Type =  CH2 Surf =        3.645 Tension =       -0.194
 Sphere =   11 Type =  CH2 Surf =        9.717 Tension =       -0.194
 Sphere =   12 Type =  CH2 Surf =       10.035 Tension =       -0.194
 Sphere =   13 Type =  C   Surf =        6.319 Tension =       -0.205
 Sphere =   14 Type =  CH  Surf =        7.606 Tension =       -0.195
 Sphere =   15 Type =  CH  Surf =       10.117 Tension =       -0.195
 Sphere =   16 Type =  C   Surf =        6.372 Tension =       -0.205
 Sphere =   17 Type =  OH  Surf =       13.592 Tension =       -0.238
 Sphere =   18 Type =  OH  Surf =        4.413 Tension =       -0.238
 Sphere =   19 Type =  C   Surf =        6.507 Tension =       -0.205
 Sphere =   20 Type =  OH  Surf =       14.448 Tension =       -0.238
 Sphere =   21 Type =  OH  Surf =        3.727 Tension =       -0.238
 Sphere =   22 Type =  CH  Surf =        7.778 Tension =       -0.195
 Sphere =   23 Type =  CH  Surf =       10.210 Tension =       -0.195
 Sphere =   24 Type =  CH  Surf =        7.713 Tension =       -0.195
 Sphere =   25 Type =  CH  Surf =       10.233 Tension =       -0.195
 Sphere =   26 Type =  NH+ Surf =        3.768 Tension =       -0.274
 PCM non-electrostatic energy =        -0.0170500627 Hartrees.
 Nuclear repulsion after PCM non-electrostatic terms =      925.6964390817 Hartrees.
 Leave Link  301 at Sun Jul 18 13:47:47 2021, MaxMem=   104857600 cpu:               0.1 elap:               0.2
 (Enter /dades/curu/g16A03_MST/g16/l302.exe)
 NPDir=0 NMtPBC=     1 NCelOv=     1 NCel=       1 NClECP=     1 NCelD=      1
         NCelK=      1 NCelE2=     1 NClLst=     1 CellRange=     0.0.
 One-electron integrals computed using PRISM.
 One-electron integral symmetry used in STVInt
 NBasis=   234 RedAO= T EigKep=  3.80D-04  NBF=   234
 NBsUse=   234 1.00D-06 EigRej= -1.00D+00 NBFU=   234
 Precomputing XC quadrature grid using
 IXCGrd= 4 IRadAn=           5 IRanWt=          -1 IRanGd=           0 AccXCQ= 0.00D+00.
 Generated NRdTot=       0 NPtTot=           0 NUsed=           0 NTot=          32
 NSgBfM=   233   233   233   233   233 MxSgAt=    26 MxSgA2=    26.
 Leave Link  302 at Sun Jul 18 13:47:48 2021, MaxMem=   104857600 cpu:               2.5 elap:               0.9
 (Enter /dades/curu/g16A03_MST/g16/l303.exe)
 DipDrv:  MaxL=1.
 Leave Link  303 at Sun Jul 18 13:47:48 2021, MaxMem=   104857600 cpu:               0.1 elap:               0.1
 (Enter /dades/curu/g16A03_MST/g16/l401.exe)
 ExpMin= 1.61D-01 ExpMax= 5.48D+03 ExpMxC= 8.25D+02 IAcc=3 IRadAn=         5 AccDes= 0.00D+00
 Harris functional with IExCor=  402 and IRadAn=       5 diagonalized for initial guess.
 HarFok:  IExCor=  402 AccDes= 0.00D+00 IRadAn=         5 IDoV= 1 UseB2=F ITyADJ=14
 ICtDFT=  3500011 ScaDFX=  1.000000  1.000000  1.000000  1.000000
 FoFCou: FMM=F IPFlag=           0 FMFlag=      100000 FMFlg1=           0
         NFxFlg=           0 DoJE=T BraDBF=F KetDBF=T FulRan=T
         wScrn=  0.000000 ICntrl=       500 IOpCl=  0 I1Cent=   200000004 NGrid=           0
         NMat0=    1 NMatS0=      1 NMatT0=    0 NMatD0=    1 NMtDS0=    0 NMtDT0=    0
 Petite list used in FoFCou.
 Harris En= -705.623168563459    
 JPrj=0 DoOrth=F DoCkMO=F.
 Leave Link  401 at Sun Jul 18 13:47:54 2021, MaxMem=   104857600 cpu:              19.0 elap:               5.5
 (Enter /dades/curu/g16A03_MST/g16/l502.exe)
 Integral symmetry usage will be decided dynamically.
 Closed shell SCF:
 Using DIIS extrapolation, IDIIS=  1040.
 NGot=   104857600 LenX=   104743988 LenY=   104688791
 Requested convergence on RMS density matrix=1.00D-08 within 128 cycles.
 Requested convergence on MAX density matrix=1.00D-06.
 Requested convergence on             energy=1.00D-06.
 No special actions if energy rises.
 Fock matrices will be formed incrementally for  20 cycles.

 Cycle   1  Pass 1  IDiag  1:
 FoFJK:  IHMeth= 1 ICntrl=       0 DoSepK=F KAlg= 0 I1Cent=           0 FoldK=F
 IRaf= 890000000 NMat=       1 IRICut=       1 DoRegI=T DoRafI=F ISym2E= 0 IDoP0=0 IntGTp=1.
 FoFCou: FMM=F IPFlag=           0 FMFlag=      100000 FMFlg1=           0
         NFxFlg=           0 DoJE=F BraDBF=F KetDBF=F FulRan=T
         wScrn=  0.000000 ICntrl=         0 IOpCl=  0 I1Cent=           0 NGrid=           0
         NMat0=    1 NMatS0=      1 NMatT0=    0 NMatD0=    1 NMtDS0=    0 NMtDT0=    0
 Symmetry not used in FoFCou.
 Inv3:  Mode=1 IEnd=    14061675.
 Iteration    1 A*A^-1 deviation from unit magnitude is 4.44D-15 for   2162.
 Iteration    1 A*A^-1 deviation from orthogonality  is 2.96D-15 for   2156    193.
 Iteration    1 A^-1*A deviation from unit magnitude is 3.77D-15 for   2162.
 Iteration    1 A^-1*A deviation from orthogonality  is 1.81D-15 for   2147   2143.
 E= -705.344943008137    
 DIIS: error= 2.19D-02 at cycle   1 NSaved=   1.
 NSaved= 1 IEnMin= 1 EnMin= -705.344943008137     IErMin= 1 ErrMin= 2.19D-02
 ErrMax= 2.19D-02  0.00D+00 EMaxC= 1.00D-01 BMatC= 3.65D-01 BMatP= 3.65D-01
 IDIUse=3 WtCom= 7.81D-01 WtEn= 2.19D-01
 Coeff-Com:  0.100D+01
 Coeff-En:   0.100D+01
 Coeff:      0.100D+01
 Gap=     0.216 Goal=   None    Shift=    0.000
 GapD=    0.216 DampG=1.000 DampE=0.500 DampFc=0.5000 IDamp=-1.
 Damping current iteration by 5.00D-01
 RMSDP=5.68D-03 MaxDP=2.13D-01              OVMax= 2.23D-01

 Cycle   2  Pass 1  IDiag  1:
 RMSU=  2.82D-03    CP:  9.86D-01
 E= -705.449453954849     Delta-E=       -0.104510946713 Rises=F Damp=T
 DIIS: error= 1.16D-02 at cycle   2 NSaved=   2.
 NSaved= 2 IEnMin= 2 EnMin= -705.449453954849     IErMin= 2 ErrMin= 1.16D-02
 ErrMax= 1.16D-02  0.00D+00 EMaxC= 1.00D-01 BMatC= 4.73D-02 BMatP= 3.65D-01
 IDIUse=3 WtCom= 8.84D-01 WtEn= 1.16D-01
 Coeff-Com:  0.177D+00 0.823D+00
 Coeff-En:   0.278D+00 0.722D+00
 Coeff:      0.189D+00 0.811D+00
 Gap=     0.156 Goal=   None    Shift=    0.000
 RMSDP=1.64D-03 MaxDP=7.31D-02 DE=-1.05D-01 OVMax= 1.79D-01

 Cycle   3  Pass 1  IDiag  1:
 RMSU=  1.53D-03    CP:  9.78D-01  8.05D-01
 E= -705.618560427564     Delta-E=       -0.169106472714 Rises=F Damp=F
 DIIS: error= 1.25D-02 at cycle   3 NSaved=   3.
 NSaved= 3 IEnMin= 3 EnMin= -705.618560427564     IErMin= 2 ErrMin= 1.16D-02
 ErrMax= 1.25D-02  0.00D+00 EMaxC= 1.00D-01 BMatC= 4.84D-02 BMatP= 4.73D-02
 IDIUse=3 WtCom= 8.75D-01 WtEn= 1.25D-01
 Coeff-Com:  0.426D-01 0.497D+00 0.460D+00
 Coeff-En:   0.000D+00 0.000D+00 0.100D+01
 Coeff:      0.373D-01 0.435D+00 0.527D+00
 Gap=     0.186 Goal=   None    Shift=    0.000
 RMSDP=1.08D-03 MaxDP=6.70D-02 DE=-1.69D-01 OVMax= 6.60D-02

 Cycle   4  Pass 1  IDiag  1:
 RMSU=  6.91D-04    CP:  9.82D-01  8.72D-01  4.79D-01
 E= -705.650243729150     Delta-E=       -0.031683301587 Rises=F Damp=F
 DIIS: error= 5.18D-03 at cycle   4 NSaved=   4.
 NSaved= 4 IEnMin= 4 EnMin= -705.650243729150     IErMin= 4 ErrMin= 5.18D-03
 ErrMax= 5.18D-03  0.00D+00 EMaxC= 1.00D-01 BMatC= 1.00D-02 BMatP= 4.73D-02
 IDIUse=3 WtCom= 9.48D-01 WtEn= 5.18D-02
 Coeff-Com:  0.473D-02 0.112D+00 0.324D+00 0.560D+00
 Coeff-En:   0.000D+00 0.000D+00 0.191D+00 0.809D+00
 Coeff:      0.449D-02 0.106D+00 0.317D+00 0.573D+00
 Gap=     0.185 Goal=   None    Shift=    0.000
 RMSDP=4.09D-04 MaxDP=2.33D-02 DE=-3.17D-02 OVMax= 2.97D-02

 Cycle   5  Pass 1  IDiag  1:
 RMSU=  2.00D-04    CP:  9.81D-01  8.35D-01  6.19D-01  6.17D-01
 E= -705.657133448000     Delta-E=       -0.006889718850 Rises=F Damp=F
 DIIS: error= 2.46D-03 at cycle   5 NSaved=   5.
 NSaved= 5 IEnMin= 5 EnMin= -705.657133448000     IErMin= 5 ErrMin= 2.46D-03
 ErrMax= 2.46D-03  0.00D+00 EMaxC= 1.00D-01 BMatC= 8.37D-04 BMatP= 1.00D-02
 IDIUse=3 WtCom= 9.75D-01 WtEn= 2.46D-02
 Coeff-Com: -0.242D-03 0.135D-01 0.139D+00 0.351D+00 0.497D+00
 Coeff-En:   0.000D+00 0.000D+00 0.000D+00 0.292D-01 0.971D+00
 Coeff:     -0.236D-03 0.132D-01 0.136D+00 0.343D+00 0.509D+00
 Gap=     0.185 Goal=   None    Shift=    0.000
 RMSDP=1.22D-04 MaxDP=5.76D-03 DE=-6.89D-03 OVMax= 7.75D-03

 Cycle   6  Pass 1  IDiag  1:
 RMSU=  5.90D-05    CP:  9.81D-01  8.44D-01  6.19D-01  6.63D-01  5.10D-01
 E= -705.657804676078     Delta-E=       -0.000671228078 Rises=F Damp=F
 DIIS: error= 2.89D-04 at cycle   6 NSaved=   6.
 NSaved= 6 IEnMin= 6 EnMin= -705.657804676078     IErMin= 6 ErrMin= 2.89D-04
 ErrMax= 2.89D-04  0.00D+00 EMaxC= 1.00D-01 BMatC= 2.31D-05 BMatP= 8.37D-04
 IDIUse=3 WtCom= 9.97D-01 WtEn= 2.89D-03
 Coeff-Com: -0.371D-03-0.144D-02 0.331D-01 0.961D-01 0.220D+00 0.653D+00
 Coeff-En:   0.000D+00 0.000D+00 0.000D+00 0.000D+00 0.000D+00 0.100D+01
 Coeff:     -0.370D-03-0.144D-02 0.330D-01 0.959D-01 0.219D+00 0.654D+00
 Gap=     0.186 Goal=   None    Shift=    0.000
 RMSDP=2.19D-05 MaxDP=7.27D-04 DE=-6.71D-04 OVMax= 1.24D-03

 Cycle   7  Pass 1  IDiag  1:
 RMSU=  1.31D-05    CP:  9.81D-01  8.44D-01  6.19D-01  6.66D-01  5.56D-01
                    CP:  7.49D-01
 E= -705.657822771138     Delta-E=       -0.000018095060 Rises=F Damp=F
 DIIS: error= 4.68D-05 at cycle   7 NSaved=   7.
 NSaved= 7 IEnMin= 7 EnMin= -705.657822771138     IErMin= 7 ErrMin= 4.68D-05
 ErrMax= 4.68D-05  0.00D+00 EMaxC= 1.00D-01 BMatC= 1.76D-06 BMatP= 2.31D-05
 IDIUse=1 WtCom= 1.00D+00 WtEn= 0.00D+00
 Coeff-Com: -0.156D-03-0.122D-02 0.111D-01 0.332D-01 0.929D-01 0.335D+00
 Coeff-Com:  0.529D+00
 Coeff:     -0.156D-03-0.122D-02 0.111D-01 0.332D-01 0.929D-01 0.335D+00
 Coeff:      0.529D+00
 Gap=     0.186 Goal=   None    Shift=    0.000
 RMSDP=7.12D-06 MaxDP=2.48D-04 DE=-1.81D-05 OVMax= 5.16D-04

 Cycle   8  Pass 1  IDiag  1:
 RMSU=  3.89D-06    CP:  9.81D-01  8.44D-01  6.19D-01  6.68D-01  5.58D-01
                    CP:  7.53D-01  5.80D-01
 E= -705.657824292101     Delta-E=       -0.000001520964 Rises=F Damp=F
 DIIS: error= 1.55D-05 at cycle   8 NSaved=   8.
 NSaved= 8 IEnMin= 8 EnMin= -705.657824292101     IErMin= 8 ErrMin= 1.55D-05
 ErrMax= 1.55D-05  0.00D+00 EMaxC= 1.00D-01 BMatC= 1.48D-07 BMatP= 1.76D-06
 IDIUse=1 WtCom= 1.00D+00 WtEn= 0.00D+00
 Coeff-Com: -0.396D-05-0.480D-03 0.186D-02 0.521D-02 0.219D-01 0.867D-01
 Coeff-Com:  0.251D+00 0.634D+00
 Coeff:     -0.396D-05-0.480D-03 0.186D-02 0.521D-02 0.219D-01 0.867D-01
 Coeff:      0.251D+00 0.634D+00
 Gap=     0.186 Goal=   None    Shift=    0.000
 RMSDP=2.32D-06 MaxDP=7.88D-05 DE=-1.52D-06 OVMax= 1.88D-04

 Cycle   9  Pass 1  IDiag  1:
 RMSU=  1.34D-06    CP:  9.81D-01  8.44D-01  6.19D-01  6.67D-01  5.61D-01
                    CP:  7.57D-01  6.49D-01  6.61D-01
 E= -705.657824420826     Delta-E=       -0.000000128725 Rises=F Damp=F
 DIIS: error= 4.67D-06 at cycle   9 NSaved=   9.
 NSaved= 9 IEnMin= 9 EnMin= -705.657824420826     IErMin= 9 ErrMin= 4.67D-06
 ErrMax= 4.67D-06  0.00D+00 EMaxC= 1.00D-01 BMatC= 1.95D-08 BMatP= 1.48D-07
 IDIUse=1 WtCom= 1.00D+00 WtEn= 0.00D+00
 Coeff-Com:  0.177D-04-0.136D-03-0.434D-04-0.501D-03 0.275D-02 0.129D-01
 Coeff-Com:  0.826D-01 0.342D+00 0.561D+00
 Coeff:      0.177D-04-0.136D-03-0.434D-04-0.501D-03 0.275D-02 0.129D-01
 Coeff:      0.826D-01 0.342D+00 0.561D+00
 Gap=     0.186 Goal=   None    Shift=    0.000
 RMSDP=7.57D-07 MaxDP=2.41D-05 DE=-1.29D-07 OVMax= 6.09D-05

 Cycle  10  Pass 1  IDiag  1:
 RMSU=  4.46D-07    CP:  9.81D-01  8.44D-01  6.20D-01  6.67D-01  5.61D-01
                    CP:  7.59D-01  6.45D-01  7.42D-01  6.29D-01
 E= -705.657824438454     Delta-E=       -0.000000017628 Rises=F Damp=F
 DIIS: error= 1.69D-06 at cycle  10 NSaved=  10.
 NSaved=10 IEnMin=10 EnMin= -705.657824438454     IErMin=10 ErrMin= 1.69D-06
 ErrMax= 1.69D-06  0.00D+00 EMaxC= 1.00D-01 BMatC= 1.67D-09 BMatP= 1.95D-08
 IDIUse=1 WtCom= 1.00D+00 WtEn= 0.00D+00
 Coeff-Com:  0.101D-04-0.308D-04-0.178D-03-0.705D-03-0.525D-03-0.137D-02
 Coeff-Com:  0.188D-01 0.114D+00 0.292D+00 0.578D+00
 Coeff:      0.101D-04-0.308D-04-0.178D-03-0.705D-03-0.525D-03-0.137D-02
 Coeff:      0.188D-01 0.114D+00 0.292D+00 0.578D+00
 Gap=     0.186 Goal=   None    Shift=    0.000
 RMSDP=2.22D-07 MaxDP=7.58D-06 DE=-1.76D-08 OVMax= 2.14D-05

 Cycle  11  Pass 1  IDiag  1:
 RMSU=  1.21D-07    CP:  9.81D-01  8.44D-01  6.20D-01  6.67D-01  5.61D-01
                    CP:  7.58D-01  6.48D-01  7.50D-01  7.03D-01  6.81D-01
 E= -705.657824440075     Delta-E=       -0.000000001621 Rises=F Damp=F
 DIIS: error= 5.53D-07 at cycle  11 NSaved=  11.
 NSaved=11 IEnMin=11 EnMin= -705.657824440075     IErMin=11 ErrMin= 5.53D-07
 ErrMax= 5.53D-07  0.00D+00 EMaxC= 1.00D-01 BMatC= 1.16D-10 BMatP= 1.67D-09
 IDIUse=1 WtCom= 1.00D+00 WtEn= 0.00D+00
 Coeff-Com:  0.330D-05-0.377D-05-0.827D-04-0.293D-03-0.486D-03-0.173D-02
 Coeff-Com:  0.251D-02 0.259D-01 0.884D-01 0.272D+00 0.614D+00
 Coeff:      0.330D-05-0.377D-05-0.827D-04-0.293D-03-0.486D-03-0.173D-02
 Coeff:      0.251D-02 0.259D-01 0.884D-01 0.272D+00 0.614D+00
 Gap=     0.186 Goal=   None    Shift=    0.000
 RMSDP=6.26D-08 MaxDP=2.04D-06 DE=-1.62D-09 OVMax= 5.22D-06

 Cycle  12  Pass 1  IDiag  1:
 RMSU=  4.36D-08    CP:  9.81D-01  8.44D-01  6.20D-01  6.67D-01  5.61D-01
                    CP:  7.58D-01  6.48D-01  7.52D-01  7.09D-01  7.35D-01
                    CP:  7.30D-01
 E= -705.657824440152     Delta-E=       -0.000000000077 Rises=F Damp=F
 DIIS: error= 1.45D-07 at cycle  12 NSaved=  12.
 NSaved=12 IEnMin=12 EnMin= -705.657824440152     IErMin=12 ErrMin= 1.45D-07
 ErrMax= 1.45D-07  0.00D+00 EMaxC= 1.00D-01 BMatC= 1.65D-11 BMatP= 1.16D-10
 IDIUse=1 WtCom= 1.00D+00 WtEn= 0.00D+00
 Coeff-Com:  0.291D-06 0.169D-05-0.186D-04-0.547D-04-0.186D-03-0.729D-03
 Coeff-Com: -0.121D-02-0.211D-02 0.555D-02 0.675D-01 0.319D+00 0.613D+00
 Coeff:      0.291D-06 0.169D-05-0.186D-04-0.547D-04-0.186D-03-0.729D-03
 Coeff:     -0.121D-02-0.211D-02 0.555D-02 0.675D-01 0.319D+00 0.613D+00
 Gap=     0.186 Goal=   None    Shift=    0.000
 RMSDP=2.28D-08 MaxDP=6.52D-07 DE=-7.69D-11 OVMax= 1.83D-06

 Cycle  13  Pass 1  IDiag  1:
 RMSU=  1.49D-08    CP:  9.81D-01  8.44D-01  6.20D-01  6.67D-01  5.61D-01
                    CP:  7.58D-01  6.49D-01  7.52D-01  7.12D-01  7.41D-01
                    CP:  8.03D-01  7.18D-01
 E= -705.657824440180     Delta-E=       -0.000000000028 Rises=F Damp=F
 DIIS: error= 5.53D-08 at cycle  13 NSaved=  13.
 NSaved=13 IEnMin=13 EnMin= -705.657824440180     IErMin=13 ErrMin= 5.53D-08
 ErrMax= 5.53D-08  0.00D+00 EMaxC= 1.00D-01 BMatC= 1.96D-12 BMatP= 1.65D-11
 IDIUse=1 WtCom= 1.00D+00 WtEn= 0.00D+00
 Coeff-Com: -0.170D-06 0.120D-05-0.483D-06 0.342D-05-0.434D-04-0.186D-03
 Coeff-Com: -0.833D-03-0.366D-02-0.699D-02 0.688D-02 0.103D+00 0.323D+00
 Coeff-Com:  0.579D+00
 Coeff:     -0.170D-06 0.120D-05-0.483D-06 0.342D-05-0.434D-04-0.186D-03
 Coeff:     -0.833D-03-0.366D-02-0.699D-02 0.688D-02 0.103D+00 0.323D+00
 Coeff:      0.579D+00
 Gap=     0.186 Goal=   None    Shift=    0.000
 RMSDP=7.93D-09 MaxDP=3.20D-07 DE=-2.81D-11 OVMax= 7.49D-07

 Error on total polarization charges =  0.00775
 SCF Done:  E(RB3LYP) =  -705.657824440     A.U. after   13 cycles
            NFock= 13  Conv=0.79D-08     -V/T= 2.0087
 KE= 6.995673476644D+02 PE=-3.482322310429D+03 EE= 1.151400699242D+03
 Leave Link  502 at Sun Jul 18 13:49:57 2021, MaxMem=   104857600 cpu:             475.2 elap:             122.7
 (Enter /dades/curu/g16A03_MST/g16/l601.exe)
 Copying SCF densities to generalized density rwf, IOpCl= 0 IROHF=0.

 **********************************************************************

            Population analysis using the SCF density.

 **********************************************************************

 Orbital symmetries:
       Occupied  (A) (A) (A) (A) (A) (A) (A) (A) (A) (A) (A) (A)
                 (A) (A) (A) (A) (A) (A) (A) (A) (A) (A) (A) (A)
                 (A) (A) (A) (A) (A) (A) (A) (A) (A) (A) (A) (A)
                 (A) (A) (A) (A) (A) (A) (A) (A) (A) (A) (A) (A)
                 (A) (A) (A) (A)
       Virtual   (A) (A) (A) (A) (A) (A) (A) (A) (A) (A) (A) (A)
                 (A) (A) (A) (A) (A) (A) (A) (A) (A) (A) (A) (A)
                 (A) (A) (A) (A) (A) (A) (A) (A) (A) (A) (A) (A)
                 (A) (A) (A) (A) (A) (A) (A) (A) (A) (A) (A) (A)
                 (A) (A) (A) (A) (A) (A) (A) (A) (A) (A) (A) (A)
                 (A) (A) (A) (A) (A) (A) (A) (A) (A) (A) (A) (A)
                 (A) (A) (A) (A) (A) (A) (A) (A) (A) (A) (A) (A)
                 (A) (A) (A) (A) (A) (A) (A) (A) (A) (A) (A) (A)
                 (A) (A) (A) (A) (A) (A) (A) (A) (A) (A) (A) (A)
                 (A) (A) (A) (A) (A) (A) (A) (A) (A) (A) (A) (A)
                 (A) (A) (A) (A) (A) (A) (A) (A) (A) (A) (A) (A)
                 (A) (A) (A) (A) (A) (A) (A) (A) (A) (A) (A) (A)
                 (A) (A) (A) (A) (A) (A) (A) (A) (A) (A) (A) (A)
                 (A) (A) (A) (A) (A) (A) (A) (A) (A) (A) (A) (A)
                 (A) (A) (A) (A) (A) (A) (A) (A) (A) (A) (A) (A)
                 (A) (A)
 The electronic state is 1-A.
 Alpha  occ. eigenvalues --  -19.24150 -19.19877 -19.18656 -19.18615 -14.49302
 Alpha  occ. eigenvalues --  -10.37448 -10.30650 -10.26096 -10.25881 -10.23767
 Alpha  occ. eigenvalues --  -10.21903 -10.21014 -10.20720 -10.20671  -1.14661
 Alpha  occ. eigenvalues --   -1.10226  -1.06555  -1.06402  -1.05636  -0.88040
 Alpha  occ. eigenvalues --   -0.83665  -0.76782  -0.76383  -0.70409  -0.65709
 Alpha  occ. eigenvalues --   -0.65520  -0.64025  -0.63156  -0.60802  -0.58257
 Alpha  occ. eigenvalues --   -0.56773  -0.55583  -0.52768  -0.50911  -0.49266
 Alpha  occ. eigenvalues --   -0.48455  -0.47188  -0.46046  -0.45444  -0.45027
 Alpha  occ. eigenvalues --   -0.43064  -0.41496  -0.41383  -0.39844  -0.38116
 Alpha  occ. eigenvalues --   -0.37147  -0.35970  -0.35005  -0.34209  -0.31931
 Alpha  occ. eigenvalues --   -0.26105  -0.23309
 Alpha virt. eigenvalues --   -0.04742  -0.02619  -0.00820   0.00959   0.05421
 Alpha virt. eigenvalues --    0.05872   0.07253   0.08595   0.09400   0.10597
 Alpha virt. eigenvalues --    0.12502   0.12722   0.14116   0.14236   0.15428
 Alpha virt. eigenvalues --    0.15611   0.16483   0.18046   0.21007   0.21798
 Alpha virt. eigenvalues --    0.23247   0.27392   0.28894   0.31045   0.32454
 Alpha virt. eigenvalues --    0.32634   0.33890   0.38349   0.45250   0.45864
 Alpha virt. eigenvalues --    0.47924   0.50037   0.50973   0.51343   0.52986
 Alpha virt. eigenvalues --    0.54042   0.55569   0.55993   0.58245   0.58832
 Alpha virt. eigenvalues --    0.59153   0.59911   0.61461   0.61692   0.63207
 Alpha virt. eigenvalues --    0.63832   0.64442   0.66920   0.68161   0.69199
 Alpha virt. eigenvalues --    0.71335   0.72182   0.73001   0.74594   0.76031
 Alpha virt. eigenvalues --    0.77513   0.79034   0.80079   0.80486   0.82607
 Alpha virt. eigenvalues --    0.82962   0.84055   0.85102   0.86616   0.88430
 Alpha virt. eigenvalues --    0.89609   0.91237   0.91574   0.92153   0.93560
 Alpha virt. eigenvalues --    0.94062   0.95244   0.96877   0.98357   0.99362
 Alpha virt. eigenvalues --    1.01909   1.02490   1.05036   1.06068   1.07619
 Alpha virt. eigenvalues --    1.08249   1.09994   1.11455   1.13986   1.17551
 Alpha virt. eigenvalues --    1.19050   1.19611   1.24760   1.25881   1.28080
 Alpha virt. eigenvalues --    1.30567   1.31981   1.34785   1.35770   1.40375
 Alpha virt. eigenvalues --    1.41075   1.43059   1.44127   1.48809   1.49804
 Alpha virt. eigenvalues --    1.52366   1.58052   1.58663   1.65139   1.66697
 Alpha virt. eigenvalues --    1.68522   1.69606   1.72201   1.73970   1.74641
 Alpha virt. eigenvalues --    1.74893   1.76231   1.78625   1.80768   1.82967
 Alpha virt. eigenvalues --    1.83717   1.85297   1.86644   1.87253   1.89445
 Alpha virt. eigenvalues --    1.89836   1.91710   1.94159   1.95620   1.96502
 Alpha virt. eigenvalues --    1.99747   2.00721   2.03097   2.06446   2.08053
 Alpha virt. eigenvalues --    2.08650   2.11621   2.17657   2.22058   2.25515
 Alpha virt. eigenvalues --    2.25756   2.26949   2.27922   2.29928   2.30647
 Alpha virt. eigenvalues --    2.33231   2.35348   2.36055   2.39479   2.42436
 Alpha virt. eigenvalues --    2.43658   2.45785   2.47691   2.52962   2.54294
 Alpha virt. eigenvalues --    2.59125   2.59551   2.60050   2.64572   2.67567
 Alpha virt. eigenvalues --    2.68465   2.69926   2.73781   2.79839   2.81949
 Alpha virt. eigenvalues --    2.83358   2.86772   2.90464   2.94311   3.00800
 Alpha virt. eigenvalues --    3.02372   3.22487   3.42841   3.69719   3.83730
 Alpha virt. eigenvalues --    3.90193   4.05277   4.08031   4.12822   4.15321
 Alpha virt. eigenvalues --    4.19814   4.27398   4.31141   4.40300   4.52546
 Alpha virt. eigenvalues --    4.59157   4.90775
          Condensed to atoms (all electrons):
               1          2          3          4          5          6
     1  N    6.798210   0.290488   0.297243   0.188403  -0.027499   0.001229
     2  H    0.290488   0.241645  -0.005477  -0.012841   0.002169   0.000262
     3  H    0.297243  -0.005477   0.250993  -0.021460  -0.000428   0.004799
     4  C    0.188403  -0.012841  -0.021460   5.395259   0.275675  -0.102142
     5  C   -0.027499   0.002169  -0.000428   0.275675   4.368670   0.278876
     6  O    0.001229   0.000262   0.004799  -0.102142   0.278876   8.205819
     7  H    0.006275   0.000424  -0.001802   0.000476  -0.021899   0.226466
     8  O    0.001981  -0.000028   0.000028  -0.076940   0.556065  -0.066447
     9  H   -0.028917  -0.002406  -0.002684   0.354366  -0.025958   0.001927
    10  C   -0.061516   0.000476   0.004414   0.307881  -0.037225  -0.000068
    11  H   -0.004900   0.004452   0.000086  -0.040412   0.004880  -0.000089
    12  H    0.003789  -0.000041  -0.000087  -0.028243  -0.003308   0.000047
    13  C   -0.006054  -0.000736  -0.000060  -0.041371  -0.007102   0.000386
    14  C    0.000366  -0.000000  -0.000007  -0.008155   0.008382  -0.000509
    15  H    0.000038   0.000000   0.000001  -0.000549   0.001074  -0.000069
    16  C    0.000032  -0.000001  -0.000000  -0.000136  -0.000217  -0.000059
    17  O   -0.000000   0.000000   0.000000   0.000000  -0.000001   0.000000
    18  H    0.000000  -0.000000  -0.000000   0.000001  -0.000001   0.000000
    19  C    0.000004   0.000000  -0.000000  -0.000002  -0.000006   0.000003
    20  O   -0.000000   0.000000   0.000000  -0.000000   0.000000  -0.000000
    21  H    0.000000  -0.000000   0.000000   0.000000  -0.000000   0.000000
    22  C   -0.000051  -0.000001  -0.000000  -0.000044  -0.000019   0.000005
    23  H   -0.000000  -0.000000   0.000000   0.000002   0.000000   0.000000
    24  C   -0.001681   0.000347   0.000049  -0.000992  -0.000331  -0.000103
    25  H    0.000175   0.000596   0.000028   0.000012   0.000067  -0.000004
    26  H    0.274500  -0.007905  -0.010753  -0.021994  -0.003417   0.001324
               7          8          9         10         11         12
     1  N    0.006275   0.001981  -0.028917  -0.061516  -0.004900   0.003789
     2  H    0.000424  -0.000028  -0.002406   0.000476   0.004452  -0.000041
     3  H   -0.001802   0.000028  -0.002684   0.004414   0.000086  -0.000087
     4  C    0.000476  -0.076940   0.354366   0.307881  -0.040412  -0.028243
     5  C   -0.021899   0.556065  -0.025958  -0.037225   0.004880  -0.003308
     6  O    0.226466  -0.066447   0.001927  -0.000068  -0.000089   0.000047
     7  H    0.338327   0.002926   0.000771  -0.001764  -0.000012  -0.000027
     8  O    0.002926   8.020694   0.000889   0.005199   0.000065   0.002237
     9  H    0.000771   0.000889   0.475172  -0.029546  -0.003927  -0.002864
    10  C   -0.001764   0.005199  -0.029546   5.232080   0.371127   0.370005
    11  H   -0.000012   0.000065  -0.003927   0.371127   0.543380  -0.028180
    12  H   -0.000027   0.002237  -0.002864   0.370005  -0.028180   0.487713
    13  C    0.002907  -0.004032   0.005277   0.314707  -0.044197  -0.018467
    14  C    0.000519  -0.001656   0.000066  -0.039196   0.002712  -0.003970
    15  H   -0.000095   0.007121  -0.000043  -0.009275   0.000129   0.003561
    16  C    0.000007   0.000129  -0.000001   0.005773  -0.000108   0.000070
    17  O   -0.000000   0.000000  -0.000000  -0.000079   0.000001  -0.000001
    18  H    0.000000  -0.000004  -0.000000   0.000003  -0.000000  -0.000003
    19  C   -0.000027   0.000001   0.000000   0.000429  -0.000013   0.000027
    20  O    0.000000  -0.000000   0.000000  -0.000000  -0.000000  -0.000000
    21  H   -0.000000   0.000000  -0.000000   0.000001  -0.000000   0.000000
    22  C   -0.000028   0.000000   0.000001   0.005851   0.000265  -0.000141
    23  H   -0.000000  -0.000000  -0.000000  -0.000175  -0.000006   0.000002
    24  C    0.000150  -0.000038  -0.000129  -0.052584  -0.001128   0.002244
    25  H   -0.000042  -0.000000  -0.000035  -0.007190   0.004180  -0.000006
    26  H    0.009658   0.000019   0.003843  -0.003937  -0.000435   0.000111
              13         14         15         16         17         18
     1  N   -0.006054   0.000366   0.000038   0.000032  -0.000000   0.000000
     2  H   -0.000736  -0.000000   0.000000  -0.000001   0.000000  -0.000000
     3  H   -0.000060  -0.000007   0.000001  -0.000000   0.000000  -0.000000
     4  C   -0.041371  -0.008155  -0.000549  -0.000136   0.000000   0.000001
     5  C   -0.007102   0.008382   0.001074  -0.000217  -0.000001  -0.000001
     6  O    0.000386  -0.000509  -0.000069  -0.000059   0.000000   0.000000
     7  H    0.002907   0.000519  -0.000095   0.000007  -0.000000   0.000000
     8  O   -0.004032  -0.001656   0.007121   0.000129   0.000000  -0.000004
     9  H    0.005277   0.000066  -0.000043  -0.000001  -0.000000  -0.000000
    10  C    0.314707  -0.039196  -0.009275   0.005773  -0.000079   0.000003
    11  H   -0.044197   0.002712   0.000129  -0.000108   0.000001  -0.000000
    12  H   -0.018467  -0.003970   0.003561   0.000070  -0.000001  -0.000003
    13  C    4.805380   0.502820  -0.037004  -0.009754   0.004960   0.000423
    14  C    0.502820   5.185931   0.344238   0.439381  -0.063671  -0.006383
    15  H   -0.037004   0.344238   0.548724  -0.035365  -0.002878   0.003167
    16  C   -0.009754   0.439381  -0.035365   4.774799   0.254176  -0.027980
    17  O    0.004960  -0.063671  -0.002878   0.254176   8.262963   0.254551
    18  H    0.000423  -0.006383   0.003167  -0.027980   0.254551   0.319729
    19  C   -0.033764  -0.042201   0.004169   0.451902  -0.059662   0.003946
    20  O   -0.000045   0.006410  -0.000040  -0.061419  -0.014831   0.000205
    21  H   -0.000133   0.001574  -0.000017  -0.013690   0.031048  -0.000996
    22  C   -0.024078  -0.046943   0.000202  -0.044010   0.004400  -0.000129
    23  H    0.004479   0.000282   0.000013   0.005635  -0.000042   0.000006
    24  C    0.533213  -0.048127   0.005833  -0.045251   0.000318  -0.000035
    25  H   -0.050076   0.005663  -0.000178   0.000429   0.000002  -0.000001
    26  H    0.011740   0.000007   0.000011  -0.000156   0.000000  -0.000000
              19         20         21         22         23         24
     1  N    0.000004  -0.000000   0.000000  -0.000051  -0.000000  -0.001681
     2  H    0.000000   0.000000  -0.000000  -0.000001  -0.000000   0.000347
     3  H   -0.000000   0.000000   0.000000  -0.000000   0.000000   0.000049
     4  C   -0.000002  -0.000000   0.000000  -0.000044   0.000002  -0.000992
     5  C   -0.000006   0.000000  -0.000000  -0.000019   0.000000  -0.000331
     6  O    0.000003  -0.000000   0.000000   0.000005   0.000000  -0.000103
     7  H   -0.000027   0.000000  -0.000000  -0.000028  -0.000000   0.000150
     8  O    0.000001  -0.000000   0.000000   0.000000  -0.000000  -0.000038
     9  H    0.000000   0.000000  -0.000000   0.000001  -0.000000  -0.000129
    10  C    0.000429  -0.000000   0.000001   0.005851  -0.000175  -0.052584
    11  H   -0.000013  -0.000000  -0.000000   0.000265  -0.000006  -0.001128
    12  H    0.000027  -0.000000   0.000000  -0.000141   0.000002   0.002244
    13  C   -0.033764  -0.000045  -0.000133  -0.024078   0.004479   0.533213
    14  C   -0.042201   0.006410   0.001574  -0.046943   0.000282  -0.048127
    15  H    0.004169  -0.000040  -0.000017   0.000202   0.000013   0.005833
    16  C    0.451902  -0.061419  -0.013690  -0.044010   0.005635  -0.045251
    17  O   -0.059662  -0.014831   0.031048   0.004400  -0.000042   0.000318
    18  H    0.003946   0.000205  -0.000996  -0.000129   0.000006  -0.000035
    19  C    4.618911   0.301154  -0.037570   0.531540  -0.033516  -0.020936
    20  O    0.301154   8.242293   0.242405  -0.061526  -0.001732   0.003547
    21  H   -0.037570   0.242405   0.333716   0.006303  -0.000169  -0.000229
    22  C    0.531540  -0.061526   0.006303   4.985546   0.353540   0.510511
    23  H   -0.033516  -0.001732  -0.000169   0.353540   0.559025  -0.040113
    24  C   -0.020936   0.003547  -0.000229   0.510511  -0.040113   4.991995
    25  H    0.004392  -0.000054   0.000005  -0.035400  -0.006207   0.357657
    26  H   -0.000009   0.000000  -0.000000  -0.000043  -0.000007   0.008232
              25         26
     1  N    0.000175   0.274500
     2  H    0.000596  -0.007905
     3  H    0.000028  -0.010753
     4  C    0.000012  -0.021994
     5  C    0.000067  -0.003417
     6  O   -0.000004   0.001324
     7  H   -0.000042   0.009658
     8  O   -0.000000   0.000019
     9  H   -0.000035   0.003843
    10  C   -0.007190  -0.003937
    11  H    0.004180  -0.000435
    12  H   -0.000006   0.000111
    13  C   -0.050076   0.011740
    14  C    0.005663   0.000007
    15  H   -0.000178   0.000011
    16  C    0.000429  -0.000156
    17  O    0.000002   0.000000
    18  H   -0.000001  -0.000000
    19  C    0.004392  -0.000009
    20  O   -0.000054   0.000000
    21  H    0.000005  -0.000000
    22  C   -0.035400  -0.000043
    23  H   -0.006207  -0.000007
    24  C    0.357657   0.008232
    25  H    0.586845   0.000745
    26  H    0.000745   0.278372
 Mulliken charges:
               1
     1  N   -0.732114
     2  H    0.488577
     3  H    0.485120
     4  C   -0.166794
     5  C    0.631552
     6  O   -0.551652
     7  H    0.436792
     8  O   -0.448209
     9  H    0.254197
    10  C   -0.375393
    11  H    0.192131
    12  H    0.215535
    13  C    0.090578
    14  C   -0.237532
    15  H    0.167232
    16  C    0.305817
    17  O   -0.671253
    18  H    0.453502
    19  C    0.311227
    20  O   -0.656368
    21  H    0.437752
    22  C   -0.185752
    23  H    0.158983
    24  C   -0.202418
    25  H    0.138398
    26  H    0.460092
 Sum of Mulliken charges =   1.00000
 Mulliken charges with hydrogens summed into heavy atoms:
               1
     1  N    0.701675
     4  C    0.087403
     5  C    0.631552
     6  O   -0.114860
     8  O   -0.448209
    10  C    0.032273
    13  C    0.090578
    14  C   -0.070299
    16  C    0.305817
    17  O   -0.217751
    19  C    0.311227
    20  O   -0.218617
    22  C   -0.026769
    24  C   -0.064020
 Electronic spatial extent (au):  <R**2>=           2952.7496
 Charge=              1.0000 electrons
 Dipole moment (field-independent basis, Debye):
    X=             11.4777    Y=             -8.8889    Z=              0.6224  Tot=             14.5306
 Quadrupole moment (field-independent basis, Debye-Ang):
   XX=            -45.5088   YY=            -64.4584   ZZ=            -72.6055
   XY=            -33.8256   XZ=             10.6312   YZ=             -9.6979
 Traceless Quadrupole moment (field-independent basis, Debye-Ang):
   XX=             15.3488   YY=             -3.6008   ZZ=            -11.7479
   XY=            -33.8256   XZ=             10.6312   YZ=             -9.6979
 Octapole moment (field-independent basis, Debye-Ang**2):
  XXX=            123.5922  YYY=            -35.2663  ZZZ=              9.1586  XYY=             11.2125
  XXY=            -44.5321  XXZ=              9.3707  XZZ=             17.3982  YZZ=             -0.2518
  YYZ=              0.9633  XYZ=             -6.0937
 Hexadecapole moment (field-independent basis, Debye-Ang**3):
 XXXX=          -2072.1943 YYYY=           -711.2282 ZZZZ=           -349.6011 XXXY=           -314.5339
 XXXZ=            103.1633 YYYX=           -147.9459 YYYZ=            -46.6464 ZZZX=             18.7834
 ZZZY=            -29.4593 XXYY=           -434.0017 XXZZ=           -428.8896 YYZZ=           -182.1985
 XXYZ=            -43.5393 YYXZ=             39.5136 ZZXY=            -58.3340
 N-N= 9.256964390817D+02 E-N=-3.482322311378D+03  KE= 6.995673476644D+02
 No NMR shielding tensors so no spin-rotation constants.
 Leave Link  601 at Sun Jul 18 13:49:57 2021, MaxMem=   104857600 cpu:               0.4 elap:               0.1
 (Enter /dades/curu/g16A03_MST/g16/l701.exe)
 ... and contract with generalized density number  0.
 Compute integral first derivatives.
 D1PCM: PCM CHGder 1st derivatives, ID1Alg=3 FixD1E=F DoIter=F DoCFld=F I1PDM=0.
 GePol: Maximum number of non-zero 1st derivatives   =     242
 Leave Link  701 at Sun Jul 18 13:49:59 2021, MaxMem=   104857600 cpu:               9.7 elap:               2.5
 (Enter /dades/curu/g16A03_MST/g16/l702.exe)
 L702 exits ... SP integral derivatives will be done elsewhere.
 Leave Link  702 at Sun Jul 18 13:49:59 2021, MaxMem=   104857600 cpu:               0.0 elap:               0.0
 (Enter /dades/curu/g16A03_MST/g16/l703.exe)
 Integral derivatives from FoFJK, PRISM(SPDF).
 Compute integral first derivatives, UseDBF=F ICtDFT=           0.
 Calling FoFJK, ICntrl=      2127 FMM=F ISym2X=0 I1Cent= 0 IOpClX= 0 NMat=1 NMatS=1 NMatT=0.
 FoFJK:  IHMeth= 1 ICntrl=    2127 DoSepK=F KAlg= 0 I1Cent=           0 FoldK=F
 IRaf=         0 NMat=       1 IRICut=       1 DoRegI=T DoRafI=F ISym2E= 0 IDoP0=0 IntGTp=1.
 FoFCou: FMM=F IPFlag=           0 FMFlag=      100000 FMFlg1=         800
         NFxFlg=           0 DoJE=F BraDBF=F KetDBF=F FulRan=T
         wScrn=  0.000000 ICntrl=      2127 IOpCl=  0 I1Cent=           0 NGrid=           0
         NMat0=    1 NMatS0=      1 NMatT0=    0 NMatD0=    1 NMtDS0=    0 NMtDT0=    0
 Symmetry not used in FoFCou.
 Leave Link  703 at Sun Jul 18 13:50:18 2021, MaxMem=   104857600 cpu:              72.9 elap:              18.3
 (Enter /dades/curu/g16A03_MST/g16/l716.exe)
 Dipole        = 4.51569078D+00-3.49718023D+00 2.44870847D-01
 ***** Axes restored to original set *****
 -------------------------------------------------------------------
 Center     Atomic                   Forces (Hartrees/Bohr)
 Number     Number              X              Y              Z
 -------------------------------------------------------------------
      1        7          -0.036253811   -0.007838728   -0.010196740
      2        1           0.024528340   -0.015217601    0.002682598
      3        1           0.014789646    0.012376115   -0.022908026
      4        6          -0.048117684   -0.019523890   -0.012407778
      5        6          -0.022489712    0.004406094    0.013235166
      6        8          -0.002951428   -0.019304390    0.007175853
      7        1          -0.005972891    0.026351138   -0.008300534
      8        8           0.040157280    0.003757881   -0.007308626
      9        1           0.015147782    0.004767722   -0.006835934
     10        6           0.019567744    0.000958671    0.046000800
     11        1           0.005533392   -0.002414709   -0.005283417
     12        1          -0.007151989    0.011004914   -0.002802314
     13        6          -0.010274071   -0.018940709   -0.022261239
     14        6           0.009139945   -0.009391648   -0.007916303
     15        1          -0.003236461    0.006071413    0.004903799
     16        6          -0.003449048   -0.017342652   -0.029053389
     17        8          -0.032659680    0.004413297    0.013344103
     18        1          -0.006143041    0.010034719    0.002368745
     19        6           0.048870276    0.017485065    0.026599923
     20        8          -0.010234513   -0.007694958   -0.002344527
     21        1          -0.002883638    0.006524322    0.009641470
     22        6           0.009603955   -0.006903239   -0.010012818
     23        1          -0.009095103    0.010315467    0.005884068
     24        6          -0.003449699    0.000346187   -0.012201485
     25        1          -0.001765350   -0.005977626    0.007311817
     26        1           0.018789759    0.011737144    0.020684790
 -------------------------------------------------------------------
 Cartesian Forces:  Max     0.048870276 RMS     0.016757793
 Leave Link  716 at Sun Jul 18 13:50:18 2021, MaxMem=   104857600 cpu:               0.1 elap:               0.0
 (Enter /dades/curu/g16A03_MST/g16/l103.exe)

 GradGradGradGradGradGradGradGradGradGradGradGradGradGradGradGradGradGrad
 Berny optimization.
 FormGI is forming the generalized inverse of G from B-inverse, IUseBI=4.
 Internal  Forces:  Max     0.051790657 RMS     0.012491165
 Search for a local minimum.
 Step number   1 out of a maximum of  138
 All quantities printed in internal units (Hartrees-Bohrs-Radians)
 RMS Force = .12491D-01 SwitMx=.10000D-02 MixMth= 1
 Mixed Optimization -- RFO/linear search
 Second derivative matrix not updated -- first step.
 ITU=  0
     Eigenvalues ---    0.00230   0.00230   0.00678   0.00691   0.00733
     Eigenvalues ---    0.01384   0.02135   0.02152   0.02158   0.02174
     Eigenvalues ---    0.02195   0.02219   0.02258   0.02349   0.02432
     Eigenvalues ---    0.02486   0.02546   0.03523   0.03616   0.04803
     Eigenvalues ---    0.05462   0.06017   0.06018   0.06148   0.09810
     Eigenvalues ---    0.13275   0.15904   0.16000   0.16000   0.16000
     Eigenvalues ---    0.16000   0.16000   0.16000   0.16000   0.16000
     Eigenvalues ---    0.17275   0.18773   0.21793   0.22375   0.23471
     Eigenvalues ---    0.24588   0.24898   0.24924   0.24968   0.24999
     Eigenvalues ---    0.25000   0.26424   0.26540   0.31691   0.34505
     Eigenvalues ---    0.34526   0.34555   0.35070   0.35141   0.35182
     Eigenvalues ---    0.35206   0.42559   0.43249   0.46342   0.46629
     Eigenvalues ---    0.47603   0.47625   0.47717   0.48304   0.51602
     Eigenvalues ---    0.51908   0.51994   0.52455   0.52587   0.52648
     Eigenvalues ---    0.58243   0.94062
 RFO step:  Lambda=-6.42030263D-02 EMin= 2.30000000D-03
 Linear search not attempted -- first point.
 Maximum step size (   0.300) exceeded in Quadratic search.
    -- Step size scaled by   0.688
 Iteration  1 RMS(Cart)=  0.09322967 RMS(Int)=  0.00730925
 Iteration  2 RMS(Cart)=  0.00946032 RMS(Int)=  0.00036658
 Iteration  3 RMS(Cart)=  0.00010732 RMS(Int)=  0.00036218
 Iteration  4 RMS(Cart)=  0.00000003 RMS(Int)=  0.00036218
 ITry= 1 IFail=0 DXMaxC= 5.45D-01 DCOld= 1.00D+10 DXMaxT= 3.00D-01 DXLimC= 3.00D+00 Rises=F
 Variable       Old X    -DE/DX   Delta X   Delta X   Delta X     New X
                                 (Linear)    (Quad)   (Total)
    R1        1.88941   0.02808   0.00000   0.03566   0.03566   1.92508
    R2        1.89064   0.02802   0.00000   0.03566   0.03566   1.92630
    R3        2.78861   0.02039   0.00000   0.03380   0.03380   2.82240
    R4        1.89041   0.02441   0.00000   0.03105   0.03105   1.92146
    R5        2.95719   0.00265   0.00000   0.00556   0.00556   2.96274
    R6        2.06486  -0.00024   0.00000  -0.00040  -0.00040   2.06446
    R7        2.84713   0.02094   0.00000   0.03778   0.03778   2.88491
    R8        2.57987   0.00408   0.00000   0.00481   0.00481   2.58468
    R9        2.31116  -0.03944   0.00000  -0.02699  -0.02699   2.28417
   R10        1.84041  -0.01136   0.00000  -0.01323  -0.01323   1.82718
   R11        2.06451   0.00499   0.00000   0.00837   0.00837   2.07288
   R12        2.06404  -0.00182   0.00000  -0.00305  -0.00305   2.06099
   R13        2.95445  -0.01693   0.00000  -0.03532  -0.03532   2.91914
   R14        2.63448   0.00991   0.00000   0.01264   0.01262   2.64710
   R15        2.64523   0.00303   0.00000   0.00256   0.00255   2.64778
   R16        2.05381  -0.00200   0.00000  -0.00331  -0.00331   2.05050
   R17        2.61066   0.01419   0.00000   0.01884   0.01881   2.62947
   R18        2.52358   0.04407   0.00000   0.04686   0.04686   2.57044
   R19        2.57238   0.03884   0.00000   0.04644   0.04645   2.61883
   R20        1.84166  -0.00370   0.00000  -0.00432  -0.00432   1.83733
   R21        2.57905   0.00594   0.00000   0.00699   0.00699   2.58604
   R22        2.63928  -0.00193   0.00000  -0.00229  -0.00226   2.63701
   R23        1.83984   0.00398   0.00000   0.00463   0.00463   1.84447
   R24        2.05342  -0.00323   0.00000  -0.00533  -0.00533   2.04809
   R25        2.62494   0.00902   0.00000   0.01032   0.01034   2.63528
   R26        2.05447  -0.00255   0.00000  -0.00421  -0.00421   2.05025
    A1        1.91061  -0.00907   0.00000  -0.03306  -0.03297   1.87765
    A2        1.91012   0.00251   0.00000   0.00216   0.00224   1.91236
    A3        1.91160  -0.01272   0.00000  -0.04484  -0.04478   1.86681
    A4        1.91091   0.01031   0.00000   0.03454   0.03355   1.94446
    A5        1.91007  -0.00805   0.00000  -0.01361  -0.01543   1.89464
    A6        1.91049   0.01703   0.00000   0.05484   0.05386   1.96435
    A7        1.99720   0.01424   0.00000   0.04398   0.04421   2.04141
    A8        1.97350  -0.01370   0.00000  -0.06317  -0.06286   1.91063
    A9        1.93539   0.00099   0.00000   0.00709   0.00693   1.94232
   A10        1.78657  -0.00068   0.00000  -0.00325  -0.00258   1.78400
   A11        1.94303  -0.01066   0.00000  -0.02028  -0.02077   1.92226
   A12        1.81533   0.00867   0.00000   0.03183   0.03182   1.84715
   A13        1.96546   0.05179   0.00000   0.11554   0.11415   2.07962
   A14        2.16865  -0.03128   0.00000  -0.06644  -0.06782   2.10082
   A15        2.14448  -0.01954   0.00000  -0.04037  -0.04176   2.10273
   A16        1.75208   0.04764   0.00000   0.14609   0.14609   1.89818
   A17        1.89280  -0.00392   0.00000  -0.00362  -0.00415   1.88866
   A18        1.97600  -0.00946   0.00000  -0.03966  -0.03983   1.93617
   A19        1.99672   0.01068   0.00000   0.02288   0.02250   2.01922
   A20        1.76946   0.00580   0.00000   0.02465   0.02481   1.79427
   A21        1.82365   0.00266   0.00000   0.02570   0.02551   1.84917
   A22        1.98097  -0.00529   0.00000  -0.02227  -0.02241   1.95855
   A23        2.03665   0.01240   0.00000   0.02878   0.02879   2.06544
   A24        2.15012  -0.00857   0.00000  -0.01716  -0.01715   2.13297
   A25        2.09531  -0.00382   0.00000  -0.01153  -0.01156   2.08375
   A26        2.04177   0.00634   0.00000   0.01996   0.01998   2.06175
   A27        2.08317   0.00381   0.00000   0.01062   0.01058   2.09375
   A28        2.15824  -0.01015   0.00000  -0.03059  -0.03057   2.12766
   A29        2.12578   0.01207   0.00000   0.02441   0.02441   2.15018
   A30        2.10513  -0.00467   0.00000  -0.00625  -0.00626   2.09887
   A31        2.05225  -0.00740   0.00000  -0.01821  -0.01821   2.03404
   A32        1.83695   0.02079   0.00000   0.06376   0.06376   1.90071
   A33        2.09541  -0.00055   0.00000  -0.00185  -0.00197   2.09344
   A34        2.11460  -0.00693   0.00000  -0.01242  -0.01246   2.10214
   A35        2.06946   0.00773   0.00000   0.01626   0.01617   2.08563
   A36        1.77606   0.02063   0.00000   0.06326   0.06326   1.83932
   A37        2.20361  -0.01695   0.00000  -0.04915  -0.04920   2.15441
   A38        2.07469   0.00515   0.00000   0.01005   0.01008   2.08477
   A39        2.00486   0.01179   0.00000   0.03899   0.03892   2.04378
   A40        2.09022   0.00664   0.00000   0.01097   0.01090   2.10112
   A41        2.08290  -0.00043   0.00000   0.00403   0.00394   2.08685
   A42        2.10474  -0.00588   0.00000  -0.01261  -0.01272   2.09202
    D1       -3.10418   0.00098   0.00000   0.02534   0.02573  -3.07846
    D2       -1.06761   0.00023   0.00000   0.00647   0.00628  -1.06132
[...]
 Alpha  occ. eigenvalues --   -0.65272  -0.63700  -0.62432  -0.61605  -0.60124
 Alpha  occ. eigenvalues --   -0.46592  -0.43351
 Alpha virt. eigenvalues --   -0.12112  -0.08501  -0.07503  -0.06268  -0.04556
 Alpha virt. eigenvalues --   -0.04198  -0.03692  -0.03631  -0.03193  -0.02240
 Alpha virt. eigenvalues --   -0.01460  -0.01076  -0.00622  -0.00415  -0.00216
 Alpha virt. eigenvalues --   -0.00013   0.00784   0.01468   0.02089   0.02550
 Alpha virt. eigenvalues --    0.02638   0.03017   0.03665   0.03712   0.04274
 Alpha virt. eigenvalues --    0.04727   0.05311   0.05541   0.05608   0.06392
 Alpha virt. eigenvalues --    0.06597   0.06916   0.07560   0.07701   0.07964
 Alpha virt. eigenvalues --    0.08630   0.08705   0.09066   0.09516   0.10222
 Alpha virt. eigenvalues --    0.10795   0.11273   0.11957   0.12165   0.13003
 Alpha virt. eigenvalues --    0.13159   0.13645   0.14016   0.14934   0.15066
 Alpha virt. eigenvalues --    0.15684   0.16657   0.16943   0.17488   0.17761
 Alpha virt. eigenvalues --    0.18376   0.18643   0.19822   0.20213   0.20502
 Alpha virt. eigenvalues --    0.20755   0.20951   0.21813   0.22051   0.22683
 Alpha virt. eigenvalues --    0.23140   0.23444   0.24024   0.24443   0.24777
 Alpha virt. eigenvalues --    0.24840   0.25339   0.25881   0.26317   0.27165
 Alpha virt. eigenvalues --    0.27658   0.27763   0.28442   0.28537   0.28988
 Alpha virt. eigenvalues --    0.29459   0.30293   0.30874   0.31425   0.31623
 Alpha virt. eigenvalues --    0.32418   0.32713   0.33411   0.34333   0.34481
 Alpha virt. eigenvalues --    0.35103   0.35764   0.36282   0.36665   0.36809
 Alpha virt. eigenvalues --    0.37664   0.38688   0.38843   0.39535   0.40332
 Alpha virt. eigenvalues --    0.41053   0.41113   0.41636   0.42495   0.43353
 Alpha virt. eigenvalues --    0.43650   0.43928   0.44155   0.44594   0.45299
 Alpha virt. eigenvalues --    0.46242   0.47185   0.47775   0.48734   0.49322
 Alpha virt. eigenvalues --    0.50101   0.50582   0.51316   0.51723   0.52310
 Alpha virt. eigenvalues --    0.52949   0.53103   0.53849   0.54534   0.55371
 Alpha virt. eigenvalues --    0.55922   0.56426   0.57021   0.57412   0.57697
 Alpha virt. eigenvalues --    0.58393   0.58828   0.59631   0.60002   0.60517
 Alpha virt. eigenvalues --    0.60991   0.62131   0.62545   0.63196   0.63711
 Alpha virt. eigenvalues --    0.64174   0.64544   0.65494   0.66036   0.66637
 Alpha virt. eigenvalues --    0.67891   0.68311   0.69149   0.69834   0.70030
 Alpha virt. eigenvalues --    0.72096   0.72719   0.73303   0.74121   0.74698
 Alpha virt. eigenvalues --    0.75128   0.75716   0.76574   0.77309   0.77476
 Alpha virt. eigenvalues --    0.78437   0.80377   0.80669   0.80819   0.82606
 Alpha virt. eigenvalues --    0.83143   0.83712   0.84533   0.84969   0.86600
 Alpha virt. eigenvalues --    0.87102   0.87997   0.88393   0.89509   0.90300
 Alpha virt. eigenvalues --    0.90534   0.91615   0.91916   0.92771   0.93366
 Alpha virt. eigenvalues --    0.94360   0.95197   0.96298   0.97624   0.97882
 Alpha virt. eigenvalues --    0.99148   0.99878   1.01866   1.02368   1.03090
 Alpha virt. eigenvalues --    1.04662   1.05416   1.06414   1.07134   1.07907
 Alpha virt. eigenvalues --    1.09253   1.10589   1.11950   1.12734   1.14497
 Alpha virt. eigenvalues --    1.15361   1.15900   1.16426   1.18020   1.19380
 Alpha virt. eigenvalues --    1.20355   1.22434   1.23483   1.24183   1.25084
 Alpha virt. eigenvalues --    1.27393   1.28765   1.29276   1.31460   1.33970
 Alpha virt. eigenvalues --    1.34161   1.35393   1.36542   1.37728   1.39288
 Alpha virt. eigenvalues --    1.41134   1.41441   1.43068   1.44431   1.45358
 Alpha virt. eigenvalues --    1.46059   1.47416   1.49195   1.50172   1.51370
 Alpha virt. eigenvalues --    1.52029   1.52131   1.53799   1.55500   1.55710
 Alpha virt. eigenvalues --    1.56962   1.59385   1.60039   1.60337   1.61115
 Alpha virt. eigenvalues --    1.62262   1.62880   1.63769   1.64317   1.65735
 Alpha virt. eigenvalues --    1.66264   1.68063   1.70692   1.71855   1.72514
 Alpha virt. eigenvalues --    1.73090   1.73370   1.75066   1.75689   1.76766
 Alpha virt. eigenvalues --    1.77738   1.78854   1.80082   1.81784   1.81788
 Alpha virt. eigenvalues --    1.82476   1.85252   1.86479   1.87303   1.88562
 Alpha virt. eigenvalues --    1.89413   1.90688   1.92472   1.93115   1.94513
 Alpha virt. eigenvalues --    1.95472   1.97184   1.97632   1.99319   2.00350
 Alpha virt. eigenvalues --    2.03089   2.03955   2.05109   2.05869   2.06497
 Alpha virt. eigenvalues --    2.06868   2.07556   2.08945   2.09403   2.10986
 Alpha virt. eigenvalues --    2.12722   2.13024   2.14016   2.14589   2.15638
 Alpha virt. eigenvalues --    2.16947   2.17493   2.18848   2.19450   2.20507
 Alpha virt. eigenvalues --    2.21985   2.24066   2.24830   2.25559   2.27536
 Alpha virt. eigenvalues --    2.28129   2.29699   2.31469   2.33633   2.33890
 Alpha virt. eigenvalues --    2.34166   2.34944   2.36151   2.37979   2.40934
 Alpha virt. eigenvalues --    2.42270   2.43299   2.43938   2.45884   2.46913
 Alpha virt. eigenvalues --    2.49907   2.50964   2.51563   2.52968   2.54294
 Alpha virt. eigenvalues --    2.56323   2.57563   2.59500   2.61727   2.64268
 Alpha virt. eigenvalues --    2.66181   2.71561   2.72976   2.74128   2.76117
 Alpha virt. eigenvalues --    2.81020   2.82613   2.83372   2.85841   2.88260
 Alpha virt. eigenvalues --    2.88939   2.92263   2.95426   2.96784   3.00188
 Alpha virt. eigenvalues --    3.03393   3.06978   3.13000   3.13063   3.17181
 Alpha virt. eigenvalues --    3.19211   3.21136   3.26920   3.32637   3.37789
 Alpha virt. eigenvalues --    3.42243   3.43968   3.50518   3.51487   3.59151
 Alpha virt. eigenvalues --    3.61095   3.61817   3.63272   3.65262   3.66210
 Alpha virt. eigenvalues --    3.67621   3.67883   3.69918   3.70718   3.71392
 Alpha virt. eigenvalues --    3.76340   3.78423   3.80401   3.83185   3.86779
 Alpha virt. eigenvalues --    3.93067   3.98351   4.01864   4.09083   4.26045
 Alpha virt. eigenvalues --    4.28497   4.32634   4.82105
          Condensed to atoms (all electrons):
               1          2          3          4          5          6
     1  N    7.388226   0.379219   0.382826  -1.243891   0.224374   0.003998
     2  H    0.379219   0.570156  -0.078867  -0.050951   0.006472  -0.002371
     3  H    0.382826  -0.078867   0.602314  -0.029585  -0.037709   0.020641
     4  C   -1.243891  -0.050951  -0.029585   8.331772  -0.528282  -0.006652
     5  C    0.224374   0.006472  -0.037709  -0.528282   5.007276  -0.205820
     6  O    0.003998  -0.002371   0.020641  -0.006652  -0.205820   8.705746
     7  H   -0.017725   0.001042  -0.007024   0.034876  -0.028034   0.228817
     8  O    0.004770  -0.000576   0.000351  -0.114522   0.270400  -0.098086
     9  H   -0.020637  -0.034387  -0.015010  -0.054372  -0.046181   0.000984
    10  C    0.263220  -0.008984   0.029480  -0.756894   0.062601   0.062728
    11  H    0.051551   0.002367  -0.002097  -0.032850   0.050045   0.001802
    12  H    0.024629   0.007022  -0.000256  -0.037846  -0.024279   0.001331
    13  C   -0.132700  -0.028359   0.011138   0.268304   0.040048   0.079844
    14  C   -0.232844   0.025894  -0.001295   0.174338  -0.158752  -0.095638
    15  H    0.035790   0.001032  -0.000591  -0.133260   0.069444  -0.004182
    16  C   -0.021904  -0.001692   0.001368   0.095835  -0.011642   0.027431
    17  O   -0.001028  -0.000039  -0.000049   0.008034  -0.006156  -0.001380
    18  H   -0.000588  -0.000008   0.000020   0.001493   0.000286   0.000204
    19  C    0.008398   0.001258  -0.000421  -0.048912  -0.006399  -0.013375
    20  O    0.000461  -0.000005   0.000055  -0.000049   0.000360   0.000058
    21  H    0.000172  -0.000025   0.000004  -0.000439   0.000078  -0.000073
    22  C    0.049121  -0.000464  -0.003815   0.030144   0.007010   0.011027
    23  H    0.000893   0.000040   0.000220  -0.003682   0.000484   0.000366
    24  C    0.118037   0.023551  -0.019117  -0.465202   0.011945  -0.020292
    25  H   -0.000812   0.003937  -0.000538   0.002486   0.005961  -0.001608
    26  H    0.382809  -0.030457  -0.074432  -0.031390   0.013494  -0.011401
               7          8          9         10         11         12
     1  N   -0.017725   0.004770  -0.020637   0.263220   0.051551   0.024629
     2  H    0.001042  -0.000576  -0.034387  -0.008984   0.002367   0.007022
     3  H   -0.007024   0.000351  -0.015010   0.029480  -0.002097  -0.000256
     4  C    0.034876  -0.114522  -0.054372  -0.756894  -0.032850  -0.037846
     5  C   -0.028034   0.270400  -0.046181   0.062601   0.050045  -0.024279
     6  O    0.228817  -0.098086   0.000984   0.062728   0.001802   0.001331
     7  H    0.561798   0.019825  -0.000270  -0.005671   0.000169   0.000122
     8  O    0.019825   8.596014   0.031447   0.060789  -0.000444   0.022708
     9  H   -0.000270   0.031447   1.179342   0.128508  -0.015529  -0.044114
    10  C   -0.005671   0.060789   0.128508   7.522379  -0.157967   0.262478
    11  H    0.000169  -0.000444  -0.015529  -0.157967   1.507773  -0.246288
    12  H    0.000122   0.022708  -0.044114   0.262478  -0.246288   1.143580
    13  C   -0.008586   0.007254  -0.038033  -0.349469  -0.089830  -0.143396
    14  C    0.013841  -0.038950  -0.022243  -0.685490  -0.348234   0.149981
    15  H   -0.001116   0.016766  -0.003995   0.062162   0.016753  -0.021704
    16  C    0.007918  -0.018905   0.002885   0.271746  -0.103950   0.083495
    17  O    0.000960  -0.000085   0.000342   0.013536   0.000593  -0.000562
    18  H   -0.000113   0.000104   0.000138   0.001419  -0.000402   0.000193
    19  C   -0.000905  -0.002155  -0.002690  -0.011035   0.027505   0.028557
    20  O   -0.000099   0.000017  -0.000017   0.008040   0.000701  -0.000317
    21  H    0.000136   0.000018  -0.000016  -0.001807  -0.000130   0.000130
    22  C   -0.000710   0.002178   0.000559   0.001437   0.182155  -0.073846
    23  H   -0.000199   0.000016  -0.000301   0.013431   0.000234  -0.001439
    24  C   -0.003411   0.023290   0.012758  -1.212633   0.433000  -0.106096
    25  H    0.001396  -0.000246  -0.000073   0.133321  -0.060255   0.014553
    26  H    0.006713  -0.000147   0.007970  -0.028890  -0.007338   0.002137
              13         14         15         16         17         18
     1  N   -0.132700  -0.232844   0.035790  -0.021904  -0.001028  -0.000588
     2  H   -0.028359   0.025894   0.001032  -0.001692  -0.000039  -0.000008
     3  H    0.011138  -0.001295  -0.000591   0.001368  -0.000049   0.000020
     4  C    0.268304   0.174338  -0.133260   0.095835   0.008034   0.001493
     5  C    0.040048  -0.158752   0.069444  -0.011642  -0.006156   0.000286
     6  O    0.079844  -0.095638  -0.004182   0.027431  -0.001380   0.000204
     7  H   -0.008586   0.013841  -0.001116   0.007918   0.000960  -0.000113
     8  O    0.007254  -0.038950   0.016766  -0.018905  -0.000085   0.000104
     9  H   -0.038033  -0.022243  -0.003995   0.002885   0.000342   0.000138
    10  C   -0.349469  -0.685490   0.062162   0.271746   0.013536   0.001419
    11  H   -0.089830  -0.348234   0.016753  -0.103950   0.000593  -0.000402
    12  H   -0.143396   0.149981  -0.021704   0.083495  -0.000562   0.000193
    13  C   15.797432  -4.921781   0.832269   1.386474  -0.081901   0.031647
    14  C   -4.921781  17.550382  -1.357781  -3.745316   0.375005  -0.045695
    15  H    0.832269  -1.357781   2.268288   0.283951  -0.094061   0.014467
    16  C    1.386474  -3.745316   0.283951  11.907715  -0.898755  -0.006170
    17  O   -0.081901   0.375005  -0.094061  -0.898755   9.113872   0.286935
    18  H    0.031647  -0.045695   0.014467  -0.006170   0.286935   0.513403
    19  C   -4.705000   1.881304  -0.293993  -2.028288   0.298833  -0.030588
    20  O    0.169849   0.007613   0.008870   0.302581  -0.050343   0.000264
    21  H   -0.004707   0.023523  -0.002000   0.064284   0.008630  -0.000828
    22  C    3.689772  -4.402060   0.046275   2.903832  -0.163909   0.052977
    23  H   -0.565420   0.225560   0.009834  -0.125287   0.002266  -0.002613
    24  C   -7.138708   0.835832   0.023687  -4.891925   0.146695  -0.050256
    25  H    1.313377   0.018717  -0.023319   0.195846   0.000477   0.000660
    26  H    0.024292  -0.013486   0.003477   0.002091  -0.000182   0.000118
              19         20         21         22         23         24
     1  N    0.008398   0.000461   0.000172   0.049121   0.000893   0.118037
     2  H    0.001258  -0.000005  -0.000025  -0.000464   0.000040   0.023551
     3  H   -0.000421   0.000055   0.000004  -0.003815   0.000220  -0.019117
     4  C   -0.048912  -0.000049  -0.000439   0.030144  -0.003682  -0.465202
     5  C   -0.006399   0.000360   0.000078   0.007010   0.000484   0.011945
     6  O   -0.013375   0.000058  -0.000073   0.011027   0.000366  -0.020292
     7  H   -0.000905  -0.000099   0.000136  -0.000710  -0.000199  -0.003411
     8  O   -0.002155   0.000017   0.000018   0.002178   0.000016   0.023290
     9  H   -0.002690  -0.000017  -0.000016   0.000559  -0.000301   0.012758
    10  C   -0.011035   0.008040  -0.001807   0.001437   0.013431  -1.212633
    11  H    0.027505   0.000701  -0.000130   0.182155   0.000234   0.433000
    12  H    0.028557  -0.000317   0.000130  -0.073846  -0.001439  -0.106096
    13  C   -4.705000   0.169849  -0.004707   3.689772  -0.565420  -7.138708
    14  C    1.881304   0.007613   0.023523  -4.402060   0.225560   0.835832
    15  H   -0.293993   0.008870  -0.002000   0.046275   0.009834   0.023687
    16  C   -2.028288   0.302581   0.064284   2.903832  -0.125287  -4.891925
    17  O    0.298833  -0.050343   0.008630  -0.163909   0.002266   0.146695
    18  H   -0.030588   0.000264  -0.000828   0.052977  -0.002613  -0.050256
    19  C   11.080385  -0.673928  -0.098389  -5.161921   1.332778   4.401969
    20  O   -0.673928   8.920812   0.342333   0.125440  -0.068103  -0.173660
    21  H   -0.098389   0.342333   0.528904  -0.103276  -0.002219   0.031473
    22  C   -5.161921   0.125440  -0.103276  15.628600  -1.680988  -6.470406
    23  H    1.332778  -0.068103  -0.002219  -1.680988   1.855750   0.635669
    24  C    4.401969  -0.173660   0.031473  -6.470406   0.635669  21.115055
    25  H   -0.562375  -0.001572  -0.001191   0.646495  -0.121818  -2.149088
    26  H   -0.003324   0.000197  -0.000032   0.008185  -0.001440   0.026833
              25         26
     1  N   -0.000812   0.382809
     2  H    0.003937  -0.030457
     3  H   -0.000538  -0.074432
     4  C    0.002486  -0.031390
     5  C    0.005961   0.013494
     6  O   -0.001608  -0.011401
     7  H    0.001396   0.006713
     8  O   -0.000246  -0.000147
     9  H   -0.000073   0.007970
    10  C    0.133321  -0.028890
    11  H   -0.060255  -0.007338
    12  H    0.014553   0.002137
    13  C    1.313377   0.024292
    14  C    0.018717  -0.013486
    15  H   -0.023319   0.003477
    16  C    0.195846   0.002091
    17  O    0.000477  -0.000182
    18  H    0.000660   0.000118
    19  C   -0.562375  -0.003324
    20  O   -0.001572   0.000197
    21  H   -0.001191  -0.000032
    22  C    0.646495   0.008185
    23  H   -0.121818  -0.001440
    24  C   -2.149088   0.026833
    25  H    2.335738  -0.005896
    26  H   -0.005896   0.476399
 Mulliken charges:
               1
     1  N   -0.646364
     2  H    0.215196
     3  H    0.222389
     4  C    0.591499
     5  C    1.282976
     6  O   -0.684099
     7  H    0.196252
     8  O   -0.781831
     9  H   -0.067062
    10  C    0.321567
    11  H   -0.209333
    12  H   -0.040774
    13  C    0.556190
    14  C    0.787577
    15  H   -0.757063
    16  C    0.316383
    17  O   -0.957726
    18  H    0.232934
    19  C    0.582712
    20  O   -0.919555
    21  H    0.215448
    22  C    0.676189
    23  H   -0.504031
    24  C    0.860998
    25  H   -0.744174
    26  H    0.253701
 Sum of Mulliken charges =   1.00000
 Mulliken charges with hydrogens summed into heavy atoms:
               1
     1  N    0.044922
     4  C    0.524437
     5  C    1.282976
     6  O   -0.487847
     8  O   -0.781831
    10  C    0.071460
    13  C    0.556190
    14  C    0.030515
    16  C    0.316383
    17  O   -0.724791
    19  C    0.582712
    20  O   -0.704108
    22  C    0.172158
    24  C    0.116825
 Electronic spatial extent (au):  <R**2>=           3042.8707
 Charge=              1.0000 electrons
 Dipole moment (field-independent basis, Debye):
    X=              8.4165    Y=             -7.1515    Z=              3.6070  Tot=             11.6186
 Quadrupole moment (field-independent basis, Debye-Ang):
   XX=            -57.4584   YY=            -61.8813   ZZ=            -72.2642
   XY=            -29.4389   XZ=             12.0295   YZ=             -6.9816
 Traceless Quadrupole moment (field-independent basis, Debye-Ang):
   XX=              6.4096   YY=              1.9867   ZZ=             -8.3963
   XY=            -29.4389   XZ=             12.0295   YZ=             -6.9816
 Octapole moment (field-independent basis, Debye-Ang**2):
  XXX=             75.6584  YYY=            -16.6223  ZZZ=             25.8988  XYY=              1.0572
  XXY=            -50.6942  XXZ=             35.0146  XZZ=             29.4993  YZZ=             -5.5674
  YYZ=              7.8043  XYZ=            -10.2790
 Hexadecapole moment (field-independent basis, Debye-Ang**3):
 XXXX=          -2378.7563 YYYY=           -679.8868 ZZZZ=           -303.8878 XXXY=           -294.3547
 XXXZ=            108.0382 YYYX=           -141.4473 YYYZ=            -46.1659 ZZZX=             36.6085
 ZZZY=            -20.5457 XXYY=           -490.1050 XXZZ=           -451.7749 YYZZ=           -188.6768
 XXYZ=            -23.2525 YYXZ=             32.9864 ZZXY=            -48.2725
 N-N= 9.182180415601D+02 E-N=-3.466602982876D+03  KE= 7.005602232331D+02
 Leave Link  601 at Sun Jul 18 16:17:25 2021, MaxMem=   262144000 cpu:               0.4 elap:               0.4
 (Enter /dades/curu/g16A03_MST/g16/l9999.exe)
 1\1\GINC-PIRINEUSGPU1\SP\RMP2-FC\Aug-CC-pVDZ\C9H12N1O4(1+)\UBATOR02\18
 -Jul-2021\0\\#p mp2/aug-cc-pVDZ scf=tight maxdisk=180GB geom=allcheck\
 \SET_328_BBB292_conf1.geo_090_300_120 geometry\\1,1\N,0,1.7483923384,0
 .0305689068,-2.1856308875\H,0,2.5641203841,-0.5990553424,-2.116774889\
 H,0,1.8881459041,0.5756655151,-3.0497658087\C,0,0.4672801947,-0.762676
 2554,-2.2000216001\C,0,-0.7870914953,0.0566906347,-2.5340637325\O,0,-0
 .8177758704,1.3805104624,-2.3166362756\H,0,-0.0153105951,1.7330809605,
 -1.899053424\O,0,-1.7608777037,-0.5190434053,-2.9541060464\H,0,0.57601
 65284,-1.472807945,-3.0179828586\C,0,0.2746727843,-1.5467324174,-0.880
 0868994\H,0,1.1171864786,-2.2358467785,-0.7702890882\H,0,-0.6144696657
 ,-2.1624302186,-1.0376481453\C,0,0.1373902602,-0.6987142436,0.36386110
 88\C,0,-1.092488908,-0.1062711416,0.7034780751\H,0,-1.9689606431,-0.26
 40870151,0.0822655708\C,0,-1.2031605389,0.6639455551,1.8531867155\O,0,
 -2.3433088301,1.2790882214,2.2873580243\H,0,-3.0881946656,1.0885153022
 ,1.6955285794\C,0,-0.0878176605,0.8614199752,2.6925765497\O,0,-0.21326
 97674,1.6165444319,3.8152866593\H,0,-1.1401716845,1.9105967141,3.86505
 85233\C,0,1.1258629348,0.2699092464,2.3663279705\H,0,1.9730761495,0.41
 28552934,3.0255297941\C,0,1.2331139464,-0.508443461,1.210537492\H,0,2.
 1778306138,-0.988795863,0.9807788549\H,0,1.836809511,0.6835128677,-1.3
 907142625\\Version=ES64L-G16RevA.03\State=1-A\HF=-701.5677364\MP2=-703
 .7717553\RMSD=4.507e-09\PG=C01 [X(C9H12N1O4)]\\@


 Make no judgements where you have no compassion.
                               -- Anne McCaffrey
 Job cpu time:       0 days  1 hours  6 minutes 44.5 seconds.
 Elapsed time:       0 days  0 hours 25 minutes 38.4 seconds.
 File lengths (MBytes):  RWF=  27592 Int=      0 D2E=      0 Chk=     16 Scr=      1
 Normal termination of Gaussian 16 at Sun Jul 18 16:17:26 2021.
