 Entering Gaussian System, Link 0=g16
 Input=SET_328_BBB292_conf1.geo_075_060_255_OCTANOL.dat
 Output=SET_328_BBB292_conf1.geo_075_060_255_OCTANOL.log
 Initial command:
 /dades/curu/g16A03_MST/g16/l1.exe "/tmp/ubator02/1839585/Gau-151174.inp" -scrdir="/tmp/ubator02/1839585/"
 Entering Link 1 = /dades/curu/g16A03_MST/g16/l1.exe PID=    151175.
  
 Copyright (c) 1988,1990,1992,1993,1995,1998,2003,2009,2016,
            Gaussian, Inc.  All Rights Reserved.
  
 This is part of the Gaussian(R) 16 program.  It is based on
 the Gaussian(R) 09 system (copyright 2009, Gaussian, Inc.),
 the Gaussian(R) 03 system (copyright 2003, Gaussian, Inc.),
 the Gaussian(R) 98 system (copyright 1998, Gaussian, Inc.),
 the Gaussian(R) 94 system (copyright 1995, Gaussian, Inc.),
 the Gaussian 92(TM) system (copyright 1992, Gaussian, Inc.),
 the Gaussian 90(TM) system (copyright 1990, Gaussian, Inc.),
 the Gaussian 88(TM) system (copyright 1988, Gaussian, Inc.),
 the Gaussian 86(TM) system (copyright 1986, Carnegie Mellon
 University), and the Gaussian 82(TM) system (copyright 1983,
 Carnegie Mellon University). Gaussian is a federally registered
 trademark of Gaussian, Inc.
  
 This software contains proprietary and confidential information,
 including trade secrets, belonging to Gaussian, Inc.
  
 This software is provided under written license and may be
 used, copied, transmitted, or stored only in accord with that
 written license.
  
 The following legend is applicable only to US Government
 contracts under FAR:
  
                    RESTRICTED RIGHTS LEGEND
  
 Use, reproduction and disclosure by the US Government is
 subject to restrictions as set forth in subparagraphs (a)
 and (c) of the Commercial Computer Software - Restricted
 Rights clause in FAR 52.227-19.
  
 Gaussian, Inc.
 340 Quinnipiac St., Bldg. 40, Wallingford CT 06492
  
  
 ---------------------------------------------------------------
 Warning -- This program may not be used in any manner that
 competes with the business of Gaussian, Inc. or will provide
 assistance to any competitor of Gaussian, Inc.  The licensee
 of this program is prohibited from giving any competitor of
 Gaussian, Inc. access to this program.  By using this program,
 the user acknowledges that Gaussian, Inc. is engaged in the
 business of creating and licensing software in the field of
 computational chemistry and represents and warrants to the
 licensee that it is not a competitor of Gaussian, Inc. and that
 it will not use this program in any manner prohibited above.
 ---------------------------------------------------------------
  

 Cite this work as:
 Gaussian 16, Revision A.03,
 M. J. Frisch, G. W. Trucks, H. B. Schlegel, G. E. Scuseria, 
 M. A. Robb, J. R. Cheeseman, G. Scalmani, V. Barone, 
 G. A. Petersson, H. Nakatsuji, X. Li, M. Caricato, A. V. Marenich, 
 J. Bloino, B. G. Janesko, R. Gomperts, B. Mennucci, H. P. Hratchian, 
 J. V. Ortiz, A. F. Izmaylov, J. L. Sonnenberg, D. Williams-Young, 
 F. Ding, F. Lipparini, F. Egidi, J. Goings, B. Peng, A. Petrone, 
 T. Henderson, D. Ranasinghe, V. G. Zakrzewski, J. Gao, N. Rega, 
 G. Zheng, W. Liang, M. Hada, M. Ehara, K. Toyota, R. Fukuda, 
 J. Hasegawa, M. Ishida, T. Nakajima, Y. Honda, O. Kitao, H. Nakai, 
 T. Vreven, K. Throssell, J. A. Montgomery, Jr., J. E. Peralta, 
 F. Ogliaro, M. J. Bearpark, J. J. Heyd, E. N. Brothers, K. N. Kudin, 
 V. N. Staroverov, T. A. Keith, R. Kobayashi, J. Normand, 
 K. Raghavachari, A. P. Rendell, J. C. Burant, S. S. Iyengar, 
 J. Tomasi, M. Cossi, J. M. Millam, M. Klene, C. Adamo, R. Cammi, 
 J. W. Ochterski, R. L. Martin, K. Morokuma, O. Farkas, 
 J. B. Foresman, and D. J. Fox, Gaussian, Inc., Wallingford CT, 2016.
 
 ******************************************
 Gaussian 16:  ES64L-G16RevA.03 25-Dec-2016
                18-Jul-2021 
 ******************************************
 %mem=800MB
 %nproc=4
 Will use up to    4 processors via shared memory.
 %chk=SET_328_BBB292_conf1.geo_075_060_255.chk
 ---------------------------------------------------------------
 #p b3lyp/6-31G(d) opt freq scrf=(iefpcm,read,solvent=n-octanol)
 ---------------------------------------------------------------
 1/18=20,19=15,26=3,38=1,40=2/1,3;
 2/9=110,12=2,17=6,18=5,40=1/2;
 3/5=1,6=6,7=1,11=2,25=1,30=1,70=2203,71=1,72=25,74=-5/1,2,3;
 4//1;
 5/5=2,38=5,53=25/2;
 6/7=2,8=2,9=2,10=2,28=1/1;
 7//1,2,3,16;
 1/18=20,19=15,26=3/3(2);
 2/9=110/2;
 99//99;
 2/9=110/2;
 3/5=1,6=6,7=1,11=2,25=1,30=1,70=2205,71=1,72=25,74=-5/1,2,3;
 4/5=5,16=3,69=1/1;
 5/5=2,38=5,53=25/2;
 7//1,2,3,16;
 1/18=20,19=15,26=3/3(-5);
 2/9=110/2;
 6/7=2,8=2,9=2,10=2,19=2,28=1/1;
 99/9=1/99;
 Leave Link    1 at Sun Jul 18 13:47:45 2021, MaxMem=   104857600 cpu:               0.1 elap:               0.0
 (Enter /dades/curu/g16A03_MST/g16/l101.exe)
 ---------------------------------------------
 SET_328_BBB292_conf1.geo_075_060_255 geometry
 ---------------------------------------------
 Symbolic Z-matrix:
 Charge =  1 Multiplicity = 1
 N                     0.012     3.601    -0.27 
 H                     0.851     3.672    -0.809 
 H                     0.192     3.898     0.668 
 C                    -0.454     2.19     -0.262 
 C                    -1.787     1.866     0.442 
 O                    -2.564     1.07     -0.177 
 H                    -3.266     0.999     0.494 
 O                    -2.132     2.395     1.478 
 H                    -0.629     1.78     -1.261 
 C                     0.756     1.435     0.392 
 H                     0.853     1.775     1.425 
 H                     1.699     1.716    -0.082 
 C                     0.659    -0.056     0.373 
 C                     0.9      -0.63     -0.888 
 H                     1.098     0.046    -1.717 
 C                     0.718    -1.997    -1.043 
 O                     0.996    -2.428    -2.334 
 H                     0.282    -3.018    -2.634 
 C                     0.513    -2.908     0.023 
 O                     0.227    -4.215    -0.14 
 H                    -0.119    -4.398    -1.031 
 C                     0.364    -2.331     1.303 
 H                     0.237    -2.968     2.174 
 C                     0.365    -0.938     1.441 
 H                     0.174    -0.544     2.435 
 H                    -0.694     4.183    -0.674 
 
 ITRead=  0  0  0  0  0  0  0  0  0  0  0  0  0  0  0  0  0  0  0  0
 ITRead=  0  0  0  0  0  0
 MicOpt= -1 -1 -1 -1 -1 -1 -1 -1 -1 -1 -1 -1 -1 -1 -1 -1 -1 -1 -1 -1
 MicOpt= -1 -1 -1 -1 -1 -1
 NAtoms=     26 NQM=       26 NQMF=       0 NMMI=      0 NMMIF=      0
                NMic=       0 NMicF=      0.
                    Isotopes and Nuclear Properties:
 (Nuclear quadrupole moments (NQMom) in fm**2, nuclear magnetic moments (NMagM)
  in nuclear magnetons)

  Atom         1           2           3           4           5           6           7           8           9          10
 IAtWgt=          14           1           1          12          12          16           1          16           1          12
 AtmWgt=  14.0030740   1.0078250   1.0078250  12.0000000  12.0000000  15.9949146   1.0078250  15.9949146   1.0078250  12.0000000
 NucSpn=           2           1           1           0           0           0           1           0           1           0
 AtZEff=  -0.0000000  -0.0000000  -0.0000000  -0.0000000  -0.0000000  -0.0000000  -0.0000000  -0.0000000  -0.0000000  -0.0000000
 NQMom=    2.0440000   0.0000000   0.0000000   0.0000000   0.0000000   0.0000000   0.0000000   0.0000000   0.0000000   0.0000000
 NMagM=    0.4037610   2.7928460   2.7928460   0.0000000   0.0000000   0.0000000   2.7928460   0.0000000   2.7928460   0.0000000
 AtZNuc=   7.0000000   1.0000000   1.0000000   6.0000000   6.0000000   8.0000000   1.0000000   8.0000000   1.0000000   6.0000000

  Atom        11          12          13          14          15          16          17          18          19          20
 IAtWgt=           1           1          12          12           1          12          16           1          12          16
 AtmWgt=   1.0078250   1.0078250  12.0000000  12.0000000   1.0078250  12.0000000  15.9949146   1.0078250  12.0000000  15.9949146
 NucSpn=           1           1           0           0           1           0           0           1           0           0
 AtZEff=  -0.0000000  -0.0000000  -0.0000000  -0.0000000  -0.0000000  -0.0000000  -0.0000000  -0.0000000  -0.0000000  -0.0000000
 NQMom=    0.0000000   0.0000000   0.0000000   0.0000000   0.0000000   0.0000000   0.0000000   0.0000000   0.0000000   0.0000000
 NMagM=    2.7928460   2.7928460   0.0000000   0.0000000   2.7928460   0.0000000   0.0000000   2.7928460   0.0000000   0.0000000
 AtZNuc=   1.0000000   1.0000000   6.0000000   6.0000000   1.0000000   6.0000000   8.0000000   1.0000000   6.0000000   8.0000000

  Atom        21          22          23          24          25          26
 IAtWgt=           1          12           1          12           1           1
 AtmWgt=   1.0078250  12.0000000   1.0078250  12.0000000   1.0078250   1.0078250
 NucSpn=           1           0           1           0           1           1
 AtZEff=  -0.0000000  -0.0000000  -0.0000000  -0.0000000  -0.0000000  -0.0000000
 NQMom=    0.0000000   0.0000000   0.0000000   0.0000000   0.0000000   0.0000000
 NMagM=    2.7928460   0.0000000   2.7928460   0.0000000   2.7928460   2.7928460
 AtZNuc=   1.0000000   6.0000000   1.0000000   6.0000000   1.0000000   1.0000000
 Leave Link  101 at Sun Jul 18 13:47:46 2021, MaxMem=   104857600 cpu:               0.1 elap:               0.1
 (Enter /dades/curu/g16A03_MST/g16/l103.exe)

 GradGradGradGradGradGradGradGradGradGradGradGradGradGradGradGradGradGrad
 Berny optimization.
 Initialization pass.
                           ----------------------------
                           !    Initial Parameters    !
                           ! (Angstroms and Degrees)  !
 --------------------------                            --------------------------
 ! Name  Definition              Value          Derivative Info.                !
 --------------------------------------------------------------------------------
 ! R1    R(1,2)                  0.9997         estimate D2E/DX2                !
 ! R2    R(1,3)                  1.0002         estimate D2E/DX2                !
 ! R3    R(1,4)                  1.486          estimate D2E/DX2                !
 ! R4    R(1,26)                 1.0002         estimate D2E/DX2                !
 ! R5    R(4,5)                  1.5419         estimate D2E/DX2                !
 ! R6    R(4,9)                  1.0939         estimate D2E/DX2                !
 ! R7    R(4,10)                 1.569          estimate D2E/DX2                !
 ! R8    R(5,6)                  1.273          estimate D2E/DX2                !
 ! R9    R(5,8)                  1.2133         estimate D2E/DX2                !
 ! R10   R(6,7)                  0.9737         estimate D2E/DX2                !
 ! R11   R(10,11)                1.0918         estimate D2E/DX2                !
 ! R12   R(10,12)                1.0922         estimate D2E/DX2                !
 ! R13   R(10,13)                1.4943         estimate D2E/DX2                !
 ! R14   R(13,14)                1.4063         estimate D2E/DX2                !
 ! R15   R(13,24)                1.416          estimate D2E/DX2                !
 ! R16   R(14,15)                1.0879         estimate D2E/DX2                !
 ! R17   R(14,16)                1.3877         estimate D2E/DX2                !
 ! R18   R(16,17)                1.3891         estimate D2E/DX2                !
 ! R19   R(16,19)                1.4171         estimate D2E/DX2                !
 ! R20   R(17,18)                0.9736         estimate D2E/DX2                !
 ! R21   R(19,20)                1.3478         estimate D2E/DX2                !
 ! R22   R(19,22)                1.4119         estimate D2E/DX2                !
 ! R23   R(20,21)                0.9732         estimate D2E/DX2                !
 ! R24   R(22,23)                1.0865         estimate D2E/DX2                !
 ! R25   R(22,24)                1.3998         estimate D2E/DX2                !
 ! R26   R(24,25)                1.0862         estimate D2E/DX2                !
 ! A1    A(2,1,3)              109.4805         estimate D2E/DX2                !
 ! A2    A(2,1,4)              109.4822         estimate D2E/DX2                !
 ! A3    A(2,1,26)             109.468          estimate D2E/DX2                !
 ! A4    A(3,1,4)              109.4714         estimate D2E/DX2                !
 ! A5    A(3,1,26)             109.4534         estimate D2E/DX2                !
 ! A6    A(4,1,26)             109.4719         estimate D2E/DX2                !
 ! A7    A(1,4,5)              118.2353         estimate D2E/DX2                !
 ! A8    A(1,4,9)              113.6487         estimate D2E/DX2                !
 ! A9    A(1,4,10)             102.5513         estimate D2E/DX2                !
 ! A10   A(5,4,9)              101.531          estimate D2E/DX2                !
 ! A11   A(5,4,10)             112.0411         estimate D2E/DX2                !
 ! A12   A(9,4,10)             108.8846         estimate D2E/DX2                !
 ! A13   A(4,5,6)              115.9162         estimate D2E/DX2                !
 ! A14   A(4,5,8)              122.9599         estimate D2E/DX2                !
 ! A15   A(6,5,8)              120.948          estimate D2E/DX2                !
 ! A16   A(5,6,7)               98.6594         estimate D2E/DX2                !
 ! A17   A(4,10,11)            108.2418         estimate D2E/DX2                !
 ! A18   A(4,10,12)            111.1703         estimate D2E/DX2                !
 ! A19   A(4,10,13)            115.1365         estimate D2E/DX2                !
 ! A20   A(11,10,12)           104.7013         estimate D2E/DX2                !
 ! A21   A(11,10,13)           109.1789         estimate D2E/DX2                !
 ! A22   A(12,10,13)           107.8933         estimate D2E/DX2                !
 ! A23   A(10,13,14)           114.0508         estimate D2E/DX2                !
 ! A24   A(10,13,24)           128.7127         estimate D2E/DX2                !
 ! A25   A(14,13,24)           117.2363         estimate D2E/DX2                !
 ! A26   A(13,14,15)           117.4434         estimate D2E/DX2                !
 ! A27   A(13,14,16)           118.6683         estimate D2E/DX2                !
 ! A28   A(15,14,16)           123.427          estimate D2E/DX2                !
 ! A29   A(14,16,17)           112.5308         estimate D2E/DX2                !
 ! A30   A(14,16,19)           124.6239         estimate D2E/DX2                !
 ! A31   A(17,16,19)           121.9089         estimate D2E/DX2                !
 ! A32   A(16,17,18)           109.1244         estimate D2E/DX2                !
 ! A33   A(16,19,20)           124.2704         estimate D2E/DX2                !
 ! A34   A(16,19,22)           115.753          estimate D2E/DX2                !
 ! A35   A(20,19,22)           118.9162         estimate D2E/DX2                !
 ! A36   A(19,20,21)           111.624          estimate D2E/DX2                !
 ! A37   A(19,22,23)           119.9658         estimate D2E/DX2                !
 ! A38   A(19,22,24)           119.7337         estimate D2E/DX2                !
 ! A39   A(23,22,24)           120.2962         estimate D2E/DX2                !
 ! A40   A(13,24,22)           123.069          estimate D2E/DX2                !
 ! A41   A(13,24,25)           120.0537         estimate D2E/DX2                !
 ! A42   A(22,24,25)           116.8124         estimate D2E/DX2                !
 ! D1    D(2,1,4,5)           -176.2721         estimate D2E/DX2                !
 ! D2    D(2,1,4,9)            -57.4008         estimate D2E/DX2                !
 ! D3    D(2,1,4,10)            59.9526         estimate D2E/DX2                !
 ! D4    D(3,1,4,5)             63.7097         estimate D2E/DX2                !
 ! D5    D(3,1,4,9)           -177.419          estimate D2E/DX2                !
 ! D6    D(3,1,4,10)           -60.0656         estimate D2E/DX2                !
 ! D7    D(26,1,4,5)           -56.269          estimate D2E/DX2                !
 ! D8    D(26,1,4,9)            62.6023         estimate D2E/DX2                !
 ! D9    D(26,1,4,10)          179.9557         estimate D2E/DX2                !
 ! D10   D(1,4,5,6)            136.6027         estimate D2E/DX2                !
 ! D11   D(1,4,5,8)            -38.6122         estimate D2E/DX2                !
 ! D12   D(9,4,5,6)             11.5566         estimate D2E/DX2                !
 ! D13   D(9,4,5,8)           -163.6583         estimate D2E/DX2                !
 ! D14   D(10,4,5,6)          -104.4818         estimate D2E/DX2                !
 ! D15   D(10,4,5,8)            80.3033         estimate D2E/DX2                !
 ! D16   D(1,4,10,11)           65.3612         estimate D2E/DX2                !
 ! D17   D(1,4,10,12)          -49.1072         estimate D2E/DX2                !
 ! D18   D(1,4,10,13)         -172.1772         estimate D2E/DX2                !
 ! D19   D(5,4,10,11)          -62.4476         estimate D2E/DX2                !
 ! D20   D(5,4,10,12)         -176.916          estimate D2E/DX2                !
 ! D21   D(5,4,10,13)           60.014          estimate D2E/DX2                !
 ! D22   D(9,4,10,11)         -173.9427         estimate D2E/DX2                !
 ! D23   D(9,4,10,12)           71.5889         estimate D2E/DX2                !
 ! D24   D(9,4,10,13)          -51.4811         estimate D2E/DX2                !
 ! D25   D(4,5,6,7)            176.4139         estimate D2E/DX2                !
 ! D26   D(8,5,6,7)             -8.2673         estimate D2E/DX2                !
 ! D27   D(4,10,13,14)          74.6884         estimate D2E/DX2                !
 ! D28   D(4,10,13,24)        -105.4628         estimate D2E/DX2                !
 ! D29   D(11,10,13,14)       -163.3538         estimate D2E/DX2                !
 ! D30   D(11,10,13,24)         16.495          estimate D2E/DX2                !
 ! D31   D(12,10,13,14)        -50.1097         estimate D2E/DX2                !
 ! D32   D(12,10,13,24)        129.7392         estimate D2E/DX2                !
 ! D33   D(10,13,14,15)         -1.8471         estimate D2E/DX2                !
 ! D34   D(10,13,14,16)       -174.3248         estimate D2E/DX2                !
 ! D35   D(24,13,14,15)        178.2856         estimate D2E/DX2                !
 ! D36   D(24,13,14,16)          5.8079         estimate D2E/DX2                !
 ! D37   D(10,13,24,22)       -176.9871         estimate D2E/DX2                !
 ! D38   D(10,13,24,25)         -0.0118         estimate D2E/DX2                !
 ! D39   D(14,13,24,22)          2.8576         estimate D2E/DX2                !
 ! D40   D(14,13,24,25)        179.833          estimate D2E/DX2                !
 ! D41   D(13,14,16,17)       -179.7572         estimate D2E/DX2                !
 ! D42   D(13,14,16,19)        -10.6932         estimate D2E/DX2                !
 ! D43   D(15,14,16,17)          8.2447         estimate D2E/DX2                !
 ! D44   D(15,14,16,19)        177.3087         estimate D2E/DX2                !
 ! D45   D(14,16,17,18)       -133.6153         estimate D2E/DX2                !
 ! D46   D(19,16,17,18)         56.982          estimate D2E/DX2                !
 ! D47   D(14,16,19,20)        174.2466         estimate D2E/DX2                !
 ! D48   D(14,16,19,22)          6.1917         estimate D2E/DX2                !
 ! D49   D(17,16,19,20)        -17.6663         estimate D2E/DX2                !
 ! D50   D(17,16,19,22)        174.2788         estimate D2E/DX2                !
 ! D51   D(16,19,20,21)        -19.5614         estimate D2E/DX2                !
 ! D52   D(22,19,20,21)        148.1422         estimate D2E/DX2                !
 ! D53   D(16,19,22,23)       -177.9386         estimate D2E/DX2                !
 ! D54   D(16,19,22,24)          2.8111         estimate D2E/DX2                !
 ! D55   D(20,19,22,23)         13.3297         estimate D2E/DX2                !
 ! D56   D(20,19,22,24)       -165.9207         estimate D2E/DX2                !
 ! D57   D(19,22,24,13)         -7.3138         estimate D2E/DX2                !
 ! D58   D(19,22,24,25)        175.6195         estimate D2E/DX2                !
 ! D59   D(23,22,24,13)        173.4383         estimate D2E/DX2                !
 ! D60   D(23,22,24,25)         -3.6284         estimate D2E/DX2                !
 --------------------------------------------------------------------------------
 Trust Radius=3.00D-01 FncErr=1.00D-07 GrdErr=1.00D-06 EigMax=2.50D+02 EigMin=1.00D-04
 Number of steps in this run=    138 maximum allowed number of steps=    156.
 GradGradGradGradGradGradGradGradGradGradGradGradGradGradGradGradGradGrad

 Leave Link  103 at Sun Jul 18 13:47:46 2021, MaxMem=   104857600 cpu:               0.1 elap:               0.0
 (Enter /dades/curu/g16A03_MST/g16/l202.exe)
                          Input orientation:                          
 ---------------------------------------------------------------------
 Center     Atomic      Atomic             Coordinates (Angstroms)
 Number     Number       Type             X           Y           Z
 ---------------------------------------------------------------------
      1          7           0        0.012000    3.601000   -0.270000
      2          1           0        0.851000    3.672000   -0.809000
      3          1           0        0.192000    3.898000    0.668000
      4          6           0       -0.454000    2.190000   -0.262000
      5          6           0       -1.787000    1.866000    0.442000
      6          8           0       -2.564000    1.070000   -0.177000
      7          1           0       -3.266000    0.999000    0.494000
      8          8           0       -2.132000    2.395000    1.478000
      9          1           0       -0.629000    1.780000   -1.261000
     10          6           0        0.756000    1.435000    0.392000
     11          1           0        0.853000    1.775000    1.425000
     12          1           0        1.699000    1.716000   -0.082000
     13          6           0        0.659000   -0.056000    0.373000
     14          6           0        0.900000   -0.630000   -0.888000
     15          1           0        1.098000    0.046000   -1.717000
     16          6           0        0.718000   -1.997000   -1.043000
     17          8           0        0.996000   -2.428000   -2.334000
     18          1           0        0.282000   -3.018000   -2.634000
     19          6           0        0.513000   -2.908000    0.023000
     20          8           0        0.227000   -4.215000   -0.140000
     21          1           0       -0.119000   -4.398000   -1.031000
     22          6           0        0.364000   -2.331000    1.303000
     23          1           0        0.237000   -2.968000    2.174000
     24          6           0        0.365000   -0.938000    1.441000
     25          1           0        0.174000   -0.544000    2.435000
     26          1           0       -0.694000    4.183000   -0.674000
 ---------------------------------------------------------------------
                    Distance matrix (angstroms):
                    1          2          3          4          5
     1  N    0.000000
     2  H    0.999741   0.000000
     3  H    1.000226   1.633060   0.000000
     4  C    1.485981   2.049038   2.049263   0.000000
     5  C    2.598763   3.433028   2.845442   1.541908   0.000000
     6  O    3.612532   4.339591   4.038211   2.390340   1.272991
     7  H    4.254337   5.078625   4.515777   3.146007   1.715178
     8  O    3.017727   3.969809   2.883762   2.425966   1.213327
     9  H    2.170024   2.444252   2.980102   1.093950   2.061206
    10  C    2.383975   2.540786   2.541779   1.569025   2.579750
    11  H    2.629559   2.930763   2.348851   2.174038   2.818540
    12  H    2.536639   2.252458   2.755843   2.211896   3.528353
    13  C    3.769046   3.915606   3.992397   2.585829   3.111553
    14  C    4.367131   4.303004   4.839957   3.190234   3.901139
    15  H    3.988888   3.746111   4.620278   3.020342   4.036943
    16  C    5.695048   5.675386   6.160781   4.417524   4.837667
    17  O    6.448038   6.289408   7.048170   5.265131   5.821486
    18  H    7.033673   6.957764   7.664356   5.769865   6.131557
    19  C    6.534824   6.640999   6.844027   5.196722   5.315697
    20  O    7.820037   7.939881   8.153212   6.442257   6.432222
    21  H    8.036186   8.131118   8.473897   6.641184   6.647530
    22  C    6.147102   6.382298   6.263645   4.853637   4.794052
    23  H    7.012526   7.305127   7.029368   5.746002   5.519416
    24  C    4.863605   5.152746   4.900444   3.654498   3.673081
    25  H    4.952201   5.362511   4.780583   3.891394   3.691297
    26  H    1.000188   1.632903   1.633152   2.049242   2.794386
                    6          7          8          9         10
     6  O    0.000000
     7  H    0.973697   0.000000
     8  O    2.163625   2.050129   0.000000
     9  H    2.328815   3.262477   3.184235   0.000000
    10  C    3.388124   4.046849   3.231337   2.183955   0.000000
    11  H    3.839182   4.293611   3.049169   3.067726   1.091832
    12  H    4.312715   5.049464   4.191802   2.610311   1.092193
    13  C    3.458049   4.066115   3.875320   2.774851   1.494273
    14  C    3.923623   4.681786   4.893016   2.878380   2.433796
    15  H    4.102489   4.984097   5.114560   2.489422   2.548365
    16  C    4.574710   5.216382   5.810990   4.015926   3.720120
    17  O    5.437118   6.156830   6.897612   4.636725   4.734073
    18  H    5.554125   6.205560   7.213634   5.073052   5.404680
    19  C    5.033132   5.455945   6.102037   4.993012   4.365416
    20  O    5.976811   6.307836   7.202424   6.158685   5.699593
    21  H    6.050319   6.430929   7.516123   6.203280   6.067491
    22  C    4.725504   4.992022   5.347496   4.945752   3.894399
    23  H    5.447774   5.552522   5.904096   5.923908   4.778210
    24  C    3.902439   4.222906   4.164765   3.959339   2.623816
    25  H    4.113901   4.240511   3.856320   4.439167   2.903276
    26  H    3.665335   4.256438   3.145774   2.474511   3.284868
                   11         12         13         14         15
    11  H    0.000000
    12  H    1.729233   0.000000
    13  C    2.120590   2.104426   0.000000
    14  C    3.337095   2.606099   1.406299   0.000000
    15  H    3.594667   2.413157   2.138042   1.087852   0.000000
    16  C    4.509682   3.958819   2.403335   1.387746   2.184611
    17  O    5.640544   4.768485   3.614941   2.309315   2.551817
    18  H    6.306693   5.561596   4.237643   3.022083   3.300733
    19  C    4.900173   4.774830   2.877103   2.483742   3.477922
    20  O    6.222636   6.111212   4.212728   3.723528   4.626196
    21  H    6.714361   6.448777   4.629197   3.905974   4.658414
    22  C    4.136815   4.480922   2.475389   2.825098   3.912708
    23  H    4.841127   5.400633   3.449845   3.909176   4.996539
    24  C    2.756586   3.338083   1.415975   2.409425   3.387995
    25  H    2.618951   3.710595   2.173756   3.402470   4.294296
    26  H    3.549292   3.487550   4.571208   5.074604   4.627514
                   16         17         18         19         20
    16  C    0.000000
    17  O    1.389146   0.000000
    18  H    1.940056   0.973600   0.000000
    19  C    1.417146   2.453393   2.669290   0.000000
    20  O    2.444589   2.932297   2.766924   1.347818   0.000000
    21  H    2.542738   2.611883   2.152861   1.931435   0.973183
    22  C    2.395952   3.692777   3.997332   1.411924   2.377073
    23  H    3.394597   4.603232   4.808471   2.169465   2.628632
    24  C    2.723297   4.107175   4.575906   2.431775   3.641062
    25  H    3.808363   5.193121   5.641551   3.394284   4.484381
    26  H    6.349985   7.022608   7.526525   7.226682   8.465211
                   21         22         23         24         25
    21  H    0.000000
    22  C    3.154890   0.000000
    23  H    3.527557   1.086526   0.000000
    24  C    4.279794   1.399819   2.162076   0.000000
    25  H    5.191562   2.123886   2.438825   1.086164   0.000000
    26  H    8.607650   6.889128   7.753365   5.640864   5.723970
                   26
    26  H    0.000000
 Stoichiometry    C9H12NO4(1+)
 Framework group  C1[X(C9H12NO4)]
 Deg. of freedom    72
 Full point group                 C1      NOp   1
 Largest Abelian subgroup         C1      NOp   1
 Largest concise Abelian subgroup C1      NOp   1
                         Standard orientation:                         
 ---------------------------------------------------------------------
 Center     Atomic      Atomic             Coordinates (Angstroms)
 Number     Number       Type             X           Y           Z
 ---------------------------------------------------------------------
      1          7           0        3.465475    1.357820   -0.360483
      2          1           0        3.225184    2.291939   -0.623473
      3          1           0        3.831872    0.871642   -1.154106
      4          6           0        2.253448    0.655056    0.134750
      5          6           0        2.412732   -0.779038    0.678335
      6          8           0        1.781743   -1.040095    1.752676
      7          1           0        2.003110   -1.985401    1.826696
      8          8           0        3.158220   -1.595452    0.178458
      9          1           0        1.769554    1.156149    0.978242
     10          6           0        1.295606    0.711179   -1.106712
     11          1           0        1.739269    0.116666   -1.907846
     12          1           0        1.235588    1.723146   -1.513166
     13          6           0       -0.097933    0.233999   -0.855313
     14          6           0       -0.889612    1.136866   -0.123362
     15          1           0       -0.419508    2.059348    0.210479
     16          6           0       -2.161224    0.741892    0.267582
     17          8           0       -2.831409    1.730911    0.976397
     18          1           0       -3.238462    1.335958    1.767736
     19          6           0       -2.819068   -0.425588   -0.193431
     20          8           0       -4.006138   -0.861941    0.272483
     21          1           0       -4.211747   -0.480110    1.143698
     22          6           0       -2.047164   -1.284339   -1.005983
     23          1           0       -2.493758   -2.182099   -1.424455
     24          6           0       -0.703414   -0.981798   -1.255583
     25          1           0       -0.134662   -1.711026   -1.825232
     26          1           0        4.155666    1.382289    0.362991
 ---------------------------------------------------------------------
 Rotational constants (GHZ):           1.2636658           0.3681302           0.3438973
 Leave Link  202 at Sun Jul 18 13:47:46 2021, MaxMem=   104857600 cpu:               0.1 elap:               0.0
 (Enter /dades/curu/g16A03_MST/g16/l301.exe)
 Standard basis: 6-31G(d) (6D, 7F)
 Ernie: Thresh=  0.10000D-02 Tol=  0.10000D-05 Strict=F.
 There are   234 symmetry adapted cartesian basis functions of A   symmetry.
 There are   234 symmetry adapted basis functions of A   symmetry.
   234 basis functions,   440 primitive gaussians,   234 cartesian basis functions
    52 alpha electrons       52 beta electrons
       nuclear repulsion energy       904.2177438716 Hartrees.
 IExCor=  402 DFT=T Ex+Corr=B3LYP ExCW=0 ScaHFX=  0.200000
 ScaDFX=  0.800000  0.720000  1.000000  0.810000 ScalE2=  1.000000  1.000000
 IRadAn=      5 IRanWt=     -1 IRanGd=            0 ICorTp=0 IEmpDi=  4
 NAtoms=   26 NActive=   26 NUniq=   26 SFac= 1.00D+00 NAtFMM=   60 NAOKFM=F Big=F
 Integral buffers will be    131072 words long.
 Raffenetti 2 integral format.
 Two-electron integral symmetry is turned on.
 Using the following non-standard input for PCM:
 MSTModel=DFT cav MSTCharged
 --- end of non-standard input.
 MST model for solvation energy: B3LYP parametrization.
 MST cavity parameters:
 ISph   IAn     Re0     Alpha   Atom Type   QCorr
 ------------------------------------------------
   1      7     1.50     1.15      NH+        T
   2      1     0.90     1.15      NH+        T
   3      1     0.90     1.15      NH+        T
   4      6     1.50     1.50      CN+        F
   5      6     1.50     1.50      C          F
   6      8     1.40     1.50      OH         F
   7      1     0.90     1.50      OH         F
   8      8     1.40     1.50      O          F
   9      1     1.20     1.50      CN+        F
  10      6     1.50     1.50      CH2        F
  11      1     1.20     1.50      CH2        F
  12      1     1.20     1.50      CH2        F
  13      6     1.50     1.50      C          F
  14      6     1.50     1.50      CH         F
  15      1     1.20     1.50      CH         F
  16      6     1.50     1.50      C          F
  17      8     1.40     1.50      OH         F
  18      1     0.90     1.50      OH         F
  19      6     1.50     1.50      C          F
  20      8     1.40     1.50      OH         F
  21      1     0.90     1.50      OH         F
  22      6     1.50     1.50      CH         F
  23      1     1.20     1.50      CH         F
  24      6     1.50     1.50      CH         F
  25      1     1.20     1.50      CH         F
  26      1     0.90     1.15      NH+        T
 ------------------------------------------------------------------------------
 Polarizable Continuum Model (PCM)
 =================================
 Model                : PCM.
 Atomic radii         : MST.
 Polarization charges : Total charges.
 Charge compensation  : None.
 Solution method      : On-the-fly selection.
 Cavity type          : Scaled VdW (van der Waals Surface) (Alpha=1.500).
 Cavity algorithm     : GePol (No added spheres)
                        Default sphere list used, NSphG=   26.
                        Lebedev-Laikov grids with approx.  5.0 points / Ang**2.
                        Smoothing algorithm: York/Karplus (Gamma=1.0000).
                        Polarization charges: spherical gaussians, with
                                              point-specific exponents (IZeta= 3).
                        Self-potential: point-specific (ISelfS= 7).
                        Self-field    : sphere-specific E.n sum rule (ISelfD= 2).
 1st derivatives      : Analytical E(r).r(x)/FMM algorithm (CHGder, D1EAlg=3).
                        Cavity 1st derivative terms included.
 Solvent              : n-Octanol, Eps=   9.862900 Eps(inf)=   2.043470
 ------------------------------------------------------------------------------
 GePol: Number of generator spheres                  =      26
 GePol: Total number of spheres                      =      26
 GePol: Number of exposed spheres                    =      26 (100.00%)
 GePol: Number of points                             =    2235
 GePol: Average weight of points                     =       0.12
 GePol: Minimum weight of points                     =   0.96D-11
 GePol: Maximum weight of points                     =    0.21373
 GePol: Number of points with low weight             =     140
 GePol: Fraction of low-weight points (<1% of avg)   =       6.26%
 GePol: Cavity surface area                          =    267.221 Ang**2
 GePol: Cavity volume                                =    292.119 Ang**3
 Surface areas from nonelectrostatic (unscaled) cavity and vdw tensions:
 Sphere =    1 Type =  NH+ Surf =       12.230 Tension =       -0.274
 Sphere =    2 Type =  NH+ Surf =        3.845 Tension =       -0.274
 Sphere =    3 Type =  NH+ Surf =        3.854 Tension =       -0.274
 Sphere =    4 Type =  CN+ Surf =        3.228 Tension =       -0.227
 Sphere =    5 Type =  C   Surf =        6.919 Tension =       -0.205
 Sphere =    6 Type =  OH  Surf =       13.856 Tension =       -0.238
 Sphere =    7 Type =  OH  Surf =        4.184 Tension =       -0.238
 Sphere =    8 Type =  O   Surf =       16.319 Tension =       -0.185
 Sphere =    9 Type =  CN+ Surf =        9.537 Tension =       -0.227
 Sphere =   10 Type =  CH2 Surf =        3.393 Tension =       -0.194
 Sphere =   11 Type =  CH2 Surf =        9.930 Tension =       -0.194
 Sphere =   12 Type =  CH2 Surf =        9.755 Tension =       -0.194
 Sphere =   13 Type =  C   Surf =        6.282 Tension =       -0.205
 Sphere =   14 Type =  CH  Surf =        7.481 Tension =       -0.195
 Sphere =   15 Type =  CH  Surf =       10.034 Tension =       -0.195
 Sphere =   16 Type =  C   Surf =        6.755 Tension =       -0.205
 Sphere =   17 Type =  OH  Surf =       14.375 Tension =       -0.238
 Sphere =   18 Type =  OH  Surf =        4.467 Tension =       -0.238
 Sphere =   19 Type =  C   Surf =        6.932 Tension =       -0.205
 Sphere =   20 Type =  OH  Surf =       14.327 Tension =       -0.238
 Sphere =   21 Type =  OH  Surf =        4.469 Tension =       -0.238
 Sphere =   22 Type =  CH  Surf =        7.798 Tension =       -0.195
 Sphere =   23 Type =  CH  Surf =       10.231 Tension =       -0.195
 Sphere =   24 Type =  CH  Surf =        7.793 Tension =       -0.195
 Sphere =   25 Type =  CH  Surf =       10.209 Tension =       -0.195
 Sphere =   26 Type =  NH+ Surf =        3.859 Tension =       -0.274
 PCM non-electrostatic energy =        -0.0172792686 Hartrees.
 Nuclear repulsion after PCM non-electrostatic terms =      904.2004646030 Hartrees.
 Leave Link  301 at Sun Jul 18 13:47:46 2021, MaxMem=   104857600 cpu:               0.2 elap:               0.1
 (Enter /dades/curu/g16A03_MST/g16/l302.exe)
 NPDir=0 NMtPBC=     1 NCelOv=     1 NCel=       1 NClECP=     1 NCelD=      1
         NCelK=      1 NCelE2=     1 NClLst=     1 CellRange=     0.0.
 One-electron integrals computed using PRISM.
 One-electron integral symmetry used in STVInt
 NBasis=   234 RedAO= T EigKep=  4.96D-04  NBF=   234
 NBsUse=   234 1.00D-06 EigRej= -1.00D+00 NBFU=   234
 Precomputing XC quadrature grid using
 IXCGrd= 4 IRadAn=           5 IRanWt=          -1 IRanGd=           0 AccXCQ= 0.00D+00.
 Generated NRdTot=       0 NPtTot=           0 NUsed=           0 NTot=          32
 NSgBfM=   233   233   233   233   233 MxSgAt=    26 MxSgA2=    26.
 Leave Link  302 at Sun Jul 18 13:47:47 2021, MaxMem=   104857600 cpu:               3.6 elap:               1.3
 (Enter /dades/curu/g16A03_MST/g16/l303.exe)
 DipDrv:  MaxL=1.
 Leave Link  303 at Sun Jul 18 13:47:47 2021, MaxMem=   104857600 cpu:               0.1 elap:               0.1
 (Enter /dades/curu/g16A03_MST/g16/l401.exe)
 ExpMin= 1.61D-01 ExpMax= 5.48D+03 ExpMxC= 8.25D+02 IAcc=3 IRadAn=         5 AccDes= 0.00D+00
 Harris functional with IExCor=  402 and IRadAn=       5 diagonalized for initial guess.
 HarFok:  IExCor=  402 AccDes= 0.00D+00 IRadAn=         5 IDoV= 1 UseB2=F ITyADJ=14
 ICtDFT=  3500011 ScaDFX=  1.000000  1.000000  1.000000  1.000000
 FoFCou: FMM=F IPFlag=           0 FMFlag=      100000 FMFlg1=           0
         NFxFlg=           0 DoJE=T BraDBF=F KetDBF=T FulRan=T
         wScrn=  0.000000 ICntrl=       500 IOpCl=  0 I1Cent=   200000004 NGrid=           0
         NMat0=    1 NMatS0=      1 NMatT0=    0 NMatD0=    1 NMtDS0=    0 NMtDT0=    0
 Petite list used in FoFCou.
 Harris En= -705.624503808811    
 JPrj=0 DoOrth=F DoCkMO=F.
 Leave Link  401 at Sun Jul 18 13:47:53 2021, MaxMem=   104857600 cpu:              20.6 elap:               5.5
 (Enter /dades/curu/g16A03_MST/g16/l502.exe)
 Integral symmetry usage will be decided dynamically.
 Closed shell SCF:
 Using DIIS extrapolation, IDIIS=  1040.
 NGot=   104857600 LenX=   104743988 LenY=   104688791
 Requested convergence on RMS density matrix=1.00D-08 within 128 cycles.
 Requested convergence on MAX density matrix=1.00D-06.
 Requested convergence on             energy=1.00D-06.
 No special actions if energy rises.
 Fock matrices will be formed incrementally for  20 cycles.

 Cycle   1  Pass 1  IDiag  1:
 FoFJK:  IHMeth= 1 ICntrl=       0 DoSepK=F KAlg= 0 I1Cent=           0 FoldK=F
 IRaf= 860000000 NMat=       1 IRICut=       1 DoRegI=T DoRafI=F ISym2E= 0 IDoP0=0 IntGTp=1.
 FoFCou: FMM=F IPFlag=           0 FMFlag=      100000 FMFlg1=           0
         NFxFlg=           0 DoJE=F BraDBF=F KetDBF=F FulRan=T
         wScrn=  0.000000 ICntrl=         0 IOpCl=  0 I1Cent=           0 NGrid=           0
         NMat0=    1 NMatS0=      1 NMatT0=    0 NMatD0=    1 NMtDS0=    0 NMtDT0=    0
 Symmetry not used in FoFCou.
 Inv3:  Mode=1 IEnd=    14985675.
 Iteration    1 A*A^-1 deviation from unit magnitude is 5.11D-15 for    555.
 Iteration    1 A*A^-1 deviation from orthogonality  is 2.94D-15 for   2217    218.
 Iteration    1 A^-1*A deviation from unit magnitude is 5.55D-15 for    555.
 Iteration    1 A^-1*A deviation from orthogonality  is 6.05D-15 for   1793   1744.
 E= -705.357011278133    
 DIIS: error= 2.84D-02 at cycle   1 NSaved=   1.
 NSaved= 1 IEnMin= 1 EnMin= -705.357011278133     IErMin= 1 ErrMin= 2.84D-02
 ErrMax= 2.84D-02  0.00D+00 EMaxC= 1.00D-01 BMatC= 3.66D-01 BMatP= 3.66D-01
 IDIUse=3 WtCom= 7.16D-01 WtEn= 2.84D-01
 Coeff-Com:  0.100D+01
 Coeff-En:   0.100D+01
 Coeff:      0.100D+01
 Gap=     0.219 Goal=   None    Shift=    0.000
 GapD=    0.219 DampG=1.000 DampE=0.500 DampFc=0.5000 IDamp=-1.
 Damping current iteration by 5.00D-01
 RMSDP=5.41D-03 MaxDP=1.74D-01              OVMax= 2.47D-01

 Cycle   2  Pass 1  IDiag  1:
 RMSU=  2.69D-03    CP:  9.86D-01
 E= -705.469886043552     Delta-E=       -0.112874765419 Rises=F Damp=T
 DIIS: error= 8.50D-03 at cycle   2 NSaved=   2.
 NSaved= 2 IEnMin= 2 EnMin= -705.469886043552     IErMin= 2 ErrMin= 8.50D-03
 ErrMax= 8.50D-03  0.00D+00 EMaxC= 1.00D-01 BMatC= 3.83D-02 BMatP= 3.66D-01
 IDIUse=3 WtCom= 9.15D-01 WtEn= 8.50D-02
 Coeff-Com:  0.155D+00 0.845D+00
 Coeff-En:   0.247D+00 0.753D+00
 Coeff:      0.163D+00 0.837D+00
 Gap=     0.170 Goal=   None    Shift=    0.000
 RMSDP=1.50D-03 MaxDP=4.91D-02 DE=-1.13D-01 OVMax= 1.91D-01

 Cycle   3  Pass 1  IDiag  1:
 RMSU=  1.41D-03    CP:  9.79D-01  8.17D-01
 E= -705.637952081476     Delta-E=       -0.168066037924 Rises=F Damp=F
 DIIS: error= 1.32D-02 at cycle   3 NSaved=   3.
 NSaved= 3 IEnMin= 3 EnMin= -705.637952081476     IErMin= 2 ErrMin= 8.50D-03
 ErrMax= 1.32D-02  0.00D+00 EMaxC= 1.00D-01 BMatC= 3.64D-02 BMatP= 3.83D-02
 IDIUse=3 WtCom= 8.68D-01 WtEn= 1.32D-01
 Coeff-Com:  0.353D-01 0.490D+00 0.474D+00
 Coeff-En:   0.000D+00 0.000D+00 0.100D+01
 Coeff:      0.306D-01 0.425D+00 0.544D+00
 Gap=     0.192 Goal=   None    Shift=    0.000
 RMSDP=9.72D-04 MaxDP=4.71D-02 DE=-1.68D-01 OVMax= 7.61D-02

 Cycle   4  Pass 1  IDiag  1:
 RMSU=  6.51D-04    CP:  9.82D-01  8.76D-01  5.03D-01
 E= -705.660608591614     Delta-E=       -0.022656510137 Rises=F Damp=F
 DIIS: error= 7.70D-03 at cycle   4 NSaved=   4.
 NSaved= 4 IEnMin= 4 EnMin= -705.660608591614     IErMin= 4 ErrMin= 7.70D-03
 ErrMax= 7.70D-03  0.00D+00 EMaxC= 1.00D-01 BMatC= 9.47D-03 BMatP= 3.64D-02
 IDIUse=3 WtCom= 9.23D-01 WtEn= 7.70D-02
 Coeff-Com:  0.217D-02 0.104D+00 0.345D+00 0.549D+00
 Coeff-En:   0.000D+00 0.000D+00 0.227D+00 0.773D+00
 Coeff:      0.200D-02 0.960D-01 0.336D+00 0.566D+00
 Gap=     0.191 Goal=   None    Shift=    0.000
 RMSDP=3.69D-04 MaxDP=1.79D-02 DE=-2.27D-02 OVMax= 3.19D-02

 Cycle   5  Pass 1  IDiag  1:
 RMSU=  1.85D-04    CP:  9.82D-01  8.45D-01  6.39D-01  6.30D-01
 E= -705.667097596900     Delta-E=       -0.006489005286 Rises=F Damp=F
 DIIS: error= 1.66D-03 at cycle   5 NSaved=   5.
 NSaved= 5 IEnMin= 5 EnMin= -705.667097596900     IErMin= 5 ErrMin= 1.66D-03
 ErrMax= 1.66D-03  0.00D+00 EMaxC= 1.00D-01 BMatC= 7.30D-04 BMatP= 9.47D-03
 IDIUse=3 WtCom= 9.83D-01 WtEn= 1.66D-02
 Coeff-Com: -0.675D-03 0.129D-01 0.153D+00 0.343D+00 0.492D+00
 Coeff-En:   0.000D+00 0.000D+00 0.000D+00 0.140D-01 0.986D+00
 Coeff:     -0.663D-03 0.126D-01 0.150D+00 0.338D+00 0.500D+00
 Gap=     0.191 Goal=   None    Shift=    0.000
 RMSDP=1.18D-04 MaxDP=4.22D-03 DE=-6.49D-03 OVMax= 6.28D-03

 Cycle   6  Pass 1  IDiag  1:
 RMSU=  5.36D-05    CP:  9.82D-01  8.51D-01  6.46D-01  6.62D-01  4.54D-01
 E= -705.667689350231     Delta-E=       -0.000591753331 Rises=F Damp=F
 DIIS: error= 2.18D-04 at cycle   6 NSaved=   6.
 NSaved= 6 IEnMin= 6 EnMin= -705.667689350231     IErMin= 6 ErrMin= 2.18D-04
 ErrMax= 2.18D-04  0.00D+00 EMaxC= 1.00D-01 BMatC= 2.02D-05 BMatP= 7.30D-04
 IDIUse=3 WtCom= 9.98D-01 WtEn= 2.18D-03
 Coeff-Com: -0.419D-03-0.325D-03 0.443D-01 0.110D+00 0.227D+00 0.619D+00
 Coeff-En:   0.000D+00 0.000D+00 0.000D+00 0.000D+00 0.000D+00 0.100D+01
 Coeff:     -0.418D-03-0.324D-03 0.442D-01 0.110D+00 0.227D+00 0.620D+00
 Gap=     0.192 Goal=   None    Shift=    0.000
 RMSDP=2.71D-05 MaxDP=9.18D-04 DE=-5.92D-04 OVMax= 2.42D-03

 Cycle   7  Pass 1  IDiag  1:
 RMSU=  1.78D-05    CP:  9.82D-01  8.52D-01  6.44D-01  6.60D-01  5.24D-01
                    CP:  7.16D-01
 E= -705.667704491546     Delta-E=       -0.000015141314 Rises=F Damp=F
 DIIS: error= 9.47D-05 at cycle   7 NSaved=   7.
 NSaved= 7 IEnMin= 7 EnMin= -705.667704491546     IErMin= 7 ErrMin= 9.47D-05
 ErrMax= 9.47D-05  0.00D+00 EMaxC= 1.00D-01 BMatC= 4.64D-06 BMatP= 2.02D-05
 IDIUse=1 WtCom= 1.00D+00 WtEn= 0.00D+00
 Coeff-Com: -0.199D-03-0.112D-02 0.147D-01 0.385D-01 0.102D+00 0.397D+00
 Coeff-Com:  0.449D+00
 Coeff:     -0.199D-03-0.112D-02 0.147D-01 0.385D-01 0.102D+00 0.397D+00
 Coeff:      0.449D+00
 Gap=     0.192 Goal=   None    Shift=    0.000
 RMSDP=1.06D-05 MaxDP=3.72D-04 DE=-1.51D-05 OVMax= 8.50D-04

 Cycle   8  Pass 1  IDiag  1:
 RMSU=  3.59D-06    CP:  9.82D-01  8.51D-01  6.45D-01  6.64D-01  5.19D-01
                    CP:  7.45D-01  5.00D-01
 E= -705.667709192932     Delta-E=       -0.000004701387 Rises=F Damp=F
 DIIS: error= 1.09D-05 at cycle   8 NSaved=   8.
 NSaved= 8 IEnMin= 8 EnMin= -705.667709192932     IErMin= 8 ErrMin= 1.09D-05
 ErrMax= 1.09D-05  0.00D+00 EMaxC= 1.00D-01 BMatC= 7.37D-08 BMatP= 4.64D-06
 IDIUse=1 WtCom= 1.00D+00 WtEn= 0.00D+00
 Coeff-Com: -0.234D-04-0.407D-03 0.218D-02 0.576D-02 0.216D-01 0.974D-01
 Coeff-Com:  0.155D+00 0.718D+00
 Coeff:     -0.234D-04-0.407D-03 0.218D-02 0.576D-02 0.216D-01 0.974D-01
 Coeff:      0.155D+00 0.718D+00
 Gap=     0.192 Goal=   None    Shift=    0.000
 RMSDP=1.76D-06 MaxDP=3.75D-05 DE=-4.70D-06 OVMax= 1.42D-04

 Cycle   9  Pass 1  IDiag  1:
 RMSU=  1.23D-06    CP:  9.82D-01  8.51D-01  6.45D-01  6.64D-01  5.21D-01
                    CP:  7.50D-01  5.37D-01  7.77D-01
 E= -705.667709250255     Delta-E=       -0.000000057323 Rises=F Damp=F
 DIIS: error= 4.30D-06 at cycle   9 NSaved=   9.
 NSaved= 9 IEnMin= 9 EnMin= -705.667709250255     IErMin= 9 ErrMin= 4.30D-06
 ErrMax= 4.30D-06  0.00D+00 EMaxC= 1.00D-01 BMatC= 1.84D-08 BMatP= 7.37D-08
 IDIUse=1 WtCom= 1.00D+00 WtEn= 0.00D+00
 Coeff-Com:  0.710D-05-0.108D-03-0.166D-03-0.557D-03 0.215D-02 0.148D-01
 Coeff-Com:  0.401D-01 0.386D+00 0.558D+00
 Coeff:      0.710D-05-0.108D-03-0.166D-03-0.557D-03 0.215D-02 0.148D-01
 Coeff:      0.401D-01 0.386D+00 0.558D+00
 Gap=     0.192 Goal=   None    Shift=    0.000
 RMSDP=6.95D-07 MaxDP=1.74D-05 DE=-5.73D-08 OVMax= 5.51D-05

 Cycle  10  Pass 1  IDiag  1:
 RMSU=  4.21D-07    CP:  9.82D-01  8.51D-01  6.45D-01  6.64D-01  5.21D-01
                    CP:  7.51D-01  5.32D-01  8.67D-01  6.57D-01
 E= -705.667709266686     Delta-E=       -0.000000016431 Rises=F Damp=F
 DIIS: error= 1.69D-06 at cycle  10 NSaved=  10.
 NSaved=10 IEnMin=10 EnMin= -705.667709266686     IErMin=10 ErrMin= 1.69D-06
 ErrMax= 1.69D-06  0.00D+00 EMaxC= 1.00D-01 BMatC= 1.33D-09 BMatP= 1.84D-08
 IDIUse=1 WtCom= 1.00D+00 WtEn= 0.00D+00
 Coeff-Com:  0.588D-05-0.241D-04-0.250D-03-0.733D-03-0.635D-03-0.589D-03
 Coeff-Com:  0.742D-02 0.133D+00 0.278D+00 0.584D+00
 Coeff:      0.588D-05-0.241D-04-0.250D-03-0.733D-03-0.635D-03-0.589D-03
 Coeff:      0.742D-02 0.133D+00 0.278D+00 0.584D+00
 Gap=     0.192 Goal=   None    Shift=    0.000
 RMSDP=2.04D-07 MaxDP=6.08D-06 DE=-1.64D-08 OVMax= 1.61D-05

 Cycle  11  Pass 1  IDiag  1:
 RMSU=  1.30D-07    CP:  9.82D-01  8.51D-01  6.45D-01  6.64D-01  5.21D-01
                    CP:  7.51D-01  5.35D-01  8.73D-01  7.20D-01  7.11D-01
 E= -705.667709267865     Delta-E=       -0.000000001179 Rises=F Damp=F
 DIIS: error= 4.36D-07 at cycle  11 NSaved=  11.
 NSaved=11 IEnMin=11 EnMin= -705.667709267865     IErMin=11 ErrMin= 4.36D-07
 ErrMax= 4.36D-07  0.00D+00 EMaxC= 1.00D-01 BMatC= 1.34D-10 BMatP= 1.33D-09
 IDIUse=1 WtCom= 1.00D+00 WtEn= 0.00D+00
 Coeff-Com:  0.203D-05-0.278D-06-0.102D-03-0.295D-03-0.528D-03-0.175D-02
 Coeff-Com: -0.497D-03 0.241D-01 0.765D-01 0.288D+00 0.614D+00
 Coeff:      0.203D-05-0.278D-06-0.102D-03-0.295D-03-0.528D-03-0.175D-02
 Coeff:     -0.497D-03 0.241D-01 0.765D-01 0.288D+00 0.614D+00
 Gap=     0.192 Goal=   None    Shift=    0.000
 RMSDP=7.19D-08 MaxDP=1.68D-06 DE=-1.18D-09 OVMax= 7.77D-06

 Cycle  12  Pass 1  IDiag  1:
 RMSU=  4.36D-08    CP:  9.82D-01  8.51D-01  6.45D-01  6.64D-01  5.21D-01
                    CP:  7.51D-01  5.35D-01  8.78D-01  7.28D-01  7.94D-01
                    CP:  7.12D-01
 E= -705.667709268013     Delta-E=       -0.000000000149 Rises=F Damp=F
 DIIS: error= 1.62D-07 at cycle  12 NSaved=  12.
 NSaved=12 IEnMin=12 EnMin= -705.667709268013     IErMin=12 ErrMin= 1.62D-07
 ErrMax= 1.62D-07  0.00D+00 EMaxC= 1.00D-01 BMatC= 1.42D-11 BMatP= 1.34D-10
 IDIUse=1 WtCom= 1.00D+00 WtEn= 0.00D+00
 Coeff-Com:  0.271D-06 0.255D-05-0.203D-04-0.566D-04-0.199D-03-0.829D-03
 Coeff-Com: -0.131D-02-0.516D-02 0.157D-02 0.657D-01 0.293D+00 0.647D+00
 Coeff:      0.271D-06 0.255D-05-0.203D-04-0.566D-04-0.199D-03-0.829D-03
 Coeff:     -0.131D-02-0.516D-02 0.157D-02 0.657D-01 0.293D+00 0.647D+00
 Gap=     0.192 Goal=   None    Shift=    0.000
 RMSDP=2.43D-08 MaxDP=7.26D-07 DE=-1.49D-10 OVMax= 2.81D-06

 Cycle  13  Pass 1  IDiag  1:
 RMSU=  1.56D-08    CP:  9.82D-01  8.51D-01  6.45D-01  6.64D-01  5.21D-01
                    CP:  7.51D-01  5.35D-01  8.79D-01  7.33D-01  7.99D-01
                    CP:  8.04D-01  7.78D-01
 E= -705.667709268031     Delta-E=       -0.000000000018 Rises=F Damp=F
 DIIS: error= 5.77D-08 at cycle  13 NSaved=  13.
 NSaved=13 IEnMin=13 EnMin= -705.667709268031     IErMin=13 ErrMin= 5.77D-08
 ErrMax= 5.77D-08  0.00D+00 EMaxC= 1.00D-01 BMatC= 2.00D-12 BMatP= 1.42D-11
 IDIUse=1 WtCom= 1.00D+00 WtEn= 0.00D+00
 Coeff-Com: -0.822D-07 0.100D-05 0.359D-05 0.113D-04-0.275D-04-0.160D-03
 Coeff-Com: -0.575D-03-0.547D-02-0.892D-02-0.291D-02 0.751D-01 0.334D+00
 Coeff-Com:  0.609D+00
 Coeff:     -0.822D-07 0.100D-05 0.359D-05 0.113D-04-0.275D-04-0.160D-03
 Coeff:     -0.575D-03-0.547D-02-0.892D-02-0.291D-02 0.751D-01 0.334D+00
 Coeff:      0.609D+00
 Gap=     0.192 Goal=   None    Shift=    0.000
 RMSDP=8.32D-09 MaxDP=2.97D-07 DE=-1.80D-11 OVMax= 9.59D-07

 Error on total polarization charges =  0.00722
 SCF Done:  E(RB3LYP) =  -705.667709268     A.U. after   13 cycles
            NFock= 13  Conv=0.83D-08     -V/T= 2.0089
 KE= 6.994438345362D+02 PE=-3.440762176702D+03 EE= 1.131450168295D+03
 Leave Link  502 at Sun Jul 18 13:50:15 2021, MaxMem=   104857600 cpu:             546.7 elap:             141.9
 (Enter /dades/curu/g16A03_MST/g16/l601.exe)
 Copying SCF densities to generalized density rwf, IOpCl= 0 IROHF=0.

 **********************************************************************

            Population analysis using the SCF density.

 **********************************************************************

 Orbital symmetries:
       Occupied  (A) (A) (A) (A) (A) (A) (A) (A) (A) (A) (A) (A)
                 (A) (A) (A) (A) (A) (A) (A) (A) (A) (A) (A) (A)
                 (A) (A) (A) (A) (A) (A) (A) (A) (A) (A) (A) (A)
                 (A) (A) (A) (A) (A) (A) (A) (A) (A) (A) (A) (A)
                 (A) (A) (A) (A)
       Virtual   (A) (A) (A) (A) (A) (A) (A) (A) (A) (A) (A) (A)
                 (A) (A) (A) (A) (A) (A) (A) (A) (A) (A) (A) (A)
                 (A) (A) (A) (A) (A) (A) (A) (A) (A) (A) (A) (A)
                 (A) (A) (A) (A) (A) (A) (A) (A) (A) (A) (A) (A)
                 (A) (A) (A) (A) (A) (A) (A) (A) (A) (A) (A) (A)
                 (A) (A) (A) (A) (A) (A) (A) (A) (A) (A) (A) (A)
                 (A) (A) (A) (A) (A) (A) (A) (A) (A) (A) (A) (A)
                 (A) (A) (A) (A) (A) (A) (A) (A) (A) (A) (A) (A)
                 (A) (A) (A) (A) (A) (A) (A) (A) (A) (A) (A) (A)
                 (A) (A) (A) (A) (A) (A) (A) (A) (A) (A) (A) (A)
                 (A) (A) (A) (A) (A) (A) (A) (A) (A) (A) (A) (A)
                 (A) (A) (A) (A) (A) (A) (A) (A) (A) (A) (A) (A)
                 (A) (A) (A) (A) (A) (A) (A) (A) (A) (A) (A) (A)
                 (A) (A) (A) (A) (A) (A) (A) (A) (A) (A) (A) (A)
                 (A) (A) (A) (A) (A) (A) (A) (A) (A) (A) (A) (A)
                 (A) (A)
 The electronic state is 1-A.
 Alpha  occ. eigenvalues --  -19.24087 -19.19452 -19.17954 -19.16909 -14.47684
 Alpha  occ. eigenvalues --  -10.36204 -10.30063 -10.26772 -10.25757 -10.23525
 Alpha  occ. eigenvalues --  -10.21382 -10.20685 -10.20522 -10.20228  -1.18072
 Alpha  occ. eigenvalues --   -1.08264  -1.05478  -1.05136  -1.03868  -0.87107
 Alpha  occ. eigenvalues --   -0.82569  -0.76849  -0.75085  -0.71065  -0.65331
 Alpha  occ. eigenvalues --   -0.63464  -0.62340  -0.62046  -0.59772  -0.58073
 Alpha  occ. eigenvalues --   -0.55239  -0.53150  -0.52082  -0.51305  -0.50501
 Alpha  occ. eigenvalues --   -0.49118  -0.46742  -0.45281  -0.44112  -0.43939
 Alpha  occ. eigenvalues --   -0.42807  -0.41370  -0.41074  -0.39304  -0.38189
 Alpha  occ. eigenvalues --   -0.35418  -0.35071  -0.34368  -0.32284  -0.31083
 Alpha  occ. eigenvalues --   -0.25407  -0.22786
 Alpha virt. eigenvalues --   -0.03625  -0.02288  -0.00906   0.03117   0.03754
 Alpha virt. eigenvalues --    0.06617   0.07715   0.08600   0.09970   0.11732
 Alpha virt. eigenvalues --    0.12654   0.13096   0.14466   0.15122   0.15705
 Alpha virt. eigenvalues --    0.16307   0.17859   0.18854   0.20792   0.21434
 Alpha virt. eigenvalues --    0.23614   0.26761   0.29463   0.30879   0.32462
 Alpha virt. eigenvalues --    0.33393   0.34286   0.37186   0.43986   0.47129
 Alpha virt. eigenvalues --    0.47568   0.49558   0.51306   0.51508   0.53287
 Alpha virt. eigenvalues --    0.54064   0.56477   0.56756   0.57079   0.58687
 Alpha virt. eigenvalues --    0.59564   0.61073   0.61316   0.62705   0.63260
 Alpha virt. eigenvalues --    0.64574   0.65361   0.67412   0.68762   0.71263
 Alpha virt. eigenvalues --    0.72990   0.73858   0.75038   0.76273   0.78206
 Alpha virt. eigenvalues --    0.78812   0.79998   0.80734   0.81769   0.83042
 Alpha virt. eigenvalues --    0.84161   0.84610   0.85844   0.86475   0.87560
 Alpha virt. eigenvalues --    0.87794   0.89054   0.89537   0.90017   0.91994
 Alpha virt. eigenvalues --    0.92875   0.95460   0.95857   0.96474   0.98939
 Alpha virt. eigenvalues --    0.99356   1.00612   1.02617   1.04855   1.05574
 Alpha virt. eigenvalues --    1.06724   1.07596   1.09004   1.13696   1.17047
 Alpha virt. eigenvalues --    1.18184   1.20982   1.23533   1.25251   1.32816
 Alpha virt. eigenvalues --    1.34914   1.35865   1.37559   1.39528   1.40383
 Alpha virt. eigenvalues --    1.42249   1.43818   1.45054   1.46383   1.48739
 Alpha virt. eigenvalues --    1.51324   1.53066   1.60559   1.63949   1.64104
 Alpha virt. eigenvalues --    1.66990   1.67435   1.70606   1.73444   1.75136
 Alpha virt. eigenvalues --    1.77210   1.79411   1.79955   1.80637   1.81878
 Alpha virt. eigenvalues --    1.84039   1.85185   1.86874   1.87823   1.88165
 Alpha virt. eigenvalues --    1.90255   1.92226   1.94977   1.95378   1.96020
 Alpha virt. eigenvalues --    1.97404   2.01122   2.04327   2.04892   2.07533
 Alpha virt. eigenvalues --    2.10933   2.15168   2.15681   2.18266   2.23122
 Alpha virt. eigenvalues --    2.24776   2.27632   2.29966   2.31027   2.31494
 Alpha virt. eigenvalues --    2.32530   2.34850   2.38013   2.38628   2.39593
 Alpha virt. eigenvalues --    2.43088   2.43984   2.48004   2.52567   2.54393
 Alpha virt. eigenvalues --    2.55721   2.58111   2.58998   2.64746   2.68231
 Alpha virt. eigenvalues --    2.70143   2.73484   2.78041   2.78969   2.81769
 Alpha virt. eigenvalues --    2.83355   2.89456   2.90662   2.94132   3.00063
 Alpha virt. eigenvalues --    3.09024   3.18513   3.37502   3.74689   3.80268
 Alpha virt. eigenvalues --    3.84300   3.99524   4.07824   4.10038   4.15302
 Alpha virt. eigenvalues --    4.19312   4.30747   4.33208   4.38139   4.52365
 Alpha virt. eigenvalues --    4.58821   4.77892
          Condensed to atoms (all electrons):
               1          2          3          4          5          6
     1  N    6.681180   0.304341   0.294539   0.230453  -0.030091   0.000680
     2  H    0.304341   0.258378  -0.009894  -0.021245   0.002821  -0.000043
     3  H    0.294539  -0.009894   0.268598  -0.020102  -0.001942   0.000121
     4  C    0.230453  -0.021245  -0.020102   5.288189   0.283930  -0.084804
     5  C   -0.030091   0.002821  -0.001942   0.283930   4.322688   0.326924
     6  O    0.000680  -0.000043   0.000121  -0.084804   0.326924   8.126259
     7  H   -0.000151   0.000005  -0.000018   0.011924  -0.012317   0.227553
     8  O    0.000062   0.000006   0.005673  -0.087396   0.577493  -0.101843
     9  H   -0.029950  -0.002765   0.003500   0.352837  -0.038428   0.007974
    10  C   -0.061098  -0.000064  -0.002435   0.315101  -0.027156  -0.001555
    11  H   -0.003658  -0.000476   0.005911  -0.037210  -0.006661   0.000172
    12  H   -0.001623   0.004808  -0.000864  -0.041884   0.003885  -0.000073
    13  C    0.002726   0.000069   0.000063  -0.041101  -0.000094   0.001691
    14  C    0.000200   0.000009   0.000005  -0.006000  -0.001335   0.000077
    15  H   -0.000152   0.000046  -0.000001  -0.000153   0.000214  -0.000021
    16  C    0.000001  -0.000000  -0.000000   0.000133  -0.000026  -0.000027
    17  O   -0.000000  -0.000000   0.000000  -0.000002   0.000000  -0.000000
    18  H    0.000000  -0.000000   0.000000  -0.000000   0.000000  -0.000000
    19  C   -0.000000   0.000000   0.000000   0.000011  -0.000006   0.000007
    20  O    0.000000   0.000000   0.000000  -0.000000  -0.000000   0.000000
    21  H    0.000000   0.000000   0.000000  -0.000000  -0.000000  -0.000000
    22  C    0.000000  -0.000000   0.000000  -0.000060   0.000027  -0.000033
    23  H   -0.000000   0.000000  -0.000000   0.000000   0.000000  -0.000000
    24  C   -0.000047  -0.000001  -0.000000  -0.002503   0.003989  -0.000440
    25  H   -0.000009  -0.000000   0.000001   0.000206   0.000119  -0.000016
    26  H    0.300656  -0.008565  -0.009021  -0.018704  -0.000134   0.000113
               7          8          9         10         11         12
     1  N   -0.000151   0.000062  -0.029950  -0.061098  -0.003658  -0.001623
     2  H    0.000005   0.000006  -0.002765  -0.000064  -0.000476   0.004808
     3  H   -0.000018   0.005673   0.003500  -0.002435   0.005911  -0.000864
     4  C    0.011924  -0.087396   0.352837   0.315101  -0.037210  -0.041884
     5  C   -0.012317   0.577493  -0.038428  -0.027156  -0.006661   0.003885
     6  O    0.227553  -0.101843   0.007974  -0.001555   0.000172  -0.000073
     7  H    0.305257   0.015280  -0.000793  -0.000309  -0.000037   0.000010
     8  O    0.015280   8.071946   0.003396  -0.000237   0.003266  -0.000027
     9  H   -0.000793   0.003396   0.505651  -0.034446   0.004818  -0.003648
    10  C   -0.000309  -0.000237  -0.034446   5.258707   0.352550   0.371064
    11  H   -0.000037   0.003266   0.004818   0.352550   0.543484  -0.032505
    12  H    0.000010  -0.000027  -0.003648   0.371064  -0.032505   0.529188
    13  C    0.000117  -0.001324  -0.001178   0.345568  -0.024796  -0.025012
    14  C    0.000019  -0.000009   0.004999  -0.063440   0.004690  -0.006679
    15  H    0.000001  -0.000000   0.002445  -0.009944   0.000169   0.003413
    16  C   -0.000000   0.000000  -0.000157   0.007564  -0.000194   0.000228
    17  O    0.000000  -0.000000  -0.000005  -0.000140   0.000001  -0.000002
    18  H   -0.000000  -0.000000  -0.000002   0.000008  -0.000000   0.000001
    19  C   -0.000002   0.000000  -0.000001   0.000131   0.000014   0.000014
    20  O    0.000000  -0.000000  -0.000000   0.000000  -0.000000  -0.000000
    21  H    0.000000  -0.000000   0.000000  -0.000000   0.000000   0.000000
    22  C   -0.000006   0.000004  -0.000005   0.006774  -0.000001  -0.000161
    23  H    0.000000  -0.000000  -0.000000  -0.000118  -0.000007   0.000003
    24  C    0.000083   0.000138   0.000200  -0.055344  -0.001710   0.001896
    25  H    0.000001   0.000093   0.000012  -0.008000   0.004733  -0.000065
    26  H   -0.000019   0.000752  -0.001512   0.004131  -0.000068   0.000010
              13         14         15         16         17         18
     1  N    0.002726   0.000200  -0.000152   0.000001  -0.000000   0.000000
     2  H    0.000069   0.000009   0.000046  -0.000000  -0.000000  -0.000000
     3  H    0.000063   0.000005  -0.000001  -0.000000   0.000000   0.000000
     4  C   -0.041101  -0.006000  -0.000153   0.000133  -0.000002  -0.000000
     5  C   -0.000094  -0.001335   0.000214  -0.000026   0.000000   0.000000
     6  O    0.001691   0.000077  -0.000021  -0.000027  -0.000000  -0.000000
     7  H    0.000117   0.000019   0.000001  -0.000000   0.000000  -0.000000
     8  O   -0.001324  -0.000009  -0.000000   0.000000  -0.000000  -0.000000
     9  H   -0.001178   0.004999   0.002445  -0.000157  -0.000005  -0.000002
    10  C    0.345568  -0.063440  -0.009944   0.007564  -0.000140   0.000008
    11  H   -0.024796   0.004690   0.000169  -0.000194   0.000001  -0.000000
    12  H   -0.025012  -0.006679   0.003413   0.000228  -0.000002   0.000001
    13  C    4.711297   0.489586  -0.048253  -0.008387   0.002906  -0.000267
    14  C    0.489586   5.124405   0.348478   0.485819  -0.055046   0.006190
    15  H   -0.048253   0.348478   0.574024  -0.028689   0.000175  -0.000021
    16  C   -0.008387   0.485819  -0.028689   4.817321   0.222066  -0.019071
    17  O    0.002906  -0.055046   0.000175   0.222066   8.302011   0.232196
    18  H   -0.000267   0.006190  -0.000021  -0.019071   0.232196   0.351616
    19  C   -0.030857  -0.046531   0.004293   0.407594  -0.048307  -0.007592
    20  O    0.000054   0.004409  -0.000032  -0.052495  -0.005467   0.002876
    21  H   -0.000078   0.000804  -0.000010  -0.006059   0.006632   0.006293
    22  C   -0.013760  -0.041387  -0.000119  -0.031052   0.003902  -0.000066
    23  H    0.003570   0.000141   0.000013   0.005620  -0.000050  -0.000004
    24  C    0.537581  -0.036864   0.006186  -0.047511   0.000649   0.000023
    25  H   -0.043223   0.006087  -0.000173   0.000054   0.000002  -0.000001
    26  H   -0.000052  -0.000003   0.000006  -0.000000   0.000000  -0.000000
              19         20         21         22         23         24
     1  N   -0.000000   0.000000   0.000000   0.000000  -0.000000  -0.000047
     2  H    0.000000   0.000000   0.000000  -0.000000   0.000000  -0.000001
     3  H    0.000000   0.000000   0.000000   0.000000  -0.000000  -0.000000
     4  C    0.000011  -0.000000  -0.000000  -0.000060   0.000000  -0.002503
     5  C   -0.000006  -0.000000  -0.000000   0.000027   0.000000   0.003989
     6  O    0.000007   0.000000  -0.000000  -0.000033  -0.000000  -0.000440
     7  H   -0.000002   0.000000   0.000000  -0.000006   0.000000   0.000083
     8  O    0.000000  -0.000000  -0.000000   0.000004  -0.000000   0.000138
     9  H   -0.000001  -0.000000   0.000000  -0.000005  -0.000000   0.000200
    10  C    0.000131   0.000000  -0.000000   0.006774  -0.000118  -0.055344
    11  H    0.000014  -0.000000   0.000000  -0.000001  -0.000007  -0.001710
    12  H    0.000014  -0.000000   0.000000  -0.000161   0.000003   0.001896
    13  C   -0.030857   0.000054  -0.000078  -0.013760   0.003570   0.537581
    14  C   -0.046531   0.004409   0.000804  -0.041387   0.000141  -0.036864
    15  H    0.004293  -0.000032  -0.000010  -0.000119   0.000013   0.006186
    16  C    0.407594  -0.052495  -0.006059  -0.031052   0.005620  -0.047511
    17  O   -0.048307  -0.005467   0.006632   0.003902  -0.000050   0.000649
    18  H   -0.007592   0.002876   0.006293  -0.000066  -0.000004   0.000023
    19  C    4.716732   0.299810  -0.031701   0.463383  -0.035500  -0.018267
    20  O    0.299810   8.208053   0.246100  -0.063265  -0.000679   0.003481
    21  H   -0.031701   0.246100   0.335891   0.005362  -0.000357  -0.000136
    22  C    0.463383  -0.063265   0.005362   5.047294   0.350642   0.497191
    23  H   -0.035500  -0.000679  -0.000357   0.350642   0.562205  -0.035589
    24  C   -0.018267   0.003481  -0.000136   0.497191  -0.035589   4.983239
    25  H    0.004994  -0.000059   0.000006  -0.043477  -0.006201   0.358878
    26  H    0.000000  -0.000000  -0.000000  -0.000000   0.000000   0.000001
              25         26
     1  N   -0.000009   0.300656
     2  H   -0.000000  -0.008565
     3  H    0.000001  -0.009021
     4  C    0.000206  -0.018704
     5  C    0.000119  -0.000134
     6  O   -0.000016   0.000113
     7  H    0.000001  -0.000019
     8  O    0.000093   0.000752
     9  H    0.000012  -0.001512
    10  C   -0.008000   0.004131
    11  H    0.004733  -0.000068
    12  H   -0.000065   0.000010
    13  C   -0.043223  -0.000052
    14  C    0.006087  -0.000003
    15  H   -0.000173   0.000006
    16  C    0.000054  -0.000000
    17  O    0.000002   0.000000
    18  H   -0.000001  -0.000000
    19  C    0.004994   0.000000
    20  O   -0.000059  -0.000000
    21  H    0.000006  -0.000000
    22  C   -0.043477  -0.000000
    23  H   -0.006201   0.000000
    24  C    0.358878   0.000001
    25  H    0.584004   0.000000
    26  H    0.000000   0.260456
 Mulliken charges:
               1
     1  N   -0.688061
     2  H    0.472569
     3  H    0.465867
     4  C   -0.121618
     5  C    0.596100
     6  O   -0.502715
     7  H    0.453404
     8  O   -0.487274
     9  H    0.227055
    10  C   -0.397311
    11  H    0.187516
    12  H    0.198022
    13  C    0.143156
    14  C   -0.218623
    15  H    0.148105
    16  C    0.247271
    17  O   -0.661522
    18  H    0.427822
    19  C    0.321780
    20  O   -0.642786
    21  H    0.437253
    22  C   -0.181187
    23  H    0.156311
    24  C   -0.195122
    25  H    0.142035
    26  H    0.471953
 Sum of Mulliken charges =   1.00000
 Mulliken charges with hydrogens summed into heavy atoms:
               1
     1  N    0.722328
     4  C    0.105437
     5  C    0.596100
     6  O   -0.049311
     8  O   -0.487274
    10  C   -0.011773
    13  C    0.143156
    14  C   -0.070518
    16  C    0.247271
    17  O   -0.233700
    19  C    0.321780
    20  O   -0.205533
    22  C   -0.024875
    24  C   -0.053087
 Electronic spatial extent (au):  <R**2>=           3261.9206
 Charge=              1.0000 electrons
 Dipole moment (field-independent basis, Debye):
    X=             13.3610    Y=              6.0379    Z=              1.7756  Tot=             14.7691
 Quadrupole moment (field-independent basis, Debye-Ang):
   XX=            -22.4815   YY=            -67.5358   ZZ=            -67.1979
   XY=             27.2940   XZ=            -14.1338   YZ=             -4.5539
 Traceless Quadrupole moment (field-independent basis, Debye-Ang):
   XX=             29.9236   YY=            -15.1307   ZZ=            -14.7929
   XY=             27.2940   XZ=            -14.1338   YZ=             -4.5539
 Octapole moment (field-independent basis, Debye-Ang**2):
  XXX=            174.3776  YYY=             10.6907  ZZZ=             26.6392  XYY=             55.3643
  XXY=            101.6380  XXZ=             40.2960  XZZ=              1.8683  YZZ=             -4.2760
  YYZ=              4.8299  XYZ=            -21.6605
 Hexadecapole moment (field-independent basis, Debye-Ang**3):
 XXXX=          -1991.2959 YYYY=           -594.7758 ZZZZ=           -414.8153 XXXY=            336.1556
 XXXZ=           -255.4703 YYYX=            102.8638 YYYZ=            -42.6286 ZZZX=            -69.6345
 ZZZY=            -14.1026 XXYY=           -508.0726 XXZZ=           -388.0143 YYZZ=           -142.6409
 XXYZ=            -32.3213 YYXZ=             12.1824 ZZXY=             -9.8305
 N-N= 9.042004646030D+02 E-N=-3.440762176935D+03  KE= 6.994438345362D+02
 No NMR shielding tensors so no spin-rotation constants.
 Leave Link  601 at Sun Jul 18 13:50:15 2021, MaxMem=   104857600 cpu:               0.6 elap:               0.3
 (Enter /dades/curu/g16A03_MST/g16/l701.exe)
 ... and contract with generalized density number  0.
 Compute integral first derivatives.
 D1PCM: PCM CHGder 1st derivatives, ID1Alg=3 FixD1E=F DoIter=F DoCFld=F I1PDM=0.
 GePol: Maximum number of non-zero 1st derivatives   =     251
 Leave Link  701 at Sun Jul 18 13:50:19 2021, MaxMem=   104857600 cpu:              13.5 elap:               4.1
 (Enter /dades/curu/g16A03_MST/g16/l702.exe)
 L702 exits ... SP integral derivatives will be done elsewhere.
 Leave Link  702 at Sun Jul 18 13:50:19 2021, MaxMem=   104857600 cpu:               0.1 elap:               0.0
 (Enter /dades/curu/g16A03_MST/g16/l703.exe)
 Integral derivatives from FoFJK, PRISM(SPDF).
 Compute integral first derivatives, UseDBF=F ICtDFT=           0.
 Calling FoFJK, ICntrl=      2127 FMM=F ISym2X=0 I1Cent= 0 IOpClX= 0 NMat=1 NMatS=1 NMatT=0.
 FoFJK:  IHMeth= 1 ICntrl=    2127 DoSepK=F KAlg= 0 I1Cent=           0 FoldK=F
 IRaf=         0 NMat=       1 IRICut=       1 DoRegI=T DoRafI=F ISym2E= 0 IDoP0=0 IntGTp=1.
 FoFCou: FMM=F IPFlag=           0 FMFlag=      100000 FMFlg1=         800
         NFxFlg=           0 DoJE=F BraDBF=F KetDBF=F FulRan=T
         wScrn=  0.000000 ICntrl=      2127 IOpCl=  0 I1Cent=           0 NGrid=           0
         NMat0=    1 NMatS0=      1 NMatT0=    0 NMatD0=    1 NMtDS0=    0 NMtDT0=    0
 Symmetry not used in FoFCou.
 Leave Link  703 at Sun Jul 18 13:50:37 2021, MaxMem=   104857600 cpu:              71.2 elap:              18.0
 (Enter /dades/curu/g16A03_MST/g16/l716.exe)
 Dipole        = 5.25662797D+00 2.37549357D+00 6.98564357D-01
 ***** Axes restored to original set *****
 -------------------------------------------------------------------
 Center     Atomic                   Forces (Hartrees/Bohr)
 Number     Number              X              Y              Z
 -------------------------------------------------------------------
      1        7          -0.036491118   -0.027175632   -0.002674379
      2        1           0.020263122    0.006207642   -0.013875878
      3        1           0.004345653    0.012758376    0.022522492
      4        6           0.016791840   -0.044643278   -0.000125176
      5        6           0.042414782    0.067251858    0.026915565
      6        8          -0.020182059   -0.039987287   -0.029319170
      7        1          -0.017305259   -0.010772462   -0.004715422
      8        8           0.008424307    0.007746196    0.016520914
      9        1           0.010429657    0.013536365   -0.006072350
     10        6          -0.009493701   -0.003397365    0.022563280
     11        1          -0.003563926    0.003295334    0.002313093
     12        1          -0.003660893    0.003432608   -0.006819538
     13        6          -0.000767078   -0.023034051   -0.011741549
     14        6          -0.015341779    0.000974196    0.027955347
     15        1           0.001962427   -0.010547422   -0.003375010
     16        6           0.021808035   -0.004940253   -0.023359885
     17        8          -0.011169855   -0.013494910   -0.000500417
     18        1           0.003945020    0.000866337   -0.002596075
     19        6          -0.018751597    0.035495451    0.007630527
     20        8           0.004137075   -0.015006324   -0.002997915
     21        1           0.005636639    0.000471716    0.002193181
     22        6           0.001562293    0.003635043   -0.013412496
     23        1          -0.004019126    0.000304502   -0.002586456
     24        6           0.009982821    0.011468547    0.004227713
     25        1           0.001514940    0.002511655   -0.000130126
     26        1          -0.012472221    0.023043158   -0.008540271
 -------------------------------------------------------------------
 Cartesian Forces:  Max     0.067251858 RMS     0.017489809
 Leave Link  716 at Sun Jul 18 13:50:37 2021, MaxMem=   104857600 cpu:               0.1 elap:               0.1
 (Enter /dades/curu/g16A03_MST/g16/l103.exe)

 GradGradGradGradGradGradGradGradGradGradGradGradGradGradGradGradGradGrad
 Berny optimization.
 FormGI is forming the generalized inverse of G from B-inverse, IUseBI=4.
 Internal  Forces:  Max     0.071214370 RMS     0.011630127
 Search for a local minimum.
 Step number   1 out of a maximum of  138
 All quantities printed in internal units (Hartrees-Bohrs-Radians)
 RMS Force = .11630D-01 SwitMx=.10000D-02 MixMth= 1
 Mixed Optimization -- RFO/linear search
 Second derivative matrix not updated -- first step.
 ITU=  0
     Eigenvalues ---    0.00230   0.00230   0.00554   0.00842   0.01012
     Eigenvalues ---    0.01483   0.01835   0.01911   0.01961   0.01986
     Eigenvalues ---    0.02017   0.02081   0.02111   0.02141   0.02175
     Eigenvalues ---    0.02382   0.03372   0.03760   0.03780   0.04869
     Eigenvalues ---    0.05271   0.05525   0.05925   0.05927   0.09904
     Eigenvalues ---    0.13165   0.15397   0.15848   0.15981   0.15999
     Eigenvalues ---    0.16000   0.16000   0.16000   0.16000   0.16000
     Eigenvalues ---    0.16000   0.18940   0.21913   0.22341   0.23318
     Eigenvalues ---    0.24344   0.24430   0.24661   0.24956   0.25000
     Eigenvalues ---    0.25000   0.26095   0.28351   0.32986   0.33894
     Eigenvalues ---    0.34360   0.34560   0.34602   0.35062   0.35217
     Eigenvalues ---    0.35260   0.39978   0.41040   0.42975   0.44122
     Eigenvalues ---    0.44859   0.47031   0.47468   0.47649   0.47655
     Eigenvalues ---    0.47734   0.52629   0.52648   0.52732   0.55488
     Eigenvalues ---    0.75289   0.98402
 RFO step:  Lambda=-5.31291658D-02 EMin= 2.30000000D-03
 Linear search not attempted -- first point.
 Maximum step size (   0.300) exceeded in Quadratic search.
    -- Step size scaled by   0.783
 Iteration  1 RMS(Cart)=  0.08973090 RMS(Int)=  0.00280676
 Iteration  2 RMS(Cart)=  0.00460949 RMS(Int)=  0.00064016
 Iteration  3 RMS(Cart)=  0.00001332 RMS(Int)=  0.00064010
 Iteration  4 RMS(Cart)=  0.00000001 RMS(Int)=  0.00064010
 ITry= 1 IFail=0 DXMaxC= 3.01D-01 DCOld= 1.00D+10 DXMaxT= 3.00D-01 DXLimC= 3.00D+00 Rises=F
 Variable       Old X    -DE/DX   Delta X   Delta X   Delta X     New X
                                 (Linear)    (Quad)   (Total)
    R1        1.88924   0.02495   0.00000   0.03683   0.03683   1.92607
    R2        1.89015   0.02563   0.00000   0.03790   0.03790   1.92805
    R3        2.80810   0.00643   0.00000   0.01284   0.01284   2.82094
    R4        1.89008   0.02570   0.00000   0.03799   0.03799   1.92807
    R5        2.91378  -0.01238   0.00000  -0.02880  -0.02880   2.88498
    R6        2.06727  -0.00116   0.00000  -0.00228  -0.00228   2.06498
    R7        2.96503  -0.00868   0.00000  -0.02164  -0.02164   2.94339
    R8        2.40560   0.07121   0.00000   0.06919   0.06919   2.47480
    R9        2.29286   0.01506   0.00000   0.01137   0.01137   2.30423
   R10        1.84002   0.01000   0.00000   0.01351   0.01351   1.85353
   R11        2.06326   0.00288   0.00000   0.00565   0.00565   2.06892
   R12        2.06395   0.00069   0.00000   0.00135   0.00135   2.06530
   R13        2.82377   0.01146   0.00000   0.02344   0.02344   2.84721
   R14        2.65752   0.00467   0.00000   0.00802   0.00790   2.66542
   R15        2.67580  -0.01931   0.00000  -0.03115  -0.03134   2.64446
   R16        2.05574  -0.00365   0.00000  -0.00707  -0.00707   2.04867
   R17        2.62246   0.00294   0.00000   0.00484   0.00490   2.62736
   R18        2.62511   0.00528   0.00000   0.00784   0.00784   2.63294
   R19        2.67802  -0.00924   0.00000  -0.01508  -0.01488   2.66314
   R20        1.83984  -0.00263   0.00000  -0.00355  -0.00355   1.83629
   R21        2.54701   0.01211   0.00000   0.01560   0.01560   2.56260
   R22        2.66815  -0.00803   0.00000  -0.01352  -0.01340   2.65475
   R23        1.83905  -0.00418   0.00000  -0.00564  -0.00564   1.83341
   R24        2.05324  -0.00176   0.00000  -0.00340  -0.00340   2.04984
   R25        2.64528  -0.00760   0.00000  -0.01223  -0.01231   2.63297
   R26        2.05255   0.00056   0.00000   0.00107   0.00107   2.05363
    A1        1.91079  -0.00351   0.00000  -0.01322  -0.01327   1.89752
    A2        1.91082   0.00272   0.00000   0.00995   0.00977   1.92059
    A3        1.91058  -0.00704   0.00000  -0.02562  -0.02591   1.88467
    A4        1.91064   0.00404   0.00000   0.01474   0.01451   1.92514
    A5        1.91032  -0.00774   0.00000  -0.02834  -0.02871   1.88161
    A6        1.91065   0.01152   0.00000   0.04249   0.04215   1.95280
    A7        2.06360  -0.02408   0.00000  -0.09406  -0.09401   1.96959
    A8        1.98354  -0.00911   0.00000  -0.04554  -0.04591   1.93764
    A9        1.78986   0.03012   0.00000   0.09175   0.09156   1.88142
   A10        1.77205   0.01812   0.00000   0.07284   0.07097   1.84302
   A11        1.95549  -0.01001   0.00000  -0.02605  -0.02388   1.93160
   A12        1.90039  -0.00672   0.00000  -0.00120  -0.00032   1.90008
   A13        2.02312  -0.02001   0.00000  -0.05033  -0.05100   1.97212
   A14        2.14605  -0.00314   0.00000  -0.00694  -0.00762   2.13844
   A15        2.11094   0.02350   0.00000   0.06225   0.06159   2.17254
   A16        1.72193   0.03370   0.00000   0.12383   0.12383   1.84577
   A17        1.88918  -0.00269   0.00000  -0.01417  -0.01419   1.87499
   A18        1.94029  -0.00589   0.00000  -0.02908  -0.02909   1.91120
   A19        2.00951   0.00001   0.00000  -0.00227  -0.00224   2.00727
   A20        1.82738   0.00307   0.00000   0.01851   0.01809   1.84547
   A21        1.90553   0.00189   0.00000   0.01120   0.01110   1.91663
   A22        1.88309   0.00402   0.00000   0.01844   0.01828   1.90138
   A23        1.99056   0.02489   0.00000   0.06368   0.06383   2.05439
   A24        2.24646  -0.02632   0.00000  -0.06863  -0.06847   2.17799
   A25        2.04616   0.00143   0.00000   0.00494   0.00462   2.05078
   A26        2.04977   0.00579   0.00000   0.02570   0.02547   2.07524
   A27        2.07115   0.01050   0.00000   0.03297   0.03265   2.10380
   A28        2.15421  -0.01573   0.00000  -0.05332  -0.05367   2.10053
   A29        1.96403   0.02369   0.00000   0.06271   0.06254   2.02657
   A30        2.17510  -0.02058   0.00000  -0.05191  -0.05176   2.12333
   A31        2.12771  -0.00278   0.00000  -0.00644  -0.00664   2.12107
   A32        1.90458   0.00732   0.00000   0.02688   0.02688   1.93146
   A33        2.16893  -0.00619   0.00000  -0.01191  -0.01300   2.15592
   A34        2.02027   0.00961   0.00000   0.02685   0.02635   2.04663
   A35        2.07548  -0.00211   0.00000  -0.00107  -0.00212   2.07336
   A36        1.94821  -0.00074   0.00000  -0.00272  -0.00272   1.94549
   A37        2.09380  -0.00473   0.00000  -0.01303  -0.01314   2.08066
   A38        2.08975   0.00752   0.00000   0.01908   0.01904   2.10879
   A39        2.09957  -0.00276   0.00000  -0.00577  -0.00588   2.09369
   A40        2.14796  -0.00764   0.00000  -0.02270  -0.02300   2.12496
   A41        2.09533   0.00122   0.00000   0.00208   0.00217   2.09750
   A42        2.03876   0.00647   0.00000   0.02138   0.02148   2.06024
    D1       -3.07653  -0.00081   0.00000  -0.00236  -0.00420  -3.08073
    D2       -1.00183  -0.00265   0.00000  -0.01518  -0.01374  -1.01558
[...]
 Alpha virt. eigenvalues --   -0.03936  -0.03670  -0.03046  -0.02608  -0.02063
 Alpha virt. eigenvalues --   -0.01295  -0.00644  -0.00110   0.00115   0.00337
 Alpha virt. eigenvalues --    0.00812   0.01481   0.02078   0.02276   0.02599
 Alpha virt. eigenvalues --    0.03091   0.03335   0.03626   0.04319   0.04820
 Alpha virt. eigenvalues --    0.05051   0.05546   0.06407   0.06638   0.06848
 Alpha virt. eigenvalues --    0.06969   0.07222   0.07873   0.07939   0.08610
 Alpha virt. eigenvalues --    0.09307   0.09632   0.10151   0.10610   0.10928
 Alpha virt. eigenvalues --    0.11570   0.12036   0.12311   0.12961   0.13273
 Alpha virt. eigenvalues --    0.13873   0.14448   0.14920   0.15209   0.15784
 Alpha virt. eigenvalues --    0.16653   0.16994   0.17738   0.18259   0.18498
 Alpha virt. eigenvalues --    0.19045   0.19717   0.20219   0.20465   0.21178
 Alpha virt. eigenvalues --    0.21383   0.21597   0.22139   0.22525   0.23450
 Alpha virt. eigenvalues --    0.23635   0.23937   0.24589   0.24781   0.25115
 Alpha virt. eigenvalues --    0.25788   0.26256   0.26573   0.26660   0.27418
 Alpha virt. eigenvalues --    0.27953   0.28397   0.28885   0.29592   0.30309
 Alpha virt. eigenvalues --    0.30505   0.31381   0.32131   0.32592   0.33091
 Alpha virt. eigenvalues --    0.33102   0.33788   0.34458   0.35182   0.35378
 Alpha virt. eigenvalues --    0.35743   0.36718   0.36784   0.37224   0.37674
 Alpha virt. eigenvalues --    0.38734   0.38840   0.40226   0.40492   0.40787
 Alpha virt. eigenvalues --    0.41524   0.41667   0.42463   0.43128   0.43461
 Alpha virt. eigenvalues --    0.44122   0.44585   0.45332   0.46374   0.46866
 Alpha virt. eigenvalues --    0.47200   0.47728   0.48556   0.48757   0.49159
 Alpha virt. eigenvalues --    0.49310   0.50386   0.50942   0.51657   0.52414
 Alpha virt. eigenvalues --    0.53226   0.53698   0.54043   0.54317   0.55820
 Alpha virt. eigenvalues --    0.56664   0.56734   0.57654   0.58080   0.58828
 Alpha virt. eigenvalues --    0.59129   0.59737   0.59954   0.60608   0.61220
 Alpha virt. eigenvalues --    0.61466   0.62503   0.63566   0.64078   0.64612
 Alpha virt. eigenvalues --    0.64955   0.65496   0.66077   0.66372   0.66516
 Alpha virt. eigenvalues --    0.67726   0.68417   0.68660   0.70401   0.71914
 Alpha virt. eigenvalues --    0.72566   0.72780   0.74081   0.74275   0.75103
 Alpha virt. eigenvalues --    0.76194   0.76494   0.77563   0.78054   0.78756
 Alpha virt. eigenvalues --    0.79678   0.79948   0.80628   0.82127   0.82775
 Alpha virt. eigenvalues --    0.83902   0.84616   0.85089   0.86131   0.86920
 Alpha virt. eigenvalues --    0.87106   0.88388   0.89261   0.90139   0.90620
 Alpha virt. eigenvalues --    0.91255   0.91716   0.92934   0.94015   0.94579
 Alpha virt. eigenvalues --    0.94947   0.95519   0.96452   0.97400   0.98009
 Alpha virt. eigenvalues --    0.99113   1.00480   1.01385   1.02394   1.03428
 Alpha virt. eigenvalues --    1.04188   1.05141   1.06454   1.07762   1.08381
 Alpha virt. eigenvalues --    1.09621   1.10058   1.11880   1.13324   1.14651
 Alpha virt. eigenvalues --    1.15849   1.16928   1.18032   1.19332   1.20102
 Alpha virt. eigenvalues --    1.20681   1.22211   1.23764   1.24624   1.26385
 Alpha virt. eigenvalues --    1.28108   1.29118   1.31008   1.32682   1.33351
 Alpha virt. eigenvalues --    1.35044   1.35876   1.37156   1.38193   1.40425
 Alpha virt. eigenvalues --    1.40773   1.42171   1.42955   1.43179   1.45543
 Alpha virt. eigenvalues --    1.47506   1.48376   1.49001   1.50284   1.51817
 Alpha virt. eigenvalues --    1.52799   1.53744   1.54982   1.56509   1.57257
 Alpha virt. eigenvalues --    1.58377   1.59496   1.60821   1.61850   1.63131
 Alpha virt. eigenvalues --    1.63178   1.64500   1.64636   1.65641   1.66131
 Alpha virt. eigenvalues --    1.66360   1.68269   1.70036   1.70506   1.71570
 Alpha virt. eigenvalues --    1.72797   1.73217   1.73978   1.75561   1.77137
 Alpha virt. eigenvalues --    1.77468   1.78858   1.81054   1.81421   1.81525
 Alpha virt. eigenvalues --    1.83598   1.85575   1.86419   1.88092   1.89024
 Alpha virt. eigenvalues --    1.90474   1.91483   1.92690   1.94162   1.96082
 Alpha virt. eigenvalues --    1.97757   1.98681   1.99574   2.01099   2.01826
 Alpha virt. eigenvalues --    2.02839   2.04447   2.05211   2.06161   2.07623
 Alpha virt. eigenvalues --    2.08261   2.08750   2.09919   2.10685   2.11640
 Alpha virt. eigenvalues --    2.12383   2.13687   2.14077   2.14675   2.16130
 Alpha virt. eigenvalues --    2.18213   2.18605   2.19354   2.20719   2.21150
 Alpha virt. eigenvalues --    2.21647   2.24370   2.24499   2.25818   2.27570
 Alpha virt. eigenvalues --    2.29263   2.30581   2.31076   2.32116   2.32912
 Alpha virt. eigenvalues --    2.34506   2.36313   2.37955   2.38336   2.41389
 Alpha virt. eigenvalues --    2.41821   2.44980   2.45756   2.47141   2.47994
 Alpha virt. eigenvalues --    2.48539   2.50362   2.51839   2.51900   2.53642
 Alpha virt. eigenvalues --    2.55845   2.57435   2.59240   2.63021   2.63568
 Alpha virt. eigenvalues --    2.68961   2.72195   2.75166   2.75497   2.78126
 Alpha virt. eigenvalues --    2.79842   2.83264   2.84319   2.87166   2.88737
 Alpha virt. eigenvalues --    2.91008   2.95487   2.97640   2.99258   3.03835
 Alpha virt. eigenvalues --    3.04861   3.08619   3.09597   3.13123   3.15411
 Alpha virt. eigenvalues --    3.18455   3.20148   3.28293   3.33485   3.38762
 Alpha virt. eigenvalues --    3.40236   3.44039   3.48645   3.53430   3.59066
 Alpha virt. eigenvalues --    3.59383   3.61744   3.63292   3.65470   3.66037
 Alpha virt. eigenvalues --    3.66233   3.69293   3.69452   3.70965   3.72920
 Alpha virt. eigenvalues --    3.74640   3.76297   3.80724   3.86351   3.87616
 Alpha virt. eigenvalues --    3.93009   3.96787   4.01663   4.11487   4.25835
 Alpha virt. eigenvalues --    4.28791   4.33648   4.79672
          Condensed to atoms (all electrons):
               1          2          3          4          5          6
     1  N    7.120050   0.388057   0.432500  -1.468684   0.288810  -0.022440
     2  H    0.388057   0.567456  -0.029764   0.020336  -0.012772   0.000643
     3  H    0.432500  -0.029764   0.464526  -0.127049  -0.001968   0.001575
     4  C   -1.468684   0.020336  -0.127049  11.393274  -1.826139  -0.004132
     5  C    0.288810  -0.012772  -0.001968  -1.826139   5.652811  -0.091263
     6  O   -0.022440   0.000643   0.001575  -0.004132  -0.091263   8.473169
     7  H    0.005209   0.000476  -0.000410  -0.003008  -0.030226   0.330564
     8  O   -0.041639  -0.000703   0.001878   0.091908   0.162582  -0.026842
     9  H   -0.056182  -0.020224   0.012143  -0.209625   0.094691  -0.000915
    10  C    0.055844  -0.059267   0.000659   0.698952  -0.009413   0.031628
    11  H   -0.054494  -0.000491   0.005322   0.023016  -0.000390  -0.014737
    12  H    0.035701  -0.000832  -0.002554  -0.338367   0.105831   0.009780
    13  C    0.299961   0.007867   0.020151  -1.091487   0.212588  -0.139597
    14  C    0.106866  -0.005544   0.008029  -0.905431  -0.050976   0.116717
    15  H    0.018421  -0.000247  -0.000324  -0.070651   0.040250   0.003469
    16  C    0.043053  -0.003895   0.000452  -0.161842   0.066680   0.015969
    17  O   -0.000669   0.000080   0.000001   0.003217  -0.002678  -0.001359
    18  H    0.000113  -0.000090   0.000004  -0.000021   0.000229   0.000043
    19  C    0.001250   0.000766   0.000336  -0.148204   0.029587   0.014058
    20  O   -0.000071   0.000009  -0.000027   0.004397  -0.001642  -0.000945
    21  H    0.000034   0.000004   0.000001  -0.001222   0.000574   0.000211
    22  C   -0.007467  -0.001531   0.000248   0.105497   0.038737  -0.023004
    23  H    0.000167  -0.000029  -0.000039   0.001933   0.000701  -0.000270
    24  C   -0.032255   0.009856  -0.004849  -0.675099   0.140021   0.069610
    25  H    0.010638  -0.000829   0.002391  -0.096029   0.050583   0.007947
    26  H    0.395230  -0.076913  -0.057260  -0.016122  -0.020053  -0.000566
               7          8          9         10         11         12
     1  N    0.005209  -0.041639  -0.056182   0.055844  -0.054494   0.035701
     2  H    0.000476  -0.000703  -0.020224  -0.059267  -0.000491  -0.000832
     3  H   -0.000410   0.001878   0.012143   0.000659   0.005322  -0.002554
     4  C   -0.003008   0.091908  -0.209625   0.698952   0.023016  -0.338367
     5  C   -0.030226   0.162582   0.094691  -0.009413  -0.000390   0.105831
     6  O    0.330564  -0.026842  -0.000915   0.031628  -0.014737   0.009780
     7  H    0.481018  -0.042958  -0.005937  -0.010812  -0.000017   0.000856
     8  O   -0.042958   8.584705  -0.014525   0.015113   0.019062  -0.001330
     9  H   -0.005937  -0.014525   1.493163   0.053996   0.063646  -0.018608
    10  C   -0.010812   0.015113   0.053996   8.582349  -0.220025  -0.043737
    11  H   -0.000017   0.019062   0.063646  -0.220025   1.599377  -0.262260
    12  H    0.000856  -0.001330  -0.018608  -0.043737  -0.262260   1.333716
    13  C    0.023590  -0.012528  -0.001139  -0.712366  -0.024502   0.086602
    14  C   -0.001781   0.001481  -0.065235  -1.072048  -0.408347   0.252812
    15  H    0.001712   0.000422  -0.035051  -0.157747   0.008211   0.004089
    16  C    0.003320  -0.004890  -0.041233   0.023987  -0.066218   0.074752
    17  O    0.000043   0.000026   0.005311   0.052462   0.000879  -0.000688
    18  H   -0.000058  -0.000028  -0.000269   0.001012  -0.000120   0.000272
    19  C   -0.002415   0.001009  -0.006542  -0.053347   0.015421   0.025348
    20  O    0.000161   0.000020   0.000993   0.019084   0.001311  -0.000452
    21  H   -0.000003  -0.000004  -0.000525  -0.006611  -0.000258   0.000133
    22  C    0.000319  -0.007624   0.010307   0.019353   0.139500  -0.046670
    23  H    0.000045  -0.000469   0.000217   0.013111   0.002325  -0.001368
    24  C   -0.007017   0.018912   0.004657  -1.718198   0.400113  -0.123807
    25  H    0.000964  -0.002786  -0.000384   0.091771  -0.070520   0.024560
    26  H    0.000019   0.016116  -0.036757   0.012731   0.001598  -0.001100
              13         14         15         16         17         18
     1  N    0.299961   0.106866   0.018421   0.043053  -0.000669   0.000113
     2  H    0.007867  -0.005544  -0.000247  -0.003895   0.000080  -0.000090
     3  H    0.020151   0.008029  -0.000324   0.000452   0.000001   0.000004
     4  C   -1.091487  -0.905431  -0.070651  -0.161842   0.003217  -0.000021
     5  C    0.212588  -0.050976   0.040250   0.066680  -0.002678   0.000229
     6  O   -0.139597   0.116717   0.003469   0.015969  -0.001359   0.000043
     7  H    0.023590  -0.001781   0.001712   0.003320   0.000043  -0.000058
     8  O   -0.012528   0.001481   0.000422  -0.004890   0.000026  -0.000028
     9  H   -0.001139  -0.065235  -0.035051  -0.041233   0.005311  -0.000269
    10  C   -0.712366  -1.072048  -0.157747   0.023987   0.052462   0.001012
    11  H   -0.024502  -0.408347   0.008211  -0.066218   0.000879  -0.000120
    12  H    0.086602   0.252812   0.004089   0.074752  -0.000688   0.000272
    13  C   17.523383  -5.550689   0.836391   0.683447   0.017051   0.013092
    14  C   -5.550689  18.817105  -1.294972  -2.964643   0.326720  -0.076186
    15  H    0.836391  -1.294972   2.232088   0.421068  -0.107985   0.018217
    16  C    0.683447  -2.964643   0.421068  11.120723  -0.890703   0.026466
    17  O    0.017051   0.326720  -0.107985  -0.890703   9.132427   0.278845
    18  H    0.013092  -0.076186   0.018217   0.026466   0.278845   0.532623
    19  C   -4.269579   1.712368  -0.234700  -1.675817   0.238283  -0.021688
    20  O    0.209520  -0.026640   0.004751   0.304662  -0.044607   0.000514
    21  H   -0.022586   0.036808  -0.000344   0.067040   0.005240  -0.000589
    22  C    2.946139  -3.940504   0.045130   2.717213  -0.181334   0.058704
    23  H   -0.520295   0.196602   0.009123  -0.125850   0.001802  -0.002397
    24  C   -6.755369   0.385915   0.052306  -4.102858   0.113605  -0.050477
    25  H    1.114875   0.086383  -0.019937   0.172154  -0.000400   0.000475
    26  H    0.007013  -0.004256   0.001940   0.001870  -0.000139   0.000020
              19         20         21         22         23         24
     1  N    0.001250  -0.000071   0.000034  -0.007467   0.000167  -0.032255
     2  H    0.000766   0.000009   0.000004  -0.001531  -0.000029   0.009856
     3  H    0.000336  -0.000027   0.000001   0.000248  -0.000039  -0.004849
     4  C   -0.148204   0.004397  -0.001222   0.105497   0.001933  -0.675099
     5  C    0.029587  -0.001642   0.000574   0.038737   0.000701   0.140021
     6  O    0.014058  -0.000945   0.000211  -0.023004  -0.000270   0.069610
     7  H   -0.002415   0.000161  -0.000003   0.000319   0.000045  -0.007017
     8  O    0.001009   0.000020  -0.000004  -0.007624  -0.000469   0.018912
     9  H   -0.006542   0.000993  -0.000525   0.010307   0.000217   0.004657
    10  C   -0.053347   0.019084  -0.006611   0.019353   0.013111  -1.718198
    11  H    0.015421   0.001311  -0.000258   0.139500   0.002325   0.400113
    12  H    0.025348  -0.000452   0.000133  -0.046670  -0.001368  -0.123807
    13  C   -4.269579   0.209520  -0.022586   2.946139  -0.520295  -6.755369
    14  C    1.712368  -0.026640   0.036808  -3.940504   0.196602   0.385915
    15  H   -0.234700   0.004751  -0.000344   0.045130   0.009123   0.052306
    16  C   -1.675817   0.304662   0.067040   2.717213  -0.125850  -4.102858
    17  O    0.238283  -0.044607   0.005240  -0.181334   0.001802   0.113605
    18  H   -0.021688   0.000514  -0.000589   0.058704  -0.002397  -0.050477
    19  C   10.664894  -0.674471  -0.096274  -4.898051   1.297791   4.026766
    20  O   -0.674471   8.932175   0.339334   0.117555  -0.068360  -0.194355
    21  H   -0.096274   0.339334   0.536185  -0.101723  -0.001935   0.038193
    22  C   -4.898051   0.117555  -0.101723  15.312024  -1.659431  -6.010843
    23  H    1.297791  -0.068360  -0.001935  -1.659431   1.859207   0.625289
    24  C    4.026766  -0.194355   0.038193  -6.010843   0.625289  21.037397
    25  H   -0.512953  -0.003380  -0.000952   0.638833  -0.128683  -1.924668
    26  H   -0.000435   0.000002   0.000006   0.000777   0.000038   0.001060
              25         26
     1  N    0.010638   0.395230
     2  H   -0.000829  -0.076913
     3  H    0.002391  -0.057260
     4  C   -0.096029  -0.016122
     5  C    0.050583  -0.020053
     6  O    0.007947  -0.000566
     7  H    0.000964   0.000019
     8  O   -0.002786   0.016116
     9  H   -0.000384  -0.036757
    10  C    0.091771   0.012731
    11  H   -0.070520   0.001598
    12  H    0.024560  -0.001100
    13  C    1.114875   0.007013
    14  C    0.086383  -0.004256
    15  H   -0.019937   0.001940
    16  C    0.172154   0.001870
    17  O   -0.000400  -0.000139
    18  H    0.000475   0.000020
    19  C   -0.512953  -0.000435
    20  O   -0.003380   0.000002
    21  H   -0.000952   0.000006
    22  C    0.638833   0.000777
    23  H   -0.128683   0.000038
    24  C   -1.924668   0.001060
    25  H    2.299853   0.000023
    26  H    0.000023   0.592112
 Mulliken charges:
               1
     1  N   -0.518004
     2  H    0.217580
     3  H    0.274029
     4  C    0.800583
     5  C    1.162845
     6  O   -0.749313
     7  H    0.256346
     8  O   -0.756909
     9  H   -0.225971
    10  C    0.391517
    11  H   -0.157402
    12  H   -0.112676
    13  C    1.098468
    14  C    0.319446
    15  H   -0.775631
    16  C    0.295092
    17  O   -0.945430
    18  H    0.221294
    19  C    0.566595
    20  O   -0.919541
    21  H    0.209260
    22  C    0.727844
    23  H   -0.499227
    24  C    0.676093
    25  H   -0.739930
    26  H    0.183044
 Sum of Mulliken charges =   1.00000
 Mulliken charges with hydrogens summed into heavy atoms:
               1
     1  N    0.156649
     4  C    0.574612
     5  C    1.162845
     6  O   -0.492967
     8  O   -0.756909
    10  C    0.121438
    13  C    1.098468
    14  C   -0.456185
    16  C    0.295092
    17  O   -0.724136
    19  C    0.566595
    20  O   -0.710281
    22  C    0.228617
    24  C   -0.063837
 Electronic spatial extent (au):  <R**2>=           3275.7497
 Charge=              1.0000 electrons
 Dipole moment (field-independent basis, Debye):
    X=             12.4848    Y=              7.2338    Z=              0.3843  Tot=             14.4342
 Quadrupole moment (field-independent basis, Debye-Ang):
   XX=            -32.0129   YY=            -60.5370   ZZ=            -74.1416
   XY=             16.9990   XZ=             -5.2332   YZ=             -0.2430
 Traceless Quadrupole moment (field-independent basis, Debye-Ang):
   XX=             23.5510   YY=             -4.9732   ZZ=            -18.5778
   XY=             16.9990   XZ=             -5.2332   YZ=             -0.2430
 Octapole moment (field-independent basis, Debye-Ang**2):
  XXX=            185.6548  YYY=             29.2686  ZZZ=             18.9973  XYY=             22.2712
  XXY=            113.1726  XXZ=              7.5025  XZZ=             24.4422  YZZ=             -6.3390
  YYZ=             15.2762  XYZ=            -21.2498
 Hexadecapole moment (field-independent basis, Debye-Ang**3):
 XXXX=          -2188.3219 YYYY=           -510.6466 ZZZZ=           -392.7440 XXXY=            280.9396
 XXXZ=           -120.7008 YYYX=             16.2556 YYYZ=              0.6428 ZZZX=            -16.4293
 ZZZY=            -20.4251 XXYY=           -501.4255 XXZZ=           -496.6543 YYZZ=           -126.0987
 XXYZ=             -4.3769 YYXZ=             -8.5962 ZZXY=            -11.0854
 N-N= 9.079782518371D+02 E-N=-3.447335292865D+03  KE= 7.005976373601D+02
 Leave Link  601 at Sun Jul 18 16:04:30 2021, MaxMem=   262144000 cpu:               0.3 elap:               0.3
 (Enter /dades/curu/g16A03_MST/g16/l9999.exe)
 1\1\GINC-PIRINEUS48\SP\RMP2-FC\Aug-CC-pVDZ\C9H12N1O4(1+)\UBATOR02\18-J
 ul-2021\0\\#p mp2/aug-cc-pVDZ scf=tight maxdisk=180GB geom=allcheck\\S
 ET_328_BBB292_conf1.geo_075_060_255 geometry\\1,1\N,0,-0.0996074953,3.
 6379551639,-0.2116443061\H,0,0.7740076843,3.8748605065,-0.6978061104\H
 ,0,-0.0142351721,3.9769247334,0.7567096315\C,0,-0.3823927238,2.1642662
 438,-0.258295306\C,0,-1.6620821838,1.9308458373,0.5364038801\O,0,-2.36
 77438966,0.9182937738,0.0358692751\H,0,-3.1439656261,0.7662964515,0.61
 10368617\O,0,-1.9645279939,2.5871480282,1.5093675852\H,0,-0.5387544734
 ,1.8998860303,-1.303937548\C,0,0.8105754619,1.3789447715,0.3327299006\
 H,0,0.9344751396,1.6728874625,1.379434248\H,0,1.7134766141,1.695027375
 8,-0.202014864\C,0,0.6412224888,-0.1201443621,0.2441008433\C,0,0.77654
 78314,-0.7803958533,-0.9881974024\H,0,1.0246727942,-0.2222941555,-1.88
 67493566\C,0,0.6015859842,-2.155584222,-1.0683149778\O,0,0.7106347707,
 -2.9032845377,-2.2102060468\H,0,0.9279397047,-2.3415386861,-2.97024690
 33\C,0,0.2910193214,-2.901756953,0.0856826622\O,0,0.123709762,-4.24922
 02508,-0.0026293398\H,0,0.2579196198,-4.498653965,-0.9342137514\C,0,0.
 1653711886,-2.2515692288,1.3067719698\H,0,-0.0655438059,-2.8371122155,
 2.1902636403\C,0,0.33917818,-0.8674865212,1.3832232163\H,0,0.243172685
 5,-0.369805484,2.3431144009\H,0,-0.8456558603,4.1905100562,-0.65445220
 22\\Version=ES64L-G16RevA.03\State=1-A\HF=-701.5950079\MP2=-703.794211
 9\RMSD=3.623e-09\PG=C01 [X(C9H12N1O4)]\\@


 GOD GAVE US TWO ENDS... ONE TO SIT ON...    
 AND THE OTHER TO THINK WITH...              
 YOUR SUCCESS DEPENDS UPON WHICH END YOU     
 USE THE MOST...                             
                                             
 IT'S A CASE OF HEADS YOU WIN TAILS YOU LOSE.
          SOURCE UNKNOWN(IT'S JUST AS WELL.) 
 Job cpu time:       0 days  1 hours 17 minutes  5.0 seconds.
 Elapsed time:       0 days  0 hours 28 minutes 52.2 seconds.
 File lengths (MBytes):  RWF=  27399 Int=      0 D2E=      0 Chk=     16 Scr=      1
 Normal termination of Gaussian 16 at Sun Jul 18 16:04:31 2021.
