 Entering Gaussian System, Link 0=g16
 Input=SET_328_BBB321_conf1.geo_165_030_120_OCTANOL.dat
 Output=SET_328_BBB321_conf1.geo_165_030_120_OCTANOL.log
 Initial command:
 /dades/curu/g16A03_MST/g16/l1.exe "/tmp/ubator02/1839681/Gau-72117.inp" -scrdir="/tmp/ubator02/1839681/"
 Entering Link 1 = /dades/curu/g16A03_MST/g16/l1.exe PID=     72118.
  
 Copyright (c) 1988,1990,1992,1993,1995,1998,2003,2009,2016,
            Gaussian, Inc.  All Rights Reserved.
  
 This is part of the Gaussian(R) 16 program.  It is based on
 the Gaussian(R) 09 system (copyright 2009, Gaussian, Inc.),
 the Gaussian(R) 03 system (copyright 2003, Gaussian, Inc.),
 the Gaussian(R) 98 system (copyright 1998, Gaussian, Inc.),
 the Gaussian(R) 94 system (copyright 1995, Gaussian, Inc.),
 the Gaussian 92(TM) system (copyright 1992, Gaussian, Inc.),
 the Gaussian 90(TM) system (copyright 1990, Gaussian, Inc.),
 the Gaussian 88(TM) system (copyright 1988, Gaussian, Inc.),
 the Gaussian 86(TM) system (copyright 1986, Carnegie Mellon
 University), and the Gaussian 82(TM) system (copyright 1983,
 Carnegie Mellon University). Gaussian is a federally registered
 trademark of Gaussian, Inc.
  
 This software contains proprietary and confidential information,
 including trade secrets, belonging to Gaussian, Inc.
  
 This software is provided under written license and may be
 used, copied, transmitted, or stored only in accord with that
 written license.
  
 The following legend is applicable only to US Government
 contracts under FAR:
  
                    RESTRICTED RIGHTS LEGEND
  
 Use, reproduction and disclosure by the US Government is
 subject to restrictions as set forth in subparagraphs (a)
 and (c) of the Commercial Computer Software - Restricted
 Rights clause in FAR 52.227-19.
  
 Gaussian, Inc.
 340 Quinnipiac St., Bldg. 40, Wallingford CT 06492
  
  
 ---------------------------------------------------------------
 Warning -- This program may not be used in any manner that
 competes with the business of Gaussian, Inc. or will provide
 assistance to any competitor of Gaussian, Inc.  The licensee
 of this program is prohibited from giving any competitor of
 Gaussian, Inc. access to this program.  By using this program,
 the user acknowledges that Gaussian, Inc. is engaged in the
 business of creating and licensing software in the field of
 computational chemistry and represents and warrants to the
 licensee that it is not a competitor of Gaussian, Inc. and that
 it will not use this program in any manner prohibited above.
 ---------------------------------------------------------------
  

 Cite this work as:
 Gaussian 16, Revision A.03,
 M. J. Frisch, G. W. Trucks, H. B. Schlegel, G. E. Scuseria, 
 M. A. Robb, J. R. Cheeseman, G. Scalmani, V. Barone, 
 G. A. Petersson, H. Nakatsuji, X. Li, M. Caricato, A. V. Marenich, 
 J. Bloino, B. G. Janesko, R. Gomperts, B. Mennucci, H. P. Hratchian, 
 J. V. Ortiz, A. F. Izmaylov, J. L. Sonnenberg, D. Williams-Young, 
 F. Ding, F. Lipparini, F. Egidi, J. Goings, B. Peng, A. Petrone, 
 T. Henderson, D. Ranasinghe, V. G. Zakrzewski, J. Gao, N. Rega, 
 G. Zheng, W. Liang, M. Hada, M. Ehara, K. Toyota, R. Fukuda, 
 J. Hasegawa, M. Ishida, T. Nakajima, Y. Honda, O. Kitao, H. Nakai, 
 T. Vreven, K. Throssell, J. A. Montgomery, Jr., J. E. Peralta, 
 F. Ogliaro, M. J. Bearpark, J. J. Heyd, E. N. Brothers, K. N. Kudin, 
 V. N. Staroverov, T. A. Keith, R. Kobayashi, J. Normand, 
 K. Raghavachari, A. P. Rendell, J. C. Burant, S. S. Iyengar, 
 J. Tomasi, M. Cossi, J. M. Millam, M. Klene, C. Adamo, R. Cammi, 
 J. W. Ochterski, R. L. Martin, K. Morokuma, O. Farkas, 
 J. B. Foresman, and D. J. Fox, Gaussian, Inc., Wallingford CT, 2016.
 
 ******************************************
 Gaussian 16:  ES64L-G16RevA.03 25-Dec-2016
                18-Jul-2021 
 ******************************************
 %mem=800MB
 %nproc=4
 Will use up to    4 processors via shared memory.
 %chk=SET_328_BBB321_conf1.geo_165_030_120.chk
 ---------------------------------------------------------------
 #p b3lyp/6-31G(d) opt freq scrf=(iefpcm,read,solvent=n-octanol)
 ---------------------------------------------------------------
 1/18=20,19=15,26=3,38=1,40=2/1,3;
 2/9=110,12=2,17=6,18=5,40=1/2;
 3/5=1,6=6,7=1,11=2,25=1,30=1,70=2203,71=1,72=25,74=-5/1,2,3;
 4//1;
 5/5=2,38=5,53=25/2;
 6/7=2,8=2,9=2,10=2,28=1/1;
 7//1,2,3,16;
 1/18=20,19=15,26=3/3(2);
 2/9=110/2;
 99//99;
 2/9=110/2;
 3/5=1,6=6,7=1,11=2,25=1,30=1,70=2205,71=1,72=25,74=-5/1,2,3;
 4/5=5,16=3,69=1/1;
 5/5=2,38=5,53=25/2;
 7//1,2,3,16;
 1/18=20,19=15,26=3/3(-5);
 2/9=110/2;
 6/7=2,8=2,9=2,10=2,19=2,28=1/1;
 99/9=1/99;
 Leave Link    1 at Sun Jul 18 15:50:40 2021, MaxMem=   104857600 cpu:               0.0 elap:               0.0
 (Enter /dades/curu/g16A03_MST/g16/l101.exe)
 ---------------------------------------------
 SET_328_BBB321_conf1.geo_165_030_120 geometry
 ---------------------------------------------
 Symbolic Z-matrix:
 Charge =  1 Multiplicity = 1
 C                     1.687     1.114     5.048 
 H                     2.646     1.122     5.57 
 H                     1.438     0.053     5.115 
 H                     0.955     1.734     5.569 
 C                     1.874     1.461     3.64 
 O                     2.953     1.803     3.175 
 N                     0.796     1.343     2.864 
 H                     0.09      0.71      3.21 
 C                     0.738     1.669     1.567 
 C                     0.844     3.028     1.24 
 C                     0.653     3.463    -0.083 
 C                     0.283     2.466    -1.014 
 H                     0.08      2.824    -2.02 
 H                     0.729     4.509    -0.37 
 H                     1.159     3.803     1.934 
 C                     0.414     0.686     0.596 
 H                     0.382    -0.359     0.895 
 C                     0.172     1.114    -0.706 
 C                    -0.246     0.241    -1.741 
 N                    -0.998    -0.874    -1.564 
 C                     0.058     0.555    -3.049 
 H                     0.779     1.216    -3.514 
 S                    -0.485    -0.617    -4.17 
 C                    -1.229    -1.428    -2.806 
 N                    -1.924    -2.534    -3.158 
 C                    -2.28     -3.401    -2.327 
 N                    -2.975    -4.316    -2.714 
 H                    -2.843    -4.381    -3.718 
 H                    -2.6      -5.181    -2.339 
 N                    -1.36     -4.108    -1.836 
 H                    -0.554    -3.91     -2.418 
 H                    -1.236    -3.805    -0.876 
 H                    -2.163    -2.665    -4.12 
 
 ITRead=  0  0  0  0  0  0  0  0  0  0  0  0  0  0  0  0  0  0  0  0
 ITRead=  0  0  0  0  0  0  0  0  0  0  0  0  0
 MicOpt= -1 -1 -1 -1 -1 -1 -1 -1 -1 -1 -1 -1 -1 -1 -1 -1 -1 -1 -1 -1
 MicOpt= -1 -1 -1 -1 -1 -1 -1 -1 -1 -1 -1 -1 -1
 NAtoms=     33 NQM=       33 NQMF=       0 NMMI=      0 NMMIF=      0
                NMic=       0 NMicF=      0.
                    Isotopes and Nuclear Properties:
 (Nuclear quadrupole moments (NQMom) in fm**2, nuclear magnetic moments (NMagM)
  in nuclear magnetons)

  Atom         1           2           3           4           5           6           7           8           9          10
 IAtWgt=          12           1           1           1          12          16          14           1          12          12
 AtmWgt=  12.0000000   1.0078250   1.0078250   1.0078250  12.0000000  15.9949146  14.0030740   1.0078250  12.0000000  12.0000000
 NucSpn=           0           1           1           1           0           0           2           1           0           0
 AtZEff=  -0.0000000  -0.0000000  -0.0000000  -0.0000000  -0.0000000  -0.0000000  -0.0000000  -0.0000000  -0.0000000  -0.0000000
 NQMom=    0.0000000   0.0000000   0.0000000   0.0000000   0.0000000   0.0000000   2.0440000   0.0000000   0.0000000   0.0000000
 NMagM=    0.0000000   2.7928460   2.7928460   2.7928460   0.0000000   0.0000000   0.4037610   2.7928460   0.0000000   0.0000000
 AtZNuc=   6.0000000   1.0000000   1.0000000   1.0000000   6.0000000   8.0000000   7.0000000   1.0000000   6.0000000   6.0000000

  Atom        11          12          13          14          15          16          17          18          19          20
 IAtWgt=          12          12           1           1           1          12           1          12          12          14
 AtmWgt=  12.0000000  12.0000000   1.0078250   1.0078250   1.0078250  12.0000000   1.0078250  12.0000000  12.0000000  14.0030740
 NucSpn=           0           0           1           1           1           0           1           0           0           2
 AtZEff=  -0.0000000  -0.0000000  -0.0000000  -0.0000000  -0.0000000  -0.0000000  -0.0000000  -0.0000000  -0.0000000  -0.0000000
 NQMom=    0.0000000   0.0000000   0.0000000   0.0000000   0.0000000   0.0000000   0.0000000   0.0000000   0.0000000   2.0440000
 NMagM=    0.0000000   0.0000000   2.7928460   2.7928460   2.7928460   0.0000000   2.7928460   0.0000000   0.0000000   0.4037610
 AtZNuc=   6.0000000   6.0000000   1.0000000   1.0000000   1.0000000   6.0000000   1.0000000   6.0000000   6.0000000   7.0000000

  Atom        21          22          23          24          25          26          27          28          29          30
 IAtWgt=          12           1          32          12          14          12          14           1           1          14
 AtmWgt=  12.0000000   1.0078250  31.9720718  12.0000000  14.0030740  12.0000000  14.0030740   1.0078250   1.0078250  14.0030740
 NucSpn=           0           1           0           0           2           0           2           1           1           2
 AtZEff=  -0.0000000  -0.0000000  -0.0000000  -0.0000000  -0.0000000  -0.0000000  -0.0000000  -0.0000000  -0.0000000  -0.0000000
 NQMom=    0.0000000   0.0000000   0.0000000   0.0000000   2.0440000   0.0000000   2.0440000   0.0000000   0.0000000   2.0440000
 NMagM=    0.0000000   2.7928460   0.0000000   0.0000000   0.4037610   0.0000000   0.4037610   2.7928460   2.7928460   0.4037610
 AtZNuc=   6.0000000   1.0000000  16.0000000   6.0000000   7.0000000   6.0000000   7.0000000   1.0000000   1.0000000   7.0000000

  Atom        31          32          33
 IAtWgt=           1           1           1
 AtmWgt=   1.0078250   1.0078250   1.0078250
 NucSpn=           1           1           1
 AtZEff=  -0.0000000  -0.0000000  -0.0000000
 NQMom=    0.0000000   0.0000000   0.0000000
 NMagM=    2.7928460   2.7928460   2.7928460
 AtZNuc=   1.0000000   1.0000000   1.0000000
 Leave Link  101 at Sun Jul 18 15:50:40 2021, MaxMem=   104857600 cpu:               0.1 elap:               0.1
 (Enter /dades/curu/g16A03_MST/g16/l103.exe)

 GradGradGradGradGradGradGradGradGradGradGradGradGradGradGradGradGradGrad
 Berny optimization.
 Initialization pass.
                           ----------------------------
                           !    Initial Parameters    !
                           ! (Angstroms and Degrees)  !
 --------------------------                            --------------------------
 ! Name  Definition              Value          Derivative Info.                !
 --------------------------------------------------------------------------------
 ! R1    R(1,2)                  1.0919         estimate D2E/DX2                !
 ! R2    R(1,3)                  1.0919         estimate D2E/DX2                !
 ! R3    R(1,4)                  1.0916         estimate D2E/DX2                !
 ! R4    R(1,5)                  1.4621         estimate D2E/DX2                !
 ! R5    R(5,6)                  1.2237         estimate D2E/DX2                !
 ! R6    R(5,7)                  1.3335         estimate D2E/DX2                !
 ! R7    R(7,8)                  1.0094         estimate D2E/DX2                !
 ! R8    R(7,9)                  1.3386         estimate D2E/DX2                !
 ! R9    R(9,10)                 1.4018         estimate D2E/DX2                !
 ! R10   R(9,16)                 1.4192         estimate D2E/DX2                !
 ! R11   R(10,11)                1.4057         estimate D2E/DX2                !
 ! R12   R(10,15)                1.087          estimate D2E/DX2                !
 ! R13   R(11,12)                1.4134         estimate D2E/DX2                !
 ! R14   R(11,14)                1.0873         estimate D2E/DX2                !
 ! R15   R(12,13)                1.0869         estimate D2E/DX2                !
 ! R16   R(12,18)                1.3911         estimate D2E/DX2                !
 ! R17   R(16,17)                1.0874         estimate D2E/DX2                !
 ! R18   R(16,18)                1.3917         estimate D2E/DX2                !
 ! R19   R(18,19)                1.4171         estimate D2E/DX2                !
 ! R20   R(19,20)                1.3565         estimate D2E/DX2                !
 ! R21   R(19,21)                1.3791         estimate D2E/DX2                !
 ! R22   R(20,24)                1.3794         estimate D2E/DX2                !
 ! R23   R(21,22)                1.083          estimate D2E/DX2                !
 ! R24   R(21,23)                1.7103         estimate D2E/DX2                !
 ! R25   R(23,24)                1.7526         estimate D2E/DX2                !
 ! R26   R(24,25)                1.3528         estimate D2E/DX2                !
 ! R27   R(25,26)                1.2526         estimate D2E/DX2                !
 ! R28   R(25,33)                0.9999         estimate D2E/DX2                !
 ! R29   R(26,27)                1.2124         estimate D2E/DX2                !
 ! R30   R(26,30)                1.2599         estimate D2E/DX2                !
 ! R31   R(27,28)                1.0147         estimate D2E/DX2                !
 ! R32   R(27,29)                1.0146         estimate D2E/DX2                !
 ! R33   R(30,31)                1.0137         estimate D2E/DX2                !
 ! R34   R(30,32)                1.0143         estimate D2E/DX2                !
 ! A1    A(2,1,3)              100.2577         estimate D2E/DX2                !
 ! A2    A(2,1,4)              110.8924         estimate D2E/DX2                !
 ! A3    A(2,1,5)              110.2612         estimate D2E/DX2                !
 ! A4    A(3,1,4)              111.6964         estimate D2E/DX2                !
 ! A5    A(3,1,5)              108.5944         estimate D2E/DX2                !
 ! A6    A(4,1,5)              114.2404         estimate D2E/DX2                !
 ! A7    A(1,5,6)              123.0265         estimate D2E/DX2                !
 ! A8    A(1,5,7)              115.8486         estimate D2E/DX2                !
 ! A9    A(6,5,7)              121.0922         estimate D2E/DX2                !
 ! A10   A(5,7,8)              114.9261         estimate D2E/DX2                !
 ! A11   A(5,7,9)              125.2627         estimate D2E/DX2                !
 ! A12   A(8,7,9)              117.0363         estimate D2E/DX2                !
 ! A13   A(7,9,10)             117.3128         estimate D2E/DX2                !
 ! A14   A(7,9,16)             120.274          estimate D2E/DX2                !
 ! A15   A(10,9,16)            121.9487         estimate D2E/DX2                !
 ! A16   A(9,10,11)            120.6154         estimate D2E/DX2                !
 ! A17   A(9,10,15)            124.3469         estimate D2E/DX2                !
 ! A18   A(11,10,15)           114.8123         estimate D2E/DX2                !
 ! A19   A(10,11,12)           115.9269         estimate D2E/DX2                !
 ! A20   A(10,11,14)           122.4535         estimate D2E/DX2                !
 ! A21   A(12,11,14)           121.5353         estimate D2E/DX2                !
 ! A22   A(11,12,13)           115.2275         estimate D2E/DX2                !
 ! A23   A(11,12,18)           124.0992         estimate D2E/DX2                !
 ! A24   A(13,12,18)           120.6732         estimate D2E/DX2                !
 ! A25   A(9,16,17)            118.9617         estimate D2E/DX2                !
 ! A26   A(9,16,18)            117.8243         estimate D2E/DX2                !
 ! A27   A(17,16,18)           123.2062         estimate D2E/DX2                !
 ! A28   A(12,18,16)           119.4819         estimate D2E/DX2                !
 ! A29   A(12,18,19)           117.4245         estimate D2E/DX2                !
 ! A30   A(16,18,19)           123.0328         estimate D2E/DX2                !
 ! A31   A(18,19,20)           125.0724         estimate D2E/DX2                !
 ! A32   A(18,19,21)           119.1726         estimate D2E/DX2                !
 ! A33   A(20,19,21)           115.6654         estimate D2E/DX2                !
 ! A34   A(19,20,24)           107.7863         estimate D2E/DX2                !
 ! A35   A(19,21,22)           133.8619         estimate D2E/DX2                !
 ! A36   A(19,21,23)           113.3064         estimate D2E/DX2                !
 ! A37   A(22,21,23)           110.3757         estimate D2E/DX2                !
 ! A38   A(21,23,24)            86.6615         estimate D2E/DX2                !
 ! A39   A(20,24,23)           116.3459         estimate D2E/DX2                !
 ! A40   A(20,24,25)           130.4389         estimate D2E/DX2                !
 ! A41   A(23,24,25)           113.1965         estimate D2E/DX2                !
 ! A42   A(24,25,26)           122.6335         estimate D2E/DX2                !
 ! A43   A(24,25,33)           118.702          estimate D2E/DX2                !
 ! A44   A(26,25,33)           118.6645         estimate D2E/DX2                !
 ! A45   A(25,26,27)           118.2628         estimate D2E/DX2                !
 ! A46   A(25,26,30)           116.0672         estimate D2E/DX2                !
 ! A47   A(27,26,30)            96.8621         estimate D2E/DX2                !
 ! A48   A(26,27,28)           106.8335         estimate D2E/DX2                !
 ! A49   A(26,27,29)           108.2734         estimate D2E/DX2                !
 ! A50   A(28,27,29)           105.248          estimate D2E/DX2                !
 ! A51   A(26,30,31)           104.3148         estimate D2E/DX2                !
 ! A52   A(26,30,32)           106.8874         estimate D2E/DX2                !
 ! A53   A(31,30,32)           112.8211         estimate D2E/DX2                !
 ! D1    D(2,1,5,6)             -4.9855         estimate D2E/DX2                !
 ! D2    D(2,1,5,7)            172.9527         estimate D2E/DX2                !
 ! D3    D(3,1,5,6)           -113.9186         estimate D2E/DX2                !
 ! D4    D(3,1,5,7)             64.0195         estimate D2E/DX2                !
 ! D5    D(4,1,5,6)            120.6838         estimate D2E/DX2                !
 ! D6    D(4,1,5,7)            -61.3781         estimate D2E/DX2                !
 ! D7    D(1,5,7,8)            -22.8402         estimate D2E/DX2                !
 ! D8    D(1,5,7,9)            176.6871         estimate D2E/DX2                !
 ! D9    D(6,5,7,8)            155.1411         estimate D2E/DX2                !
 ! D10   D(6,5,7,9)             -5.3316         estimate D2E/DX2                !
 ! D11   D(5,7,9,10)           -67.6331         estimate D2E/DX2                !
 ! D12   D(5,7,9,16)           120.0351         estimate D2E/DX2                !
 ! D13   D(8,7,9,10)           132.2627         estimate D2E/DX2                !
 ! D14   D(8,7,9,16)           -40.0691         estimate D2E/DX2                !
 ! D15   D(7,9,10,11)         -173.3277         estimate D2E/DX2                !
 ! D16   D(7,9,10,15)           12.4163         estimate D2E/DX2                !
 ! D17   D(16,9,10,11)          -1.1332         estimate D2E/DX2                !
 ! D18   D(16,9,10,15)        -175.3892         estimate D2E/DX2                !
 ! D19   D(7,9,16,17)          -10.3608         estimate D2E/DX2                !
 ! D20   D(7,9,16,18)          170.6194         estimate D2E/DX2                !
 ! D21   D(10,9,16,17)         177.6712         estimate D2E/DX2                !
 ! D22   D(10,9,16,18)          -1.3486         estimate D2E/DX2                !
 ! D23   D(9,10,11,12)           3.3493         estimate D2E/DX2                !
 ! D24   D(9,10,11,14)        -179.9431         estimate D2E/DX2                !
 ! D25   D(15,10,11,12)        178.126          estimate D2E/DX2                !
 ! D26   D(15,10,11,14)         -5.1664         estimate D2E/DX2                !
 ! D27   D(10,11,12,13)        176.4733         estimate D2E/DX2                !
 ! D28   D(10,11,12,18)         -3.3929         estimate D2E/DX2                !
 ! D29   D(14,11,12,13)         -0.2671         estimate D2E/DX2                !
 ! D30   D(14,11,12,18)        179.8667         estimate D2E/DX2                !
 ! D31   D(11,12,18,16)          1.0254         estimate D2E/DX2                !
 ! D32   D(11,12,18,19)        178.2766         estimate D2E/DX2                !
 ! D33   D(13,12,18,16)       -178.8339         estimate D2E/DX2                !
 ! D34   D(13,12,18,19)         -1.5827         estimate D2E/DX2                !
 ! D35   D(9,16,18,12)           1.396          estimate D2E/DX2                !
 ! D36   D(9,16,18,19)        -175.6936         estimate D2E/DX2                !
 ! D37   D(17,16,18,12)       -177.579          estimate D2E/DX2                !
 ! D38   D(17,16,18,19)          5.3314         estimate D2E/DX2                !
 ! D39   D(12,18,19,20)       -146.7269         estimate D2E/DX2                !
 ! D40   D(12,18,19,21)         29.6745         estimate D2E/DX2                !
 ! D41   D(16,18,19,20)         30.4189         estimate D2E/DX2                !
 ! D42   D(16,18,19,21)       -153.1797         estimate D2E/DX2                !
 ! D43   D(18,19,20,24)        178.1529         estimate D2E/DX2                !
 ! D44   D(21,19,20,24)          1.6388         estimate D2E/DX2                !
 ! D45   D(18,19,21,22)         18.6389         estimate D2E/DX2                !
 ! D46   D(18,19,21,23)        178.6604         estimate D2E/DX2                !
 ! D47   D(20,19,21,22)       -164.6283         estimate D2E/DX2                !
 ! D48   D(20,19,21,23)         -4.6068         estimate D2E/DX2                !
 ! D49   D(19,20,24,23)          1.9601         estimate D2E/DX2                !
 ! D50   D(19,20,24,25)       -179.7382         estimate D2E/DX2                !
 ! D51   D(19,21,23,24)          4.4887         estimate D2E/DX2                !
 ! D52   D(22,21,23,24)        169.2531         estimate D2E/DX2                !
 ! D53   D(21,23,24,20)         -3.7659         estimate D2E/DX2                !
 ! D54   D(21,23,24,25)        177.6402         estimate D2E/DX2                !
 ! D55   D(20,24,25,26)        -14.1375         estimate D2E/DX2                !
 ! D56   D(20,24,25,33)        165.8793         estimate D2E/DX2                !
 ! D57   D(23,24,25,26)        164.2068         estimate D2E/DX2                !
 ! D58   D(23,24,25,33)        -15.7763         estimate D2E/DX2                !
 ! D59   D(24,25,26,27)        175.222          estimate D2E/DX2                !
 ! D60   D(24,25,26,30)        -70.3215         estimate D2E/DX2                !
 ! D61   D(33,25,26,27)         -4.7948         estimate D2E/DX2                !
 ! D62   D(33,25,26,30)        109.6617         estimate D2E/DX2                !
 ! D63   D(25,26,27,28)         21.1655         estimate D2E/DX2                !
 ! D64   D(25,26,27,29)        134.0745         estimate D2E/DX2                !
 ! D65   D(30,26,27,28)       -103.3895         estimate D2E/DX2                !
 ! D66   D(30,26,27,29)          9.5195         estimate D2E/DX2                !
 ! D67   D(25,26,30,31)        -12.2022         estimate D2E/DX2                !
 ! D68   D(25,26,30,32)        107.5195         estimate D2E/DX2                !
 ! D69   D(27,26,30,31)        113.9413         estimate D2E/DX2                !
 ! D70   D(27,26,30,32)       -126.337          estimate D2E/DX2                !
 --------------------------------------------------------------------------------
 Trust Radius=3.00D-01 FncErr=1.00D-07 GrdErr=1.00D-06 EigMax=2.50D+02 EigMin=1.00D-04
 Number of steps in this run=    167 maximum allowed number of steps=    198.
 GradGradGradGradGradGradGradGradGradGradGradGradGradGradGradGradGradGrad

 Leave Link  103 at Sun Jul 18 15:50:40 2021, MaxMem=   104857600 cpu:               0.1 elap:               0.0
 (Enter /dades/curu/g16A03_MST/g16/l202.exe)
                          Input orientation:                          
 ---------------------------------------------------------------------
 Center     Atomic      Atomic             Coordinates (Angstroms)
 Number     Number       Type             X           Y           Z
 ---------------------------------------------------------------------
      1          6           0        1.687000    1.114000    5.048000
      2          1           0        2.646000    1.122000    5.570000
      3          1           0        1.438000    0.053000    5.115000
      4          1           0        0.955000    1.734000    5.569000
      5          6           0        1.874000    1.461000    3.640000
      6          8           0        2.953000    1.803000    3.175000
      7          7           0        0.796000    1.343000    2.864000
      8          1           0        0.090000    0.710000    3.210000
      9          6           0        0.738000    1.669000    1.567000
     10          6           0        0.844000    3.028000    1.240000
     11          6           0        0.653000    3.463000   -0.083000
     12          6           0        0.283000    2.466000   -1.014000
     13          1           0        0.080000    2.824000   -2.020000
     14          1           0        0.729000    4.509000   -0.370000
     15          1           0        1.159000    3.803000    1.934000
     16          6           0        0.414000    0.686000    0.596000
     17          1           0        0.382000   -0.359000    0.895000
     18          6           0        0.172000    1.114000   -0.706000
     19          6           0       -0.246000    0.241000   -1.741000
     20          7           0       -0.998000   -0.874000   -1.564000
     21          6           0        0.058000    0.555000   -3.049000
     22          1           0        0.779000    1.216000   -3.514000
     23         16           0       -0.485000   -0.617000   -4.170000
     24          6           0       -1.229000   -1.428000   -2.806000
     25          7           0       -1.924000   -2.534000   -3.158000
     26          6           0       -2.280000   -3.401000   -2.327000
     27          7           0       -2.975000   -4.316000   -2.714000
     28          1           0       -2.843000   -4.381000   -3.718000
     29          1           0       -2.600000   -5.181000   -2.339000
     30          7           0       -1.360000   -4.108000   -1.836000
     31          1           0       -0.554000   -3.910000   -2.418000
     32          1           0       -1.236000   -3.805000   -0.876000
     33          1           0       -2.163000   -2.665000   -4.120000
 ---------------------------------------------------------------------
                    Distance matrix (angstroms):
                    1          2          3          4          5
     1  C    0.000000
     2  H    1.091892   0.000000
     3  H    1.091884   1.676022   0.000000
     4  H    1.091634   1.798340   1.806977   0.000000
     5  C    1.462136   2.106135   2.085230   2.154096   0.000000
     6  O    2.363389   2.508792   3.020153   3.118974   1.223695
     7  N    2.369848   3.285388   2.672689   2.737734   1.333486
     8  H    2.468171   3.503210   2.424413   2.713242   1.982815
     9  C    3.650478   4.468074   3.961030   4.008406   2.372992
    10  C    4.344526   5.062503   4.921289   4.519624   3.045717
    11  C    5.737083   6.434962   6.266062   5.918256   4.399952
    12  C    6.367650   7.123143   6.687394   6.657574   5.020062
    13  H    7.447360   8.190803   7.773727   7.716647   6.091946
    14  H    6.465177   7.101426   7.102383   6.559224   5.165407
    15  H    4.148072   4.755988   4.925353   4.187553   2.984397
    16  C    4.650163   5.469241   4.676604   5.110941   3.463836
    17  H    4.595668   5.401359   4.369586   5.153179   3.615728
    18  C    5.950104   6.746030   6.050828   6.353984   4.680270
    19  C    7.112604   7.911419   7.062290   7.556954   5.910834
    20  N    7.408098   8.255708   7.169551   7.841911   6.386096
    21  C    8.278136   9.017006   8.295017   8.744402   6.990094
    22  H    8.610616   9.274351   8.731924   9.099461   7.241462
    23  S    9.627329  10.377614   9.505685  10.121705   8.418971
    24  C    8.755006   9.574732   8.488138   9.214593   7.715299
    25  N    9.679135  10.508531   9.297212  10.132374   8.752007
    26  C    9.513829  10.348218   9.007608   9.958929   8.746419
    27  N   10.557831  11.392635   9.992796  10.984329   9.862041
    28  H   11.294188  12.111114  10.770757  11.750166  10.512812
    29  H   10.610050  11.393007   9.963048  11.090163   9.994062
    30  N    9.162038   9.912102   8.570830   9.711962   8.453348
    31  H    9.273824   9.968408   8.741826   9.895655   8.452348
    32  H    8.236156   8.994230   7.610947   8.776048   7.602441
    33  H   10.637460  11.461411  10.278130  11.088275   9.671548
                    6          7          8          9         10
     6  O    0.000000
     7  N    2.227324   0.000000
     8  H    3.064742   1.009377   0.000000
     9  C    2.740410   1.338600   2.009735   0.000000
    10  C    3.113315   2.340706   3.134093   1.401801   0.000000
    11  C    4.319741   3.633133   4.328952   2.438885   1.405715
    12  C    5.011606   4.069789   4.578533   2.739306   2.389787
    13  H    6.023670   5.153588   5.641099   3.825383   3.354536
    14  H    4.983537   4.526235   5.259004   3.437681   2.190590
    15  H    2.959479   2.654858   3.512490   2.205875   1.086962
    16  C    3.787539   2.391944   2.634112   1.419192   2.466698
    17  H    4.059887   2.635367   2.566564   2.165896   3.435730
    18  C    4.823986   3.631352   3.937638   2.407262   2.811031
    19  C    6.069638   4.848319   4.984502   3.735011   4.223959
    20  N    6.725686   5.266945   5.146249   4.391322   5.145968
    21  C    6.976869   6.010753   6.261001   4.796963   5.012888
    22  H    7.057873   6.379287   6.778122   5.101319   5.088034
    23  S    8.463171   7.413482   7.520369   6.295609   6.657354
    24  C    7.981281   6.627818   6.519437   5.708207   6.365798
    25  N    9.094041   7.661202   7.425036   6.861274   7.611838
    26  C    9.205320   7.675532   7.292159   7.069403   7.988423
    27  N   10.356817   8.795385   8.351567   8.242181   9.173506
    28  H   10.924693   9.451414   9.083939   8.795299   9.647228
    29  H   10.488864   9.009251   8.528270   8.562802   9.594689
    30  N    8.868597   7.513437   7.125850   7.025364   8.077245
    31  H    8.730353   7.570735   7.309824   6.976728   7.966882
    32  H    8.087520   6.679710   6.232086   6.311070   7.449412
    33  H    9.967623   8.578811   8.378278   7.716303   8.377464
                   11         12         13         14         15
    11  C    0.000000
    12  C    1.413390   0.000000
    13  H    2.118636   1.086926   0.000000
    14  H    1.087318   2.188036   2.446002   0.000000
    15  H    2.107113   3.353453   4.213882   2.447806   0.000000
    16  C    2.868779   2.403677   3.395005   3.955719   3.472889
    17  H    3.954442   3.410969   4.326652   5.041632   4.359529
    18  C    2.477356   1.391075   2.158509   3.456757   3.895445
    19  C    3.733423   2.399791   2.618398   4.587602   5.307306
    20  N    4.871215   3.619262   3.878817   5.777963   6.225992
    21  C    4.196146   2.800673   2.491523   4.823007   6.049132
    22  H    4.103248   2.838753   2.303541   4.553140   6.042985
    23  S    5.886001   4.478286   4.096609   6.495358   7.713492
    24  C    5.905805   4.545398   4.517829   6.709384   7.452081
    25  N    7.215301   5.870910   5.832600   8.025908   8.694304
    26  C    7.794390   6.535643   6.664419   8.686313   9.048782
    27  N    8.977605   7.713630   7.797067   9.853658  10.228002
    28  H    9.325426   7.997806   7.958590  10.148911  10.720959
    29  H    9.507380   8.279126   8.447733  10.433374  10.634889
    30  N    8.027778   6.825878   7.082378   8.986978   9.118233
    31  H    7.827529   6.582185   6.775479   8.758993   9.020235
    32  H    7.551225   6.453824   6.854505   8.558029   8.456583
    33  H    7.860001   6.477446   6.290482   8.596071   9.461587
                   16         17         18         19         20
    16  C    0.000000
    17  H    1.087405   0.000000
    18  C    1.391744   2.185642   0.000000
    19  C    2.468845   2.775406   1.417067   0.000000
    20  N    3.015451   2.866410   2.461140   1.356487   0.000000
    21  C    3.664686   4.061466   2.411457   1.379085   2.315686
    22  H    4.160075   4.698672   2.874668   2.268211   3.365758
    23  S    5.022028   5.145141   3.927761   2.587146   2.668418
    24  C    4.329209   4.175582   3.582536   2.210447   1.379435
    25  N    5.470572   5.145393   4.869643   3.538954   2.480708
    26  C    5.701327   5.169264   5.387501   4.212448   2.934522
    27  N    6.889225   6.320774   6.589429   5.400039   4.132601
    28  H    7.408990   6.917867   6.953948   5.658253   4.510298
    29  H    7.219426   6.527079   7.069491   5.941128   4.660180
    30  N    5.660754   4.954586   5.558166   4.490414   3.265545
    31  H    5.580720   4.945874   5.357107   4.217107   3.184925
    32  H    5.005833   4.198724   5.119368   4.254226   3.020058
    33  H    6.333308   6.078230   5.602541   4.216559   3.331372
                   21         22         23         24         25
    21  C    0.000000
    22  H    1.083045   0.000000
    23  S    1.710285   2.321190   0.000000
    24  C    2.376490   3.394711   1.752642   0.000000
    25  N    3.671801   4.636318   2.601875   1.352836   0.000000
    26  C    4.651609   5.664198   3.790690   2.286213   1.252592
    27  N    5.747865   6.733167   4.690697   3.376022   2.115954
    28  H    5.764326   6.669851   4.464545   3.486682   2.137655
    29  H    6.361663   7.329384   5.353119   4.022778   2.852077
    30  N    5.022516   5.977958   4.289553   2.853149   2.131491
    31  H    4.550707   5.408695   3.730699   2.601248   2.077950
    32  H    5.040433   6.019112   4.645189   3.061875   2.701168
    33  H    4.055648   4.907623   2.648110   2.032024   0.999863
                   26         27         28         29         30
    26  C    0.000000
    27  N    1.212443   0.000000
    28  H    1.792275   1.014724   0.000000
    29  H    1.808575   1.014630   1.612665   0.000000
    30  N    1.259893   1.849966   2.411585   1.715208   0.000000
    31  H    1.801787   2.472588   2.674203   2.409937   1.013688
    32  H    1.832636   2.581373   3.315296   2.427806   1.014290
    33  H    1.941709   2.315595   1.889090   3.113388   2.818460
                   31         32         33
    31  H    0.000000
    32  H    1.689353   0.000000
    33  H    2.652491   3.561245   0.000000
 Stoichiometry    C12H14N5OS(1+)
 Framework group  C1[X(C12H14N5OS)]
 Deg. of freedom    93
 Full point group                 C1      NOp   1
 Largest Abelian subgroup         C1      NOp   1
 Largest concise Abelian subgroup C1      NOp   1
                         Standard orientation:                         
 ---------------------------------------------------------------------
 Center     Atomic      Atomic             Coordinates (Angstroms)
 Number     Number       Type             X           Y           Z
 ---------------------------------------------------------------------
      1          6           0        5.467452    2.460159   -0.014863
      2          1           0        6.229776    2.655789    0.741986
      3          1           0        4.833826    3.339785    0.115469
      4          1           0        5.909266    2.425282   -1.012484
      5          6           0        4.693939    1.271513    0.341003
      6          8           0        4.959858    0.566796    1.305415
      7          7           0        3.637303    1.013040   -0.430294
      8          1           0        3.268009    1.810351   -0.927041
      9          6           0        2.838702   -0.054978   -0.314442
     10          6           0        3.389654   -1.306560   -0.622726
     11          6           0        2.580360   -2.455319   -0.660538
     12          6           0        1.199301   -2.245656   -0.445158
     13          1           0        0.576488   -3.131799   -0.536066
     14          1           0        2.976213   -3.440455   -0.895205
     15          1           0        4.451959   -1.492302   -0.758724
     16          6           0        1.453785    0.112177   -0.053343
     17          1           0        1.084449    1.098168    0.218433
     18          6           0        0.636263   -1.010830   -0.139737
     19          6           0       -0.771634   -0.954848    0.011159
     20          7           0       -1.549689    0.105276   -0.321743
     21          6           0       -1.444141   -2.070706    0.463345
     22          1           0       -1.141268   -2.967363    0.989901
     23         16           0       -3.129248   -1.826354    0.623905
     24          6           0       -2.861203   -0.238158   -0.067136
     25          7           0       -4.002084    0.469004   -0.235886
     26          6           0       -4.006950    1.705233   -0.437635
     27          7           0       -5.068115    2.245552   -0.665673
     28          1           0       -5.792809    1.634456   -0.303671
     29          1           0       -5.123645    3.087924   -0.102822
     30          7           0       -3.677651    2.427190    0.540971
     31          1           0       -3.683743    1.794180    1.332694
     32          1           0       -2.754316    2.794866    0.338357
     33          1           0       -4.876612   -0.014193   -0.197848
 ---------------------------------------------------------------------
 Rotational constants (GHZ):           0.6276783           0.1515462           0.1271096
 Leave Link  202 at Sun Jul 18 15:50:40 2021, MaxMem=   104857600 cpu:               0.0 elap:               0.0
 (Enter /dades/curu/g16A03_MST/g16/l301.exe)
 Standard basis: 6-31G(d) (6D, 7F)
 Ernie: Thresh=  0.10000D-02 Tol=  0.10000D-05 Strict=F.
 There are   317 symmetry adapted cartesian basis functions of A   symmetry.
 There are   317 symmetry adapted basis functions of A   symmetry.
   317 basis functions,   612 primitive gaussians,   317 cartesian basis functions
    72 alpha electrons       72 beta electrons
       nuclear repulsion energy      1473.4709311901 Hartrees.
 IExCor=  402 DFT=T Ex+Corr=B3LYP ExCW=0 ScaHFX=  0.200000
 ScaDFX=  0.800000  0.720000  1.000000  0.810000 ScalE2=  1.000000  1.000000
 IRadAn=      5 IRanWt=     -1 IRanGd=            0 ICorTp=0 IEmpDi=  4
 NAtoms=   33 NActive=   33 NUniq=   33 SFac= 1.00D+00 NAtFMM=   60 NAOKFM=F Big=F
 Integral buffers will be    131072 words long.
 Raffenetti 2 integral format.
 Two-electron integral symmetry is turned on.
 Using the following non-standard input for PCM:
 MSTModel=DFT cav MSTCharged
 --- end of non-standard input.
 MST model for solvation energy: B3LYP parametrization.
 MST cavity parameters:
 ISph   IAn     Re0     Alpha   Atom Type   QCorr
 ------------------------------------------------
   1      6     1.50     1.50      CH3        F
   2      1     1.20     1.50      CH3        F
   3      1     1.20     1.50      CH3        F
   4      1     1.20     1.50      CH3        F
   5      6     1.50     1.50      C          F
   6      8     1.40     1.50      O          F
   7      7     1.50     1.50      NH         F
   8      1     0.90     1.50      NH         F
   9      6     1.50     1.50      C          F
  10      6     1.50     1.50      CH         F
  11      6     1.50     1.50      CH         F
  12      6     1.50     1.50      CH         F
  13      1     1.20     1.50      CH         F
  14      1     1.20     1.50      CH         F
  15      1     1.20     1.50      CH         F
  16      6     1.50     1.50      CH         F
  17      1     1.20     1.50      CH         F
  18      6     1.50     1.50      C          F
  19      6     1.50     1.50      C          F
  20      7     1.50     1.50      Nc         F
  21      6     1.50     1.50      CH         F
  22      1     1.20     1.50      CH         F
  23     16     1.75     1.50      S          F
  24      6     1.50     1.50      C          F
  25      7     1.50     1.15      NH         T
  26      6     1.50     1.15      CN+        T
  27      7     1.50     1.15      NH+        T
  28      1     0.90     1.15      NH+        T
  29      1     0.90     1.15      NH+        T
  30      7     1.50     1.15      NH+        T
  31      1     0.90     1.15      NH+        T
  32      1     0.90     1.15      NH+        T
  33      1     0.90     1.15      NH         T
 ------------------------------------------------------------------------------
 Polarizable Continuum Model (PCM)
 =================================
 Model                : PCM.
 Atomic radii         : MST.
 Polarization charges : Total charges.
 Charge compensation  : None.
 Solution method      : On-the-fly selection.
 Cavity type          : Scaled VdW (van der Waals Surface) (Alpha=1.500).
 Cavity algorithm     : GePol (No added spheres)
                        Default sphere list used, NSphG=   33.
                        Lebedev-Laikov grids with approx.  5.0 points / Ang**2.
                        Smoothing algorithm: York/Karplus (Gamma=1.0000).
                        Polarization charges: spherical gaussians, with
                                              point-specific exponents (IZeta= 3).
                        Self-potential: point-specific (ISelfS= 7).
                        Self-field    : sphere-specific E.n sum rule (ISelfD= 2).
 1st derivatives      : Analytical E(r).r(x)/FMM algorithm (CHGder, D1EAlg=3).
                        Cavity 1st derivative terms included.
 Solvent              : n-Octanol, Eps=   9.862900 Eps(inf)=   2.043470
 ------------------------------------------------------------------------------
 GePol: Number of generator spheres                  =      33
 GePol: Total number of spheres                      =      33
 GePol: Number of exposed spheres                    =      33 (100.00%)
 GePol: Number of points                             =    3005
 GePol: Average weight of points                     =       0.12
 GePol: Minimum weight of points                     =   0.11D-09
 GePol: Maximum weight of points                     =    0.22065
 GePol: Number of points with low weight             =     177
 GePol: Fraction of low-weight points (<1% of avg)   =       5.89%
 GePol: Cavity surface area                          =    349.240 Ang**2
 GePol: Cavity volume                                =    387.545 Ang**3
 Surface areas from nonelectrostatic (unscaled) cavity and vdw tensions:
 Sphere =    1 Type =  CH3 Surf =        5.142 Tension =       -0.183
 Sphere =    2 Type =  CH3 Surf =        9.990 Tension =       -0.183
 Sphere =    3 Type =  CH3 Surf =        9.991 Tension =       -0.183
 Sphere =    4 Type =  CH3 Surf =       10.197 Tension =       -0.183
 Sphere =    5 Type =  C   Surf =        6.208 Tension =       -0.205
 Sphere =    6 Type =  O   Surf =       16.254 Tension =       -0.185
 Sphere =    7 Type =  NH  Surf =        9.173 Tension =       -0.234
 Sphere =    8 Type =  NH  Surf =        3.913 Tension =       -0.234
 Sphere =    9 Type =  C   Surf =        5.757 Tension =       -0.205
 Sphere =   10 Type =  CH  Surf =        7.676 Tension =       -0.195
 Sphere =   11 Type =  CH  Surf =        7.968 Tension =       -0.195
 Sphere =   12 Type =  CH  Surf =        7.403 Tension =       -0.195
 Sphere =   13 Type =  CH  Surf =        9.290 Tension =       -0.195
 Sphere =   14 Type =  CH  Surf =       10.269 Tension =       -0.195
 Sphere =   15 Type =  CH  Surf =       10.193 Tension =       -0.195
 Sphere =   16 Type =  CH  Surf =        7.759 Tension =       -0.195
 Sphere =   17 Type =  CH  Surf =       10.236 Tension =       -0.195
 Sphere =   18 Type =  C   Surf =        6.001 Tension =       -0.205
 Sphere =   19 Type =  C   Surf =        5.779 Tension =       -0.205
 Sphere =   20 Type =  Nc  Surf =       13.345 Tension =       -0.161
 Sphere =   21 Type =  CH  Surf =        6.718 Tension =       -0.195
 Sphere =   22 Type =  CH  Surf =        9.798 Tension =       -0.195
 Sphere =   23 Type =  S   Surf =       23.967 Tension =       -0.186
 Sphere =   24 Type =  C   Surf =        5.530 Tension =       -0.205
 Sphere =   25 Type =  NH  Surf =        8.282 Tension =       -0.234
 Sphere =   26 Type =  CN+ Surf =        5.948 Tension =       -0.227
 Sphere =   27 Type =  NH+ Surf =       13.280 Tension =       -0.274
 Sphere =   28 Type =  NH+ Surf =        3.814 Tension =       -0.274
 Sphere =   29 Type =  NH+ Surf =        3.243 Tension =       -0.274
 Sphere =   30 Type =  NH+ Surf =       12.569 Tension =       -0.274
 Sphere =   31 Type =  NH+ Surf =        3.740 Tension =       -0.274
 Sphere =   32 Type =  NH+ Surf =        3.918 Tension =       -0.274
 Sphere =   33 Type =  NH  Surf =        3.809 Tension =       -0.234
 PCM non-electrostatic energy =        -0.0202621688 Hartrees.
 Nuclear repulsion after PCM non-electrostatic terms =     1473.4506690213 Hartrees.
 Leave Link  301 at Sun Jul 18 15:50:40 2021, MaxMem=   104857600 cpu:               0.1 elap:               0.1
 (Enter /dades/curu/g16A03_MST/g16/l302.exe)
 NPDir=0 NMtPBC=     1 NCelOv=     1 NCel=       1 NClECP=     1 NCelD=      1
         NCelK=      1 NCelE2=     1 NClLst=     1 CellRange=     0.0.
 One-electron integrals computed using PRISM.
 One-electron integral symmetry used in STVInt
 NBasis=   317 RedAO= T EigKep=  4.62D-04  NBF=   317
 NBsUse=   317 1.00D-06 EigRej= -1.00D+00 NBFU=   317
 Precomputing XC quadrature grid using
 IXCGrd= 4 IRadAn=           5 IRanWt=          -1 IRanGd=           0 AccXCQ= 0.00D+00.
 Generated NRdTot=       0 NPtTot=           0 NUsed=           0 NTot=          32
 NSgBfM=   314   314   314   314   314 MxSgAt=    33 MxSgA2=    33.
 Leave Link  302 at Sun Jul 18 15:50:41 2021, MaxMem=   104857600 cpu:               3.8 elap:               1.0
 (Enter /dades/curu/g16A03_MST/g16/l303.exe)
 DipDrv:  MaxL=1.
 Leave Link  303 at Sun Jul 18 15:50:41 2021, MaxMem=   104857600 cpu:               0.1 elap:               0.1
 (Enter /dades/curu/g16A03_MST/g16/l401.exe)
 ExpMin= 1.17D-01 ExpMax= 2.19D+04 ExpMxC= 3.30D+03 IAcc=3 IRadAn=         5 AccDes= 0.00D+00
 Harris functional with IExCor=  402 and IRadAn=       5 diagonalized for initial guess.
 HarFok:  IExCor=  402 AccDes= 0.00D+00 IRadAn=         5 IDoV= 1 UseB2=F ITyADJ=14
 ICtDFT=  3500011 ScaDFX=  1.000000  1.000000  1.000000  1.000000
 FoFCou: FMM=F IPFlag=           0 FMFlag=      100000 FMFlg1=           0
         NFxFlg=           0 DoJE=T BraDBF=F KetDBF=T FulRan=T
         wScrn=  0.000000 ICntrl=       500 IOpCl=  0 I1Cent=   200000004 NGrid=           0
         NMat0=    1 NMatS0=      1 NMatT0=    0 NMatD0=    1 NMtDS0=    0 NMtDT0=    0
 Petite list used in FoFCou.
 Harris En= -1212.41418434491    
 JPrj=0 DoOrth=F DoCkMO=F.
 Leave Link  401 at Sun Jul 18 15:50:48 2021, MaxMem=   104857600 cpu:              26.8 elap:               6.8
 (Enter /dades/curu/g16A03_MST/g16/l502.exe)
 Integral symmetry usage will be decided dynamically.
 Closed shell SCF:
 Using DIIS extrapolation, IDIIS=  1040.
 NGot=   104857600 LenX=   104651201 LenY=   104550271
 Requested convergence on RMS density matrix=1.00D-08 within 128 cycles.
 Requested convergence on MAX density matrix=1.00D-06.
 Requested convergence on             energy=1.00D-06.
 No special actions if energy rises.
 Fock matrices will be formed incrementally for  20 cycles.

 Cycle   1  Pass 1  IDiag  1:
 FoFJK:  IHMeth= 1 ICntrl=       0 DoSepK=F KAlg= 0 I1Cent=           0 FoldK=F
 IRaf= 730000000 NMat=       1 IRICut=       1 DoRegI=T DoRafI=F ISym2E= 0 IDoP0=0 IntGTp=1.
 FoFCou: FMM=F IPFlag=           0 FMFlag=      100000 FMFlg1=           0
         NFxFlg=           0 DoJE=F BraDBF=F KetDBF=F FulRan=T
         wScrn=  0.000000 ICntrl=         0 IOpCl=  0 I1Cent=           0 NGrid=           0
         NMat0=    1 NMatS0=      1 NMatT0=    0 NMatD0=    1 NMtDS0=    0 NMtDT0=    0
 Symmetry not used in FoFCou.
 Inv3:  Mode=1 IEnd=    27090075.
 Iteration    1 A*A^-1 deviation from unit magnitude is 6.44D-15 for   2975.
 Iteration    1 A*A^-1 deviation from orthogonality  is 2.45D-15 for   2981   2866.
 Iteration    1 A^-1*A deviation from unit magnitude is 6.00D-15 for   2975.
 Iteration    1 A^-1*A deviation from orthogonality  is 5.13D-15 for   3001    728.
 E= -1211.98808357950    
 DIIS: error= 1.94D-02 at cycle   1 NSaved=   1.
 NSaved= 1 IEnMin= 1 EnMin= -1211.98808357950     IErMin= 1 ErrMin= 1.94D-02
 ErrMax= 1.94D-02  0.00D+00 EMaxC= 1.00D-01 BMatC= 5.58D-01 BMatP= 5.58D-01
 IDIUse=3 WtCom= 8.06D-01 WtEn= 1.94D-01
 Coeff-Com:  0.100D+01
 Coeff-En:   0.100D+01
 Coeff:      0.100D+01
 Gap=     0.125 Goal=   None    Shift=    0.000
 GapD=    0.125 DampG=1.000 DampE=0.500 DampFc=0.5000 IDamp=-1.
 Damping current iteration by 5.00D-01
 RMSDP=6.60D-03 MaxDP=2.41D-01              OVMax= 2.93D-01

 Cycle   2  Pass 1  IDiag  1:
 RMSU=  3.29D-03    CP:  9.85D-01
 E= -1212.13382678775     Delta-E=       -0.145743208250 Rises=F Damp=T
 DIIS: error= 8.05D-03 at cycle   2 NSaved=   2.
 NSaved= 2 IEnMin= 2 EnMin= -1212.13382678775     IErMin= 2 ErrMin= 8.05D-03
 ErrMax= 8.05D-03  0.00D+00 EMaxC= 1.00D-01 BMatC= 7.65D-02 BMatP= 5.58D-01
 IDIUse=3 WtCom= 9.19D-01 WtEn= 8.05D-02
 Coeff-Com:  0.195D+00 0.805D+00
 Coeff-En:   0.341D+00 0.659D+00
 Coeff:      0.207D+00 0.793D+00
 Gap=     0.120 Goal=   None    Shift=    0.000
 RMSDP=2.16D-03 MaxDP=9.85D-02 DE=-1.46D-01 OVMax= 2.97D-01

 Cycle   3  Pass 1  IDiag  1:
 RMSU=  1.76D-03    CP:  9.75D-01  6.23D-01
 E= -1212.43679086406     Delta-E=       -0.302964076316 Rises=F Damp=F
 DIIS: error= 1.01D-02 at cycle   3 NSaved=   3.
 NSaved= 3 IEnMin= 3 EnMin= -1212.43679086406     IErMin= 2 ErrMin= 8.05D-03
 ErrMax= 1.01D-02  0.00D+00 EMaxC= 1.00D-01 BMatC= 8.07D-02 BMatP= 7.65D-02
 IDIUse=3 WtCom= 8.99D-01 WtEn= 1.01D-01
 Coeff-Com:  0.602D-01 0.501D+00 0.439D+00
 Coeff-En:   0.000D+00 0.000D+00 0.100D+01
 Coeff:      0.541D-01 0.450D+00 0.495D+00
 Gap=     0.102 Goal=   None    Shift=    0.000
 RMSDP=1.22D-03 MaxDP=5.54D-02 DE=-3.03D-01 OVMax= 9.29D-02

 Cycle   4  Pass 1  IDiag  1:
 RMSU=  8.37D-04    CP:  9.79D-01  7.41D-01  5.47D-01
 E= -1212.50258778861     Delta-E=       -0.065796924543 Rises=F Damp=F
 DIIS: error= 4.15D-03 at cycle   4 NSaved=   4.
 NSaved= 4 IEnMin= 4 EnMin= -1212.50258778861     IErMin= 4 ErrMin= 4.15D-03
 ErrMax= 4.15D-03  0.00D+00 EMaxC= 1.00D-01 BMatC= 1.20D-02 BMatP= 7.65D-02
 IDIUse=3 WtCom= 9.59D-01 WtEn= 4.15D-02
 Coeff-Com: -0.173D-02 0.793D-01 0.291D+00 0.632D+00
 Coeff-En:   0.000D+00 0.000D+00 0.153D+00 0.847D+00
 Coeff:     -0.166D-02 0.760D-01 0.285D+00 0.641D+00
 Gap=     0.101 Goal=   None    Shift=    0.000
 RMSDP=4.19D-04 MaxDP=1.89D-02 DE=-6.58D-02 OVMax= 3.16D-02

 Cycle   5  Pass 1  IDiag  1:
 RMSU=  2.13D-04    CP:  9.78D-01  7.16D-01  6.71D-01  6.71D-01
 E= -1212.51303701530     Delta-E=       -0.010449226696 Rises=F Damp=F
 DIIS: error= 8.47D-04 at cycle   5 NSaved=   5.
 NSaved= 5 IEnMin= 5 EnMin= -1212.51303701530     IErMin= 5 ErrMin= 8.47D-04
 ErrMax= 8.47D-04  0.00D+00 EMaxC= 1.00D-01 BMatC= 7.39D-04 BMatP= 1.20D-02
 IDIUse=3 WtCom= 9.92D-01 WtEn= 8.47D-03
 Coeff-Com: -0.406D-02 0.107D-01 0.125D+00 0.352D+00 0.517D+00
 Coeff-En:   0.000D+00 0.000D+00 0.000D+00 0.000D+00 0.100D+01
 Coeff:     -0.403D-02 0.106D-01 0.123D+00 0.349D+00 0.521D+00
 Gap=     0.099 Goal=   None    Shift=    0.000
 RMSDP=1.14D-04 MaxDP=5.41D-03 DE=-1.04D-02 OVMax= 8.78D-03

 Cycle   6  Pass 1  IDiag  1:
 RMSU=  6.96D-05    CP:  9.78D-01  7.17D-01  6.67D-01  7.24D-01  6.35D-01
 E= -1212.51371154276     Delta-E=       -0.000674527458 Rises=F Damp=F
 DIIS: error= 3.44D-04 at cycle   6 NSaved=   6.
 NSaved= 6 IEnMin= 6 EnMin= -1212.51371154276     IErMin= 6 ErrMin= 3.44D-04
 ErrMax= 3.44D-04  0.00D+00 EMaxC= 1.00D-01 BMatC= 8.03D-05 BMatP= 7.39D-04
 IDIUse=3 WtCom= 9.97D-01 WtEn= 3.44D-03
 Coeff-Com: -0.202D-02 0.141D-03 0.470D-01 0.145D+00 0.304D+00 0.506D+00
 Coeff-En:   0.000D+00 0.000D+00 0.000D+00 0.000D+00 0.234D-01 0.977D+00
 Coeff:     -0.201D-02 0.140D-03 0.469D-01 0.145D+00 0.303D+00 0.508D+00
 Gap=     0.100 Goal=   None    Shift=    0.000
 RMSDP=3.81D-05 MaxDP=1.58D-03 DE=-6.75D-04 OVMax= 2.46D-03

 Cycle   7  Pass 1  IDiag  1:
 RMSU=  2.62D-05    CP:  9.78D-01  7.16D-01  6.71D-01  7.24D-01  6.52D-01
                    CP:  6.29D-01
 E= -1212.51377916573     Delta-E=       -0.000067622970 Rises=F Damp=F
 DIIS: error= 9.69D-05 at cycle   7 NSaved=   7.
 NSaved= 7 IEnMin= 7 EnMin= -1212.51377916573     IErMin= 7 ErrMin= 9.69D-05
 ErrMax= 9.69D-05  0.00D+00 EMaxC= 1.00D-01 BMatC= 9.18D-06 BMatP= 8.03D-05
 IDIUse=1 WtCom= 1.00D+00 WtEn= 0.00D+00
 Coeff-Com: -0.668D-03-0.152D-02 0.113D-01 0.391D-01 0.112D+00 0.297D+00
 Coeff-Com:  0.543D+00
 Coeff:     -0.668D-03-0.152D-02 0.113D-01 0.391D-01 0.112D+00 0.297D+00
 Coeff:      0.543D+00
 Gap=     0.100 Goal=   None    Shift=    0.000
 RMSDP=1.27D-05 MaxDP=7.30D-04 DE=-6.76D-05 OVMax= 7.37D-04

 Cycle   8  Pass 1  IDiag  1:
 RMSU=  7.72D-06    CP:  9.78D-01  7.15D-01  6.71D-01  7.25D-01  6.63D-01
                    CP:  7.03D-01  6.88D-01
 E= -1212.51378711041     Delta-E=       -0.000007944676 Rises=F Damp=F
 DIIS: error= 1.96D-05 at cycle   8 NSaved=   8.
 NSaved= 8 IEnMin= 8 EnMin= -1212.51378711041     IErMin= 8 ErrMin= 1.96D-05
 ErrMax= 1.96D-05  0.00D+00 EMaxC= 1.00D-01 BMatC= 6.11D-07 BMatP= 9.18D-06
 IDIUse=1 WtCom= 1.00D+00 WtEn= 0.00D+00
 Coeff-Com: -0.123D-03-0.610D-03 0.103D-02 0.479D-02 0.256D-01 0.942D-01
 Coeff-Com:  0.265D+00 0.611D+00
 Coeff:     -0.123D-03-0.610D-03 0.103D-02 0.479D-02 0.256D-01 0.942D-01
 Coeff:      0.265D+00 0.611D+00
 Gap=     0.100 Goal=   None    Shift=    0.000
 RMSDP=4.18D-06 MaxDP=1.66D-04 DE=-7.94D-06 OVMax= 4.40D-04

 Cycle   9  Pass 1  IDiag  1:
 RMSU=  3.63D-06    CP:  9.78D-01  7.15D-01  6.72D-01  7.25D-01  6.65D-01
                    CP:  7.08D-01  7.42D-01  8.55D-01
 E= -1212.51378764380     Delta-E=       -0.000000533391 Rises=F Damp=F
 DIIS: error= 1.19D-05 at cycle   9 NSaved=   9.
 NSaved= 9 IEnMin= 9 EnMin= -1212.51378764380     IErMin= 9 ErrMin= 1.19D-05
 ErrMax= 1.19D-05  0.00D+00 EMaxC= 1.00D-01 BMatC= 1.46D-07 BMatP= 6.11D-07
 IDIUse=1 WtCom= 1.00D+00 WtEn= 0.00D+00
 Coeff-Com:  0.171D-04-0.153D-03-0.112D-02-0.297D-02-0.132D-02 0.999D-02
 Coeff-Com:  0.735D-01 0.374D+00 0.548D+00
 Coeff:      0.171D-04-0.153D-03-0.112D-02-0.297D-02-0.132D-02 0.999D-02
 Coeff:      0.735D-01 0.374D+00 0.548D+00
 Gap=     0.100 Goal=   None    Shift=    0.000
 RMSDP=1.57D-06 MaxDP=5.07D-05 DE=-5.33D-07 OVMax= 1.21D-04

 Cycle  10  Pass 1  IDiag  1:
 RMSU=  1.13D-06    CP:  9.78D-01  7.15D-01  6.72D-01  7.25D-01  6.66D-01
                    CP:  7.14D-01  7.57D-01  9.41D-01  8.67D-01
 E= -1212.51378778526     Delta-E=       -0.000000141467 Rises=F Damp=F
 DIIS: error= 2.97D-06 at cycle  10 NSaved=  10.
 NSaved=10 IEnMin=10 EnMin= -1212.51378778526     IErMin=10 ErrMin= 2.97D-06
 ErrMax= 2.97D-06  0.00D+00 EMaxC= 1.00D-01 BMatC= 1.02D-08 BMatP= 1.46D-07
 IDIUse=1 WtCom= 1.00D+00 WtEn= 0.00D+00
 Coeff-Com:  0.113D-04 0.866D-05-0.690D-03-0.197D-02-0.321D-02-0.567D-02
 Coeff-Com:  0.842D-02 0.131D+00 0.251D+00 0.621D+00
 Coeff:      0.113D-04 0.866D-05-0.690D-03-0.197D-02-0.321D-02-0.567D-02
 Coeff:      0.842D-02 0.131D+00 0.251D+00 0.621D+00
 Gap=     0.100 Goal=   None    Shift=    0.000
 RMSDP=7.28D-07 MaxDP=1.99D-05 DE=-1.41D-07 OVMax= 9.05D-05

 Cycle  11  Pass 1  IDiag  1:
 RMSU=  4.80D-07    CP:  9.78D-01  7.15D-01  6.72D-01  7.26D-01  6.66D-01
                    CP:  7.17D-01  7.66D-01  9.80D-01  9.34D-01  8.82D-01
 E= -1212.51378779903     Delta-E=       -0.000000013770 Rises=F Damp=F
 DIIS: error= 1.76D-06 at cycle  11 NSaved=  11.
 NSaved=11 IEnMin=11 EnMin= -1212.51378779903     IErMin=11 ErrMin= 1.76D-06
 ErrMax= 1.76D-06  0.00D+00 EMaxC= 1.00D-01 BMatC= 2.89D-09 BMatP= 1.02D-08
 IDIUse=1 WtCom= 1.00D+00 WtEn= 0.00D+00
 Coeff-Com: -0.866D-06 0.382D-04-0.214D-03-0.593D-03-0.148D-02-0.528D-02
 Coeff-Com: -0.832D-02 0.796D-02 0.149D-01 0.344D+00 0.649D+00
 Coeff:     -0.866D-06 0.382D-04-0.214D-03-0.593D-03-0.148D-02-0.528D-02
 Coeff:     -0.832D-02 0.796D-02 0.149D-01 0.344D+00 0.649D+00
 Gap=     0.100 Goal=   None    Shift=    0.000
 RMSDP=3.46D-07 MaxDP=1.12D-05 DE=-1.38D-08 OVMax= 5.09D-05

 Cycle  12  Pass 1  IDiag  1:
 RMSU=  1.78D-07    CP:  9.78D-01  7.15D-01  6.72D-01  7.26D-01  6.66D-01
                    CP:  7.18D-01  7.69D-01  9.96D-01  9.75D-01  1.04D+00
                    CP:  9.44D-01
 E= -1212.51378780299     Delta-E=       -0.000000003952 Rises=F Damp=F
 DIIS: error= 8.84D-07 at cycle  12 NSaved=  12.
 NSaved=12 IEnMin=12 EnMin= -1212.51378780299     IErMin=12 ErrMin= 8.84D-07
 ErrMax= 8.84D-07  0.00D+00 EMaxC= 1.00D-01 BMatC= 4.32D-10 BMatP= 2.89D-09
 IDIUse=1 WtCom= 1.00D+00 WtEn= 0.00D+00
 Coeff-Com: -0.467D-05 0.241D-04 0.103D-04 0.625D-04-0.141D-03-0.196D-02
 Coeff-Com: -0.624D-02-0.198D-01-0.493D-01 0.727D-01 0.325D+00 0.679D+00
 Coeff:     -0.467D-05 0.241D-04 0.103D-04 0.625D-04-0.141D-03-0.196D-02
 Coeff:     -0.624D-02-0.198D-01-0.493D-01 0.727D-01 0.325D+00 0.679D+00
 Gap=     0.100 Goal=   None    Shift=    0.000
 RMSDP=1.64D-07 MaxDP=5.46D-06 DE=-3.95D-09 OVMax= 2.31D-05

 Cycle  13  Pass 1  IDiag  1:
 RMSU=  5.91D-08    CP:  9.78D-01  7.15D-01  6.72D-01  7.26D-01  6.66D-01
                    CP:  7.18D-01  7.70D-01  1.00D+00  9.95D-01  1.10D+00
                    CP:  1.10D+00  9.16D-01
 E= -1212.51378780366     Delta-E=       -0.000000000676 Rises=F Damp=F
 DIIS: error= 2.01D-07 at cycle  13 NSaved=  13.
 NSaved=13 IEnMin=13 EnMin= -1212.51378780366     IErMin=13 ErrMin= 2.01D-07
 ErrMax= 2.01D-07  0.00D+00 EMaxC= 1.00D-01 BMatC= 3.78D-11 BMatP= 4.32D-10
 IDIUse=1 WtCom= 1.00D+00 WtEn= 0.00D+00
 Coeff-Com: -0.242D-05 0.453D-05 0.310D-04 0.111D-03 0.193D-03-0.257D-04
 Coeff-Com: -0.885D-03-0.685D-02-0.221D-01-0.106D-01 0.367D-01 0.275D+00
 Coeff-Com:  0.728D+00
 Coeff:     -0.242D-05 0.453D-05 0.310D-04 0.111D-03 0.193D-03-0.257D-04
 Coeff:     -0.885D-03-0.685D-02-0.221D-01-0.106D-01 0.367D-01 0.275D+00
 Coeff:      0.728D+00
 Gap=     0.100 Goal=   None    Shift=    0.000
 RMSDP=4.91D-08 MaxDP=1.57D-06 DE=-6.76D-10 OVMax= 7.21D-06

 Cycle  14  Pass 1  IDiag  1:
 RMSU=  2.06D-08    CP:  9.78D-01  7.15D-01  6.72D-01  7.26D-01  6.66D-01
                    CP:  7.19D-01  7.71D-01  1.01D+00  9.99D-01  1.12D+00
                    CP:  1.14D+00  1.02D+00  8.84D-01
 E= -1212.51378780375     Delta-E=       -0.000000000092 Rises=F Damp=F
 DIIS: error= 8.74D-08 at cycle  14 NSaved=  14.
 NSaved=14 IEnMin=14 EnMin= -1212.51378780375     IErMin=14 ErrMin= 8.74D-08
 ErrMax= 8.74D-08  0.00D+00 EMaxC= 1.00D-01 BMatC= 7.42D-12 BMatP= 3.78D-11
 IDIUse=1 WtCom= 1.00D+00 WtEn= 0.00D+00
 Coeff-Com: -0.781D-06 0.600D-06 0.148D-04 0.522D-04 0.110D-03 0.113D-03
 Coeff-Com: -0.437D-04-0.257D-02-0.914D-02-0.136D-01-0.114D-01 0.945D-01
 Coeff-Com:  0.401D+00 0.541D+00
 Coeff:     -0.781D-06 0.600D-06 0.148D-04 0.522D-04 0.110D-03 0.113D-03
 Coeff:     -0.437D-04-0.257D-02-0.914D-02-0.136D-01-0.114D-01 0.945D-01
 Coeff:      0.401D+00 0.541D+00
 Gap=     0.100 Goal=   None    Shift=    0.000
 RMSDP=1.75D-08 MaxDP=8.80D-07 DE=-9.23D-11 OVMax= 1.74D-06

 Cycle  15  Pass 1  IDiag  1:
 RMSU=  9.55D-09    CP:  9.78D-01  7.15D-01  6.72D-01  7.26D-01  6.66D-01
                    CP:  7.19D-01  7.71D-01  1.01D+00  1.00D+00  1.12D+00
                    CP:  1.15D+00  1.04D+00  9.57D-01  5.83D-01
 E= -1212.51378780374     Delta-E=        0.000000000012 Rises=F Damp=F
 DIIS: error= 4.97D-08 at cycle  15 NSaved=  15.
 NSaved=15 IEnMin=14 EnMin= -1212.51378780375     IErMin=15 ErrMin= 4.97D-08
 ErrMax= 4.97D-08  0.00D+00 EMaxC= 1.00D-01 BMatC= 1.61D-12 BMatP= 7.42D-12
 IDIUse=1 WtCom= 1.00D+00 WtEn= 0.00D+00
 Coeff-Com: -0.157D-08-0.566D-06 0.248D-05 0.953D-05 0.305D-04 0.714D-04
 Coeff-Com:  0.192D-03 0.576D-04-0.877D-03-0.481D-02-0.139D-01 0.264D-02
 Coeff-Com:  0.878D-01 0.352D+00 0.577D+00
 Coeff:     -0.157D-08-0.566D-06 0.248D-05 0.953D-05 0.305D-04 0.714D-04
 Coeff:      0.192D-03 0.576D-04-0.877D-03-0.481D-02-0.139D-01 0.264D-02
 Coeff:      0.878D-01 0.352D+00 0.577D+00
 Gap=     0.100 Goal=   None    Shift=    0.000
 RMSDP=6.03D-09 MaxDP=2.29D-07 DE= 1.18D-11 OVMax= 5.28D-07

 Error on total polarization charges =  0.01535
 SCF Done:  E(RB3LYP) =  -1212.51378780     A.U. after   15 cycles
            NFock= 15  Conv=0.60D-08     -V/T= 2.0055
 KE= 1.205899833573D+03 PE=-5.768753642926D+03 EE= 1.876889352527D+03
 Leave Link  502 at Sun Jul 18 15:54:36 2021, MaxMem=   104857600 cpu:             881.5 elap:             228.0
 (Enter /dades/curu/g16A03_MST/g16/l601.exe)
 Copying SCF densities to generalized density rwf, IOpCl= 0 IROHF=0.

 **********************************************************************

            Population analysis using the SCF density.

 **********************************************************************

 Orbital symmetries:
       Occupied  (A) (A) (A) (A) (A) (A) (A) (A) (A) (A) (A) (A)
                 (A) (A) (A) (A) (A) (A) (A) (A) (A) (A) (A) (A)
                 (A) (A) (A) (A) (A) (A) (A) (A) (A) (A) (A) (A)
                 (A) (A) (A) (A) (A) (A) (A) (A) (A) (A) (A) (A)
                 (A) (A) (A) (A) (A) (A) (A) (A) (A) (A) (A) (A)
                 (A) (A) (A) (A) (A) (A) (A) (A) (A) (A) (A) (A)
       Virtual   (A) (A) (A) (A) (A) (A) (A) (A) (A) (A) (A) (A)
                 (A) (A) (A) (A) (A) (A) (A) (A) (A) (A) (A) (A)
                 (A) (A) (A) (A) (A) (A) (A) (A) (A) (A) (A) (A)
                 (A) (A) (A) (A) (A) (A) (A) (A) (A) (A) (A) (A)
                 (A) (A) (A) (A) (A) (A) (A) (A) (A) (A) (A) (A)
                 (A) (A) (A) (A) (A) (A) (A) (A) (A) (A) (A) (A)
                 (A) (A) (A) (A) (A) (A) (A) (A) (A) (A) (A) (A)
                 (A) (A) (A) (A) (A) (A) (A) (A) (A) (A) (A) (A)
                 (A) (A) (A) (A) (A) (A) (A) (A) (A) (A) (A) (A)
                 (A) (A) (A) (A) (A) (A) (A) (A) (A) (A) (A) (A)
                 (A) (A) (A) (A) (A) (A) (A) (A) (A) (A) (A) (A)
                 (A) (A) (A) (A) (A) (A) (A) (A) (A) (A) (A) (A)
                 (A) (A) (A) (A) (A) (A) (A) (A) (A) (A) (A) (A)
                 (A) (A) (A) (A) (A) (A) (A) (A) (A) (A) (A) (A)
                 (A) (A) (A) (A) (A) (A) (A) (A) (A) (A) (A) (A)
                 (A) (A) (A) (A) (A) (A) (A) (A) (A) (A) (A) (A)
                 (A) (A) (A) (A) (A) (A) (A) (A) (A) (A) (A) (A)
                 (A) (A) (A) (A) (A) (A) (A) (A) (A) (A) (A) (A)
                 (A) (A) (A) (A) (A) (A) (A) (A) (A) (A) (A) (A)
                 (A) (A) (A) (A) (A) (A) (A) (A) (A) (A) (A) (A)
                 (A) (A) (A) (A) (A)
 The electronic state is 1-A.
 Alpha  occ. eigenvalues --  -88.95143 -19.11644 -14.44136 -14.38122 -14.38052
 Alpha  occ. eigenvalues --  -14.36872 -14.34811 -10.34122 -10.33128 -10.29125
 Alpha  occ. eigenvalues --  -10.25573 -10.24180 -10.24155 -10.21593 -10.20928
 Alpha  occ. eigenvalues --  -10.20718 -10.20323 -10.20315 -10.19102  -8.01384
 Alpha  occ. eigenvalues --   -5.97748  -5.97405  -5.97107  -1.15666  -1.05036
 Alpha  occ. eigenvalues --   -1.03436  -0.97825  -0.96103  -0.92872  -0.86993
 Alpha  occ. eigenvalues --   -0.84357  -0.80680  -0.77654  -0.76191  -0.73468
 Alpha  occ. eigenvalues --   -0.69840  -0.67146  -0.65052  -0.64014  -0.62889
 Alpha  occ. eigenvalues --   -0.60701  -0.58961  -0.57361  -0.56693  -0.55161
 Alpha  occ. eigenvalues --   -0.52855  -0.50775  -0.50112  -0.48928  -0.48420
 Alpha  occ. eigenvalues --   -0.46951  -0.46655  -0.45642  -0.44671  -0.43227
 Alpha  occ. eigenvalues --   -0.41458  -0.40900  -0.40606  -0.39892  -0.39554
 Alpha  occ. eigenvalues --   -0.38112  -0.37435  -0.36517  -0.36231  -0.32707
 Alpha  occ. eigenvalues --   -0.32131  -0.29786  -0.27897  -0.26242  -0.25764
 Alpha  occ. eigenvalues --   -0.24535  -0.22833
 Alpha virt. eigenvalues --   -0.12859  -0.05679  -0.03180  -0.02544  -0.02214
 Alpha virt. eigenvalues --    0.02224   0.04903   0.06561   0.08461   0.08614
 Alpha virt. eigenvalues --    0.09375   0.09874   0.11451   0.12400   0.12676
 Alpha virt. eigenvalues --    0.13362   0.14102   0.14490   0.15221   0.15819
 Alpha virt. eigenvalues --    0.16498   0.18004   0.18720   0.19335   0.20197
 Alpha virt. eigenvalues --    0.23876   0.25357   0.26325   0.27249   0.28398
 Alpha virt. eigenvalues --    0.29590   0.30187   0.32035   0.32546   0.33560
 Alpha virt. eigenvalues --    0.33848   0.35244   0.37018   0.37541   0.39236
 Alpha virt. eigenvalues --    0.41085   0.41592   0.43733   0.44397   0.47400
 Alpha virt. eigenvalues --    0.49708   0.50274   0.50934   0.51635   0.51985
 Alpha virt. eigenvalues --    0.53150   0.53209   0.53869   0.54652   0.55465
 Alpha virt. eigenvalues --    0.56781   0.57014   0.58056   0.58464   0.59665
 Alpha virt. eigenvalues --    0.59972   0.60807   0.61257   0.63011   0.63900
 Alpha virt. eigenvalues --    0.64408   0.65879   0.65957   0.66831   0.68066
 Alpha virt. eigenvalues --    0.68724   0.70501   0.71057   0.71912   0.73096
 Alpha virt. eigenvalues --    0.73800   0.74668   0.76650   0.76951   0.77925
 Alpha virt. eigenvalues --    0.78948   0.80328   0.80608   0.81198   0.81782
 Alpha virt. eigenvalues --    0.82676   0.83033   0.83592   0.84092   0.85236
 Alpha virt. eigenvalues --    0.85463   0.85854   0.87133   0.87570   0.88810
 Alpha virt. eigenvalues --    0.89371   0.90131   0.90759   0.91257   0.92784
 Alpha virt. eigenvalues --    0.93311   0.94159   0.94792   0.95633   0.96139
 Alpha virt. eigenvalues --    0.97070   0.98444   0.99158   1.00082   1.02058
 Alpha virt. eigenvalues --    1.02801   1.04481   1.05614   1.06892   1.08031
 Alpha virt. eigenvalues --    1.09274   1.11851   1.13865   1.14362   1.15482
 Alpha virt. eigenvalues --    1.17468   1.19684   1.22506   1.24450   1.25111
 Alpha virt. eigenvalues --    1.27324   1.30788   1.31795   1.32419   1.36676
 Alpha virt. eigenvalues --    1.38214   1.40432   1.41512   1.42409   1.44514
 Alpha virt. eigenvalues --    1.44839   1.46156   1.47531   1.49643   1.50974
 Alpha virt. eigenvalues --    1.52253   1.54297   1.58335   1.61661   1.63419
 Alpha virt. eigenvalues --    1.64474   1.68303   1.70190   1.74125   1.75015
 Alpha virt. eigenvalues --    1.76629   1.79343   1.80942   1.81499   1.82754
 Alpha virt. eigenvalues --    1.84582   1.84888   1.85535   1.85965   1.88708
 Alpha virt. eigenvalues --    1.90067   1.92007   1.93624   1.94464   1.95695
 Alpha virt. eigenvalues --    1.96801   1.98263   2.00024   2.00153   2.01858
 Alpha virt. eigenvalues --    2.04785   2.07154   2.09082   2.10396   2.11804
 Alpha virt. eigenvalues --    2.12845   2.14471   2.16314   2.17941   2.19021
 Alpha virt. eigenvalues --    2.19789   2.20685   2.20972   2.21665   2.23746
 Alpha virt. eigenvalues --    2.26746   2.27350   2.29159   2.31474   2.33193
 Alpha virt. eigenvalues --    2.35545   2.37740   2.38469   2.40218   2.43657
 Alpha virt. eigenvalues --    2.44871   2.47621   2.49437   2.52063   2.54621
 Alpha virt. eigenvalues --    2.55535   2.57842   2.60348   2.61178   2.62326
 Alpha virt. eigenvalues --    2.63068   2.65009   2.67744   2.69254   2.72186
 Alpha virt. eigenvalues --    2.74320   2.76416   2.78572   2.80512   2.81117
 Alpha virt. eigenvalues --    2.84574   2.86689   2.94120   2.99477   3.02152
 Alpha virt. eigenvalues --    3.03100   3.07564   3.20425   3.22973   3.29360
 Alpha virt. eigenvalues --    3.41763   3.82657   3.89938   3.91362   3.99983
 Alpha virt. eigenvalues --    4.03116   4.06950   4.08063   4.12430   4.13778
 Alpha virt. eigenvalues --    4.16669   4.19509   4.21603   4.22966   4.28198
 Alpha virt. eigenvalues --    4.35199   4.42503   4.44857   4.52488   4.74877
          Condensed to atoms (all electrons):
               1          2          3          4          5          6
     1  C    5.370631   0.357262   0.346872   0.355970   0.348741  -0.089346
     2  H    0.357262   0.519027  -0.030785  -0.018009  -0.022566   0.004297
     3  H    0.346872  -0.030785   0.539978  -0.020243  -0.022808   0.001736
     4  H    0.355970  -0.018009  -0.020243   0.506519  -0.019183   0.001454
     5  C    0.348741  -0.022566  -0.022808  -0.019183   4.321071   0.636976
     6  O   -0.089346   0.004297   0.001736   0.001454   0.636976   8.080683
     7  N   -0.142026   0.005666   0.002024   0.002737   0.222517  -0.127414
     8  H    0.000223  -0.000193   0.002202   0.000087  -0.023198   0.003431
     9  C    0.007742  -0.000118  -0.000377  -0.000145  -0.007683   0.016906
    10  C    0.000125   0.000003  -0.000014   0.000029  -0.004114   0.002232
    11  C    0.000000  -0.000000   0.000000  -0.000001  -0.000059  -0.000221
    12  C    0.000001  -0.000000  -0.000000   0.000000   0.000067   0.000018
    13  H    0.000000  -0.000000  -0.000000  -0.000000  -0.000000   0.000000
    14  H   -0.000000   0.000000   0.000000   0.000000  -0.000013  -0.000001
    15  H   -0.000139   0.000006   0.000001  -0.000003   0.003765   0.001476
    16  C   -0.000386   0.000004   0.000055  -0.000010   0.001109  -0.000719
    17  H   -0.000047   0.000000  -0.000000   0.000000   0.000360   0.000011
    18  C    0.000002  -0.000000  -0.000000   0.000000  -0.000142  -0.000045
    19  C   -0.000000   0.000000   0.000000   0.000000  -0.000001   0.000000
    20  N   -0.000000  -0.000000  -0.000000   0.000000   0.000000  -0.000000
    21  C   -0.000000  -0.000000   0.000000   0.000000  -0.000000  -0.000000
    22  H   -0.000000  -0.000000  -0.000000   0.000000   0.000000   0.000000
    23  S   -0.000000   0.000000  -0.000000  -0.000000   0.000000   0.000000
    24  C   -0.000000   0.000000  -0.000000   0.000000   0.000000  -0.000000
    25  N    0.000000   0.000000  -0.000000   0.000000   0.000000   0.000000
    26  C   -0.000000  -0.000000  -0.000000  -0.000000   0.000000   0.000000
    27  N   -0.000000  -0.000000  -0.000000   0.000000   0.000000   0.000000
    28  H   -0.000000  -0.000000  -0.000000  -0.000000   0.000000  -0.000000
    29  H   -0.000000  -0.000000  -0.000000   0.000000   0.000000   0.000000
    30  N    0.000000   0.000000   0.000000  -0.000000  -0.000000   0.000000
    31  H   -0.000000  -0.000000  -0.000000  -0.000000   0.000000  -0.000000
    32  H   -0.000000  -0.000000   0.000000   0.000000  -0.000000   0.000000
    33  H    0.000000  -0.000000  -0.000000   0.000000   0.000000  -0.000000
               7          8          9         10         11         12
     1  C   -0.142026   0.000223   0.007742   0.000125   0.000000   0.000001
     2  H    0.005666  -0.000193  -0.000118   0.000003  -0.000000  -0.000000
     3  H    0.002024   0.002202  -0.000377  -0.000014   0.000000  -0.000000
     4  H    0.002737   0.000087  -0.000145   0.000029  -0.000001   0.000000
     5  C    0.222517  -0.023198  -0.007683  -0.004114  -0.000059   0.000067
     6  O   -0.127414   0.003431   0.016906   0.002232  -0.000221   0.000018
     7  N    7.332293   0.305264   0.176188  -0.069848   0.005396   0.001206
     8  H    0.305264   0.375329  -0.027144   0.004363  -0.000087   0.000005
     9  C    0.176188  -0.027144   4.606843   0.549038  -0.015245  -0.039519
    10  C   -0.069848   0.004363   0.549038   4.946806   0.520482  -0.044146
    11  C    0.005396  -0.000087  -0.015245   0.520482   4.897073   0.509960
    12  C    0.001206   0.000005  -0.039519  -0.044146   0.509960   5.034621
    13  H    0.000004  -0.000000   0.000357   0.005640  -0.043744   0.352000
    14  H   -0.000138   0.000004   0.003268  -0.035078   0.359385  -0.034372
    15  H   -0.008008  -0.000006  -0.035437   0.356789  -0.043364   0.005313
    16  C   -0.045427  -0.005364   0.491787  -0.053714  -0.039926  -0.077801
    17  H   -0.002912   0.003072  -0.044250   0.004869   0.000066   0.005110
    18  C    0.004013  -0.000044  -0.003179  -0.034837  -0.015666   0.549178
    19  C   -0.000321   0.000016   0.005952   0.000840   0.007505  -0.048262
    20  N    0.000001  -0.000002   0.000266   0.000007  -0.000083   0.003950
    21  C    0.000001   0.000000  -0.000308   0.000046   0.000263  -0.023316
    22  H    0.000000  -0.000000   0.000005  -0.000007   0.000142   0.001799
    23  S   -0.000000  -0.000000   0.000010   0.000001  -0.000014   0.000832
    24  C   -0.000000   0.000000  -0.000004   0.000000  -0.000000   0.000119
    25  N   -0.000000   0.000000  -0.000000  -0.000000  -0.000000   0.000002
    26  C    0.000000  -0.000000   0.000000   0.000000   0.000000  -0.000000
    27  N   -0.000000  -0.000000   0.000000   0.000000   0.000000   0.000000
    28  H    0.000000  -0.000000   0.000000  -0.000000   0.000000   0.000000
    29  H    0.000000  -0.000000   0.000000   0.000000   0.000000   0.000000
    30  N   -0.000000   0.000000  -0.000000   0.000000  -0.000000   0.000000
    31  H    0.000000  -0.000000  -0.000000  -0.000000   0.000000   0.000000
    32  H   -0.000000   0.000000   0.000000   0.000000  -0.000000  -0.000000
    33  H    0.000000  -0.000000  -0.000000  -0.000000   0.000000   0.000000
              13         14         15         16         17         18
     1  C    0.000000  -0.000000  -0.000139  -0.000386  -0.000047   0.000002
     2  H   -0.000000   0.000000   0.000006   0.000004   0.000000  -0.000000
     3  H   -0.000000   0.000000   0.000001   0.000055  -0.000000  -0.000000
     4  H   -0.000000   0.000000  -0.000003  -0.000010   0.000000   0.000000
     5  C   -0.000000  -0.000013   0.003765   0.001109   0.000360  -0.000142
     6  O    0.000000  -0.000001   0.001476  -0.000719   0.000011  -0.000045
     7  N    0.000004  -0.000138  -0.008008  -0.045427  -0.002912   0.004013
     8  H   -0.000000   0.000004  -0.000006  -0.005364   0.003072  -0.000044
     9  C    0.000357   0.003268  -0.035437   0.491787  -0.044250  -0.003179
    10  C    0.005640  -0.035078   0.356789  -0.053714   0.004869  -0.034837
    11  C   -0.043744   0.359385  -0.043364  -0.039926   0.000066  -0.015666
    12  C    0.352000  -0.034372   0.005313  -0.077801   0.005110   0.549178
    13  H    0.583436  -0.004707  -0.000226   0.006605  -0.000136  -0.039843
    14  H   -0.004707   0.552681  -0.004595   0.000786   0.000014   0.002982
    15  H   -0.000226  -0.004595   0.565664   0.004576  -0.000111   0.000498
    16  C    0.006605   0.000786   0.004576   5.167673   0.354345   0.455214
    17  H   -0.000136   0.000014  -0.000111   0.354345   0.564741  -0.037084
    18  C   -0.039843   0.002982   0.000498   0.455214  -0.037084   4.777136
    19  C   -0.016980  -0.000180   0.000008  -0.046346  -0.008442   0.332754
    20  N   -0.000062   0.000001  -0.000000  -0.003644   0.006033  -0.068106
    21  C    0.011385  -0.000002  -0.000000   0.011859   0.000378  -0.055218
    22  H    0.000761  -0.000000  -0.000000  -0.000241  -0.000008  -0.005896
    23  S   -0.000033  -0.000000  -0.000000  -0.000013   0.000020   0.004917
    24  C   -0.000012  -0.000000  -0.000000  -0.000355  -0.000128   0.009225
    25  N    0.000000   0.000000  -0.000000  -0.000007  -0.000004  -0.000219
    26  C    0.000000   0.000000   0.000000   0.000003   0.000008  -0.000031
    27  N    0.000000  -0.000000   0.000000  -0.000000   0.000000  -0.000000
    28  H    0.000000  -0.000000   0.000000   0.000000  -0.000000  -0.000000
    29  H    0.000000  -0.000000   0.000000   0.000000   0.000000  -0.000000
    30  N    0.000000  -0.000000   0.000000  -0.000004   0.000004   0.000016
    31  H    0.000000  -0.000000   0.000000   0.000000   0.000000   0.000001
    32  H   -0.000000   0.000000   0.000000   0.000000   0.000042  -0.000008
    33  H    0.000000  -0.000000   0.000000   0.000000  -0.000000   0.000003
              19         20         21         22         23         24
     1  C   -0.000000  -0.000000  -0.000000  -0.000000  -0.000000  -0.000000
     2  H    0.000000  -0.000000  -0.000000  -0.000000   0.000000   0.000000
     3  H    0.000000  -0.000000   0.000000  -0.000000  -0.000000  -0.000000
     4  H    0.000000   0.000000   0.000000   0.000000  -0.000000   0.000000
     5  C   -0.000001   0.000000  -0.000000   0.000000   0.000000   0.000000
     6  O    0.000000  -0.000000  -0.000000   0.000000   0.000000  -0.000000
     7  N   -0.000321   0.000001   0.000001   0.000000  -0.000000  -0.000000
     8  H    0.000016  -0.000002   0.000000  -0.000000  -0.000000   0.000000
     9  C    0.005952   0.000266  -0.000308   0.000005   0.000010  -0.000004
    10  C    0.000840   0.000007   0.000046  -0.000007   0.000001   0.000000
    11  C    0.007505  -0.000083   0.000263   0.000142  -0.000014  -0.000000
    12  C   -0.048262   0.003950  -0.023316   0.001799   0.000832   0.000119
    13  H   -0.016980  -0.000062   0.011385   0.000761  -0.000033  -0.000012
    14  H   -0.000180   0.000001  -0.000002  -0.000000  -0.000000  -0.000000
    15  H    0.000008  -0.000000  -0.000000  -0.000000  -0.000000  -0.000000
    16  C   -0.046346  -0.003644   0.011859  -0.000241  -0.000013  -0.000355
    17  H   -0.008442   0.006033   0.000378  -0.000008   0.000020  -0.000128
    18  C    0.332754  -0.068106  -0.055218  -0.005896   0.004917   0.009225
    19  C    4.718049   0.406903   0.482821  -0.004888  -0.059845  -0.047492
    20  N    0.406903   6.949556  -0.102917   0.004275  -0.069711   0.412227
    21  C    0.482821  -0.102917   5.485824   0.349942   0.306572  -0.073810
    22  H   -0.004888   0.004275   0.349942   0.476410  -0.042315   0.002777
    23  S   -0.059845  -0.069711   0.306572  -0.042315  15.312843   0.307734
    24  C   -0.047492   0.412227  -0.073810   0.002777   0.307734   4.905730
    25  N    0.000781  -0.053230   0.003432  -0.000051  -0.074503   0.237802
    26  C    0.000594   0.008412   0.000020  -0.000000   0.006967  -0.046080
    27  N   -0.000005   0.000360   0.000001  -0.000000  -0.000267   0.008544
    28  H    0.000000   0.000017   0.000001  -0.000000  -0.000058   0.000829
    29  H    0.000000   0.000008  -0.000000   0.000000   0.000035  -0.000284
    30  N    0.000257  -0.002356  -0.000056  -0.000000   0.000804   0.000711
    31  H   -0.000057   0.000307  -0.000120  -0.000001   0.001044   0.007096
    32  H    0.000042   0.003064   0.000021  -0.000000   0.000063   0.001319
    33  H    0.000033   0.001637  -0.000012  -0.000002  -0.000727  -0.017848
              25         26         27         28         29         30
     1  C    0.000000  -0.000000  -0.000000  -0.000000  -0.000000   0.000000
     2  H    0.000000  -0.000000  -0.000000  -0.000000  -0.000000   0.000000
     3  H   -0.000000  -0.000000  -0.000000  -0.000000  -0.000000   0.000000
     4  H    0.000000  -0.000000   0.000000  -0.000000   0.000000  -0.000000
     5  C    0.000000   0.000000   0.000000   0.000000   0.000000  -0.000000
     6  O    0.000000   0.000000   0.000000  -0.000000   0.000000   0.000000
     7  N   -0.000000   0.000000  -0.000000   0.000000   0.000000  -0.000000
     8  H    0.000000  -0.000000  -0.000000  -0.000000  -0.000000   0.000000
     9  C   -0.000000   0.000000   0.000000   0.000000   0.000000  -0.000000
[...]
 Alpha virt. eigenvalues --    3.81334   3.82977   3.87375   3.92481   4.05180
 Alpha virt. eigenvalues --    4.13814   4.17256   4.24609   4.96563
          Condensed to atoms (all electrons):
               1          2          3          4          5          6
     1  C    4.708051   0.317079   0.358104   0.355454   0.053693  -0.080739
     2  H    0.317079   0.907784  -0.111221  -0.113638  -0.014056   0.026258
     3  H    0.358104  -0.111221   0.835822  -0.086590  -0.012378   0.003558
     4  H    0.355454  -0.113638  -0.086590   0.849911  -0.007974   0.004049
     5  C    0.053693  -0.014056  -0.012378  -0.007974   5.435736   0.171202
     6  O   -0.080739   0.026258   0.003558   0.004049   0.171202   8.746617
     7  N   -0.036694   0.100213  -0.051385  -0.060528   0.391440  -0.172953
     8  H   -0.055727  -0.021825   0.023595   0.025337  -0.077836   0.001125
     9  C    0.161586  -0.027901   0.021271   0.025758  -0.392655   0.124925
    10  C   -0.003657   0.000137  -0.007711  -0.006839   0.160914   0.159013
    11  C   -0.014642   0.001288   0.001126   0.000971  -0.236840  -0.081387
    12  C    0.015781  -0.000299  -0.001364  -0.001371   0.304713   0.015380
    13  H   -0.000973   0.000018  -0.000145  -0.000149  -0.005805   0.000005
    14  H    0.002388   0.000090   0.000260   0.000259   0.025841  -0.000736
    15  H   -0.006603   0.000881  -0.000523  -0.000431   0.142853  -0.117638
    16  C   -0.208213   0.023036  -0.026154  -0.030685  -0.280471  -0.011672
    17  H    0.004952   0.001057  -0.002576  -0.002798  -0.154904   0.010431
    18  C    0.024629  -0.003261   0.006400   0.007331  -0.215864   0.023532
    19  C   -0.001812   0.000534  -0.000598  -0.000665  -0.024449  -0.005829
    20  N   -0.000260   0.000122  -0.000099  -0.000096   0.015582  -0.000815
    21  C    0.004616   0.000069   0.000373   0.000383   0.014808   0.000361
    22  H    0.000262   0.000000   0.000028   0.000028  -0.000070  -0.000011
    23  S    0.000006  -0.000002   0.000001   0.000001  -0.000074   0.000012
    24  C   -0.000759   0.000116  -0.000119  -0.000123   0.017281  -0.000526
    25  N    0.000004  -0.000002  -0.000014  -0.000014  -0.000505   0.000004
    26  C    0.000547  -0.000003   0.000139   0.000142  -0.000916   0.000017
    27  N   -0.000006  -0.000001  -0.000003  -0.000003  -0.000050   0.000000
    28  H   -0.000005  -0.000001  -0.000001  -0.000001  -0.000022   0.000000
    29  H    0.000023   0.000001   0.000005   0.000006   0.000017   0.000000
    30  N   -0.000016  -0.000022  -0.000042  -0.000044  -0.001399   0.000029
    31  H    0.001686   0.000206   0.000025   0.000071   0.011748  -0.000328
    32  H   -0.000322  -0.000015  -0.000038  -0.000044  -0.000845   0.000018
    33  H    0.000023   0.000001   0.000003   0.000003   0.000115  -0.000002
               7          8          9         10         11         12
     1  C   -0.036694  -0.055727   0.161586  -0.003657  -0.014642   0.015781
     2  H    0.100213  -0.021825  -0.027901   0.000137   0.001288  -0.000299
     3  H   -0.051385   0.023595   0.021271  -0.007711   0.001126  -0.001364
     4  H   -0.060528   0.025337   0.025758  -0.006839   0.000971  -0.001371
     5  C    0.391440  -0.077836  -0.392655   0.160914  -0.236840   0.304713
     6  O   -0.172953   0.001125   0.124925   0.159013  -0.081387   0.015380
     7  N    8.106521   0.274664  -1.615504   1.060382  -0.398694   0.372209
     8  H    0.274664   1.009312  -0.195172  -0.062111  -0.071889   0.105286
     9  C   -1.615504  -0.195172  21.807577  -8.884963   5.147956  -5.529211
    10  C    1.060382  -0.062111  -8.884963  20.039707  -9.145498   6.972846
    11  C   -0.398694  -0.071889   5.147956  -9.145498  23.839964 -12.114351
    12  C    0.372209   0.105286  -5.529211   6.972846 -12.114351  31.436623
    13  H    0.016020  -0.002648  -0.172660  -0.306650   0.800514  -2.221067
    14  H   -0.009057   0.000528  -0.322236   1.274391  -2.040485   1.268664
    15  H   -0.168567  -0.001776   1.239279  -1.950655   0.687668  -0.364003
    16  C    0.859106   0.163347  -7.062818   2.373061  -4.586712  -2.544892
    17  H   -0.330888  -0.063072   0.973157  -0.788951   0.437754  -0.660264
    18  C   -0.653399   0.006747   1.271454  -6.014943   4.296978  -9.052809
    19  C   -0.024265  -0.028454   0.171694  -0.548144  -0.761868  -3.722945
    20  N    0.018183   0.008309  -0.023210  -0.009175   0.150427   0.538081
    21  C    0.001953   0.002652  -0.437098   0.363213   0.418937   0.273809
    22  H   -0.002739  -0.000505   0.028621  -0.039153   0.046782  -0.090839
    23  S   -0.001387  -0.000170   0.005551   0.029411  -0.094615  -0.055659
    24  C    0.023571   0.018422   0.337933  -0.039230  -0.059323   0.149493
    25  N   -0.000827  -0.000584  -0.017293   0.004846  -0.006333  -0.022177
    26  C   -0.002783  -0.004185   0.053794   0.002278  -0.013168  -0.063095
    27  N   -0.000051   0.000056  -0.001288   0.000098   0.000169   0.001142
    28  H   -0.000020  -0.000055  -0.000608  -0.000030   0.000145   0.000395
    29  H   -0.000001   0.000030   0.001372   0.000135  -0.000167  -0.000625
    30  N   -0.000487   0.001310  -0.045909   0.002385  -0.000718   0.033792
    31  H    0.013304   0.012412   0.005070   0.078404  -0.065234   0.069312
    32  H   -0.000907  -0.002598   0.000937  -0.003456   0.002610  -0.003033
    33  H    0.000066   0.000230   0.003079   0.000452  -0.001992  -0.001540
              13         14         15         16         17         18
     1  C   -0.000973   0.002388  -0.006603  -0.208213   0.004952   0.024629
     2  H    0.000018   0.000090   0.000881   0.023036   0.001057  -0.003261
     3  H   -0.000145   0.000260  -0.000523  -0.026154  -0.002576   0.006400
     4  H   -0.000149   0.000259  -0.000431  -0.030685  -0.002798   0.007331
     5  C   -0.005805   0.025841   0.142853  -0.280471  -0.154904  -0.215864
     6  O    0.000005  -0.000736  -0.117638  -0.011672   0.010431   0.023532
     7  N    0.016020  -0.009057  -0.168567   0.859106  -0.330888  -0.653399
     8  H   -0.002648   0.000528  -0.001776   0.163347  -0.063072   0.006747
     9  C   -0.172660  -0.322236   1.239279  -7.062818   0.973157   1.271454
    10  C   -0.306650   1.274391  -1.950655   2.373061  -0.788951  -6.014943
    11  C    0.800514  -2.040485   0.687668  -4.586712   0.437754   4.296978
    12  C   -2.221067   1.268664  -0.364003  -2.544892  -0.660264  -9.052809
    13  H    2.207617  -0.105953  -0.014468   0.205386   0.004411   1.050749
    14  H   -0.105953   1.878030  -0.093457   0.058437   0.003772  -0.404090
    15  H   -0.014468  -0.093457   2.388138  -0.081144  -0.021648  -0.009465
    16  C    0.205386   0.058437  -0.081144  27.807067  -2.032941  -8.329924
    17  H    0.004411   0.003772  -0.021648  -2.032941   3.016410   1.529208
    18  C    1.050749  -0.404090  -0.009465  -8.329924   1.529208  25.754165
    19  C    0.378641  -0.083766   0.016440   1.173055   0.087839  -7.293770
    20  N   -0.031775   0.004728   0.001391  -0.532870  -0.057774   0.569292
    21  C   -0.059832   0.076367  -0.009339  -2.149072   0.072496   1.978270
    22  H   -0.078820   0.002859  -0.000254   0.115093   0.031126  -0.040132
    23  S   -0.000567  -0.000776   0.000093   0.100926   0.006621  -0.255733
    24  C   -0.006613   0.000588   0.000210  -0.215585  -0.229666   0.281318
    25  N    0.002581  -0.000212   0.000125   0.061548   0.010810  -0.199982
    26  C    0.001905  -0.000233  -0.000182   0.038491   0.034197  -0.084664
    27  N   -0.000060   0.000005   0.000007  -0.002690   0.001082   0.002136
    28  H   -0.000019   0.000002   0.000003   0.000217   0.000100   0.000488
    29  H    0.000032  -0.000003  -0.000004   0.000326  -0.000032  -0.001327
    30  N   -0.000584   0.000001   0.000252  -0.020753  -0.001128   0.073003
    31  H    0.000025  -0.000607   0.000708  -0.000286  -0.124114  -0.019436
    32  H   -0.000145   0.000045  -0.000036   0.013955   0.014356  -0.013369
    33  H    0.000001  -0.000013  -0.000009  -0.000841  -0.003997   0.004141
              19         20         21         22         23         24
     1  C   -0.001812  -0.000260   0.004616   0.000262   0.000006  -0.000759
     2  H    0.000534   0.000122   0.000069   0.000000  -0.000002   0.000116
     3  H   -0.000598  -0.000099   0.000373   0.000028   0.000001  -0.000119
     4  H   -0.000665  -0.000096   0.000383   0.000028   0.000001  -0.000123
     5  C   -0.024449   0.015582   0.014808  -0.000070  -0.000074   0.017281
     6  O   -0.005829  -0.000815   0.000361  -0.000011   0.000012  -0.000526
     7  N   -0.024265   0.018183   0.001953  -0.002739  -0.001387   0.023571
     8  H   -0.028454   0.008309   0.002652  -0.000505  -0.000170   0.018422
     9  C    0.171694  -0.023210  -0.437098   0.028621   0.005551   0.337933
    10  C   -0.548144  -0.009175   0.363213  -0.039153   0.029411  -0.039230
    11  C   -0.761868   0.150427   0.418937   0.046782  -0.094615  -0.059323
    12  C   -3.722945   0.538081   0.273809  -0.090839  -0.055659   0.149493
    13  H    0.378641  -0.031775  -0.059832  -0.078820  -0.000567  -0.006613
    14  H   -0.083766   0.004728   0.076367   0.002859  -0.000776   0.000588
    15  H    0.016440   0.001391  -0.009339  -0.000254   0.000093   0.000210
    16  C    1.173055  -0.532870  -2.149072   0.115093   0.100926  -0.215585
    17  H    0.087839  -0.057774   0.072496   0.031126   0.006621  -0.229666
    18  C   -7.293770   0.569292   1.978270  -0.040132  -0.255733   0.281318
    19  C   27.830435  -1.485585  -8.616168   0.785804   0.175649  -1.757718
    20  N   -1.485585   8.018445   0.601642   0.017375  -0.168512   0.185386
    21  C   -8.616168   0.601642  14.273836  -0.473329   0.107553  -0.760220
    22  H    0.785804   0.017375  -0.473329   1.619749  -0.236355  -0.071275
    23  S    0.175649  -0.168512   0.107553  -0.236355  15.950080   0.137180
    24  C   -1.757718   0.185386  -0.760220  -0.071275   0.137180   8.297995
    25  N    0.613730  -0.130213  -0.087544  -0.013617  -0.111071  -0.314264
    26  C    0.216341   0.054605  -0.241669  -0.011635  -0.047863  -0.476916
    27  N    0.013267   0.004455   0.006338   0.000265   0.005037   0.020711
    28  H   -0.000718   0.002031   0.001291   0.000116  -0.002228  -0.036033
    29  H    0.002478   0.002170  -0.003773  -0.000211  -0.000238  -0.011175
    30  N   -0.132909  -0.029143   0.081277   0.003225  -0.011925   0.045962
    31  H   -0.131421  -0.014179  -0.027829  -0.009876  -0.002854   0.043225
    32  H    0.025093   0.001430  -0.002225   0.000192  -0.000206  -0.009265
    33  H   -0.076609  -0.016060  -0.001837   0.000176   0.015213  -0.097825
              25         26         27         28         29         30
     1  C    0.000004   0.000547  -0.000006  -0.000005   0.000023  -0.000016
     2  H   -0.000002  -0.000003  -0.000001  -0.000001   0.000001  -0.000022
     3  H   -0.000014   0.000139  -0.000003  -0.000001   0.000005  -0.000042
     4  H   -0.000014   0.000142  -0.000003  -0.000001   0.000006  -0.000044
     5  C   -0.000505  -0.000916  -0.000050  -0.000022   0.000017  -0.001399
     6  O    0.000004   0.000017   0.000000   0.000000   0.000000   0.000029
     7  N   -0.000827  -0.002783  -0.000051  -0.000020  -0.000001  -0.000487
     8  H   -0.000584  -0.004185   0.000056  -0.000055   0.000030   0.001310
     9  C   -0.017293   0.053794  -0.001288  -0.000608   0.001372  -0.045909
    10  C    0.004846   0.002278   0.000098  -0.000030   0.000135   0.002385
    11  C   -0.006333  -0.013168   0.000169   0.000145  -0.000167  -0.000718
    12  C   -0.022177  -0.063095   0.001142   0.000395  -0.000625   0.033792
    13  H    0.002581   0.001905  -0.000060  -0.000019   0.000032  -0.000584
    14  H   -0.000212  -0.000233   0.000005   0.000002  -0.000003   0.000001
    15  H    0.000125  -0.000182   0.000007   0.000003  -0.000004   0.000252
    16  C    0.061548   0.038491  -0.002690   0.000217   0.000326  -0.020753
    17  H    0.010810   0.034197   0.001082   0.000100  -0.000032  -0.001128
    18  C   -0.199982  -0.084664   0.002136   0.000488  -0.001327   0.073003
    19  C    0.613730   0.216341   0.013267  -0.000718   0.002478  -0.132909
    20  N   -0.130213   0.054605   0.004455   0.002031   0.002170  -0.029143
    21  C   -0.087544  -0.241669   0.006338   0.001291  -0.003773   0.081277
    22  H   -0.013617  -0.011635   0.000265   0.000116  -0.000211   0.003225
    23  S   -0.111071  -0.047863   0.005037  -0.002228  -0.000238  -0.011925
    24  C   -0.314264  -0.476916   0.020711  -0.036033  -0.011175   0.045962
    25  N    7.439107   0.218512  -0.109281   0.017140  -0.023540  -0.035164
    26  C    0.218512   5.218423   0.140731  -0.078339  -0.063766   0.161416
    27  N   -0.109281   0.140731   6.375347   0.456764   0.454816  -0.111773
    28  H    0.017140  -0.078339   0.456764   0.785302  -0.146046   0.004241
    29  H   -0.023540  -0.063766   0.454816  -0.146046   0.786555  -0.018288
    30  N   -0.035164   0.161416  -0.111773   0.004241  -0.018288   6.251146
    31  H   -0.033879  -0.156136   0.013607   0.002900  -0.002075   0.416054
    32  H    0.007907  -0.106212  -0.005227   0.002667  -0.007294   0.425861
    33  H    0.435706  -0.103155  -0.006726  -0.005534   0.002934   0.011151
              31         32         33
     1  C    0.001686  -0.000322   0.000023
     2  H    0.000206  -0.000015   0.000001
     3  H    0.000025  -0.000038   0.000003
     4  H    0.000071  -0.000044   0.000003
     5  C    0.011748  -0.000845   0.000115
     6  O   -0.000328   0.000018  -0.000002
     7  N    0.013304  -0.000907   0.000066
     8  H    0.012412  -0.002598   0.000230
     9  C    0.005070   0.000937   0.003079
    10  C    0.078404  -0.003456   0.000452
    11  C   -0.065234   0.002610  -0.001992
    12  C    0.069312  -0.003033  -0.001540
    13  H    0.000025  -0.000145   0.000001
    14  H   -0.000607   0.000045  -0.000013
    15  H    0.000708  -0.000036  -0.000009
    16  C   -0.000286   0.013955  -0.000841
    17  H   -0.124114   0.014356  -0.003997
    18  C   -0.019436  -0.013369   0.004141
    19  C   -0.131421   0.025093  -0.076609
    20  N   -0.014179   0.001430  -0.016060
    21  C   -0.027829  -0.002225  -0.001837
    22  H   -0.009876   0.000192   0.000176
    23  S   -0.002854  -0.000206   0.015213
    24  C    0.043225  -0.009265  -0.097825
    25  N   -0.033879   0.007907   0.435706
    26  C   -0.156136  -0.106212  -0.103155
    27  N    0.013607  -0.005227  -0.006726
    28  H    0.002900   0.002667  -0.005534
    29  H   -0.002075  -0.007294   0.002934
    30  N    0.416054   0.425861   0.011151
    31  H    1.038066  -0.220815   0.005423
    32  H   -0.220815   0.876418  -0.001674
    33  H    0.005423  -0.001674   0.850282
 Mulliken charges:
               1
     1  C    0.401543
     2  H   -0.086644
     3  H    0.050252
     4  H    0.042290
     5  C    0.681169
     6  O   -0.813901
     7  N   -0.706497
     8  H   -0.064756
     9  C   -0.652487
    10  C    1.289497
    11  C   -0.139370
    12  C    0.892018
    13  H   -0.658974
    14  H   -0.535632
    15  H   -0.637844
    16  C    1.124671
    17  H   -0.765025
    18  C    1.712327
    19  C   -0.793307
    20  N   -0.693888
    21  C    0.589695
    22  H   -0.582879
    23  S    0.456898
    24  C    0.527245
    25  N   -0.705503
    26  C    1.313380
    27  N   -0.258874
    28  H   -0.004142
    29  H    0.027664
    30  N   -0.100800
    31  H    0.096823
    32  H    0.006236
    33  H   -0.011186
 Sum of Mulliken charges =   1.00000
 Mulliken charges with hydrogens summed into heavy atoms:
               1
     1  C    0.407442
     5  C    0.681169
     6  O   -0.813901
     7  N   -0.771253
     9  C   -0.652487
    10  C    0.651653
    11  C   -0.675002
    12  C    0.233045
    16  C    0.359646
    18  C    1.712327
    19  C   -0.793307
    20  N   -0.693888
    21  C    0.006816
    23  S    0.456898
    24  C    0.527245
    25  N   -0.716689
    26  C    1.313380
    27  N   -0.235351
    30  N    0.002259
 Electronic spatial extent (au):  <R**2>=           7820.8682
 Charge=              1.0000 electrons
 Dipole moment (field-independent basis, Debye):
    X=            -17.4733    Y=             10.1912    Z=             -0.0093  Tot=             20.2281
 Quadrupole moment (field-independent basis, Debye-Ang):
   XX=            -48.5756   YY=            -56.2502   ZZ=           -124.6200
   XY=            -24.6794   XZ=             -0.0588   YZ=              0.0016
 Traceless Quadrupole moment (field-independent basis, Debye-Ang):
   XX=             27.9064   YY=             20.2318   ZZ=            -48.1381
   XY=            -24.6794   XZ=             -0.0588   YZ=              0.0016
 Octapole moment (field-independent basis, Debye-Ang**2):
  XXX=           -509.3756  YYY=            125.9110  ZZZ=              0.0197  XYY=            -94.2978
  XXY=            213.3135  XXZ=             -0.4201  XZZ=              0.1257  YZZ=             15.8532
  YYZ=              0.1453  XYZ=             -0.2374
 Hexadecapole moment (field-independent basis, Debye-Ang**3):
 XXXX=          -6322.3388 YYYY=          -1763.3571 ZZZZ=           -142.9502 XXXY=           -633.9203
 XXXZ=             -2.0593 YYYX=           -413.5744 YYYZ=              0.4049 ZZZX=              0.0600
 ZZZY=              0.1148 XXYY=           -872.2109 XXZZ=          -1353.9293 YYZZ=           -490.2996
 XXYZ=             -0.3254 YYXZ=             -0.0399 ZZXY=             14.0623
 N-N= 1.456074838071D+03 E-N=-5.732362508460D+03  KE= 1.206048335737D+03
 Leave Link  601 at Sun Jul 18 19:44:24 2021, MaxMem=   262144000 cpu:               0.4 elap:               0.4
 (Enter /dades/curu/g16A03_MST/g16/l9999.exe)
 1\1\GINC-PIRINEUS32\SP\RMP2-FC\Aug-CC-pVDZ\C12H14N5O1S1(1+)\UBATOR02\1
 8-Jul-2021\0\\#p mp2/aug-cc-pVDZ scf=tight maxdisk=180GB geom=allcheck
 \\SET_328_BBB321_conf1.geo_165_030_120 geometry\\1,1\C,0,1.3230797555,
 0.4313663427,4.8785239294\H,0,1.7064510483,0.9059680585,5.7800430064\H
 ,0,1.9064900001,-0.4711608871,4.6726978445\H,0,0.2866850766,0.12761424
 53,5.0464416157\C,0,1.4230638004,1.4187414234,3.7300655184\O,0,1.88693
 94097,2.5449244113,3.866062546\N,0,0.9469692901,0.9271919494,2.5356709
 306\H,0,0.5898526206,-0.0188101431,2.5550801875\C,0,0.8897266898,1.561
 5960407,1.2811671107\C,0,1.3357375244,2.8718927561,1.0597302589\C,0,1.
 2352018562,3.4108077709,-0.2232030205\C,0,0.7052545575,2.6808592892,-1
 .2810382117\H,0,0.6410805533,3.1278695297,-2.2665309895\H,0,1.58047275
 05,4.424844252,-0.3947509059\H,0,1.7468204097,3.4361371647,1.882532859
 9\C,0,0.3555130386,0.8242198617,0.2176197603\H,0,0.0111860008,-0.18780
 15673,0.3894048829\C,0,0.2563924316,1.3671681095,-1.0654337212\C,0,-0.
 3109070145,0.5648444725,-2.1634778536\N,0,-0.7413955713,-0.7345993518,
 -1.9171864922\C,0,-0.4696936242,0.9729530312,-3.4592284855\H,0,-0.2196
 052022,1.92302378,-3.9047870201\S,0,-1.1761152608,-0.280180398,-4.4301
 941023\C,0,-1.2107503995,-1.2900800277,-2.9950251243\N,0,-1.715843432,
 -2.5795198836,-3.0741946851\C,0,-1.8114792425,-3.4845031181,-2.0545136
 843\N,0,-2.3287468214,-4.6750113503,-2.3377193131\H,0,-2.6420797425,-4
 .904296306,-3.2738511435\H,0,-2.4197349887,-5.3775430579,-1.6123739355
 \N,0,-1.4010950416,-3.1755858164,-0.8353532981\H,0,-1.010575104,-2.251
 4119496,-0.6646702263\H,0,-1.4764765089,-3.8545848996,-0.0862551013\H,
 0,-2.0554188597,-2.9019337321,-3.9752531375\\Version=ES64L-G16RevA.03\
 State=1-A\HF=-1207.1533739\MP2=-1209.9694498\RMSD=8.439e-09\PG=C01 [X(
 C12H14N5O1S1)]\\@


 IN THE UNIVERSE THE DIFFICULT THINGS ARE DONE AS IF THEY WERE EASY.

                                                          -- LAO-TSU
 Job cpu time:       0 days  3 hours  0 minutes 29.6 seconds.
 Elapsed time:       0 days  1 hours  6 minutes 23.0 seconds.
 File lengths (MBytes):  RWF=  88732 Int=      0 D2E=      0 Chk=     27 Scr=      1
 Normal termination of Gaussian 16 at Sun Jul 18 19:44:27 2021.
