 Entering Gaussian System, Link 0=g16
 Input=SET_328_BBB20_conf1.geo_105_285_180_OCTANOL.dat
 Output=SET_328_BBB20_conf1.geo_105_285_180_OCTANOL.log
 Initial command:
 /dades/curu/g16A03_MST/g16/l1.exe "/tmp/ubator02/1839505/Gau-218387.inp" -scrdir="/tmp/ubator02/1839505/"
 Entering Link 1 = /dades/curu/g16A03_MST/g16/l1.exe PID=    218388.
  
 Copyright (c) 1988,1990,1992,1993,1995,1998,2003,2009,2016,
            Gaussian, Inc.  All Rights Reserved.
  
 This is part of the Gaussian(R) 16 program.  It is based on
 the Gaussian(R) 09 system (copyright 2009, Gaussian, Inc.),
 the Gaussian(R) 03 system (copyright 2003, Gaussian, Inc.),
 the Gaussian(R) 98 system (copyright 1998, Gaussian, Inc.),
 the Gaussian(R) 94 system (copyright 1995, Gaussian, Inc.),
 the Gaussian 92(TM) system (copyright 1992, Gaussian, Inc.),
 the Gaussian 90(TM) system (copyright 1990, Gaussian, Inc.),
 the Gaussian 88(TM) system (copyright 1988, Gaussian, Inc.),
 the Gaussian 86(TM) system (copyright 1986, Carnegie Mellon
 University), and the Gaussian 82(TM) system (copyright 1983,
 Carnegie Mellon University). Gaussian is a federally registered
 trademark of Gaussian, Inc.
  
 This software contains proprietary and confidential information,
 including trade secrets, belonging to Gaussian, Inc.
  
 This software is provided under written license and may be
 used, copied, transmitted, or stored only in accord with that
 written license.
  
 The following legend is applicable only to US Government
 contracts under FAR:
  
                    RESTRICTED RIGHTS LEGEND
  
 Use, reproduction and disclosure by the US Government is
 subject to restrictions as set forth in subparagraphs (a)
 and (c) of the Commercial Computer Software - Restricted
 Rights clause in FAR 52.227-19.
  
 Gaussian, Inc.
 340 Quinnipiac St., Bldg. 40, Wallingford CT 06492
  
  
 ---------------------------------------------------------------
 Warning -- This program may not be used in any manner that
 competes with the business of Gaussian, Inc. or will provide
 assistance to any competitor of Gaussian, Inc.  The licensee
 of this program is prohibited from giving any competitor of
 Gaussian, Inc. access to this program.  By using this program,
 the user acknowledges that Gaussian, Inc. is engaged in the
 business of creating and licensing software in the field of
 computational chemistry and represents and warrants to the
 licensee that it is not a competitor of Gaussian, Inc. and that
 it will not use this program in any manner prohibited above.
 ---------------------------------------------------------------
  

 Cite this work as:
 Gaussian 16, Revision A.03,
 M. J. Frisch, G. W. Trucks, H. B. Schlegel, G. E. Scuseria, 
 M. A. Robb, J. R. Cheeseman, G. Scalmani, V. Barone, 
 G. A. Petersson, H. Nakatsuji, X. Li, M. Caricato, A. V. Marenich, 
 J. Bloino, B. G. Janesko, R. Gomperts, B. Mennucci, H. P. Hratchian, 
 J. V. Ortiz, A. F. Izmaylov, J. L. Sonnenberg, D. Williams-Young, 
 F. Ding, F. Lipparini, F. Egidi, J. Goings, B. Peng, A. Petrone, 
 T. Henderson, D. Ranasinghe, V. G. Zakrzewski, J. Gao, N. Rega, 
 G. Zheng, W. Liang, M. Hada, M. Ehara, K. Toyota, R. Fukuda, 
 J. Hasegawa, M. Ishida, T. Nakajima, Y. Honda, O. Kitao, H. Nakai, 
 T. Vreven, K. Throssell, J. A. Montgomery, Jr., J. E. Peralta, 
 F. Ogliaro, M. J. Bearpark, J. J. Heyd, E. N. Brothers, K. N. Kudin, 
 V. N. Staroverov, T. A. Keith, R. Kobayashi, J. Normand, 
 K. Raghavachari, A. P. Rendell, J. C. Burant, S. S. Iyengar, 
 J. Tomasi, M. Cossi, J. M. Millam, M. Klene, C. Adamo, R. Cammi, 
 J. W. Ochterski, R. L. Martin, K. Morokuma, O. Farkas, 
 J. B. Foresman, and D. J. Fox, Gaussian, Inc., Wallingford CT, 2016.
 
 ******************************************
 Gaussian 16:  ES64L-G16RevA.03 25-Dec-2016
                18-Jul-2021 
 ******************************************
 %mem=800MB
 %nproc=4
 Will use up to    4 processors via shared memory.
 %chk=SET_328_BBB20_conf1.geo_105_285_180.chk
 ---------------------------------------------------------------
 #p b3lyp/6-31G(d) opt freq scrf=(iefpcm,read,solvent=n-octanol)
 ---------------------------------------------------------------
 1/18=20,19=15,26=3,38=1,40=2/1,3;
 2/9=110,12=2,17=6,18=5,40=1/2;
 3/5=1,6=6,7=1,11=2,25=1,30=1,70=2203,71=1,72=25,74=-5/1,2,3;
 4//1;
 5/5=2,38=5,53=25/2;
 6/7=2,8=2,9=2,10=2,28=1/1;
 7//1,2,3,16;
 1/18=20,19=15,26=3/3(2);
 2/9=110/2;
 99//99;
 2/9=110/2;
 3/5=1,6=6,7=1,11=2,25=1,30=1,70=2205,71=1,72=25,74=-5/1,2,3;
 4/5=5,16=3,69=1/1;
 5/5=2,38=5,53=25/2;
 7//1,2,3,16;
 1/18=20,19=15,26=3/3(-5);
 2/9=110/2;
 6/7=2,8=2,9=2,10=2,19=2,28=1/1;
 99/9=1/99;
 Leave Link    1 at Sun Jul 18 13:31:21 2021, MaxMem=   104857600 cpu:               0.0 elap:               0.0
 (Enter /dades/curu/g16A03_MST/g16/l101.exe)
 --------------------------------------------
 SET_328_BBB20_conf1.geo_105_285_180 geometry
 --------------------------------------------
 Symbolic Z-matrix:
 Charge =  1 Multiplicity = 1
 N                    -3.514    -0.948    -1.751 
 H                    -3.742    -1.812    -2.199 
 H                    -3.164    -0.302    -2.43 
 C                    -2.476    -1.187    -0.714 
 H                    -2.899    -2.063    -0.215 
 H                    -2.34     -0.301    -0.089 
 C                    -1.18     -1.637    -1.435 
 H                    -0.776    -0.875    -2.105 
 H                    -1.434    -2.535    -2.002 
 C                    -0.016    -1.912    -0.461 
 H                     0.741    -2.466    -1.022 
 H                    -0.48     -2.621     0.229 
 N                     0.548    -0.688     0.085 
 C                     0.157    -0.381     1.377 
 C                     0.337    -1.391     2.338 
 H                     0.643    -2.411     2.118 
 C                     0.053    -1.185     3.679 
 H                     0.196    -2.025     4.354 
 C                    -0.471     0.035     4.129 
 H                    -0.671     0.297     5.165 
 C                    -0.686     1.021     3.152 
 H                    -1.083     1.981     3.472 
 C                    -0.325     0.85      1.768 
 C                    -0.488     2.091     0.861 
 H                    -0.032     3.033     1.174 
 H                    -1.524     2.408     0.999 
 C                    -0.266     1.933    -0.666 
 H                    -0.533     2.836    -1.219 
 H                    -0.981     1.181    -1.006 
 C                     1.081     1.397    -1.057 
 C                     1.961     2.183    -1.815 
 H                     1.66      3.193    -2.08 
 C                     3.193     1.641    -2.281 
 H                     3.648     2.291    -3.024 
 C                     3.484     0.31     -2.02 
 H                     4.392    -0.074    -2.476 
 C                     2.642    -0.419    -1.16 
 H                     2.833    -1.454    -0.889 
 C                     1.433     0.061    -0.656 
 H                    -4.333    -0.569    -1.321 
 
 ITRead=  0  0  0  0  0  0  0  0  0  0  0  0  0  0  0  0  0  0  0  0
 ITRead=  0  0  0  0  0  0  0  0  0  0  0  0  0  0  0  0  0  0  0  0
 MicOpt= -1 -1 -1 -1 -1 -1 -1 -1 -1 -1 -1 -1 -1 -1 -1 -1 -1 -1 -1 -1
 MicOpt= -1 -1 -1 -1 -1 -1 -1 -1 -1 -1 -1 -1 -1 -1 -1 -1 -1 -1 -1 -1
 NAtoms=     40 NQM=       40 NQMF=       0 NMMI=      0 NMMIF=      0
                NMic=       0 NMicF=      0.
                    Isotopes and Nuclear Properties:
 (Nuclear quadrupole moments (NQMom) in fm**2, nuclear magnetic moments (NMagM)
  in nuclear magnetons)

  Atom         1           2           3           4           5           6           7           8           9          10
 IAtWgt=          14           1           1          12           1           1          12           1           1          12
 AtmWgt=  14.0030740   1.0078250   1.0078250  12.0000000   1.0078250   1.0078250  12.0000000   1.0078250   1.0078250  12.0000000
 NucSpn=           2           1           1           0           1           1           0           1           1           0
 AtZEff=  -0.0000000  -0.0000000  -0.0000000  -0.0000000  -0.0000000  -0.0000000  -0.0000000  -0.0000000  -0.0000000  -0.0000000
 NQMom=    2.0440000   0.0000000   0.0000000   0.0000000   0.0000000   0.0000000   0.0000000   0.0000000   0.0000000   0.0000000
 NMagM=    0.4037610   2.7928460   2.7928460   0.0000000   2.7928460   2.7928460   0.0000000   2.7928460   2.7928460   0.0000000
 AtZNuc=   7.0000000   1.0000000   1.0000000   6.0000000   1.0000000   1.0000000   6.0000000   1.0000000   1.0000000   6.0000000

  Atom        11          12          13          14          15          16          17          18          19          20
 IAtWgt=           1           1          14          12          12           1          12           1          12           1
 AtmWgt=   1.0078250   1.0078250  14.0030740  12.0000000  12.0000000   1.0078250  12.0000000   1.0078250  12.0000000   1.0078250
 NucSpn=           1           1           2           0           0           1           0           1           0           1
 AtZEff=  -0.0000000  -0.0000000  -0.0000000  -0.0000000  -0.0000000  -0.0000000  -0.0000000  -0.0000000  -0.0000000  -0.0000000
 NQMom=    0.0000000   0.0000000   2.0440000   0.0000000   0.0000000   0.0000000   0.0000000   0.0000000   0.0000000   0.0000000
 NMagM=    2.7928460   2.7928460   0.4037610   0.0000000   0.0000000   2.7928460   0.0000000   2.7928460   0.0000000   2.7928460
 AtZNuc=   1.0000000   1.0000000   7.0000000   6.0000000   6.0000000   1.0000000   6.0000000   1.0000000   6.0000000   1.0000000

  Atom        21          22          23          24          25          26          27          28          29          30
 IAtWgt=          12           1          12          12           1           1          12           1           1          12
 AtmWgt=  12.0000000   1.0078250  12.0000000  12.0000000   1.0078250   1.0078250  12.0000000   1.0078250   1.0078250  12.0000000
 NucSpn=           0           1           0           0           1           1           0           1           1           0
 AtZEff=  -0.0000000  -0.0000000  -0.0000000  -0.0000000  -0.0000000  -0.0000000  -0.0000000  -0.0000000  -0.0000000  -0.0000000
 NQMom=    0.0000000   0.0000000   0.0000000   0.0000000   0.0000000   0.0000000   0.0000000   0.0000000   0.0000000   0.0000000
 NMagM=    0.0000000   2.7928460   0.0000000   0.0000000   2.7928460   2.7928460   0.0000000   2.7928460   2.7928460   0.0000000
 AtZNuc=   6.0000000   1.0000000   6.0000000   6.0000000   1.0000000   1.0000000   6.0000000   1.0000000   1.0000000   6.0000000

  Atom        31          32          33          34          35          36          37          38          39          40
 IAtWgt=          12           1          12           1          12           1          12           1          12           1
 AtmWgt=  12.0000000   1.0078250  12.0000000   1.0078250  12.0000000   1.0078250  12.0000000   1.0078250  12.0000000   1.0078250
 NucSpn=           0           1           0           1           0           1           0           1           0           1
 AtZEff=  -0.0000000  -0.0000000  -0.0000000  -0.0000000  -0.0000000  -0.0000000  -0.0000000  -0.0000000  -0.0000000  -0.0000000
 NQMom=    0.0000000   0.0000000   0.0000000   0.0000000   0.0000000   0.0000000   0.0000000   0.0000000   0.0000000   0.0000000
 NMagM=    0.0000000   2.7928460   0.0000000   2.7928460   0.0000000   2.7928460   0.0000000   2.7928460   0.0000000   2.7928460
 AtZNuc=   6.0000000   1.0000000   6.0000000   1.0000000   6.0000000   1.0000000   6.0000000   1.0000000   6.0000000   1.0000000
 Leave Link  101 at Sun Jul 18 13:31:21 2021, MaxMem=   104857600 cpu:               0.1 elap:               0.1
 (Enter /dades/curu/g16A03_MST/g16/l103.exe)

 GradGradGradGradGradGradGradGradGradGradGradGradGradGradGradGradGradGrad
 Berny optimization.
 Initialization pass.
                           ----------------------------
                           !    Initial Parameters    !
                           ! (Angstroms and Degrees)  !
 --------------------------                            --------------------------
 ! Name  Definition              Value          Derivative Info.                !
 --------------------------------------------------------------------------------
 ! R1    R(1,2)                  0.9996         estimate D2E/DX2                !
 ! R2    R(1,3)                  1.0004         estimate D2E/DX2                !
 ! R3    R(1,4)                  1.4866         estimate D2E/DX2                !
 ! R4    R(1,40)                 0.9997         estimate D2E/DX2                !
 ! R5    R(4,5)                  1.0933         estimate D2E/DX2                !
 ! R6    R(4,6)                  1.0928         estimate D2E/DX2                !
 ! R7    R(4,7)                  1.5498         estimate D2E/DX2                !
 ! R8    R(7,8)                  1.0921         estimate D2E/DX2                !
 ! R9    R(7,9)                  1.092          estimate D2E/DX2                !
 ! R10   R(7,10)                 1.5425         estimate D2E/DX2                !
 ! R11   R(10,11)                1.093          estimate D2E/DX2                !
 ! R12   R(10,12)                1.0927         estimate D2E/DX2                !
 ! R13   R(10,13)                1.4541         estimate D2E/DX2                !
 ! R14   R(13,14)                1.3843         estimate D2E/DX2                !
 ! R15   R(13,39)                1.376          estimate D2E/DX2                !
 ! R16   R(14,15)                1.4057         estimate D2E/DX2                !
 ! R17   R(14,23)                1.3786         estimate D2E/DX2                !
 ! R18   R(15,16)                1.0874         estimate D2E/DX2                !
 ! R19   R(15,17)                1.3861         estimate D2E/DX2                !
 ! R20   R(17,18)                1.087          estimate D2E/DX2                !
 ! R21   R(17,19)                1.402          estimate D2E/DX2                !
 ! R22   R(19,20)                1.0872         estimate D2E/DX2                !
 ! R23   R(19,21)                1.4046         estimate D2E/DX2                !
 ! R24   R(21,22)                1.087          estimate D2E/DX2                !
 ! R25   R(21,23)                1.4405         estimate D2E/DX2                !
 ! R26   R(23,24)                1.5457         estimate D2E/DX2                !
 ! R27   R(24,25)                1.0924         estimate D2E/DX2                !
 ! R28   R(24,26)                1.0922         estimate D2E/DX2                !
 ! R29   R(24,27)                1.5511         estimate D2E/DX2                !
 ! R30   R(27,28)                1.092          estimate D2E/DX2                !
 ! R31   R(27,29)                1.0919         estimate D2E/DX2                !
 ! R32   R(27,30)                1.5015         estimate D2E/DX2                !
 ! R33   R(30,31)                1.4024         estimate D2E/DX2                !
 ! R34   R(30,39)                1.4386         estimate D2E/DX2                !
 ! R35   R(31,32)                1.0867         estimate D2E/DX2                !
 ! R36   R(31,33)                1.4243         estimate D2E/DX2                !
 ! R37   R(33,34)                1.087          estimate D2E/DX2                !
 ! R38   R(33,35)                1.3872         estimate D2E/DX2                !
 ! R39   R(35,36)                1.0862         estimate D2E/DX2                !
 ! R40   R(35,37)                1.4071         estimate D2E/DX2                !
 ! R41   R(37,38)                1.0868         estimate D2E/DX2                !
 ! R42   R(37,39)                1.395          estimate D2E/DX2                !
 ! A1    A(2,1,3)              109.4963         estimate D2E/DX2                !
 ! A2    A(2,1,4)              109.4474         estimate D2E/DX2                !
 ! A3    A(2,1,40)             109.4884         estimate D2E/DX2                !
 ! A4    A(3,1,4)              109.4498         estimate D2E/DX2                !
 ! A5    A(3,1,40)             109.4971         estimate D2E/DX2                !
 ! A6    A(4,1,40)             109.4482         estimate D2E/DX2                !
 ! A7    A(1,4,5)              100.1979         estimate D2E/DX2                !
 ! A8    A(1,4,6)              110.8255         estimate D2E/DX2                !
 ! A9    A(1,4,7)              107.8213         estimate D2E/DX2                !
 ! A10   A(5,4,6)              115.8966         estimate D2E/DX2                !
 ! A11   A(5,4,7)              107.6512         estimate D2E/DX2                !
 ! A12   A(6,4,7)              113.4172         estimate D2E/DX2                !
 ! A13   A(4,7,8)              113.0881         estimate D2E/DX2                !
 ! A14   A(4,7,9)              106.6082         estimate D2E/DX2                !
 ! A15   A(4,7,10)             112.8953         estimate D2E/DX2                !
 ! A16   A(8,7,9)              109.9547         estimate D2E/DX2                !
 ! A17   A(8,7,10)             103.4516         estimate D2E/DX2                !
 ! A18   A(9,7,10)             110.9036         estimate D2E/DX2                !
 ! A19   A(7,10,11)            106.7927         estimate D2E/DX2                !
 ! A20   A(7,10,12)            101.1846         estimate D2E/DX2                !
 ! A21   A(7,10,13)            112.3172         estimate D2E/DX2                !
 ! A22   A(11,10,12)           106.8169         estimate D2E/DX2                !
 ! A23   A(11,10,13)           110.5328         estimate D2E/DX2                !
 ! A24   A(12,10,13)           118.2784         estimate D2E/DX2                !
 ! A25   A(10,13,14)           115.3133         estimate D2E/DX2                !
 ! A26   A(10,13,39)           120.3621         estimate D2E/DX2                !
 ! A27   A(14,13,39)           124.3019         estimate D2E/DX2                !
 ! A28   A(13,14,15)           116.2657         estimate D2E/DX2                !
 ! A29   A(13,14,23)           124.1577         estimate D2E/DX2                !
 ! A30   A(15,14,23)           119.5013         estimate D2E/DX2                !
 ! A31   A(14,15,16)           124.8679         estimate D2E/DX2                !
 ! A32   A(14,15,17)           121.895          estimate D2E/DX2                !
 ! A33   A(16,15,17)           113.1282         estimate D2E/DX2                !
 ! A34   A(15,17,18)           117.3185         estimate D2E/DX2                !
 ! A35   A(15,17,19)           121.0934         estimate D2E/DX2                !
 ! A36   A(18,17,19)           121.4867         estimate D2E/DX2                !
 ! A37   A(17,19,20)           125.7569         estimate D2E/DX2                !
 ! A38   A(17,19,21)           116.4114         estimate D2E/DX2                !
 ! A39   A(20,19,21)           117.7423         estimate D2E/DX2                !
 ! A40   A(19,21,22)           118.1048         estimate D2E/DX2                !
 ! A41   A(19,21,23)           123.1337         estimate D2E/DX2                !
 ! A42   A(22,21,23)           118.6334         estimate D2E/DX2                !
 ! A43   A(14,23,21)           117.7824         estimate D2E/DX2                !
 ! A44   A(14,23,24)           125.9684         estimate D2E/DX2                !
 ! A45   A(21,23,24)           116.2335         estimate D2E/DX2                !
 ! A46   A(23,24,25)           118.6977         estimate D2E/DX2                !
 ! A47   A(23,24,26)           105.0056         estimate D2E/DX2                !
 ! A48   A(23,24,27)           118.7362         estimate D2E/DX2                !
 ! A49   A(25,24,26)            96.285          estimate D2E/DX2                !
 ! A50   A(25,24,27)           108.0696         estimate D2E/DX2                !
 ! A51   A(26,24,27)           106.841          estimate D2E/DX2                !
 ! A52   A(24,27,28)           112.2905         estimate D2E/DX2                !
 ! A53   A(24,27,29)           106.4372         estimate D2E/DX2                !
 ! A54   A(24,27,30)           114.9045         estimate D2E/DX2                !
 ! A55   A(28,27,29)           104.5781         estimate D2E/DX2                !
 ! A56   A(28,27,30)           112.4981         estimate D2E/DX2                !
 ! A57   A(29,27,30)           105.0991         estimate D2E/DX2                !
 ! A58   A(27,30,31)           120.2379         estimate D2E/DX2                !
 ! A59   A(27,30,39)           118.5825         estimate D2E/DX2                !
 ! A60   A(31,30,39)           121.1722         estimate D2E/DX2                !
 ! A61   A(30,31,32)           118.6137         estimate D2E/DX2                !
 ! A62   A(30,31,33)           120.4189         estimate D2E/DX2                !
 ! A63   A(32,31,33)           120.895          estimate D2E/DX2                !
 ! A64   A(31,33,34)           110.9862         estimate D2E/DX2                !
 ! A65   A(31,33,35)           119.0123         estimate D2E/DX2                !
 ! A66   A(34,33,35)           127.9185         estimate D2E/DX2                !
 ! A67   A(33,35,36)           115.8214         estimate D2E/DX2                !
 ! A68   A(33,35,37)           119.114          estimate D2E/DX2                !
 ! A69   A(36,35,37)           125.0039         estimate D2E/DX2                !
 ! A70   A(35,37,38)           122.7257         estimate D2E/DX2                !
 ! A71   A(35,37,39)           124.1344         estimate D2E/DX2                !
 ! A72   A(38,37,39)           112.9482         estimate D2E/DX2                !
 ! A73   A(13,39,30)           119.8844         estimate D2E/DX2                !
 ! A74   A(13,39,37)           124.3799         estimate D2E/DX2                !
 ! A75   A(30,39,37)           115.5238         estimate D2E/DX2                !
 ! D1    D(2,1,4,5)            -46.8084         estimate D2E/DX2                !
 ! D2    D(2,1,4,6)           -169.7104         estimate D2E/DX2                !
 ! D3    D(2,1,4,7)             65.615          estimate D2E/DX2                !
 ! D4    D(3,1,4,5)           -166.8114         estimate D2E/DX2                !
 ! D5    D(3,1,4,6)             70.2866         estimate D2E/DX2                !
 ! D6    D(3,1,4,7)            -54.388          estimate D2E/DX2                !
 ! D7    D(40,1,4,5)            73.184          estimate D2E/DX2                !
 ! D8    D(40,1,4,6)           -49.7179         estimate D2E/DX2                !
 ! D9    D(40,1,4,7)          -174.3926         estimate D2E/DX2                !
 ! D10   D(1,4,7,8)             62.6873         estimate D2E/DX2                !
 ! D11   D(1,4,7,9)            -58.2629         estimate D2E/DX2                !
 ! D12   D(1,4,7,10)           179.7224         estimate D2E/DX2                !
 ! D13   D(5,4,7,8)            169.9921         estimate D2E/DX2                !
 ! D14   D(5,4,7,9)             49.0418         estimate D2E/DX2                !
 ! D15   D(5,4,7,10)           -72.9728         estimate D2E/DX2                !
 ! D16   D(6,4,7,8)            -60.4188         estimate D2E/DX2                !
 ! D17   D(6,4,7,9)            178.631          estimate D2E/DX2                !
 ! D18   D(6,4,7,10)            56.6163         estimate D2E/DX2                !
 ! D19   D(4,7,10,11)          165.205          estimate D2E/DX2                !
 ! D20   D(4,7,10,12)           53.6298         estimate D2E/DX2                !
 ! D21   D(4,7,10,13)          -73.4691         estimate D2E/DX2                !
 ! D22   D(8,7,10,11)          -72.1996         estimate D2E/DX2                !
 ! D23   D(8,7,10,12)          176.2252         estimate D2E/DX2                !
 ! D24   D(8,7,10,13)           49.1263         estimate D2E/DX2                !
 ! D25   D(9,7,10,11)           45.6388         estimate D2E/DX2                !
 ! D26   D(9,7,10,12)          -65.9364         estimate D2E/DX2                !
 ! D27   D(9,7,10,13)          166.9647         estimate D2E/DX2                !
 ! D28   D(7,10,13,14)         102.0297         estimate D2E/DX2                !
 ! D29   D(7,10,13,39)         -79.6302         estimate D2E/DX2                !
 ! D30   D(11,10,13,14)       -138.8118         estimate D2E/DX2                !
 ! D31   D(11,10,13,39)         39.5284         estimate D2E/DX2                !
 ! D32   D(12,10,13,14)        -15.2873         estimate D2E/DX2                !
 ! D33   D(12,10,13,39)        163.0529         estimate D2E/DX2                !
 ! D34   D(10,13,14,15)         53.0187         estimate D2E/DX2                !
 ! D35   D(10,13,14,23)       -130.1621         estimate D2E/DX2                !
 ! D36   D(39,13,14,15)       -125.2476         estimate D2E/DX2                !
 ! D37   D(39,13,14,23)         51.5717         estimate D2E/DX2                !
 ! D38   D(10,13,39,30)        116.2005         estimate D2E/DX2                !
 ! D39   D(10,13,39,37)        -58.2651         estimate D2E/DX2                !
 ! D40   D(14,13,39,30)        -65.6159         estimate D2E/DX2                !
 ! D41   D(14,13,39,37)        119.9185         estimate D2E/DX2                !
 ! D42   D(13,14,15,16)         -7.5891         estimate D2E/DX2                !
 ! D43   D(13,14,15,17)        176.4714         estimate D2E/DX2                !
 ! D44   D(23,14,15,16)        175.435          estimate D2E/DX2                !
 ! D45   D(23,14,15,17)         -0.5046         estimate D2E/DX2                !
 ! D46   D(13,14,23,21)       -179.6903         estimate D2E/DX2                !
 ! D47   D(13,14,23,24)         -1.1913         estimate D2E/DX2                !
 ! D48   D(15,14,23,21)         -2.9677         estimate D2E/DX2                !
 ! D49   D(15,14,23,24)        175.5313         estimate D2E/DX2                !
 ! D50   D(14,15,17,18)        178.5139         estimate D2E/DX2                !
 ! D51   D(14,15,17,19)          2.1238         estimate D2E/DX2                !
 ! D52   D(16,15,17,18)          2.1359         estimate D2E/DX2                !
 ! D53   D(16,15,17,19)       -174.2541         estimate D2E/DX2                !
 ! D54   D(15,17,19,20)       -176.5215         estimate D2E/DX2                !
 ! D55   D(15,17,19,21)         -0.054          estimate D2E/DX2                !
 ! D56   D(18,17,19,20)          7.2399         estimate D2E/DX2                !
 ! D57   D(18,17,19,21)       -176.2926         estimate D2E/DX2                !
 ! D58   D(17,19,21,22)       -179.4444         estimate D2E/DX2                !
 ! D59   D(17,19,21,23)         -3.6204         estimate D2E/DX2                !
 ! D60   D(20,19,21,22)         -2.6831         estimate D2E/DX2                !
 ! D61   D(20,19,21,23)        173.141          estimate D2E/DX2                !
 ! D62   D(19,21,23,14)          5.1914         estimate D2E/DX2                !
 ! D63   D(19,21,23,24)       -173.4542         estimate D2E/DX2                !
 ! D64   D(22,21,23,14)       -179.0054         estimate D2E/DX2                !
 ! D65   D(22,21,23,24)          2.3489         estimate D2E/DX2                !
 ! D66   D(14,23,24,25)       -126.6022         estimate D2E/DX2                !
 ! D67   D(14,23,24,26)        127.379          estimate D2E/DX2                !
 ! D68   D(14,23,24,27)          8.1009         estimate D2E/DX2                !
 ! D69   D(21,23,24,25)         51.9173         estimate D2E/DX2                !
 ! D70   D(21,23,24,26)        -54.1014         estimate D2E/DX2                !
 ! D71   D(21,23,24,27)       -173.3796         estimate D2E/DX2                !
 ! D72   D(23,24,27,28)        172.541          estimate D2E/DX2                !
 ! D73   D(23,24,27,29)         58.6775         estimate D2E/DX2                !
 ! D74   D(23,24,27,30)        -57.1973         estimate D2E/DX2                !
 ! D75   D(25,24,27,28)        -48.4392         estimate D2E/DX2                !
 ! D76   D(25,24,27,29)       -162.3027         estimate D2E/DX2                !
 ! D77   D(25,24,27,30)         81.8224         estimate D2E/DX2                !
 ! D78   D(26,24,27,28)         54.2154         estimate D2E/DX2                !
 ! D79   D(26,24,27,29)        -59.6481         estimate D2E/DX2                !
 ! D80   D(26,24,27,30)       -175.523          estimate D2E/DX2                !
 ! D81   D(24,27,30,31)       -116.7537         estimate D2E/DX2                !
 ! D82   D(24,27,30,39)         64.2313         estimate D2E/DX2                !
 ! D83   D(28,27,30,31)         13.4068         estimate D2E/DX2                !
 ! D84   D(28,27,30,39)       -165.6082         estimate D2E/DX2                !
 ! D85   D(29,27,30,31)        126.6055         estimate D2E/DX2                !
 ! D86   D(29,27,30,39)        -52.4095         estimate D2E/DX2                !
 ! D87   D(27,30,31,32)          2.092          estimate D2E/DX2                !
 ! D88   D(27,30,31,33)       -174.8415         estimate D2E/DX2                !
 ! D89   D(39,30,31,32)       -178.9189         estimate D2E/DX2                !
 ! D90   D(39,30,31,33)          4.1475         estimate D2E/DX2                !
 ! D91   D(27,30,39,13)         -0.8486         estimate D2E/DX2                !
 ! D92   D(27,30,39,37)        174.0911         estimate D2E/DX2                !
 ! D93   D(31,30,39,13)       -179.854          estimate D2E/DX2                !
 ! D94   D(31,30,39,37)         -4.9143         estimate D2E/DX2                !
 ! D95   D(30,31,33,34)        167.4515         estimate D2E/DX2                !
 ! D96   D(30,31,33,35)          2.5721         estimate D2E/DX2                !
 ! D97   D(32,31,33,34)         -9.4114         estimate D2E/DX2                !
 ! D98   D(32,31,33,35)       -174.2908         estimate D2E/DX2                !
 ! D99   D(31,33,35,36)        174.5746         estimate D2E/DX2                !
 ! D100  D(31,33,35,37)         -8.1177         estimate D2E/DX2                !
 ! D101  D(34,33,35,36)         12.557          estimate D2E/DX2                !
 ! D102  D(34,33,35,37)       -170.1353         estimate D2E/DX2                !
 ! D103  D(33,35,37,38)       -177.9044         estimate D2E/DX2                !
 ! D104  D(33,35,37,39)          7.4844         estimate D2E/DX2                !
 ! D105  D(36,35,37,38)         -0.8633         estimate D2E/DX2                !
 ! D106  D(36,35,37,39)       -175.4745         estimate D2E/DX2                !
 ! D107  D(35,37,39,13)        173.8137         estimate D2E/DX2                !
 ! D108  D(35,37,39,30)         -0.8694         estimate D2E/DX2                !
 ! D109  D(38,37,39,13)         -1.2644         estimate D2E/DX2                !
 ! D110  D(38,37,39,30)       -175.9476         estimate D2E/DX2                !
 --------------------------------------------------------------------------------
 Trust Radius=3.00D-01 FncErr=1.00D-07 GrdErr=1.00D-06 EigMax=2.50D+02 EigMin=1.00D-04
 Number of steps in this run=    237 maximum allowed number of steps=    240.
 GradGradGradGradGradGradGradGradGradGradGradGradGradGradGradGradGradGrad

 Leave Link  103 at Sun Jul 18 13:31:22 2021, MaxMem=   104857600 cpu:               0.1 elap:               0.0
 (Enter /dades/curu/g16A03_MST/g16/l202.exe)
                          Input orientation:                          
 ---------------------------------------------------------------------
 Center     Atomic      Atomic             Coordinates (Angstroms)
 Number     Number       Type             X           Y           Z
 ---------------------------------------------------------------------
      1          7           0       -3.514000   -0.948000   -1.751000
      2          1           0       -3.742000   -1.812000   -2.199000
      3          1           0       -3.164000   -0.302000   -2.430000
      4          6           0       -2.476000   -1.187000   -0.714000
      5          1           0       -2.899000   -2.063000   -0.215000
      6          1           0       -2.340000   -0.301000   -0.089000
      7          6           0       -1.180000   -1.637000   -1.435000
      8          1           0       -0.776000   -0.875000   -2.105000
      9          1           0       -1.434000   -2.535000   -2.002000
     10          6           0       -0.016000   -1.912000   -0.461000
     11          1           0        0.741000   -2.466000   -1.022000
     12          1           0       -0.480000   -2.621000    0.229000
     13          7           0        0.548000   -0.688000    0.085000
     14          6           0        0.157000   -0.381000    1.377000
     15          6           0        0.337000   -1.391000    2.338000
     16          1           0        0.643000   -2.411000    2.118000
     17          6           0        0.053000   -1.185000    3.679000
     18          1           0        0.196000   -2.025000    4.354000
     19          6           0       -0.471000    0.035000    4.129000
     20          1           0       -0.671000    0.297000    5.165000
     21          6           0       -0.686000    1.021000    3.152000
     22          1           0       -1.083000    1.981000    3.472000
     23          6           0       -0.325000    0.850000    1.768000
     24          6           0       -0.488000    2.091000    0.861000
     25          1           0       -0.032000    3.033000    1.174000
     26          1           0       -1.524000    2.408000    0.999000
     27          6           0       -0.266000    1.933000   -0.666000
     28          1           0       -0.533000    2.836000   -1.219000
     29          1           0       -0.981000    1.181000   -1.006000
     30          6           0        1.081000    1.397000   -1.057000
     31          6           0        1.961000    2.183000   -1.815000
     32          1           0        1.660000    3.193000   -2.080000
     33          6           0        3.193000    1.641000   -2.281000
     34          1           0        3.648000    2.291000   -3.024000
     35          6           0        3.484000    0.310000   -2.020000
     36          1           0        4.392000   -0.074000   -2.476000
     37          6           0        2.642000   -0.419000   -1.160000
     38          1           0        2.833000   -1.454000   -0.889000
     39          6           0        1.433000    0.061000   -0.656000
     40          1           0       -4.333000   -0.569000   -1.321000
 ---------------------------------------------------------------------
                    Distance matrix (angstroms):
                    1          2          3          4          5
     1  N    0.000000
     2  H    0.999592   0.000000
     3  H    1.000428   1.633262   0.000000
     4  C    1.486585   2.049050   2.049689   0.000000
     5  H    1.995181   2.170232   2.842107   1.093301   0.000000
     6  H    2.135212   2.949716   2.481785   1.092757   1.852836
     7  C    2.454003   2.679210   2.590078   1.549825   2.150543
     8  H    2.761755   3.111906   2.477196   2.218609   3.080677
     9  H    2.628302   2.426603   2.856987   2.135840   2.358469
    10  C    3.850896   4.112629   4.047093   2.577059   2.897414
    11  H    4.576111   4.680848   4.681280   3.475600   3.750101
    12  H    3.990549   4.146120   4.433046   2.632417   2.521916
    13  N    4.465237   4.988400   4.500352   3.167330   3.723229
    14  C    4.856142   5.480669   5.052577   3.457543   3.834413
    15  C    5.634392   6.115542   6.014711   4.155633   4.176253
    16  H    5.864314   6.182517   6.294874   4.387090   4.255556
    17  C    6.501120   7.024674   6.960507   5.068954   4.964718
    18  H    7.224614   7.648204   7.764083   5.790203   5.518716
    19  C    6.693320   7.358970   7.098331   5.382189   5.400660
    20  H    7.580483   8.252722   8.016101   6.326367   6.283151
    21  C    5.992825   6.782199   6.248963   4.798471   5.073964
    22  H    6.462858   7.322388   6.661550   5.431323   5.765914
    23  C    5.077981   5.873604   5.197137   3.864776   4.363867
    24  C    5.021428   5.931739   4.870124   4.144641   4.922033
    25  H    6.043865   6.972464   5.824128   5.229348   6.009844
    26  H    4.773399   5.740656   4.668162   4.094472   4.832625
    27  C    4.475141   5.334575   4.062675   3.823716   4.806673
    28  H    4.846446   5.732537   4.270331   4.496088   5.532285
    29  H    3.391719   4.243161   2.998759   2.815619   3.850707
    30  C    5.205256   5.904505   4.774071   4.409870   5.340502
    31  C    6.307367   6.973643   5.728794   5.679443   6.648918
    32  H    6.635239   7.365174   5.967286   6.177123   7.203349
    33  C    7.208861   7.747526   6.648977   6.526150   7.422967
    34  H    7.962782   8.492781   7.312990   7.411880   8.349312
    35  C    7.115260   7.533260   6.688688   6.282376   7.044987
    36  H    7.987136   8.322219   7.559579   7.177244   7.888404
    37  C    6.206888   6.616300   5.944428   5.194484   5.856487
    38  H    6.425223   6.713784   6.298079   5.318590   5.803532
    39  C    5.166228   5.715733   4.940775   4.103797   4.844799
    40  H    0.999651   1.632548   1.633319   2.049103   2.347686
                    6          7          8          9         10
     6  H    0.000000
     7  C    2.223109   0.000000
     8  H    2.615306   1.092136   0.000000
     9  H    3.077525   1.091975   1.788623   0.000000
    10  C    2.852136   1.542465   2.087033   2.184842   0.000000
    11  H    3.879468   2.132616   2.450604   2.386585   1.093017
    12  H    2.990506   2.056004   2.929793   2.427936   1.092738
    13  N    2.919005   2.489374   2.565939   3.419839   1.454094
    14  C    2.896647   3.357447   3.638523   4.311454   2.398361
    15  C    3.774223   4.073983   4.609260   4.825016   2.868876
    16  H    4.268634   4.067704   4.712386   4.615594   2.708232
    17  C    4.550355   5.279923   5.851324   6.025565   4.203914
    18  H    5.398492   5.962922   6.632192   6.581469   4.820989
    19  C    4.625752   5.852893   6.307446   6.717249   5.006589
    20  H    5.545059   6.896335   7.364612   7.743919   6.079522
    21  C    3.871367   5.324431   5.589183   6.306216   4.701612
    22  H    4.412289   6.097375   6.273270   7.105078   5.635816
    23  C    2.972116   4.144322   4.263702   5.186618   3.562663
    24  C    3.170815   4.432659   4.204433   5.521916   4.241990
    25  H    4.247068   5.471169   5.155370   6.561646   5.208311
    26  H    3.031218   4.733362   4.579564   5.783368   4.802922
    27  C    3.102444   3.764526   3.196199   4.807509   3.858568
    28  H    3.792482   4.524709   3.823031   5.502048   4.835841
    29  H    2.209999   2.857405   2.340291   3.873743   3.285559
    30  C    3.939983   3.802652   3.115885   4.762234   3.536680
    31  C    5.258130   4.960109   4.114199   5.815541   4.744562
    32  H    5.672047   5.640082   4.741661   6.510676   5.611699
    33  C    6.260217   5.530292   4.702573   6.239066   5.121903
    34  H    7.154637   6.423682   5.517236   7.082477   6.136699
    35  C    6.166122   5.087822   4.422561   5.681644   4.429195
    36  H    7.146266   5.879952   5.242849   6.342198   5.183525
    37  C    5.097184   4.020800   3.575428   4.669068   3.127717
    38  H    5.359976   4.054106   3.852113   4.540332   2.917147
    39  C    3.832501   3.212135   2.802745   4.095195   2.455678
    40  H    2.358325   3.330920   3.655207   3.568349   4.602145
                   11         12         13         14         15
    11  H    0.000000
    12  H    1.754955   0.000000
    13  N    2.103326   2.194085   0.000000
    14  C    3.231638   2.596396   1.384339   0.000000
    15  C    3.550837   2.574543   2.369544   1.405710   0.000000
    16  H    3.142010   2.207612   2.666616   2.214989   1.087399
    17  C    4.920742   3.774743   3.661812   2.440581   1.386136
    18  H    5.421520   4.222300   4.487297   3.400998   2.118040
    19  C    5.852926   4.718519   4.232615   2.853234   2.427760
    20  H    6.921480   5.737186   5.316257   3.936269   3.443448
    21  C    5.622968   4.674455   3.721549   2.413893   2.743514
    22  H    6.580184   5.662072   4.610368   3.392001   3.830501
    23  C    4.462770   3.800051   2.441324   1.378610   2.405249
    24  C    5.081572   4.754202   3.065667   2.606351   3.871237
    25  H    5.971511   5.749908   3.920225   3.425248   4.589426
    26  H    5.741998   5.193619   3.835857   3.278287   4.437189
    27  C    4.526807   4.646045   2.845389   3.115666   4.520686
    28  H    5.456472   5.646093   3.909930   4.190991   5.592556
    29  H    4.033131   4.028825   2.649770   3.068155   4.419801
    30  C    3.878092   4.498315   2.436284   3.152684   4.455615
    31  C    4.871391   5.763231   3.721453   4.474078   5.714741
    32  H    5.829940   6.611632   4.581040   5.194548   6.502469
    33  C    4.946194   6.160818   4.244788   5.165921   6.219720
    34  H    5.923487   7.193757   5.305688   6.220568   7.298691
    35  C    4.028179   5.418677   3.747949   4.804791   5.638189
    36  H    4.600607   6.127040   4.659619   5.733680   6.430561
    37  C    2.796972   4.065096   2.450963   3.551484   4.300443
    38  H    2.327724   3.686161   2.599357   3.667023   4.080137
    39  C    2.645477   3.411146   1.375975   2.440621   3.503364
    40  H    5.425264   4.632366   5.080862   5.241626   5.989396
                   16         17         18         19         20
    16  H    0.000000
    17  C    2.070724   0.000000
    18  H    2.312683   1.087048   0.000000
    19  C    3.356789   1.401954   2.176951   0.000000
    20  H    4.282998   2.220067   2.607891   1.087171   0.000000
    21  C    3.822829   2.385432   3.391289   1.404617   2.139292
    22  H    4.909384   3.370000   4.296720   2.143154   2.423190
    23  C    3.419597   2.817096   3.901854   2.501972   3.459065
    24  C    4.809076   4.354995   5.441540   3.860991   4.666513
    25  H    5.566318   4.906503   5.978942   4.232346   4.880789
    26  H    5.401001   4.751734   5.819443   4.066551   4.747577
    27  C    5.239015   5.357491   6.409338   5.161052   6.069685
    28  H    6.328472   6.364137   7.430955   6.037429   6.871755
    29  H    5.029833   5.349424   6.355577   5.285985   6.241698
    30  C    4.977282   5.491193   6.463144   5.581966   6.556889
    31  C    6.189544   6.720709   7.673269   6.771976   7.694467
    32  H    7.075472   7.410494   8.412323   7.284628   8.143120
    33  C    6.501723   7.305305   8.151367   7.555940   8.495867
    34  H    7.588082   8.362823   9.218408   8.556933   9.470455
    35  C    5.709480   6.818019   7.542615   7.316273   8.299905
    36  H    6.373492   7.612179   8.249953   8.202846   9.173685
    37  C    4.325430   5.541263   6.242303   6.153894   7.175949
    38  H    3.841093   5.354193   5.896512   6.189819   7.210751
    39  C    3.798679   4.716900   5.566118   5.149963   6.194074
    40  H    6.322995   6.679555   7.405228   6.706889   7.498560
                   21         22         23         24         25
    21  C    0.000000
    22  H    1.087018   0.000000
    23  C    1.440492   2.181133   0.000000
    24  C    2.536294   2.680195   1.545736   0.000000
    25  H    2.896264   2.737172   2.281266   1.092369   0.000000
    26  H    2.694703   2.548046   2.111001   1.092167   1.627057
    27  C    3.947818   4.218156   2.664719   1.551121   2.156468
    28  H    4.735322   4.799896   3.592997   2.209853   2.452806
    29  H    4.171521   4.550043   2.869664   2.134675   3.013786
    30  C    4.580322   5.053295   3.202604   2.573348   2.982051
    31  C    5.746994   6.104024   4.454276   3.628642   3.691703
    32  H    6.131486   6.310127   4.923107   3.804969   3.671101
    33  C    6.704366   7.176126   5.421845   4.860496   4.926998
    34  H    7.651107   8.042169   6.389403   5.678003   5.631711
    35  C    6.681617   7.335652   5.398984   5.220048   5.475274
    36  H    7.658949   8.341304   6.412129   6.295808   6.522862
    37  C    5.634051   6.410230   4.357365   4.492376   4.951175
    38  H    5.902429   6.793571   4.726630   5.163193   5.709410
    39  C    4.462356   5.201638   3.096589   3.180005   3.785222
    40  H    5.986354   6.327547   5.255430   5.159530   6.139872
                   26         27         28         29         30
    26  H    0.000000
    27  C    2.140190   0.000000
    28  H    2.466737   1.092020   0.000000
    29  H    2.412551   1.091938   1.727744   0.000000
    30  C    3.469190   1.501528   2.168401   2.073910   0.000000
    31  C    4.484913   2.518378   2.646065   3.211518   1.402412
    32  H    4.498258   2.701198   2.382859   3.489484   2.146482
    33  C    5.796273   3.828599   4.054497   4.388565   2.453213
    34  H    6.553457   4.583418   4.586481   5.170306   3.355267
    35  C    6.212570   4.304642   4.812335   4.660801   2.807730
    36  H    7.296232   5.385268   5.856942   5.710084   3.891031
    37  C    5.478026   3.772586   4.547431   3.963565   2.396912
    38  H    6.120706   4.596227   5.462871   4.637188   3.350512
    39  C    4.122048   2.528060   3.447136   2.684082   1.438611
    40  H    4.704828   4.819701   5.103374   3.794421   5.765956
                   31         32         33         34         35
    31  C    0.000000
    32  H    1.086704   0.000000
    33  C    1.424340   2.190706   0.000000
    34  H    2.078296   2.378420   1.087002   0.000000
    35  C    2.422743   3.412076   1.387214   2.226943   0.000000
    36  H    3.382415   4.277140   2.101631   2.539107   1.086212
    37  C    2.768247   3.854513   2.409116   3.439569   1.407127
    38  H    3.853003   4.938524   3.412666   4.387194   2.194233
    39  C    2.474863   3.448004   2.869604   3.935295   2.475702
    40  H    6.887088   7.116514   7.902302   8.647322   7.897261
                   36         37         38         39         40
    36  H    0.000000
    37  C    2.216615   0.000000
    38  H    2.617909   1.086806   0.000000
    39  C    3.476536   1.395026   2.075937   0.000000
    40  H    8.815026   6.978470   7.233354   5.838311   0.000000
 Stoichiometry    C17H21N2(1+)
 Framework group  C1[X(C17H21N2)]
 Deg. of freedom   114
 Full point group                 C1      NOp   1
 Largest Abelian subgroup         C1      NOp   1
 Largest concise Abelian subgroup C1      NOp   1
                         Standard orientation:                         
 ---------------------------------------------------------------------
 Center     Atomic      Atomic             Coordinates (Angstroms)
 Number     Number       Type             X           Y           Z
 ---------------------------------------------------------------------
      1          7           0       -1.061598    4.009150    0.788359
      2          1           0       -1.090894    4.760901    0.130183
      3          1           0       -0.166968    3.991782    1.235788
      4          6           0       -1.285663    2.721756    0.079594
      5          1           0       -2.149634    2.987258   -0.535522
      6          1           0       -1.439203    1.907596    0.792114
      7          6           0       -0.084863    2.489046   -0.872186
      8          1           0        0.866315    2.388664   -0.344983
      9          1           0       -0.049028    3.348171   -1.545260
     10          6           0       -0.195470    1.171632   -1.666782
     11          1           0        0.533727    1.230495   -2.478874
     12          1           0       -1.183557    1.280162   -2.120633
     13          7           0        0.057406    0.003977   -0.837913
     14          6           0       -1.069925   -0.690603   -0.434085
     15          6           0       -1.956813   -1.082675   -1.451793
     16          1           0       -1.879690   -0.781326   -2.493751
     17          6           0       -3.083941   -1.844972   -1.187483
     18          1           0       -3.731815   -2.085157   -2.026676
     19          6           0       -3.411900   -2.222457    0.122258
     20          1           0       -4.243579   -2.860756    0.410051
     21          6           0       -2.540328   -1.788049    1.134484
     22          1           0       -2.763477   -2.072967    2.159489
     23          6           0       -1.325251   -1.061341    0.868961
     24          6           0       -0.407248   -0.797826    2.084333
     25          1           0       -0.118586   -1.640846    2.716204
     26          1           0       -1.047782   -0.309403    2.821889
     27          6           0        0.835879    0.110719    1.896831
     28          1           0        1.334183    0.331363    2.843148
     29          1           0        0.463057    1.076915    1.550713
     30          6           0        1.795282   -0.341807    0.834121
     31          6           0        3.104611   -0.710579    1.175334
     32          1           0        3.393783   -0.693889    2.222725
     33          6           0        4.050067   -1.035110    0.160674
     34          1           0        5.057000   -1.082004    0.567443
     35          6           0        3.672219   -0.928798   -1.169849
     36          1           0        4.458089   -1.099700   -1.899956
     37          6           0        2.323922   -0.672412   -1.480274
     38          1           0        1.957608   -0.610793   -2.501629
     39          6           0        1.347026   -0.366164   -0.532654
     40          1           0       -1.775833    4.139487    1.475514
 ---------------------------------------------------------------------
 Rotational constants (GHZ):           0.4567308           0.3258324           0.2639247
 Leave Link  202 at Sun Jul 18 13:31:22 2021, MaxMem=   104857600 cpu:               0.0 elap:               0.0
 (Enter /dades/curu/g16A03_MST/g16/l301.exe)
 Standard basis: 6-31G(d) (6D, 7F)
 Ernie: Thresh=  0.10000D-02 Tol=  0.10000D-05 Strict=F.
 There are   327 symmetry adapted cartesian basis functions of A   symmetry.
 There are   327 symmetry adapted basis functions of A   symmetry.
   327 basis functions,   616 primitive gaussians,   327 cartesian basis functions
    68 alpha electrons       68 beta electrons
       nuclear repulsion energy      1446.3596067342 Hartrees.
 IExCor=  402 DFT=T Ex+Corr=B3LYP ExCW=0 ScaHFX=  0.200000
 ScaDFX=  0.800000  0.720000  1.000000  0.810000 ScalE2=  1.000000  1.000000
 IRadAn=      5 IRanWt=     -1 IRanGd=            0 ICorTp=0 IEmpDi=  4
 NAtoms=   40 NActive=   40 NUniq=   40 SFac= 1.00D+00 NAtFMM=   60 NAOKFM=F Big=F
 Integral buffers will be    131072 words long.
 Raffenetti 2 integral format.
 Two-electron integral symmetry is turned on.
 Using the following non-standard input for PCM:
 MSTModel=DFT cav MSTCharged
 --- end of non-standard input.
 MST model for solvation energy: B3LYP parametrization.
 MST cavity parameters:
 ISph   IAn     Re0     Alpha   Atom Type   QCorr
 ------------------------------------------------
   1      7     1.50     1.15      NH+        T
   2      1     0.90     1.15      NH+        T
   3      1     0.90     1.15      NH+        T
   4      6     1.50     1.50      CN+        F
   5      1     1.20     1.50      CN+        F
   6      1     1.20     1.50      CN+        F
   7      6     1.50     1.50      CH2        F
   8      1     1.20     1.50      CH2        F
   9      1     1.20     1.50      CH2        F
  10      6     1.50     1.50      CH2        F
  11      1     1.20     1.50      CH2        F
  12      1     1.20     1.50      CH2        F
  13      7     1.50     1.50      N          F
  14      6     1.50     1.50      C          F
  15      6     1.50     1.50      CH         F
  16      1     1.20     1.50      CH         F
  17      6     1.50     1.50      CH         F
  18      1     1.20     1.50      CH         F
  19      6     1.50     1.50      CH         F
  20      1     1.20     1.50      CH         F
  21      6     1.50     1.50      CH         F
  22      1     1.20     1.50      CH         F
  23      6     1.50     1.50      C          F
  24      6     1.50     1.50      CH2        F
  25      1     1.20     1.50      CH2        F
  26      1     1.20     1.50      CH2        F
  27      6     1.50     1.50      CH2        F
  28      1     1.20     1.50      CH2        F
  29      1     1.20     1.50      CH2        F
  30      6     1.50     1.50      C          F
  31      6     1.50     1.50      CH         F
  32      1     1.20     1.50      CH         F
  33      6     1.50     1.50      CH         F
  34      1     1.20     1.50      CH         F
  35      6     1.50     1.50      CH         F
  36      1     1.20     1.50      CH         F
  37      6     1.50     1.50      CH         F
  38      1     1.20     1.50      CH         F
  39      6     1.50     1.50      C          F
  40      1     0.90     1.15      NH+        T
 ------------------------------------------------------------------------------
 Polarizable Continuum Model (PCM)
 =================================
 Model                : PCM.
 Atomic radii         : MST.
 Polarization charges : Total charges.
 Charge compensation  : None.
 Solution method      : On-the-fly selection.
 Cavity type          : Scaled VdW (van der Waals Surface) (Alpha=1.500).
 Cavity algorithm     : GePol (No added spheres)
                        Default sphere list used, NSphG=   40.
                        Lebedev-Laikov grids with approx.  5.0 points / Ang**2.
                        Smoothing algorithm: York/Karplus (Gamma=1.0000).
                        Polarization charges: spherical gaussians, with
                                              point-specific exponents (IZeta= 3).
                        Self-potential: point-specific (ISelfS= 7).
                        Self-field    : sphere-specific E.n sum rule (ISelfD= 2).
 1st derivatives      : Analytical E(r).r(x)/FMM algorithm (CHGder, D1EAlg=3).
                        Cavity 1st derivative terms included.
 Solvent              : n-Octanol, Eps=   9.862900 Eps(inf)=   2.043470
 ------------------------------------------------------------------------------
 GePol: Number of generator spheres                  =      40
 GePol: Total number of spheres                      =      40
 GePol: Number of exposed spheres                    =      40 (100.00%)
 GePol: Number of points                             =    3382
 GePol: Average weight of points                     =       0.10
 GePol: Minimum weight of points                     =   0.12D-10
 GePol: Maximum weight of points                     =    0.21373
 GePol: Number of points with low weight             =     209
 GePol: Fraction of low-weight points (<1% of avg)   =       6.18%
 GePol: Cavity surface area                          =    354.310 Ang**2
 GePol: Cavity volume                                =    426.007 Ang**3
 Surface areas from nonelectrostatic (unscaled) cavity and vdw tensions:
 Sphere =    1 Type =  NH+ Surf =       12.308 Tension =       -0.274
 Sphere =    2 Type =  NH+ Surf =        3.852 Tension =       -0.274
 Sphere =    3 Type =  NH+ Surf =        3.860 Tension =       -0.274
 Sphere =    4 Type =  CN+ Surf =        4.233 Tension =       -0.227
 Sphere =    5 Type =  CN+ Surf =        9.809 Tension =       -0.227
 Sphere =    6 Type =  CN+ Surf =        9.497 Tension =       -0.227
 Sphere =    7 Type =  CH2 Surf =        3.586 Tension =       -0.194
 Sphere =    8 Type =  CH2 Surf =        9.623 Tension =       -0.194
 Sphere =    9 Type =  CH2 Surf =        9.966 Tension =       -0.194
 Sphere =   10 Type =  CH2 Surf =        3.491 Tension =       -0.194
 Sphere =   11 Type =  CH2 Surf =        9.608 Tension =       -0.194
 Sphere =   12 Type =  CH2 Surf =        8.883 Tension =       -0.194
 Sphere =   13 Type =  N   Surf =        4.802 Tension =       -0.115
 Sphere =   14 Type =  C   Surf =        5.683 Tension =       -0.205
 Sphere =   15 Type =  CH  Surf =        7.206 Tension =       -0.195
 Sphere =   16 Type =  CH  Surf =        9.492 Tension =       -0.195
 Sphere =   17 Type =  CH  Surf =        7.737 Tension =       -0.195
 Sphere =   18 Type =  CH  Surf =       10.210 Tension =       -0.195
 Sphere =   19 Type =  CH  Surf =        7.997 Tension =       -0.195
 Sphere =   20 Type =  CH  Surf =       10.256 Tension =       -0.195
 Sphere =   21 Type =  CH  Surf =        7.754 Tension =       -0.195
 Sphere =   22 Type =  CH  Surf =       10.189 Tension =       -0.195
 Sphere =   23 Type =  C   Surf =        6.485 Tension =       -0.205
 Sphere =   24 Type =  CH2 Surf =        4.160 Tension =       -0.194
 Sphere =   25 Type =  CH2 Surf =        9.971 Tension =       -0.194
 Sphere =   26 Type =  CH2 Surf =        9.732 Tension =       -0.194
 Sphere =   27 Type =  CH2 Surf =        3.725 Tension =       -0.194
 Sphere =   28 Type =  CH2 Surf =        9.917 Tension =       -0.194
 Sphere =   29 Type =  CH2 Surf =        8.619 Tension =       -0.194
 Sphere =   30 Type =  C   Surf =        6.129 Tension =       -0.205
 Sphere =   31 Type =  CH  Surf =        7.742 Tension =       -0.195
 Sphere =   32 Type =  CH  Surf =       10.109 Tension =       -0.195
 Sphere =   33 Type =  CH  Surf =        7.955 Tension =       -0.195
 Sphere =   34 Type =  CH  Surf =       10.171 Tension =       -0.195
 Sphere =   35 Type =  CH  Surf =        7.913 Tension =       -0.195
 Sphere =   36 Type =  CH  Surf =       10.231 Tension =       -0.195
 Sphere =   37 Type =  CH  Surf =        7.691 Tension =       -0.195
 Sphere =   38 Type =  CH  Surf =        9.875 Tension =       -0.195
 Sphere =   39 Type =  C   Surf =        5.848 Tension =       -0.205
 Sphere =   40 Type =  NH+ Surf =        3.856 Tension =       -0.274
 PCM non-electrostatic energy =        -0.0182415446 Hartrees.
 Nuclear repulsion after PCM non-electrostatic terms =     1446.3413651895 Hartrees.
 Leave Link  301 at Sun Jul 18 13:31:22 2021, MaxMem=   104857600 cpu:               0.1 elap:               0.1
 (Enter /dades/curu/g16A03_MST/g16/l302.exe)
 NPDir=0 NMtPBC=     1 NCelOv=     1 NCel=       1 NClECP=     1 NCelD=      1
         NCelK=      1 NCelE2=     1 NClLst=     1 CellRange=     0.0.
 One-electron integrals computed using PRISM.
 One-electron integral symmetry used in STVInt
 NBasis=   327 RedAO= T EigKep=  4.01D-04  NBF=   327
 NBsUse=   327 1.00D-06 EigRej= -1.00D+00 NBFU=   327
 Precomputing XC quadrature grid using
 IXCGrd= 4 IRadAn=           5 IRanWt=          -1 IRanGd=           0 AccXCQ= 0.00D+00.
 Generated NRdTot=       0 NPtTot=           0 NUsed=           0 NTot=          32
 NSgBfM=   326   326   326   326   326 MxSgAt=    40 MxSgA2=    40.
 Leave Link  302 at Sun Jul 18 13:31:24 2021, MaxMem=   104857600 cpu:               5.8 elap:               1.7
 (Enter /dades/curu/g16A03_MST/g16/l303.exe)
 DipDrv:  MaxL=1.
 Leave Link  303 at Sun Jul 18 13:31:24 2021, MaxMem=   104857600 cpu:               0.1 elap:               0.1
 (Enter /dades/curu/g16A03_MST/g16/l401.exe)
 ExpMin= 1.61D-01 ExpMax= 4.17D+03 ExpMxC= 6.27D+02 IAcc=3 IRadAn=         5 AccDes= 0.00D+00
 Harris functional with IExCor=  402 and IRadAn=       5 diagonalized for initial guess.
 HarFok:  IExCor=  402 AccDes= 0.00D+00 IRadAn=         5 IDoV= 1 UseB2=F ITyADJ=14
 ICtDFT=  3500011 ScaDFX=  1.000000  1.000000  1.000000  1.000000
 FoFCou: FMM=F IPFlag=           0 FMFlag=      100000 FMFlg1=           0
         NFxFlg=           0 DoJE=T BraDBF=F KetDBF=T FulRan=T
         wScrn=  0.000000 ICntrl=       500 IOpCl=  0 I1Cent=   200000004 NGrid=           0
         NMat0=    1 NMatS0=      1 NMatT0=    0 NMatD0=    1 NMtDS0=    0 NMtDT0=    0
 Petite list used in FoFCou.
 Harris En= -769.738853999786    
 JPrj=0 DoOrth=F DoCkMO=F.
 Leave Link  401 at Sun Jul 18 13:31:35 2021, MaxMem=   104857600 cpu:              42.4 elap:              10.7
 (Enter /dades/curu/g16A03_MST/g16/l502.exe)
 Integral symmetry usage will be decided dynamically.
 Closed shell SCF:
 Using DIIS extrapolation, IDIIS=  1040.
 NGot=   104857600 LenX=   104637961 LenY=   104530591
 Requested convergence on RMS density matrix=1.00D-08 within 128 cycles.
 Requested convergence on MAX density matrix=1.00D-06.
 Requested convergence on             energy=1.00D-06.
 No special actions if energy rises.
 Fock matrices will be formed incrementally for  20 cycles.

 Cycle   1  Pass 1  IDiag  1:
 FoFJK:  IHMeth= 1 ICntrl=       0 DoSepK=F KAlg= 0 I1Cent=           0 FoldK=F
 IRaf= 850000000 NMat=       1 IRICut=       1 DoRegI=T DoRafI=F ISym2E= 0 IDoP0=0 IntGTp=1.
 FoFCou: FMM=F IPFlag=           0 FMFlag=      100000 FMFlg1=           0
         NFxFlg=           0 DoJE=F BraDBF=F KetDBF=F FulRan=T
         wScrn=  0.000000 ICntrl=         0 IOpCl=  0 I1Cent=           0 NGrid=           0
         NMat0=    1 NMatS0=      1 NMatT0=    0 NMatD0=    1 NMtDS0=    0 NMtDT0=    0
 Symmetry not used in FoFCou.
 Inv3:  Mode=1 IEnd=    34313772.
 Iteration    1 A*A^-1 deviation from unit magnitude is 4.66D-15 for   3378.
 Iteration    1 A*A^-1 deviation from orthogonality  is 3.43D-15 for   3343    125.
 Iteration    1 A^-1*A deviation from unit magnitude is 4.66D-15 for   3378.
 Iteration    1 A^-1*A deviation from orthogonality  is 1.74D-15 for   3362    858.
 E= -769.400325941230    
 DIIS: error= 2.20D-02 at cycle   1 NSaved=   1.
 NSaved= 1 IEnMin= 1 EnMin= -769.400325941230     IErMin= 1 ErrMin= 2.20D-02
 ErrMax= 2.20D-02  0.00D+00 EMaxC= 1.00D-01 BMatC= 3.64D-01 BMatP= 3.64D-01
 IDIUse=3 WtCom= 7.80D-01 WtEn= 2.20D-01
 Coeff-Com:  0.100D+01
 Coeff-En:   0.100D+01
 Coeff:      0.100D+01
 Gap=     0.219 Goal=   None    Shift=    0.000
 GapD=    0.219 DampG=1.000 DampE=0.500 DampFc=0.5000 IDamp=-1.
 Damping current iteration by 5.00D-01
 RMSDP=4.15D-03 MaxDP=1.11D-01              OVMax= 1.57D-01

 Cycle   2  Pass 1  IDiag  1:
 RMSU=  2.03D-03    CP:  9.76D-01
 E= -769.591700245827     Delta-E=       -0.191374304598 Rises=F Damp=T
 DIIS: error= 5.87D-03 at cycle   2 NSaved=   2.
 NSaved= 2 IEnMin= 2 EnMin= -769.591700245827     IErMin= 2 ErrMin= 5.87D-03
 ErrMax= 5.87D-03  0.00D+00 EMaxC= 1.00D-01 BMatC= 2.29D-02 BMatP= 3.64D-01
 IDIUse=3 WtCom= 9.41D-01 WtEn= 5.87D-02
 Coeff-Com: -0.173D-01 0.102D+01
 Coeff-En:   0.000D+00 0.100D+01
 Coeff:     -0.163D-01 0.102D+01
 Gap=     0.225 Goal=   None    Shift=    0.000
 RMSDP=1.13D-03 MaxDP=3.94D-02 DE=-1.91D-01 OVMax= 1.05D-01

 Cycle   3  Pass 1  IDiag  1:
 RMSU=  1.11D-03    CP:  9.65D-01  9.89D-01
 E= -769.779183960115     Delta-E=       -0.187483714288 Rises=F Damp=F
 DIIS: error= 4.16D-03 at cycle   3 NSaved=   3.
 NSaved= 3 IEnMin= 3 EnMin= -769.779183960115     IErMin= 3 ErrMin= 4.16D-03
 ErrMax= 4.16D-03  0.00D+00 EMaxC= 1.00D-01 BMatC= 1.57D-02 BMatP= 2.29D-02
 IDIUse=3 WtCom= 9.58D-01 WtEn= 4.16D-02
 Coeff-Com: -0.543D-01 0.473D+00 0.581D+00
 Coeff-En:   0.000D+00 0.000D+00 0.100D+01
 Coeff:     -0.520D-01 0.453D+00 0.599D+00
 Gap=     0.201 Goal=   None    Shift=    0.000
 RMSDP=7.19D-04 MaxDP=3.22D-02 DE=-1.87D-01 OVMax= 7.56D-02

 Cycle   4  Pass 1  IDiag  1:
 RMSU=  6.16D-04    CP:  9.65D-01  1.04D+00  6.78D-01
 E= -769.786676576480     Delta-E=       -0.007492616365 Rises=F Damp=F
 DIIS: error= 3.34D-03 at cycle   4 NSaved=   4.
 NSaved= 4 IEnMin= 4 EnMin= -769.786676576480     IErMin= 4 ErrMin= 3.34D-03
 ErrMax= 3.34D-03  0.00D+00 EMaxC= 1.00D-01 BMatC= 8.05D-03 BMatP= 1.57D-02
 IDIUse=3 WtCom= 9.67D-01 WtEn= 3.34D-02
 Coeff-Com: -0.299D-01 0.127D+00 0.425D+00 0.477D+00
 Coeff-En:   0.000D+00 0.000D+00 0.380D+00 0.620D+00
 Coeff:     -0.289D-01 0.123D+00 0.424D+00 0.482D+00
 Gap=     0.189 Goal=   None    Shift=    0.000
 RMSDP=3.80D-04 MaxDP=1.30D-02 DE=-7.49D-03 OVMax= 3.33D-02

 Cycle   5  Pass 1  IDiag  1:
 RMSU=  1.26D-04    CP:  9.65D-01  1.04D+00  7.63D-01  4.39D-01
 E= -769.795359960056     Delta-E=       -0.008683383576 Rises=F Damp=F
 DIIS: error= 3.86D-04 at cycle   5 NSaved=   5.
 NSaved= 5 IEnMin= 5 EnMin= -769.795359960056     IErMin= 5 ErrMin= 3.86D-04
 ErrMax= 3.86D-04  0.00D+00 EMaxC= 1.00D-01 BMatC= 1.53D-04 BMatP= 8.05D-03
 IDIUse=3 WtCom= 9.96D-01 WtEn= 3.86D-03
 Coeff-Com: -0.886D-02 0.242D-01 0.147D+00 0.212D+00 0.625D+00
 Coeff-En:   0.000D+00 0.000D+00 0.000D+00 0.000D+00 0.100D+01
 Coeff:     -0.882D-02 0.241D-01 0.147D+00 0.211D+00 0.626D+00
 Gap=     0.189 Goal=   None    Shift=    0.000
 RMSDP=6.23D-05 MaxDP=1.94D-03 DE=-8.68D-03 OVMax= 4.33D-03

 Cycle   6  Pass 1  IDiag  1:
 RMSU=  3.73D-05    CP:  9.65D-01  1.04D+00  7.72D-01  4.87D-01  6.94D-01
 E= -769.795494721875     Delta-E=       -0.000134761819 Rises=F Damp=F
 DIIS: error= 1.41D-04 at cycle   6 NSaved=   6.
 NSaved= 6 IEnMin= 6 EnMin= -769.795494721875     IErMin= 6 ErrMin= 1.41D-04
 ErrMax= 1.41D-04  0.00D+00 EMaxC= 1.00D-01 BMatC= 2.65D-05 BMatP= 1.53D-04
 IDIUse=3 WtCom= 9.99D-01 WtEn= 1.41D-03
 Coeff-Com: -0.278D-02 0.455D-02 0.520D-01 0.836D-01 0.359D+00 0.504D+00
 Coeff-En:   0.000D+00 0.000D+00 0.000D+00 0.000D+00 0.103D+00 0.897D+00
 Coeff:     -0.277D-02 0.454D-02 0.519D-01 0.835D-01 0.358D+00 0.505D+00
 Gap=     0.189 Goal=   None    Shift=    0.000
 RMSDP=1.80D-05 MaxDP=1.05D-03 DE=-1.35D-04 OVMax= 1.66D-03

 Cycle   7  Pass 1  IDiag  1:
 RMSU=  8.61D-06    CP:  9.65D-01  1.04D+00  7.73D-01  4.88D-01  7.37D-01
                    CP:  6.03D-01
 E= -769.795521053727     Delta-E=       -0.000026331852 Rises=F Damp=F
 DIIS: error= 2.44D-05 at cycle   7 NSaved=   7.
 NSaved= 7 IEnMin= 7 EnMin= -769.795521053727     IErMin= 7 ErrMin= 2.44D-05
 ErrMax= 2.44D-05  0.00D+00 EMaxC= 1.00D-01 BMatC= 8.28D-07 BMatP= 2.65D-05
 IDIUse=1 WtCom= 1.00D+00 WtEn= 0.00D+00
 Coeff-Com: -0.822D-03 0.875D-03 0.166D-01 0.272D-01 0.134D+00 0.237D+00
 Coeff-Com:  0.585D+00
 Coeff:     -0.822D-03 0.875D-03 0.166D-01 0.272D-01 0.134D+00 0.237D+00
 Coeff:      0.585D+00
 Gap=     0.189 Goal=   None    Shift=    0.000
 RMSDP=4.31D-06 MaxDP=1.85D-04 DE=-2.63D-05 OVMax= 3.20D-04

 Cycle   8  Pass 1  IDiag  1:
 RMSU=  2.88D-06    CP:  9.65D-01  1.04D+00  7.74D-01  4.89D-01  7.39D-01
                    CP:  6.15D-01  6.52D-01
 E= -769.795521776198     Delta-E=       -0.000000722471 Rises=F Damp=F
 DIIS: error= 1.01D-05 at cycle   8 NSaved=   8.
 NSaved= 8 IEnMin= 8 EnMin= -769.795521776198     IErMin= 8 ErrMin= 1.01D-05
 ErrMax= 1.01D-05  0.00D+00 EMaxC= 1.00D-01 BMatC= 1.18D-07 BMatP= 8.28D-07
 IDIUse=1 WtCom= 1.00D+00 WtEn= 0.00D+00
 Coeff-Com: -0.179D-04-0.248D-03 0.134D-02 0.188D-02 0.194D-01 0.540D-01
 Coeff-Com:  0.300D+00 0.624D+00
 Coeff:     -0.179D-04-0.248D-03 0.134D-02 0.188D-02 0.194D-01 0.540D-01
 Coeff:      0.300D+00 0.624D+00
 Gap=     0.189 Goal=   None    Shift=    0.000
 RMSDP=1.45D-06 MaxDP=4.27D-05 DE=-7.22D-07 OVMax= 1.11D-04

 Cycle   9  Pass 1  IDiag  1:
 RMSU=  8.83D-07    CP:  9.65D-01  1.04D+00  7.74D-01  4.88D-01  7.42D-01
                    CP:  6.20D-01  7.24D-01  7.10D-01
 E= -769.795521894831     Delta-E=       -0.000000118632 Rises=F Damp=F
 DIIS: error= 3.22D-06 at cycle   9 NSaved=   9.
 NSaved= 9 IEnMin= 9 EnMin= -769.795521894831     IErMin= 9 ErrMin= 3.22D-06
 ErrMax= 3.22D-06  0.00D+00 EMaxC= 1.00D-01 BMatC= 9.42D-09 BMatP= 1.18D-07
 IDIUse=1 WtCom= 1.00D+00 WtEn= 0.00D+00
 Coeff-Com:  0.468D-04-0.170D-03-0.420D-03-0.108D-02 0.349D-03 0.102D-01
 Coeff-Com:  0.973D-01 0.298D+00 0.596D+00
 Coeff:      0.468D-04-0.170D-03-0.420D-03-0.108D-02 0.349D-03 0.102D-01
 Coeff:      0.973D-01 0.298D+00 0.596D+00
 Gap=     0.189 Goal=   None    Shift=    0.000
 RMSDP=4.14D-07 MaxDP=2.08D-05 DE=-1.19D-07 OVMax= 4.21D-05

 Cycle  10  Pass 1  IDiag  1:
 RMSU=  2.75D-07    CP:  9.65D-01  1.04D+00  7.74D-01  4.88D-01  7.42D-01
                    CP:  6.23D-01  7.29D-01  7.68D-01  7.58D-01
 E= -769.795521903912     Delta-E=       -0.000000009081 Rises=F Damp=F
 DIIS: error= 1.10D-06 at cycle  10 NSaved=  10.
 NSaved=10 IEnMin=10 EnMin= -769.795521903912     IErMin=10 ErrMin= 1.10D-06
 ErrMax= 1.10D-06  0.00D+00 EMaxC= 1.00D-01 BMatC= 1.48D-09 BMatP= 9.42D-09
 IDIUse=1 WtCom= 1.00D+00 WtEn= 0.00D+00
 Coeff-Com:  0.307D-04-0.718D-04-0.411D-03-0.941D-03-0.218D-02-0.345D-03
 Coeff-Com:  0.203D-01 0.101D+00 0.338D+00 0.544D+00
 Coeff:      0.307D-04-0.718D-04-0.411D-03-0.941D-03-0.218D-02-0.345D-03
 Coeff:      0.203D-01 0.101D+00 0.338D+00 0.544D+00
 Gap=     0.189 Goal=   None    Shift=    0.000
 RMSDP=1.42D-07 MaxDP=5.48D-06 DE=-9.08D-09 OVMax= 1.21D-05

 Cycle  11  Pass 1  IDiag  1:
 RMSU=  9.08D-08    CP:  9.65D-01  1.04D+00  7.74D-01  4.88D-01  7.42D-01
                    CP:  6.23D-01  7.32D-01  7.78D-01  8.17D-01  7.11D-01
 E= -769.795521905414     Delta-E=       -0.000000001502 Rises=F Damp=F
 DIIS: error= 3.18D-07 at cycle  11 NSaved=  11.
 NSaved=11 IEnMin=11 EnMin= -769.795521905414     IErMin=11 ErrMin= 3.18D-07
 ErrMax= 3.18D-07  0.00D+00 EMaxC= 1.00D-01 BMatC= 6.92D-11 BMatP= 1.48D-09
 IDIUse=1 WtCom= 1.00D+00 WtEn= 0.00D+00
 Coeff-Com:  0.713D-05-0.107D-04-0.999D-04-0.267D-03-0.769D-03-0.841D-03
 Coeff-Com: -0.191D-02 0.116D-01 0.760D-01 0.204D+00 0.712D+00
 Coeff:      0.713D-05-0.107D-04-0.999D-04-0.267D-03-0.769D-03-0.841D-03
 Coeff:     -0.191D-02 0.116D-01 0.760D-01 0.204D+00 0.712D+00
 Gap=     0.189 Goal=   None    Shift=    0.000
 RMSDP=4.22D-08 MaxDP=1.39D-06 DE=-1.50D-09 OVMax= 3.52D-06

 Cycle  12  Pass 1  IDiag  1:
 RMSU=  2.34D-08    CP:  9.65D-01  1.04D+00  7.74D-01  4.88D-01  7.42D-01
                    CP:  6.23D-01  7.32D-01  7.82D-01  8.31D-01  7.72D-01
                    CP:  8.27D-01
 E= -769.795521905481     Delta-E=       -0.000000000067 Rises=F Damp=F
 DIIS: error= 1.25D-07 at cycle  12 NSaved=  12.
 NSaved=12 IEnMin=12 EnMin= -769.795521905481     IErMin=12 ErrMin= 1.25D-07
 ErrMax= 1.25D-07  0.00D+00 EMaxC= 1.00D-01 BMatC= 1.20D-11 BMatP= 6.92D-11
 IDIUse=1 WtCom= 1.00D+00 WtEn= 0.00D+00
 Coeff-Com:  0.103D-05 0.117D-05-0.160D-04-0.570D-04-0.234D-03-0.496D-03
 Coeff-Com: -0.365D-02-0.479D-02 0.425D-02 0.453D-01 0.368D+00 0.592D+00
 Coeff:      0.103D-05 0.117D-05-0.160D-04-0.570D-04-0.234D-03-0.496D-03
 Coeff:     -0.365D-02-0.479D-02 0.425D-02 0.453D-01 0.368D+00 0.592D+00
 Gap=     0.189 Goal=   None    Shift=    0.000
 RMSDP=1.42D-08 MaxDP=6.00D-07 DE=-6.73D-11 OVMax= 1.06D-06

 Cycle  13  Pass 1  IDiag  1:
 RMSU=  9.31D-09    CP:  9.65D-01  1.04D+00  7.74D-01  4.88D-01  7.42D-01
                    CP:  6.23D-01  7.32D-01  7.83D-01  8.38D-01  7.79D-01
                    CP:  8.84D-01  7.97D-01
 E= -769.795521905510     Delta-E=       -0.000000000029 Rises=F Damp=F
 DIIS: error= 2.95D-08 at cycle  13 NSaved=  13.
 NSaved=13 IEnMin=13 EnMin= -769.795521905510     IErMin=13 ErrMin= 2.95D-08
 ErrMax= 2.95D-08  0.00D+00 EMaxC= 1.00D-01 BMatC= 7.71D-13 BMatP= 1.20D-11
 IDIUse=1 WtCom= 1.00D+00 WtEn= 0.00D+00
 Coeff-Com: -0.457D-06 0.167D-05 0.796D-05 0.114D-04 0.157D-04-0.604D-04
 Coeff-Com: -0.115D-02-0.288D-02-0.721D-02-0.943D-02 0.589D-01 0.243D+00
 Coeff-Com:  0.719D+00
 Coeff:     -0.457D-06 0.167D-05 0.796D-05 0.114D-04 0.157D-04-0.604D-04
 Coeff:     -0.115D-02-0.288D-02-0.721D-02-0.943D-02 0.589D-01 0.243D+00
 Coeff:      0.719D+00
 Gap=     0.189 Goal=   None    Shift=    0.000
 RMSDP=4.23D-09 MaxDP=1.13D-07 DE=-2.91D-11 OVMax= 3.81D-07

 Error on total polarization charges =  0.00842
 SCF Done:  E(RB3LYP) =  -769.795521906     A.U. after   13 cycles
            NFock= 13  Conv=0.42D-08     -V/T= 2.0097
 KE= 7.623840666328D+02 PE=-4.658504308413D+03 EE= 1.679983354685D+03
 Leave Link  502 at Sun Jul 18 13:36:58 2021, MaxMem=   104857600 cpu:            1258.1 elap:             322.9
 (Enter /dades/curu/g16A03_MST/g16/l601.exe)
 Copying SCF densities to generalized density rwf, IOpCl= 0 IROHF=0.

 **********************************************************************

            Population analysis using the SCF density.

 **********************************************************************

 Orbital symmetries:
       Occupied  (A) (A) (A) (A) (A) (A) (A) (A) (A) (A) (A) (A)
                 (A) (A) (A) (A) (A) (A) (A) (A) (A) (A) (A) (A)
                 (A) (A) (A) (A) (A) (A) (A) (A) (A) (A) (A) (A)
                 (A) (A) (A) (A) (A) (A) (A) (A) (A) (A) (A) (A)
                 (A) (A) (A) (A) (A) (A) (A) (A) (A) (A) (A) (A)
                 (A) (A) (A) (A) (A) (A) (A) (A)
       Virtual   (A) (A) (A) (A) (A) (A) (A) (A) (A) (A) (A) (A)
                 (A) (A) (A) (A) (A) (A) (A) (A) (A) (A) (A) (A)
                 (A) (A) (A) (A) (A) (A) (A) (A) (A) (A) (A) (A)
                 (A) (A) (A) (A) (A) (A) (A) (A) (A) (A) (A) (A)
                 (A) (A) (A) (A) (A) (A) (A) (A) (A) (A) (A) (A)
                 (A) (A) (A) (A) (A) (A) (A) (A) (A) (A) (A) (A)
                 (A) (A) (A) (A) (A) (A) (A) (A) (A) (A) (A) (A)
                 (A) (A) (A) (A) (A) (A) (A) (A) (A) (A) (A) (A)
                 (A) (A) (A) (A) (A) (A) (A) (A) (A) (A) (A) (A)
                 (A) (A) (A) (A) (A) (A) (A) (A) (A) (A) (A) (A)
                 (A) (A) (A) (A) (A) (A) (A) (A) (A) (A) (A) (A)
                 (A) (A) (A) (A) (A) (A) (A) (A) (A) (A) (A) (A)
                 (A) (A) (A) (A) (A) (A) (A) (A) (A) (A) (A) (A)
                 (A) (A) (A) (A) (A) (A) (A) (A) (A) (A) (A) (A)
                 (A) (A) (A) (A) (A) (A) (A) (A) (A) (A) (A) (A)
                 (A) (A) (A) (A) (A) (A) (A) (A) (A) (A) (A) (A)
                 (A) (A) (A) (A) (A) (A) (A) (A) (A) (A) (A) (A)
                 (A) (A) (A) (A) (A) (A) (A) (A) (A) (A) (A) (A)
                 (A) (A) (A) (A) (A) (A) (A) (A) (A) (A) (A) (A)
                 (A) (A) (A) (A) (A) (A) (A) (A) (A) (A) (A) (A)
                 (A) (A) (A) (A) (A) (A) (A) (A) (A) (A) (A) (A)
                 (A) (A) (A) (A) (A) (A) (A)
 The electronic state is 1-A.
 Alpha  occ. eigenvalues --  -14.46095 -14.35958 -10.27263 -10.23936 -10.23509
 Alpha  occ. eigenvalues --  -10.23459 -10.21804 -10.21099 -10.20429 -10.20323
 Alpha  occ. eigenvalues --  -10.20161 -10.20054 -10.20041 -10.19980 -10.19734
 Alpha  occ. eigenvalues --  -10.19731 -10.19649 -10.19626 -10.19431  -1.02786
 Alpha  occ. eigenvalues --   -0.98027  -0.86340  -0.85335  -0.81280  -0.80556
 Alpha  occ. eigenvalues --   -0.76788  -0.76054  -0.73982  -0.72657  -0.69822
 Alpha  occ. eigenvalues --   -0.66149  -0.65089  -0.61804  -0.61292  -0.61163
 Alpha  occ. eigenvalues --   -0.59259  -0.58705  -0.57359  -0.53691  -0.52808
 Alpha  occ. eigenvalues --   -0.51605  -0.50235  -0.48608  -0.48032  -0.46846
 Alpha  occ. eigenvalues --   -0.46148  -0.45297  -0.44745  -0.44194  -0.42711
 Alpha  occ. eigenvalues --   -0.42361  -0.41413  -0.40530  -0.39699  -0.39050
 Alpha  occ. eigenvalues --   -0.38356  -0.37416  -0.37038  -0.36609  -0.35213
 Alpha  occ. eigenvalues --   -0.34801  -0.34447  -0.33288  -0.29114  -0.25634
 Alpha  occ. eigenvalues --   -0.25047  -0.24643  -0.21051
 Alpha virt. eigenvalues --   -0.02196  -0.01499  -0.00894  -0.00549   0.02936
 Alpha virt. eigenvalues --    0.06909   0.07815   0.08650   0.09099   0.09718
 Alpha virt. eigenvalues --    0.10305   0.10999   0.12108   0.12591   0.13638
 Alpha virt. eigenvalues --    0.13968   0.14296   0.14951   0.15426   0.15912
 Alpha virt. eigenvalues --    0.16073   0.16429   0.16973   0.17933   0.18416
 Alpha virt. eigenvalues --    0.18725   0.19203   0.19941   0.20634   0.21294
 Alpha virt. eigenvalues --    0.22022   0.23050   0.24380   0.26012   0.26485
 Alpha virt. eigenvalues --    0.27698   0.30410   0.30572   0.32055   0.33146
 Alpha virt. eigenvalues --    0.34063   0.36114   0.37377   0.40841   0.45059
 Alpha virt. eigenvalues --    0.46774   0.46968   0.48832   0.49232   0.50545
 Alpha virt. eigenvalues --    0.51273   0.51798   0.52082   0.53224   0.53739
 Alpha virt. eigenvalues --    0.54291   0.54974   0.55064   0.56059   0.56779
 Alpha virt. eigenvalues --    0.57509   0.58471   0.59286   0.59538   0.59853
 Alpha virt. eigenvalues --    0.60375   0.60593   0.60974   0.61776   0.61811
 Alpha virt. eigenvalues --    0.62272   0.62835   0.63314   0.64416   0.65680
 Alpha virt. eigenvalues --    0.66702   0.67507   0.68899   0.69446   0.69853
 Alpha virt. eigenvalues --    0.71391   0.73237   0.74122   0.76088   0.76911
 Alpha virt. eigenvalues --    0.77524   0.80130   0.80889   0.81825   0.82534
 Alpha virt. eigenvalues --    0.82763   0.83110   0.83517   0.83726   0.83849
 Alpha virt. eigenvalues --    0.84250   0.85958   0.86614   0.87548   0.88671
 Alpha virt. eigenvalues --    0.88837   0.90372   0.90981   0.91200   0.92225
 Alpha virt. eigenvalues --    0.92833   0.93837   0.94052   0.94788   0.95513
 Alpha virt. eigenvalues --    0.96650   0.97267   0.97713   1.00301   1.00883
 Alpha virt. eigenvalues --    1.02134   1.04132   1.04817   1.05953   1.07414
 Alpha virt. eigenvalues --    1.08390   1.10189   1.11619   1.12256   1.14845
 Alpha virt. eigenvalues --    1.18166   1.19132   1.19730   1.20341   1.22259
 Alpha virt. eigenvalues --    1.22834   1.24863   1.26907   1.28121   1.29728
 Alpha virt. eigenvalues --    1.31621   1.35530   1.38499   1.38950   1.41447
 Alpha virt. eigenvalues --    1.41665   1.43794   1.46290   1.47051   1.47973
 Alpha virt. eigenvalues --    1.49873   1.50456   1.51683   1.52854   1.54281
 Alpha virt. eigenvalues --    1.57336   1.61678   1.62384   1.64736   1.67115
 Alpha virt. eigenvalues --    1.67767   1.69396   1.74047   1.74969   1.77294
 Alpha virt. eigenvalues --    1.79010   1.80261   1.80479   1.81738   1.82007
 Alpha virt. eigenvalues --    1.82876   1.84757   1.85381   1.88205   1.89360
 Alpha virt. eigenvalues --    1.90599   1.91613   1.91657   1.92309   1.94169
 Alpha virt. eigenvalues --    1.95384   1.96757   1.97885   1.98749   2.00108
 Alpha virt. eigenvalues --    2.02729   2.03217   2.04920   2.05427   2.07119
 Alpha virt. eigenvalues --    2.08990   2.11312   2.12266   2.12879   2.15521
 Alpha virt. eigenvalues --    2.16869   2.17525   2.20039   2.22295   2.23112
 Alpha virt. eigenvalues --    2.24133   2.25023   2.25316   2.26472   2.27286
 Alpha virt. eigenvalues --    2.29396   2.29833   2.30841   2.31503   2.32747
 Alpha virt. eigenvalues --    2.34486   2.35595   2.36807   2.40705   2.43160
 Alpha virt. eigenvalues --    2.43491   2.47656   2.48920   2.51338   2.55655
 Alpha virt. eigenvalues --    2.57254   2.57728   2.59540   2.62004   2.62885
 Alpha virt. eigenvalues --    2.63289   2.65162   2.68044   2.68585   2.72153
 Alpha virt. eigenvalues --    2.72321   2.73251   2.75402   2.76474   2.78398
 Alpha virt. eigenvalues --    2.80569   2.81996   2.85470   2.86745   2.96226
 Alpha virt. eigenvalues --    3.00295   3.15205   3.19725   3.36434   3.40229
 Alpha virt. eigenvalues --    3.75368   4.07001   4.07999   4.10001   4.11518
 Alpha virt. eigenvalues --    4.11858   4.16040   4.18674   4.22403   4.30072
 Alpha virt. eigenvalues --    4.34277   4.37466   4.40745   4.41544   4.45634
 Alpha virt. eigenvalues --    4.52144   4.54677   4.73118   4.75388
          Condensed to atoms (all electrons):
               1          2          3          4          5          6
     1  N    6.688064   0.305319   0.302196   0.229104  -0.047055  -0.031254
     2  H    0.305319   0.272333  -0.011140  -0.017535  -0.004946   0.003157
     3  H    0.302196  -0.011140   0.280674  -0.022226   0.004905  -0.001682
     4  C    0.229104  -0.017535  -0.022226   5.043341   0.386487   0.376130
     5  H   -0.047055  -0.004946   0.004905   0.386487   0.512506  -0.020942
     6  H   -0.031254   0.003157  -0.001682   0.376130  -0.020942   0.480928
     7  C   -0.053694  -0.001011  -0.002109   0.355421  -0.039340  -0.033964
     8  H   -0.002589  -0.000275   0.004622  -0.039179   0.004242  -0.003499
     9  H   -0.002877   0.004352  -0.000386  -0.039299  -0.004727   0.004417
    10  C    0.002933  -0.000034  -0.000061  -0.036408  -0.002045  -0.002244
    11  H   -0.000111  -0.000002  -0.000002   0.004844  -0.000025   0.000023
[...]
     7  C   -0.077771   0.858344  -0.283025   0.012022  -0.160886   0.000455
     8  H   -0.164593  -0.168775   0.014491   0.003733  -0.014283  -0.000163
     9  H    0.128933   0.061040   0.024359   0.002356  -0.000059   0.000092
    10  C   -0.381116  -1.043946   0.526532   0.006232  -0.608114   0.034896
    11  H   -0.008393  -0.335303   0.040796  -0.057746   0.096368  -0.000807
    12  H   -0.334608   1.151581  -0.208098   0.052032   0.131504  -0.001066
    13  N   14.928018  -1.351485   0.306458  -0.359437  -0.305709   0.005425
    14  C   -1.351485  42.688753 -13.786960   1.856650   3.652912   0.214115
    15  C    0.306458 -13.786960  24.626327  -2.541348  -9.382324   1.007657
    16  H   -0.359437   1.856650  -2.541348   2.916288   0.790442  -0.071919
    17  C   -0.305709   3.652912  -9.382324   0.790442  16.421318  -1.336743
    18  H    0.005425   0.214115   1.007657  -0.071919  -1.336743   1.781781
    19  C    0.347653  -4.405781   6.384480  -0.171397  -6.295017   0.375057
    20  H   -0.005109  -0.167968  -0.179479  -0.022391   0.490721  -0.043933
    21  C   -0.069183   4.611876  -8.651630   0.286401   6.546731  -0.330458
    22  H    0.005079  -0.100477   0.215713   0.017571  -0.304318  -0.022459
    23  C   -0.514669 -11.685425   5.840967  -0.807923  -4.410531  -0.096779
    24  C   -0.659570  -0.781484   0.302374  -0.022615   0.400323  -0.019422
    25  H    0.022157   0.033397   0.011914  -0.003381   0.010098   0.000536
    26  H    0.059489   0.078323   0.008434  -0.001864  -0.022739   0.000155
    27  C   -0.726904  -1.806964  -0.443569   0.017101   0.338015   0.003608
    28  H    0.002042  -0.007396  -0.033218   0.001064   0.012553   0.000162
    29  H   -0.159853  -0.086497   0.005786   0.004732   0.016722  -0.000692
    30  C   -1.059912  -0.291600   0.372804  -0.058418  -0.200530  -0.001505
    31  C   -0.835618  -0.854184  -0.189024  -0.016624  -0.032056   0.000759
    32  H    0.013270   0.050599   0.003888   0.000948  -0.000379  -0.000042
    33  C    0.594283   0.677695   0.080487   0.008218  -0.011881  -0.000817
    34  H   -0.020640  -0.023909   0.002076   0.000068  -0.000476  -0.000023
    35  C   -0.712736  -1.017085  -0.151801   0.008805   0.081001   0.002261
    36  H   -0.004295   0.007508  -0.009140  -0.001051   0.001995   0.000162
    37  C    1.784482   3.227526  -0.103933   0.045116   0.153551  -0.004852
    38  H   -0.286073   0.038806  -0.033073   0.001175   0.000962  -0.000209
    39  C   -3.067170 -15.145648   1.407265   0.005525  -0.351746   0.016437
    40  H    0.000384  -0.008350   0.001896   0.000186  -0.000489  -0.000022
              19         20         21         22         23         24
     1  N    0.000059   0.000004  -0.002467  -0.000111  -0.009257  -0.004607
     2  H    0.000011  -0.000003  -0.000380  -0.000003  -0.000467  -0.000260
     3  H   -0.000096  -0.000001   0.000294   0.000014  -0.000388  -0.000070
     4  C    0.014740   0.000232  -0.032789  -0.000020   0.108465  -0.144913
     5  H   -0.002848   0.000020   0.000681  -0.000179   0.012459  -0.006670
     6  H    0.003865   0.000084  -0.041472  -0.001372   0.033699   0.025698
     7  C   -0.003604   0.000118   0.043138  -0.000261   0.015497   0.134586
     8  H    0.003997   0.000100   0.001393  -0.000172   0.038381   0.012638
     9  H    0.000339   0.000034  -0.000238  -0.000053  -0.002769   0.000228
    10  C    0.109029   0.001022   0.092857   0.013008  -0.173832  -0.102919
    11  H   -0.031455  -0.001101   0.028923   0.001119  -0.148460  -0.020906
    12  H    0.002144  -0.000260   0.005378   0.001243  -0.064601   0.052405
    13  N    0.347653  -0.005109  -0.069183   0.005079  -0.514669  -0.659570
    14  C   -4.405781  -0.167968   4.611876  -0.100477 -11.685425  -0.781484
    15  C    6.384480  -0.179479  -8.651630   0.215713   5.840967   0.302374
    16  H   -0.171397  -0.022391   0.286401   0.017571  -0.807923  -0.022615
    17  C   -6.295017   0.490721   6.546731  -0.304318  -4.410531   0.400323
    18  H    0.375057  -0.043933  -0.330458  -0.022459  -0.096779  -0.019422
    19  C   14.631660  -1.014114  -7.272999   0.632044   2.985595  -0.434842
    20  H   -1.014114   1.688148   0.658876  -0.068242   0.070995   0.072642
    21  C   -7.272999   0.658876  25.024685  -1.772826 -11.450785  -1.920158
    22  H    0.632044  -0.068242  -1.772826   2.074937   1.282569  -0.176604
    23  C    2.985595   0.070995 -11.450785   1.282569  23.932137  -0.456470
    24  C   -0.434842   0.072642  -1.920158  -0.176604  -0.456470  12.061024
    25  H    0.005047  -0.000746  -0.015453  -0.029342   0.069962   0.261474
    26  H    0.041388  -0.001475  -0.055404  -0.015253   0.302398  -0.300649
    27  C   -0.482871  -0.002125   0.143413   0.017691   0.446528  -1.022190
    28  H   -0.013183   0.000115   0.042860  -0.000119  -0.017499   0.286281
    29  H   -0.021108  -0.000587   0.077689   0.004847   0.154199  -0.357850
    30  C    0.040441   0.003854  -0.397885  -0.030518  -0.342525  -0.007918
    31  C    0.062784  -0.000056   0.270509   0.005082   0.445705   0.700302
    32  H    0.000082   0.000045  -0.004583  -0.000973  -0.040792   0.008579
    33  C    0.016109   0.000602  -0.063269  -0.005394  -0.246349   0.346613
    34  H    0.000379   0.000016  -0.001489  -0.000040   0.009722   0.000876
    35  C   -0.024118  -0.000912   0.103811   0.005116   0.085799  -0.117842
    36  H   -0.000925  -0.000061   0.003545   0.000154  -0.000634  -0.005795
    37  C   -0.091980   0.001925  -0.121821  -0.013147  -0.212600   0.331249
    38  H    0.006179   0.000333  -0.011266   0.000357  -0.058304   0.005656
    39  C    0.499273  -0.015328  -0.323758   0.008377   1.095770  -2.636359
    40  H    0.000229   0.000007   0.000142  -0.000001   0.001399  -0.001199
              25         26         27         28         29         30
     1  N   -0.000418   0.000784  -0.002570  -0.001080  -0.008255  -0.011867
     2  H   -0.000029   0.000002   0.001546   0.000196  -0.003146  -0.000286
     3  H   -0.000074   0.000080   0.004888  -0.000238   0.002411  -0.002110
     4  C   -0.000842  -0.002329   0.101940  -0.000290   0.068797   0.098035
     5  H    0.000085   0.000137   0.020861   0.001720   0.006421   0.011604
     6  H   -0.003307   0.005663  -0.116379   0.032247  -0.111769   0.156483
     7  C    0.006936   0.000294  -0.213792  -0.000256  -0.033292  -0.157014
     8  H    0.002203  -0.000593  -0.006689   0.000556   0.013151   0.007844
     9  H    0.000050   0.000261  -0.010482   0.000679  -0.009161  -0.002862
    10  C    0.000193   0.000047  -0.002417  -0.005149   0.080535   0.029311
    11  H   -0.003383   0.000010   0.050320   0.001301  -0.001446  -0.029753
    12  H    0.003695  -0.001252  -0.062280  -0.001736   0.004355   0.061168
    13  N    0.022157   0.059489  -0.726904   0.002042  -0.159853  -1.059912
    14  C    0.033397   0.078323  -1.806964  -0.007396  -0.086497  -0.291600
    15  C    0.011914   0.008434  -0.443569  -0.033218   0.005786   0.372804
    16  H   -0.003381  -0.001864   0.017101   0.001064   0.004732  -0.058418
    17  C    0.010098  -0.022739   0.338015   0.012553   0.016722  -0.200530
    18  H    0.000536   0.000155   0.003608   0.000162  -0.000692  -0.001505
    19  C    0.005047   0.041388  -0.482871  -0.013183  -0.021108   0.040441
    20  H   -0.000746  -0.001475  -0.002125   0.000115  -0.000587   0.003854
    21  C   -0.015453  -0.055404   0.143413   0.042860   0.077689  -0.397885
    22  H   -0.029342  -0.015253   0.017691  -0.000119   0.004847  -0.030518
    23  C    0.069962   0.302398   0.446528  -0.017499   0.154199  -0.342525
    24  C    0.261474  -0.300649  -1.022190   0.286281  -0.357850  -0.007918
    25  H    1.089737  -0.226669  -0.208531  -0.058106   0.076572   0.065476
    26  H   -0.226669   1.220377  -0.101062  -0.007484  -0.049754   0.109804
    27  C   -0.208531  -0.101062   9.713377  -0.461649   0.495496  -1.659542
    28  H   -0.058106  -0.007484  -0.461649   1.627067  -0.395619  -0.062499
    29  H    0.076572  -0.049754   0.495496  -0.395619   1.562695  -0.163150
    30  C    0.065476   0.109804  -1.659542  -0.062499  -0.163150  18.176098
    31  C   -0.113550   0.014654   0.730474   0.367603  -0.094613  -5.364766
    32  H   -0.002241   0.004915  -0.113725  -0.049940   0.014820   0.843465
    33  C    0.010796   0.015372  -1.528102   0.100807  -0.129003  -1.229584
    34  H   -0.002158  -0.000041   0.087902   0.002705   0.003957   0.290998
    35  C   -0.026605  -0.004278   1.467584   0.020552   0.051703  -0.624003
    36  H   -0.000979  -0.000207  -0.011155   0.001523  -0.002470  -0.235094
    37  C    0.106529  -0.013987  -1.783378  -0.106107   0.100187  -3.618062
    38  H   -0.000008  -0.000518   0.048966  -0.001789  -0.001331   0.305255
    39  C   -0.147266  -0.032709   2.217578  -0.115228   0.040784   0.367456
    40  H    0.000083  -0.000119  -0.001753  -0.000811   0.006763  -0.001154
              31         32         33         34         35         36
     1  N   -0.019677   0.000044   0.001907   0.000011  -0.010363  -0.000681
     2  H   -0.002250  -0.000060  -0.000381   0.000006   0.000344  -0.000003
     3  H    0.008768  -0.000099  -0.003961  -0.000093   0.004820   0.000173
     4  C   -0.004584  -0.002470  -0.025826   0.000323   0.053065   0.004412
     5  H    0.013493  -0.000342  -0.003721   0.000011   0.004041   0.000455
     6  H   -0.105078  -0.005219   0.055590  -0.000437  -0.043805  -0.001521
     7  C   -0.074891   0.004359   0.119185  -0.001844  -0.080851  -0.008102
     8  H   -0.020700   0.002916   0.041848  -0.001682  -0.066857   0.000193
     9  H   -0.007122  -0.000031   0.010890  -0.000060  -0.001625  -0.001527
    10  C    0.167162  -0.002665  -0.011907   0.000576  -0.068277   0.014461
    11  H    0.024047  -0.002691  -0.049478   0.000655   0.092274   0.010399
    12  H    0.003000   0.000444   0.012997   0.000255  -0.038586  -0.000902
    13  N   -0.835618   0.013270   0.594283  -0.020640  -0.712736  -0.004295
    14  C   -0.854184   0.050599   0.677695  -0.023909  -1.017085   0.007508
    15  C   -0.189024   0.003888   0.080487   0.002076  -0.151801  -0.009140
    16  H   -0.016624   0.000948   0.008218   0.000068   0.008805  -0.001051
    17  C   -0.032056  -0.000379  -0.011881  -0.000476   0.081001   0.001995
    18  H    0.000759  -0.000042  -0.000817  -0.000023   0.002261   0.000162
    19  C    0.062784   0.000082   0.016109   0.000379  -0.024118  -0.000925
    20  H   -0.000056   0.000045   0.000602   0.000016  -0.000912  -0.000061
    21  C    0.270509  -0.004583  -0.063269  -0.001489   0.103811   0.003545
    22  H    0.005082  -0.000973  -0.005394  -0.000040   0.005116   0.000154
    23  C    0.445705  -0.040792  -0.246349   0.009722   0.085799  -0.000634
    24  C    0.700302   0.008579   0.346613   0.000876  -0.117842  -0.005795
    25  H   -0.113550  -0.002241   0.010796  -0.002158  -0.026605  -0.000979
    26  H    0.014654   0.004915   0.015372  -0.000041  -0.004278  -0.000207
    27  C    0.730474  -0.113725  -1.528102   0.087902   1.467584  -0.011155
    28  H    0.367603  -0.049940   0.100807   0.002705   0.020552   0.001523
    29  H   -0.094613   0.014820  -0.129003   0.003957   0.051703  -0.002470
    30  C   -5.364766   0.843465  -1.229584   0.290998  -0.624003  -0.235094
    31  C   19.608144  -1.409116  -1.972824   0.120837   2.322855  -0.008572
    32  H   -1.409116   2.005401   0.003272  -0.069113  -0.251719  -0.014577
    33  C   -1.972824   0.003272  10.735024  -0.811303  -3.526743   0.448821
    34  H    0.120837  -0.069113  -0.811303   1.696721   0.563733  -0.048933
    35  C    2.322855  -0.251719  -3.526743   0.563733  12.258269  -0.920179
    36  H   -0.008572  -0.014577   0.448821  -0.048933  -0.920179   1.781455
    37  C   -3.075777   0.106472   2.497004  -0.016170  -3.266263   0.010156
    38  H    0.031608   0.006698  -0.235344  -0.015929   0.362723  -0.097782
    39  C   -5.192263   0.541683  -0.663314  -0.303570  -0.699114   0.609969
    40  H   -0.001035   0.000168   0.000628   0.000015  -0.001162  -0.000023
              37         38         39         40
     1  N    0.017314  -0.001799  -0.039932   0.422320
     2  H   -0.003977  -0.000444   0.002032  -0.072735
     3  H   -0.006693  -0.000432   0.001766  -0.053700
     4  C   -0.266740   0.025720   0.518480   0.003860
     5  H   -0.027952  -0.000013   0.077066  -0.019337
     6  H   -0.006150   0.016804   0.085687  -0.083353
     7  C    0.788258  -0.066220  -1.578813   0.023368
     8  H    0.212414  -0.015909  -0.038132   0.003459
     9  H    0.064816   0.015098  -0.142733  -0.004189
    10  C   -0.462847   0.006667   0.572186  -0.007366
    11  H   -0.229027  -0.107427   0.473102  -0.001087
    12  H    0.181658   0.048870  -1.015787  -0.000197
    13  N    1.784482  -0.286073  -3.067170   0.000384
    14  C    3.227526   0.038806 -15.145648  -0.008350
    15  C   -0.103933  -0.033073   1.407265   0.001896
    16  H    0.045116   0.001175   0.005525   0.000186
    17  C    0.153551   0.000962  -0.351746  -0.000489
    18  H   -0.004852  -0.000209   0.016437  -0.000022
    19  C   -0.091980   0.006179   0.499273   0.000229
    20  H    0.001925   0.000333  -0.015328   0.000007
    21  C   -0.121821  -0.011266  -0.323758   0.000142
    22  H   -0.013147   0.000357   0.008377  -0.000001
    23  C   -0.212600  -0.058304   1.095770   0.001399
    24  C    0.331249   0.005656  -2.636359  -0.001199
    25  H    0.106529  -0.000008  -0.147266   0.000083
    26  H   -0.013987  -0.000518  -0.032709  -0.000119
    27  C   -1.783378   0.048966   2.217578  -0.001753
    28  H   -0.106107  -0.001789  -0.115228  -0.000811
    29  H    0.100187  -0.001331   0.040784   0.006763
    30  C   -3.618062   0.305255   0.367456  -0.001154
    31  C   -3.075777   0.031608  -5.192263  -0.001035
    32  H    0.106472   0.006698   0.541683   0.000168
    33  C    2.497004  -0.235344  -0.663314   0.000628
    34  H   -0.016170  -0.015929  -0.303570   0.000015
    35  C   -3.266263   0.362723  -0.699114  -0.001162
    36  H    0.010156  -0.097782   0.609969  -0.000023
    37  C   22.353986  -1.903675 -11.876488   0.004396
    38  H   -1.903675   2.715164   0.971995   0.000035
    39  C  -11.876488   0.971995  40.949333   0.002060
    40  H    0.004396   0.000035   0.002060   0.610342
 Mulliken charges:
               1
     1  N   -0.619608
     2  H    0.223726
     3  H    0.236907
     4  C    1.372342
     5  H   -0.125715
     6  H   -0.344201
     7  C    0.379599
     8  H   -0.052798
     9  H   -0.160872
    10  C    0.750357
    11  H   -0.228507
    12  H   -0.526287
    13  N   -0.100643
    14  C    0.438064
    15  C    0.831159
    16  H   -0.903104
    17  C    0.324430
    18  H   -0.512196
    19  C    0.103753
    20  H   -0.466002
    21  C    0.597113
    22  H   -0.743037
    23  C   -0.191189
    24  C    0.198363
    25  H    0.066148
    26  H   -0.024201
    27  C    0.860840
    28  H   -0.162635
    29  H   -0.163026
    30  C    0.612461
    31  C    0.496593
    32  H   -0.641288
    33  C    0.741054
    34  H   -0.463932
    35  C    0.166170
    36  H   -0.520770
    37  C    1.224586
    38  H   -0.771526
    39  C   -1.078466
    40  H    0.176341
 Sum of Mulliken charges =   1.00000
 Mulliken charges with hydrogens summed into heavy atoms:
               1
     1  N    0.017365
     4  C    0.902426
     7  C    0.165928
    10  C   -0.004438
    13  N   -0.100643
    14  C    0.438064
    15  C   -0.071945
    17  C   -0.187767
    19  C   -0.362249
    21  C   -0.145924
    23  C   -0.191189
    24  C    0.240310
    27  C    0.535179
    30  C    0.612461
    31  C   -0.144695
    33  C    0.277122
    35  C   -0.354600
    37  C    0.453060
    39  C   -1.078466
 Electronic spatial extent (au):  <R**2>=           4939.4718
 Charge=              1.0000 electrons
 Dipole moment (field-independent basis, Debye):
    X=             12.8362    Y=             10.8477    Z=              4.6330  Tot=             17.4328
 Quadrupole moment (field-independent basis, Debye-Ang):
   XX=            -57.2929   YY=            -70.0216   ZZ=            -95.9418
   XY=             35.1552   XZ=             14.2756   YZ=              7.9984
 Traceless Quadrupole moment (field-independent basis, Debye-Ang):
   XX=             17.1259   YY=              4.3972   ZZ=            -21.5231
   XY=             35.1552   XZ=             14.2756   YZ=              7.9984
 Octapole moment (field-independent basis, Debye-Ang**2):
  XXX=            142.8380  YYY=            118.2715  ZZZ=             22.1980  XYY=            148.5892
  XXY=            135.3824  XXZ=             59.5952  XZZ=             46.2583  YZZ=             31.5711
  YYZ=             46.9000  XYZ=             69.7234
 Hexadecapole moment (field-independent basis, Debye-Ang**3):
 XXXX=          -2607.2793 YYYY=          -1671.8224 ZZZZ=           -967.3947 XXXY=            525.9520
 XXXZ=            247.9119 YYYX=            373.6730 YYYZ=            130.8949 ZZZX=             61.7511
 ZZZY=             59.2514 XXYY=           -495.5628 XXZZ=           -627.6510 YYZZ=           -417.0642
 XXYZ=            149.9337 YYXZ=            149.4551 ZZXY=             90.1526
 N-N= 1.438145532120D+03 E-N=-4.641317189136D+03  KE= 7.639851978027D+02
 Leave Link  601 at Sun Jul 18 18:43:19 2021, MaxMem=   262144000 cpu:               0.5 elap:               0.4
 (Enter /dades/curu/g16A03_MST/g16/l9999.exe)
 1\1\GINC-PIRINEUS19\SP\RMP2-FC\Aug-CC-pVDZ\C17H21N2(1+)\UBATOR02\18-Ju
 l-2021\0\\#p mp2/aug-cc-pVDZ scf=tight maxdisk=180GB geom=allcheck\\SE
 T_328_BBB20_conf1.geo_105_285_180 geometry\\1,1\N,0,-2.9875292917,-1.3
 72199849,-2.89342679\H,0,-3.2225465922,-2.3576773065,-3.0756123421\H,0
 ,-2.4131562913,-1.0504456856,-3.6838568736\C,0,-2.288453362,-1.1901365
 983,-1.573741383\H,0,-2.9990062938,-1.4912153885,-0.8040762832\H,0,-2.
 0900773955,-0.1245031406,-1.4629160312\C,0,-1.0101145542,-2.0111013305
 ,-1.5034388147\H,0,-0.3119800922,-1.6879068491,-2.281527731\H,0,-1.235
 5086986,-3.0656690251,-1.6904041316\C,0,-0.3526084871,-1.9175465134,-0
 .1244799452\H,0,0.5103170651,-2.5984333254,-0.097112005\H,0,-1.0588368
 825,-2.2833944136,0.6233550355\N,0,-0.009055713,-0.5435664123,0.246836
 2615\C,0,0.0769761207,-0.2523406842,1.6452995438\C,0,0.2520390536,-1.3
 165591662,2.5489957114\H,0,0.3776386165,-2.3199064735,2.1642421872\C,0
 ,0.2912404315,-1.1151089095,3.9247039967\H,0,0.4254590032,-1.964213075
 ,4.5859760053\C,0,0.1732469196,0.1747989021,4.4359211488\H,0,0.1994740
 281,0.3555999216,5.5048888895\C,0,0.0200963219,1.2335853257,3.54667876
 22\H,0,-0.0773069017,2.2441618473,3.930974561\C,0,-0.0333657592,1.0619
 49049,2.1566433662\C,0,-0.2077082608,2.3393347666,1.3471607533\H,0,0.6
 970776518,2.9487722835,1.4636290973\H,0,-1.0131994487,2.9188223212,1.8
 104894843\C,0,-0.4918743114,2.2020098706,-0.155064948\H,0,-0.648581998
 8,3.2001619273,-0.5748317627\H,0,-1.4187648471,1.6343550792,-0.2978981
 803\C,0,0.6379852032,1.5219912562,-0.8775239585\C,0,1.4824850486,2.211
 690647,-1.7506699149\H,0,1.3013959552,3.2676590808,-1.9243641607\C,0,2
 .5298970702,1.5637072612,-2.406728573\H,0,3.1692908682,2.1137250319,-3
 .088785469\C,0,2.742782084,0.2039003206,-2.1823589932\H,0,3.553716251,
 -0.3130544228,-2.6834898735\C,0,1.919819913,-0.4967294529,-1.301477012
 5\H,0,2.0955030176,-1.5510119049,-1.1186503456\C,0,0.8705450704,0.1561
 979324,-0.6424551784\H,0,-3.8693105115,-0.8437028973,-2.9339041029\\Ve
 rsion=ES64L-G16RevA.03\State=1-A\HF=-764.7511939\MP2=-767.466458\RMSD=
 8.270e-09\PG=C01 [X(C17H21N2)]\\@


 Any fool can criticize, condemn, and complain -- and most do.
 -- Dale Carnegie
 Job cpu time:       0 days  5 hours  5 minutes  1.6 seconds.
 Elapsed time:       0 days  1 hours 29 minutes 55.2 seconds.
 File lengths (MBytes):  RWF= 130208 Int=      0 D2E=      0 Chk=     32 Scr=      1
 Normal termination of Gaussian 16 at Sun Jul 18 18:43:21 2021.
