 Entering Gaussian System, Link 0=g16
 Input=SET_328_BBB30_conf1.geo_060_075_270_OCTANOL.dat
 Output=SET_328_BBB30_conf1.geo_060_075_270_OCTANOL.log
 Initial command:
 /dades/curu/g16A03_MST/g16/l1.exe "/tmp/ubator02/1839622/Gau-136954.inp" -scrdir="/tmp/ubator02/1839622/"
 Entering Link 1 = /dades/curu/g16A03_MST/g16/l1.exe PID=    136957.
  
 Copyright (c) 1988,1990,1992,1993,1995,1998,2003,2009,2016,
            Gaussian, Inc.  All Rights Reserved.
  
 This is part of the Gaussian(R) 16 program.  It is based on
 the Gaussian(R) 09 system (copyright 2009, Gaussian, Inc.),
 the Gaussian(R) 03 system (copyright 2003, Gaussian, Inc.),
 the Gaussian(R) 98 system (copyright 1998, Gaussian, Inc.),
 the Gaussian(R) 94 system (copyright 1995, Gaussian, Inc.),
 the Gaussian 92(TM) system (copyright 1992, Gaussian, Inc.),
 the Gaussian 90(TM) system (copyright 1990, Gaussian, Inc.),
 the Gaussian 88(TM) system (copyright 1988, Gaussian, Inc.),
 the Gaussian 86(TM) system (copyright 1986, Carnegie Mellon
 University), and the Gaussian 82(TM) system (copyright 1983,
 Carnegie Mellon University). Gaussian is a federally registered
 trademark of Gaussian, Inc.
  
 This software contains proprietary and confidential information,
 including trade secrets, belonging to Gaussian, Inc.
  
 This software is provided under written license and may be
 used, copied, transmitted, or stored only in accord with that
 written license.
  
 The following legend is applicable only to US Government
 contracts under FAR:
  
                    RESTRICTED RIGHTS LEGEND
  
 Use, reproduction and disclosure by the US Government is
 subject to restrictions as set forth in subparagraphs (a)
 and (c) of the Commercial Computer Software - Restricted
 Rights clause in FAR 52.227-19.
  
 Gaussian, Inc.
 340 Quinnipiac St., Bldg. 40, Wallingford CT 06492
  
  
 ---------------------------------------------------------------
 Warning -- This program may not be used in any manner that
 competes with the business of Gaussian, Inc. or will provide
 assistance to any competitor of Gaussian, Inc.  The licensee
 of this program is prohibited from giving any competitor of
 Gaussian, Inc. access to this program.  By using this program,
 the user acknowledges that Gaussian, Inc. is engaged in the
 business of creating and licensing software in the field of
 computational chemistry and represents and warrants to the
 licensee that it is not a competitor of Gaussian, Inc. and that
 it will not use this program in any manner prohibited above.
 ---------------------------------------------------------------
  

 Cite this work as:
 Gaussian 16, Revision A.03,
 M. J. Frisch, G. W. Trucks, H. B. Schlegel, G. E. Scuseria, 
 M. A. Robb, J. R. Cheeseman, G. Scalmani, V. Barone, 
 G. A. Petersson, H. Nakatsuji, X. Li, M. Caricato, A. V. Marenich, 
 J. Bloino, B. G. Janesko, R. Gomperts, B. Mennucci, H. P. Hratchian, 
 J. V. Ortiz, A. F. Izmaylov, J. L. Sonnenberg, D. Williams-Young, 
 F. Ding, F. Lipparini, F. Egidi, J. Goings, B. Peng, A. Petrone, 
 T. Henderson, D. Ranasinghe, V. G. Zakrzewski, J. Gao, N. Rega, 
 G. Zheng, W. Liang, M. Hada, M. Ehara, K. Toyota, R. Fukuda, 
 J. Hasegawa, M. Ishida, T. Nakajima, Y. Honda, O. Kitao, H. Nakai, 
 T. Vreven, K. Throssell, J. A. Montgomery, Jr., J. E. Peralta, 
 F. Ogliaro, M. J. Bearpark, J. J. Heyd, E. N. Brothers, K. N. Kudin, 
 V. N. Staroverov, T. A. Keith, R. Kobayashi, J. Normand, 
 K. Raghavachari, A. P. Rendell, J. C. Burant, S. S. Iyengar, 
 J. Tomasi, M. Cossi, J. M. Millam, M. Klene, C. Adamo, R. Cammi, 
 J. W. Ochterski, R. L. Martin, K. Morokuma, O. Farkas, 
 J. B. Foresman, and D. J. Fox, Gaussian, Inc., Wallingford CT, 2016.
 
 ******************************************
 Gaussian 16:  ES64L-G16RevA.03 25-Dec-2016
                18-Jul-2021 
 ******************************************
 %mem=800MB
 %nproc=4
 Will use up to    4 processors via shared memory.
 %chk=SET_328_BBB30_conf1.geo_060_075_270.chk
 ---------------------------------------------------------------
 #p b3lyp/6-31G(d) opt freq scrf=(iefpcm,read,solvent=n-octanol)
 ---------------------------------------------------------------
 1/18=20,19=15,26=3,38=1,40=2/1,3;
 2/9=110,12=2,17=6,18=5,40=1/2;
 3/5=1,6=6,7=1,11=2,25=1,30=1,70=2203,71=1,72=25,74=-5/1,2,3;
 4//1;
 5/5=2,38=5,53=25/2;
 6/7=2,8=2,9=2,10=2,28=1/1;
 7//1,2,3,16;
 1/18=20,19=15,26=3/3(2);
 2/9=110/2;
 99//99;
 2/9=110/2;
 3/5=1,6=6,7=1,11=2,25=1,30=1,70=2205,71=1,72=25,74=-5/1,2,3;
 4/5=5,16=3,69=1/1;
 5/5=2,38=5,53=25/2;
 7//1,2,3,16;
 1/18=20,19=15,26=3/3(-5);
 2/9=110/2;
 6/7=2,8=2,9=2,10=2,19=2,28=1/1;
 99/9=1/99;
 Leave Link    1 at Sun Jul 18 14:21:06 2021, MaxMem=   104857600 cpu:               0.1 elap:               0.1
 (Enter /dades/curu/g16A03_MST/g16/l101.exe)
 --------------------------------------------
 SET_328_BBB30_conf1.geo_060_075_270 geometry
 --------------------------------------------
 Symbolic Z-matrix:
 Charge =  1 Multiplicity = 1
 C                    -1.737     0.985    -1.086 
 H                    -2.435     1.473    -1.772 
 H                    -0.725     1.397    -1.124 
 H                    -2.184     1.272    -0.131 
 N                    -1.701    -0.534    -1.137 
 H                    -1.066    -0.81     -1.858 
 C                    -1.29     -1.182     0.114 
 C                    -1.722    -2.652     0.097 
 H                    -2.799    -2.696    -0.08 
 H                    -1.596    -3.004     1.123 
 H                    -1.132    -3.251    -0.6 
 H                    -1.647    -0.638     0.991 
 C                     0.258    -1.337     0.022 
 H                     0.619    -1.813    -0.892 
 H                     0.578    -1.963     0.858 
 C                     0.915    -0.021     0.224 
 C                     0.743     0.728     1.434 
 H                    -0.05      0.397     2.1 
 C                     1.455     1.849     1.674 
 H                     1.252     2.359     2.612 
 C                     2.425     2.25      0.751 
 H                     3.066     3.076     1.048 
 C                     2.385     1.681    -0.563 
 H                     3.159     1.998    -1.258 
 C                     1.64      0.508    -0.779 
 H                     1.632    -0.02     -1.73 
 H                    -2.614    -0.863    -1.377 
 
 ITRead=  0  0  0  0  0  0  0  0  0  0  0  0  0  0  0  0  0  0  0  0
 ITRead=  0  0  0  0  0  0  0
 MicOpt= -1 -1 -1 -1 -1 -1 -1 -1 -1 -1 -1 -1 -1 -1 -1 -1 -1 -1 -1 -1
 MicOpt= -1 -1 -1 -1 -1 -1 -1
 NAtoms=     27 NQM=       27 NQMF=       0 NMMI=      0 NMMIF=      0
                NMic=       0 NMicF=      0.
                    Isotopes and Nuclear Properties:
 (Nuclear quadrupole moments (NQMom) in fm**2, nuclear magnetic moments (NMagM)
  in nuclear magnetons)

  Atom         1           2           3           4           5           6           7           8           9          10
 IAtWgt=          12           1           1           1          14           1          12          12           1           1
 AtmWgt=  12.0000000   1.0078250   1.0078250   1.0078250  14.0030740   1.0078250  12.0000000  12.0000000   1.0078250   1.0078250
 NucSpn=           0           1           1           1           2           1           0           0           1           1
 AtZEff=  -0.0000000  -0.0000000  -0.0000000  -0.0000000  -0.0000000  -0.0000000  -0.0000000  -0.0000000  -0.0000000  -0.0000000
 NQMom=    0.0000000   0.0000000   0.0000000   0.0000000   2.0440000   0.0000000   0.0000000   0.0000000   0.0000000   0.0000000
 NMagM=    0.0000000   2.7928460   2.7928460   2.7928460   0.4037610   2.7928460   0.0000000   0.0000000   2.7928460   2.7928460
 AtZNuc=   6.0000000   1.0000000   1.0000000   1.0000000   7.0000000   1.0000000   6.0000000   6.0000000   1.0000000   1.0000000

  Atom        11          12          13          14          15          16          17          18          19          20
 IAtWgt=           1           1          12           1           1          12          12           1          12           1
 AtmWgt=   1.0078250   1.0078250  12.0000000   1.0078250   1.0078250  12.0000000  12.0000000   1.0078250  12.0000000   1.0078250
 NucSpn=           1           1           0           1           1           0           0           1           0           1
 AtZEff=  -0.0000000  -0.0000000  -0.0000000  -0.0000000  -0.0000000  -0.0000000  -0.0000000  -0.0000000  -0.0000000  -0.0000000
 NQMom=    0.0000000   0.0000000   0.0000000   0.0000000   0.0000000   0.0000000   0.0000000   0.0000000   0.0000000   0.0000000
 NMagM=    2.7928460   2.7928460   0.0000000   2.7928460   2.7928460   0.0000000   0.0000000   2.7928460   0.0000000   2.7928460
 AtZNuc=   1.0000000   1.0000000   6.0000000   1.0000000   1.0000000   6.0000000   6.0000000   1.0000000   6.0000000   1.0000000

  Atom        21          22          23          24          25          26          27
 IAtWgt=          12           1          12           1          12           1           1
 AtmWgt=  12.0000000   1.0078250  12.0000000   1.0078250  12.0000000   1.0078250   1.0078250
 NucSpn=           0           1           0           1           0           1           1
 AtZEff=  -0.0000000  -0.0000000  -0.0000000  -0.0000000  -0.0000000  -0.0000000  -0.0000000
 NQMom=    0.0000000   0.0000000   0.0000000   0.0000000   0.0000000   0.0000000   0.0000000
 NMagM=    0.0000000   2.7928460   0.0000000   2.7928460   0.0000000   2.7928460   2.7928460
 AtZNuc=   6.0000000   1.0000000   6.0000000   1.0000000   6.0000000   1.0000000   1.0000000
 Leave Link  101 at Sun Jul 18 14:21:06 2021, MaxMem=   104857600 cpu:               0.1 elap:               0.1
 (Enter /dades/curu/g16A03_MST/g16/l103.exe)

 GradGradGradGradGradGradGradGradGradGradGradGradGradGradGradGradGradGrad
 Berny optimization.
 Initialization pass.
                           ----------------------------
                           !    Initial Parameters    !
                           ! (Angstroms and Degrees)  !
 --------------------------                            --------------------------
 ! Name  Definition              Value          Derivative Info.                !
 --------------------------------------------------------------------------------
 ! R1    R(1,2)                  1.0936         estimate D2E/DX2                !
 ! R2    R(1,3)                  1.0933         estimate D2E/DX2                !
 ! R3    R(1,4)                  1.0928         estimate D2E/DX2                !
 ! R4    R(1,5)                  1.5203         estimate D2E/DX2                !
 ! R5    R(5,6)                  0.9996         estimate D2E/DX2                !
 ! R6    R(5,7)                  1.4676         estimate D2E/DX2                !
 ! R7    R(5,27)                 0.9997         estimate D2E/DX2                !
 ! R8    R(7,8)                  1.5323         estimate D2E/DX2                !
 ! R9    R(7,12)                 1.092          estimate D2E/DX2                !
 ! R10   R(7,13)                 1.5585         estimate D2E/DX2                !
 ! R11   R(8,9)                  1.0923         estimate D2E/DX2                !
 ! R12   R(8,10)                 1.092          estimate D2E/DX2                !
 ! R13   R(8,11)                 1.0921         estimate D2E/DX2                !
 ! R14   R(13,14)                1.0919         estimate D2E/DX2                !
 ! R15   R(13,15)                1.0923         estimate D2E/DX2                !
 ! R16   R(13,16)                1.4847         estimate D2E/DX2                !
 ! R17   R(16,17)                1.4334         estimate D2E/DX2                !
 ! R18   R(16,25)                1.3459         estimate D2E/DX2                !
 ! R19   R(17,18)                1.0872         estimate D2E/DX2                !
 ! R20   R(17,19)                1.3495         estimate D2E/DX2                !
 ! R21   R(19,20)                1.0868         estimate D2E/DX2                !
 ! R22   R(19,21)                1.3977         estimate D2E/DX2                !
 ! R23   R(21,22)                1.0869         estimate D2E/DX2                !
 ! R24   R(21,23)                1.4325         estimate D2E/DX2                !
 ! R25   R(23,24)                1.0875         estimate D2E/DX2                !
 ! R26   R(23,25)                1.4063         estimate D2E/DX2                !
 ! R27   R(25,26)                1.0878         estimate D2E/DX2                !
 ! A1    A(2,1,3)              113.6303         estimate D2E/DX2                !
 ! A2    A(2,1,4)               99.7832         estimate D2E/DX2                !
 ! A3    A(2,1,5)              116.0994         estimate D2E/DX2                !
 ! A4    A(3,1,4)              108.0609         estimate D2E/DX2                !
 ! A5    A(3,1,5)              110.6975         estimate D2E/DX2                !
 ! A6    A(4,1,5)              107.5423         estimate D2E/DX2                !
 ! A7    A(1,5,6)              108.3675         estimate D2E/DX2                !
 ! A8    A(1,5,7)              114.7843         estimate D2E/DX2                !
 ! A9    A(1,5,27)             108.3757         estimate D2E/DX2                !
 ! A10   A(6,5,7)              108.3617         estimate D2E/DX2                !
 ! A11   A(6,5,27)             108.4287         estimate D2E/DX2                !
 ! A12   A(7,5,27)             108.3664         estimate D2E/DX2                !
 ! A13   A(5,7,8)              109.5838         estimate D2E/DX2                !
 ! A14   A(5,7,12)             111.9047         estimate D2E/DX2                !
 ! A15   A(5,7,13)             105.7693         estimate D2E/DX2                !
 ! A16   A(8,7,12)             113.2446         estimate D2E/DX2                !
 ! A17   A(8,7,13)             100.6013         estimate D2E/DX2                !
 ! A18   A(12,7,13)            114.9405         estimate D2E/DX2                !
 ! A19   A(7,8,9)              108.5675         estimate D2E/DX2                !
 ! A20   A(7,8,10)             105.4438         estimate D2E/DX2                !
 ! A21   A(7,8,11)             112.3932         estimate D2E/DX2                !
 ! A22   A(9,8,10)             104.6567         estimate D2E/DX2                !
 ! A23   A(9,8,11)             114.0256         estimate D2E/DX2                !
 ! A24   A(10,8,11)            111.1313         estimate D2E/DX2                !
 ! A25   A(7,13,14)            114.9079         estimate D2E/DX2                !
 ! A26   A(7,13,15)            107.6262         estimate D2E/DX2                !
 ! A27   A(7,13,16)            110.0816         estimate D2E/DX2                !
 ! A28   A(14,13,15)           107.0948         estimate D2E/DX2                !
 ! A29   A(14,13,16)           110.7312         estimate D2E/DX2                !
 ! A30   A(15,13,16)           105.9149         estimate D2E/DX2                !
 ! A31   A(13,16,17)           121.662          estimate D2E/DX2                !
 ! A32   A(13,16,25)           119.0363         estimate D2E/DX2                !
 ! A33   A(17,16,25)           119.2308         estimate D2E/DX2                !
 ! A34   A(16,17,18)           116.4585         estimate D2E/DX2                !
 ! A35   A(16,17,19)           121.3902         estimate D2E/DX2                !
 ! A36   A(18,17,19)           121.9239         estimate D2E/DX2                !
 ! A37   A(17,19,20)           116.4072         estimate D2E/DX2                !
 ! A38   A(17,19,21)           119.145          estimate D2E/DX2                !
 ! A39   A(20,19,21)           124.398          estimate D2E/DX2                !
 ! A40   A(19,21,22)           116.5423         estimate D2E/DX2                !
 ! A41   A(19,21,23)           118.1908         estimate D2E/DX2                !
 ! A42   A(22,21,23)           124.6798         estimate D2E/DX2                !
 ! A43   A(21,23,24)           116.7809         estimate D2E/DX2                !
 ! A44   A(21,23,25)           119.1445         estimate D2E/DX2                !
 ! A45   A(24,23,25)           121.4694         estimate D2E/DX2                !
 ! A46   A(16,25,23)           119.9173         estimate D2E/DX2                !
 ! A47   A(16,25,26)           117.1793         estimate D2E/DX2                !
 ! A48   A(23,25,26)           122.8921         estimate D2E/DX2                !
 ! D1    D(2,1,5,6)             85.8003         estimate D2E/DX2                !
 ! D2    D(2,1,5,7)           -152.9408         estimate D2E/DX2                !
 ! D3    D(2,1,5,27)           -31.6698         estimate D2E/DX2                !
 ! D4    D(3,1,5,6)            -45.6698         estimate D2E/DX2                !
 ! D5    D(3,1,5,7)             75.5891         estimate D2E/DX2                !
 ! D6    D(3,1,5,27)          -163.1398         estimate D2E/DX2                !
 ! D7    D(4,1,5,6)           -163.5104         estimate D2E/DX2                !
 ! D8    D(4,1,5,7)            -42.2515         estimate D2E/DX2                !
 ! D9    D(4,1,5,27)            79.0196         estimate D2E/DX2                !
 ! D10   D(1,5,7,8)            161.6217         estimate D2E/DX2                !
 ! D11   D(1,5,7,12)            35.1422         estimate D2E/DX2                !
 ! D12   D(1,5,7,13)           -90.7181         estimate D2E/DX2                !
 ! D13   D(6,5,7,8)            -77.1163         estimate D2E/DX2                !
 ! D14   D(6,5,7,12)           156.4043         estimate D2E/DX2                !
 ! D15   D(6,5,7,13)            30.544          estimate D2E/DX2                !
 ! D16   D(27,5,7,8)            40.3455         estimate D2E/DX2                !
 ! D17   D(27,5,7,12)          -86.134          estimate D2E/DX2                !
 ! D18   D(27,5,7,13)          148.0058         estimate D2E/DX2                !
 ! D19   D(5,7,8,9)            -55.7081         estimate D2E/DX2                !
 ! D20   D(5,7,8,10)          -167.4063         estimate D2E/DX2                !
 ! D21   D(5,7,8,11)            71.3723         estimate D2E/DX2                !
 ! D22   D(12,7,8,9)            70.0073         estimate D2E/DX2                !
 ! D23   D(12,7,8,10)          -41.6909         estimate D2E/DX2                !
 ! D24   D(12,7,8,11)         -162.9123         estimate D2E/DX2                !
 ! D25   D(13,7,8,9)          -166.8113         estimate D2E/DX2                !
 ! D26   D(13,7,8,10)           81.4905         estimate D2E/DX2                !
 ! D27   D(13,7,8,11)          -39.7309         estimate D2E/DX2                !
 ! D28   D(5,7,13,14)          -51.5379         estimate D2E/DX2                !
 ! D29   D(5,7,13,15)         -170.7208         estimate D2E/DX2                !
 ! D30   D(5,7,13,16)           74.287          estimate D2E/DX2                !
 ! D31   D(8,7,13,14)           62.491          estimate D2E/DX2                !
 ! D32   D(8,7,13,15)          -56.6919         estimate D2E/DX2                !
 ! D33   D(8,7,13,16)         -171.6841         estimate D2E/DX2                !
 ! D34   D(12,7,13,14)        -175.5139         estimate D2E/DX2                !
 ! D35   D(12,7,13,15)          65.3031         estimate D2E/DX2                !
 ! D36   D(12,7,13,16)         -49.6891         estimate D2E/DX2                !
 ! D37   D(7,13,16,17)          59.8747         estimate D2E/DX2                !
 ! D38   D(7,13,16,25)        -117.0395         estimate D2E/DX2                !
 ! D39   D(14,13,16,17)       -171.9669         estimate D2E/DX2                !
 ! D40   D(14,13,16,25)         11.119          estimate D2E/DX2                !
 ! D41   D(15,13,16,17)        -56.1973         estimate D2E/DX2                !
 ! D42   D(15,13,16,25)        126.8886         estimate D2E/DX2                !
 ! D43   D(13,16,17,18)        -12.7679         estimate D2E/DX2                !
 ! D44   D(13,16,17,19)        172.6114         estimate D2E/DX2                !
 ! D45   D(25,16,17,18)        164.1404         estimate D2E/DX2                !
 ! D46   D(25,16,17,19)        -10.4803         estimate D2E/DX2                !
 ! D47   D(13,16,25,23)       -173.279          estimate D2E/DX2                !
 ! D48   D(13,16,25,26)          5.532          estimate D2E/DX2                !
 ! D49   D(17,16,25,23)          9.7307         estimate D2E/DX2                !
 ! D50   D(17,16,25,26)       -171.4582         estimate D2E/DX2                !
 ! D51   D(16,17,19,20)        179.351          estimate D2E/DX2                !
 ! D52   D(16,17,19,21)         -3.1035         estimate D2E/DX2                !
 ! D53   D(18,17,19,20)          5.026          estimate D2E/DX2                !
 ! D54   D(18,17,19,21)       -177.4285         estimate D2E/DX2                !
 ! D55   D(17,19,21,22)       -171.8188         estimate D2E/DX2                !
 ! D56   D(17,19,21,23)         16.5501         estimate D2E/DX2                !
 ! D57   D(20,19,21,22)          5.5167         estimate D2E/DX2                !
 ! D58   D(20,19,21,23)       -166.1144         estimate D2E/DX2                !
 ! D59   D(19,21,23,24)       -179.1258         estimate D2E/DX2                !
 ! D60   D(19,21,23,25)        -17.1416         estimate D2E/DX2                !
 ! D61   D(22,21,23,24)          9.9845         estimate D2E/DX2                !
 ! D62   D(22,21,23,25)        171.9687         estimate D2E/DX2                !
 ! D63   D(21,23,25,16)          3.826          estimate D2E/DX2                !
 ! D64   D(21,23,25,26)       -174.9144         estimate D2E/DX2                !
 ! D65   D(24,23,25,16)        164.9381         estimate D2E/DX2                !
 ! D66   D(24,23,25,26)        -13.8023         estimate D2E/DX2                !
 --------------------------------------------------------------------------------
 Trust Radius=3.00D-01 FncErr=1.00D-07 GrdErr=1.00D-06 EigMax=2.50D+02 EigMin=1.00D-04
 Number of steps in this run=    151 maximum allowed number of steps=    162.
 GradGradGradGradGradGradGradGradGradGradGradGradGradGradGradGradGradGrad

 Leave Link  103 at Sun Jul 18 14:21:06 2021, MaxMem=   104857600 cpu:               0.0 elap:               0.0
 (Enter /dades/curu/g16A03_MST/g16/l202.exe)
                          Input orientation:                          
 ---------------------------------------------------------------------
 Center     Atomic      Atomic             Coordinates (Angstroms)
 Number     Number       Type             X           Y           Z
 ---------------------------------------------------------------------
      1          6           0       -1.737000    0.985000   -1.086000
      2          1           0       -2.435000    1.473000   -1.772000
      3          1           0       -0.725000    1.397000   -1.124000
      4          1           0       -2.184000    1.272000   -0.131000
      5          7           0       -1.701000   -0.534000   -1.137000
      6          1           0       -1.066000   -0.810000   -1.858000
      7          6           0       -1.290000   -1.182000    0.114000
      8          6           0       -1.722000   -2.652000    0.097000
      9          1           0       -2.799000   -2.696000   -0.080000
     10          1           0       -1.596000   -3.004000    1.123000
     11          1           0       -1.132000   -3.251000   -0.600000
     12          1           0       -1.647000   -0.638000    0.991000
     13          6           0        0.258000   -1.337000    0.022000
     14          1           0        0.619000   -1.813000   -0.892000
     15          1           0        0.578000   -1.963000    0.858000
     16          6           0        0.915000   -0.021000    0.224000
     17          6           0        0.743000    0.728000    1.434000
     18          1           0       -0.050000    0.397000    2.100000
     19          6           0        1.455000    1.849000    1.674000
     20          1           0        1.252000    2.359000    2.612000
     21          6           0        2.425000    2.250000    0.751000
     22          1           0        3.066000    3.076000    1.048000
     23          6           0        2.385000    1.681000   -0.563000
     24          1           0        3.159000    1.998000   -1.258000
     25          6           0        1.640000    0.508000   -0.779000
     26          1           0        1.632000   -0.020000   -1.730000
     27          1           0       -2.614000   -0.863000   -1.377000
 ---------------------------------------------------------------------
                    Distance matrix (angstroms):
                    1          2          3          4          5
     1  C    0.000000
     2  H    1.093592   0.000000
     3  H    1.093312   1.830240   0.000000
     4  H    1.092796   1.672209   1.769281   0.000000
     5  N    1.520282   2.229356   2.163679   2.122960   0.000000
     6  H    2.065974   2.663390   2.350720   2.926974   0.999621
     7  C    2.517081   3.452107   2.916009   2.623238   1.467592
     8  C    3.824589   4.584447   4.345026   3.957677   2.451351
     9  H    3.961015   4.513970   4.705748   4.015700   2.645203
    10  H    4.561982   5.397080   5.017614   4.494712   3.349556
    11  H    4.306497   5.038608   4.695118   4.667354   2.827405
    12  H    2.637453   3.565310   3.076448   2.279332   2.131224
    13  C    3.255668   4.285649   3.123197   3.576822   2.413663
    14  H    3.662946   4.571555   3.487730   4.237116   2.660501
    15  H    4.222448   5.272681   4.112874   4.367149   3.349016
    16  C    3.124298   4.175949   2.552925   3.376637   2.993150
    17  C    3.544975   4.575275   3.024227   3.363405   3.765079
    18  H    3.652713   4.673156   3.442354   3.208885   3.751097
    19  C    4.307315   5.210412   3.575683   4.102837   4.851881
    20  H    4.949465   5.796414   4.334936   4.528986   5.580740
    21  C    4.721974   5.530719   3.763739   4.793463   5.323446
    22  H    5.656416   6.386158   4.680631   5.675117   6.366366
    23  C    4.212936   4.973665   3.172929   4.607566   4.683065
    24  H    5.002656   5.642044   3.932507   5.508616   5.481356
    25  C    3.424311   4.303824   2.550014   3.953046   3.517984
    26  H    3.574202   4.332586   2.816127   4.334504   3.424140
    27  H    2.066135   2.375913   2.956337   2.509112   0.999705
                    6          7          8          9         10
     6  H    0.000000
     7  C    2.019243   0.000000
     8  C    2.765018   1.532257   0.000000
     9  H    3.117943   2.146372   1.092334   0.000000
    10  H    3.739104   2.105089   1.091996   1.728954   0.000000
    11  H    2.746889   2.194430   1.092113   1.832297   1.801398
    12  H    2.912721   1.092023   2.204780   2.590272   2.370228
    13  C    2.359047   1.558459   2.378077   3.347019   2.725510
    14  H    2.185953   2.248217   2.676252   3.622397   3.222566
    15  H    3.377692   2.157063   2.518698   3.580679   2.424909
    16  C    2.980202   2.494403   3.727205   4.587138   4.001451
    17  C    4.058964   3.086031   4.391833   5.153808   4.415367
    18  H    4.260853   2.824011   4.012978   4.677184   3.861534
    19  C    5.089278   4.376709   5.730555   6.467616   5.758803
    20  H    5.949503   5.023987   6.346654   7.015019   6.252199
    21  C    5.325182   5.097609   6.454063   7.241799   6.626563
    22  H    6.373324   6.162601   7.525911   8.305817   7.662002
    23  C    4.448765   4.707518   6.006491   6.801858   6.374965
    24  H    5.108374   5.638119   6.876241   7.675877   7.300629
    25  C    3.197468   3.498349   4.696384   5.518962   5.140374
    26  H    2.814194   3.645362   4.638391   5.432977   5.240596
    27  H    1.621874   2.019361   2.483719   2.253070   3.445316
                   11         12         13         14         15
    11  H    0.000000
    12  H    3.102302   0.000000
    13  C    2.445890   2.248686   0.000000
    14  H    2.284537   3.171919   1.091922   0.000000
    15  H    2.590137   2.593056   1.092324   1.756895   0.000000
    16  C    3.911788   2.744599   1.484692   2.131745   2.070480
    17  C    4.846155   2.788244   2.548175   3.447076   2.756897
    18  H    4.665686   2.202615   2.723913   3.779382   2.739808
    19  C    6.154157   4.034112   3.783188   4.549010   3.995789
    20  H    6.890029   4.473684   4.621315   5.484915   4.712799
    21  C    6.688681   4.997932   4.253692   4.740153   4.601329
    22  H    7.769816   6.000784   5.330301   5.801183   5.622968
    23  C    6.057663   4.904049   3.738272   3.928744   4.308506
    24  H    6.811582   5.924874   4.601785   4.594483   5.179627
    25  C    4.673982   3.905200   2.440400   2.538159   3.148564
    26  H    4.399541   4.305532   2.586865   2.223345   3.403514
    27  H    2.915921   2.567711   3.229591   3.404411   4.048961
                   16         17         18         19         20
    16  C    0.000000
    17  C    1.433417   0.000000
    18  H    2.150657   1.087183   0.000000
    19  C    2.427138   1.349513   2.134199   0.000000
    20  H    3.388291   2.075313   2.409729   1.086809   0.000000
    21  C    2.777637   2.368986   3.373283   1.397723   2.202528
    22  H    3.859687   3.325422   4.241839   2.119605   2.500156
    23  C    2.382661   2.755428   3.830072   2.428434   3.438604
    24  H    3.362770   3.833643   4.912947   3.394472   4.329419
    25  C    1.345910   2.397995   3.340219   2.801734   3.882734
    26  H    2.081395   3.370567   4.203797   3.887378   4.965582
    27  H    3.965603   4.658589   4.500136   5.763706   6.421788
                   21         22         23         24         25
    21  C    0.000000
    22  H    1.086907   0.000000
    23  C    1.432465   2.237210   0.000000
    24  H    2.153681   2.547228   1.087470   0.000000
    25  C    2.447793   3.459195   1.406275   2.181032   0.000000
    26  H    3.455012   4.399870   2.195973   2.574264   1.087772
    27  H    6.293701   7.325213   5.667851   6.444145   4.509297
                   26         27
    26  H    0.000000
    27  H    4.343245   0.000000
 Stoichiometry    C10H16N(1+)
 Framework group  C1[X(C10H16N)]
 Deg. of freedom    75
 Full point group                 C1      NOp   1
 Largest Abelian subgroup         C1      NOp   1
 Largest concise Abelian subgroup C1      NOp   1
                         Standard orientation:                         
 ---------------------------------------------------------------------
 Center     Atomic      Atomic             Coordinates (Angstroms)
 Number     Number       Type             X           Y           Z
 ---------------------------------------------------------------------
      1          6           0        1.028623    1.997372   -0.692190
      2          1           0        1.351054    3.033384   -0.828797
      3          1           0        0.024079    1.902940   -0.271113
      4          1           0        0.990112    1.675730   -1.735869
      5          7           0        2.003390    1.083664    0.033223
      6          1           0        1.852833    1.179792    1.016754
      7          6           0        1.890015   -0.337475   -0.315110
      8          6           0        3.169884   -1.071363    0.098602
      9          1           0        4.022244   -0.576667   -0.372516
     10          1           0        3.114664   -2.048193   -0.386382
     11          1           0        3.258706   -1.174256    1.182222
     12          1           0        1.632317   -0.479875   -1.366693
     13          6           0        0.872371   -0.942134    0.698588
     14          1           0        1.089685   -0.733596    1.748150
     15          1           0        0.889297   -2.027502    0.576683
     16          6           0       -0.506812   -0.515047    0.352524
     17          6           0       -1.096599   -0.831158   -0.915115
     18          1           0       -0.423507   -1.204516   -1.682916
     19          6           0       -2.395980   -0.570991   -1.170274
     20          1           0       -2.755951   -0.833764   -2.161498
     21          6           0       -3.196443   -0.041362   -0.154212
     22          1           0       -4.261834    0.023718   -0.359326
     23          6           0       -2.549057    0.536441    0.985522
     24          1           0       -3.193622    0.928370    1.768795
     25          6           0       -1.196014    0.239769    1.228156
     26          1           0       -0.666997    0.578611    2.116174
     27          1           0        2.933263    1.385856   -0.175170
 ---------------------------------------------------------------------
 Rotational constants (GHZ):           2.0961022           0.6862080           0.6468804
 Leave Link  202 at Sun Jul 18 14:21:06 2021, MaxMem=   104857600 cpu:               0.1 elap:               0.0
 (Enter /dades/curu/g16A03_MST/g16/l301.exe)
 Standard basis: 6-31G(d) (6D, 7F)
 Ernie: Thresh=  0.10000D-02 Tol=  0.10000D-05 Strict=F.
 There are   197 symmetry adapted cartesian basis functions of A   symmetry.
 There are   197 symmetry adapted basis functions of A   symmetry.
   197 basis functions,   372 primitive gaussians,   197 cartesian basis functions
    41 alpha electrons       41 beta electrons
       nuclear repulsion energy       626.7827625211 Hartrees.
 IExCor=  402 DFT=T Ex+Corr=B3LYP ExCW=0 ScaHFX=  0.200000
 ScaDFX=  0.800000  0.720000  1.000000  0.810000 ScalE2=  1.000000  1.000000
 IRadAn=      5 IRanWt=     -1 IRanGd=            0 ICorTp=0 IEmpDi=  4
 NAtoms=   27 NActive=   27 NUniq=   27 SFac= 1.00D+00 NAtFMM=   60 NAOKFM=F Big=F
 Integral buffers will be    131072 words long.
 Raffenetti 2 integral format.
 Two-electron integral symmetry is turned on.
 Using the following non-standard input for PCM:
 MSTModel=DFT cav MSTCharged
 --- end of non-standard input.
 MST model for solvation energy: B3LYP parametrization.
 MST cavity parameters:
 ISph   IAn     Re0     Alpha   Atom Type   QCorr
 ------------------------------------------------
   1      6     1.50     1.50      CN+        F
   2      1     1.20     1.50      CN+        F
   3      1     1.20     1.50      CN+        F
   4      1     1.20     1.50      CN+        F
   5      7     1.50     1.15      NH+        T
   6      1     0.90     1.15      NH+        T
   7      6     1.50     1.50      CN+        F
   8      6     1.50     1.50      CH3        F
   9      1     1.20     1.50      CH3        F
  10      1     1.20     1.50      CH3        F
  11      1     1.20     1.50      CH3        F
  12      1     1.20     1.50      CN+        F
  13      6     1.50     1.50      CH2        F
  14      1     1.20     1.50      CH2        F
  15      1     1.20     1.50      CH2        F
  16      6     1.50     1.50      C          F
  17      6     1.50     1.50      CH         F
  18      1     1.20     1.50      CH         F
  19      6     1.50     1.50      CH         F
  20      1     1.20     1.50      CH         F
  21      6     1.50     1.50      CH         F
  22      1     1.20     1.50      CH         F
  23      6     1.50     1.50      CH         F
  24      1     1.20     1.50      CH         F
  25      6     1.50     1.50      CH         F
  26      1     1.20     1.50      CH         F
  27      1     0.90     1.15      NH+        T
 ------------------------------------------------------------------------------
 Polarizable Continuum Model (PCM)
 =================================
 Model                : PCM.
 Atomic radii         : MST.
 Polarization charges : Total charges.
 Charge compensation  : None.
 Solution method      : On-the-fly selection.
 Cavity type          : Scaled VdW (van der Waals Surface) (Alpha=1.500).
 Cavity algorithm     : GePol (No added spheres)
                        Default sphere list used, NSphG=   27.
                        Lebedev-Laikov grids with approx.  5.0 points / Ang**2.
                        Smoothing algorithm: York/Karplus (Gamma=1.0000).
                        Polarization charges: spherical gaussians, with
                                              point-specific exponents (IZeta= 3).
                        Self-potential: point-specific (ISelfS= 7).
                        Self-field    : sphere-specific E.n sum rule (ISelfD= 2).
 1st derivatives      : Analytical E(r).r(x)/FMM algorithm (CHGder, D1EAlg=3).
                        Cavity 1st derivative terms included.
 Solvent              : n-Octanol, Eps=   9.862900 Eps(inf)=   2.043470
 ------------------------------------------------------------------------------
 GePol: Number of generator spheres                  =      27
 GePol: Total number of spheres                      =      27
 GePol: Number of exposed spheres                    =      27 (100.00%)
 GePol: Number of points                             =    2450
 GePol: Average weight of points                     =       0.11
 GePol: Minimum weight of points                     =   0.12D-09
 GePol: Maximum weight of points                     =    0.21373
 GePol: Number of points with low weight             =     144
 GePol: Fraction of low-weight points (<1% of avg)   =       5.88%
 GePol: Cavity surface area                          =    258.811 Ang**2
 GePol: Cavity volume                                =    289.099 Ang**3
 Surface areas from nonelectrostatic (unscaled) cavity and vdw tensions:
 Sphere =    1 Type =  CN+ Surf =        5.436 Tension =       -0.227
 Sphere =    2 Type =  CN+ Surf =       10.144 Tension =       -0.227
 Sphere =    3 Type =  CN+ Surf =        9.073 Tension =       -0.227
 Sphere =    4 Type =  CN+ Surf =        9.592 Tension =       -0.227
 Sphere =    5 Type =  NH+ Surf =        7.843 Tension =       -0.274
 Sphere =    6 Type =  NH+ Surf =        3.804 Tension =       -0.274
 Sphere =    7 Type =  CN+ Surf =        2.779 Tension =       -0.227
 Sphere =    8 Type =  CH3 Surf =        4.674 Tension =       -0.183
 Sphere =    9 Type =  CH3 Surf =       10.062 Tension =       -0.183
 Sphere =   10 Type =  CH3 Surf =        9.969 Tension =       -0.183
 Sphere =   11 Type =  CH3 Surf =        9.646 Tension =       -0.183
 Sphere =   12 Type =  CN+ Surf =        8.971 Tension =       -0.227
 Sphere =   13 Type =  CH2 Surf =        2.989 Tension =       -0.194
 Sphere =   14 Type =  CH2 Surf =        9.243 Tension =       -0.194
 Sphere =   15 Type =  CH2 Surf =        9.696 Tension =       -0.194
 Sphere =   16 Type =  C   Surf =        5.220 Tension =       -0.205
 Sphere =   17 Type =  CH  Surf =        7.588 Tension =       -0.195
 Sphere =   18 Type =  CH  Surf =        9.495 Tension =       -0.195
 Sphere =   19 Type =  CH  Surf =        7.660 Tension =       -0.195
 Sphere =   20 Type =  CH  Surf =       10.215 Tension =       -0.195
 Sphere =   21 Type =  CH  Surf =        7.975 Tension =       -0.195
 Sphere =   22 Type =  CH  Surf =       10.245 Tension =       -0.195
 Sphere =   23 Type =  CH  Surf =        8.036 Tension =       -0.195
 Sphere =   24 Type =  CH  Surf =       10.243 Tension =       -0.195
 Sphere =   25 Type =  CH  Surf =        6.970 Tension =       -0.195
 Sphere =   26 Type =  CH  Surf =        9.733 Tension =       -0.195
 Sphere =   27 Type =  NH+ Surf =        3.834 Tension =       -0.274
 PCM non-electrostatic energy =        -0.0128844503 Hartrees.
 Nuclear repulsion after PCM non-electrostatic terms =      626.7698780709 Hartrees.
 Leave Link  301 at Sun Jul 18 14:21:06 2021, MaxMem=   104857600 cpu:               0.1 elap:               0.1
 (Enter /dades/curu/g16A03_MST/g16/l302.exe)
 NPDir=0 NMtPBC=     1 NCelOv=     1 NCel=       1 NClECP=     1 NCelD=      1
         NCelK=      1 NCelE2=     1 NClLst=     1 CellRange=     0.0.
 One-electron integrals computed using PRISM.
 One-electron integral symmetry used in STVInt
 NBasis=   197 RedAO= T EigKep=  6.12D-04  NBF=   197
 NBsUse=   197 1.00D-06 EigRej= -1.00D+00 NBFU=   197
 Precomputing XC quadrature grid using
 IXCGrd= 4 IRadAn=           5 IRanWt=          -1 IRanGd=           0 AccXCQ= 0.00D+00.
 Generated NRdTot=       0 NPtTot=           0 NUsed=           0 NTot=          32
 NSgBfM=   197   197   197   197   197 MxSgAt=    27 MxSgA2=    27.
 Leave Link  302 at Sun Jul 18 14:21:07 2021, MaxMem=   104857600 cpu:               2.9 elap:               0.8
 (Enter /dades/curu/g16A03_MST/g16/l303.exe)
 DipDrv:  MaxL=1.
 Leave Link  303 at Sun Jul 18 14:21:07 2021, MaxMem=   104857600 cpu:               0.1 elap:               0.0
 (Enter /dades/curu/g16A03_MST/g16/l401.exe)
 ExpMin= 1.61D-01 ExpMax= 4.17D+03 ExpMxC= 6.27D+02 IAcc=3 IRadAn=         5 AccDes= 0.00D+00
 Harris functional with IExCor=  402 and IRadAn=       5 diagonalized for initial guess.
 HarFok:  IExCor=  402 AccDes= 0.00D+00 IRadAn=         5 IDoV= 1 UseB2=F ITyADJ=14
 ICtDFT=  3500011 ScaDFX=  1.000000  1.000000  1.000000  1.000000
 FoFCou: FMM=F IPFlag=           0 FMFlag=      100000 FMFlg1=           0
         NFxFlg=           0 DoJE=T BraDBF=F KetDBF=T FulRan=T
         wScrn=  0.000000 ICntrl=       500 IOpCl=  0 I1Cent=   200000004 NGrid=           0
         NMat0=    1 NMatS0=      1 NMatT0=    0 NMatD0=    1 NMtDS0=    0 NMtDT0=    0
 Petite list used in FoFCou.
 Harris En= -445.259573271051    
 JPrj=0 DoOrth=F DoCkMO=F.
 Leave Link  401 at Sun Jul 18 14:21:12 2021, MaxMem=   104857600 cpu:              20.5 elap:               5.2
 (Enter /dades/curu/g16A03_MST/g16/l502.exe)
 Integral symmetry usage will be decided dynamically.
 Closed shell SCF:
 Using DIIS extrapolation, IDIIS=  1040.
 NGot=   104857600 LenX=   104776336 LenY=   104737086
 Requested convergence on RMS density matrix=1.00D-08 within 128 cycles.
 Requested convergence on MAX density matrix=1.00D-06.
 Requested convergence on             energy=1.00D-06.
 No special actions if energy rises.
 Fock matrices will be formed incrementally for  20 cycles.

 Cycle   1  Pass 1  IDiag  1:
 FoFJK:  IHMeth= 1 ICntrl=       0 DoSepK=F KAlg= 0 I1Cent=           0 FoldK=F
 IRaf= 930000000 NMat=       1 IRICut=       1 DoRegI=T DoRafI=F ISym2E= 0 IDoP0=0 IntGTp=1.
 FoFCou: FMM=F IPFlag=           0 FMFlag=      100000 FMFlg1=           0
         NFxFlg=           0 DoJE=F BraDBF=F KetDBF=F FulRan=T
         wScrn=  0.000000 ICntrl=         0 IOpCl=  0 I1Cent=           0 NGrid=           0
         NMat0=    1 NMatS0=      1 NMatT0=    0 NMatD0=    1 NMtDS0=    0 NMtDT0=    0
 Symmetry not used in FoFCou.
 Inv3:  Mode=1 IEnd=    18007500.
 Iteration    1 A*A^-1 deviation from unit magnitude is 7.66D-15 for    609.
 Iteration    1 A*A^-1 deviation from orthogonality  is 2.44D-15 for   2409   1138.
 Iteration    1 A^-1*A deviation from unit magnitude is 7.44D-15 for    611.
 Iteration    1 A^-1*A deviation from orthogonality  is 7.74D-13 for   1957   1915.
 E= -445.011591700001    
 DIIS: error= 3.27D-02 at cycle   1 NSaved=   1.
 NSaved= 1 IEnMin= 1 EnMin= -445.011591700001     IErMin= 1 ErrMin= 3.27D-02
 ErrMax= 3.27D-02  0.00D+00 EMaxC= 1.00D-01 BMatC= 2.47D-01 BMatP= 2.47D-01
 IDIUse=3 WtCom= 6.73D-01 WtEn= 3.27D-01
 Coeff-Com:  0.100D+01
 Coeff-En:   0.100D+01
 Coeff:      0.100D+01
 Gap=     0.223 Goal=   None    Shift=    0.000
 GapD=    0.223 DampG=1.000 DampE=0.500 DampFc=0.5000 IDamp=-1.
 Damping current iteration by 5.00D-01
 RMSDP=5.32D-03 MaxDP=1.25D-01              OVMax= 1.43D-01

 Cycle   2  Pass 1  IDiag  1:
 RMSU=  2.61D-03    CP:  9.76D-01
 E= -445.141438962240     Delta-E=       -0.129847262239 Rises=F Damp=T
 DIIS: error= 6.26D-03 at cycle   2 NSaved=   2.
 NSaved= 2 IEnMin= 2 EnMin= -445.141438962240     IErMin= 2 ErrMin= 6.26D-03
 ErrMax= 6.26D-03  0.00D+00 EMaxC= 1.00D-01 BMatC= 1.22D-02 BMatP= 2.47D-01
 IDIUse=3 WtCom= 9.37D-01 WtEn= 6.26D-02
 Coeff-Com: -0.133D-01 0.101D+01
 Coeff-En:   0.000D+00 0.100D+01
 Coeff:     -0.125D-01 0.101D+01
 Gap=     0.266 Goal=   None    Shift=    0.000
 RMSDP=1.40D-03 MaxDP=2.29D-02 DE=-1.30D-01 OVMax= 7.99D-02

 Cycle   3  Pass 1  IDiag  1:
 RMSU=  1.37D-03    CP:  9.68D-01  9.29D-01
 E= -445.276303970114     Delta-E=       -0.134865007873 Rises=F Damp=F
 DIIS: error= 2.69D-03 at cycle   3 NSaved=   3.
 NSaved= 3 IEnMin= 3 EnMin= -445.276303970114     IErMin= 3 ErrMin= 2.69D-03
 ErrMax= 2.69D-03  0.00D+00 EMaxC= 1.00D-01 BMatC= 2.08D-03 BMatP= 1.22D-02
 IDIUse=3 WtCom= 9.73D-01 WtEn= 2.69D-02
 Coeff-Com: -0.415D-01 0.256D+00 0.786D+00
 Coeff-En:   0.000D+00 0.000D+00 0.100D+01
 Coeff:     -0.404D-01 0.249D+00 0.792D+00
 Gap=     0.221 Goal=   None    Shift=    0.000
 RMSDP=3.84D-04 MaxDP=7.41D-03 DE=-1.35D-01 OVMax= 1.79D-02

 Cycle   4  Pass 1  IDiag  1:
 RMSU=  2.70D-04    CP:  9.69D-01  9.77D-01  8.23D-01
 E= -445.277652186625     Delta-E=       -0.001348216511 Rises=F Damp=F
 DIIS: error= 1.79D-03 at cycle   4 NSaved=   4.
 NSaved= 4 IEnMin= 4 EnMin= -445.277652186625     IErMin= 4 ErrMin= 1.79D-03
 ErrMax= 1.79D-03  0.00D+00 EMaxC= 1.00D-01 BMatC= 6.23D-04 BMatP= 2.08D-03
 IDIUse=3 WtCom= 9.82D-01 WtEn= 1.79D-02
 Coeff-Com: -0.195D-01 0.798D-01 0.404D+00 0.536D+00
 Coeff-En:   0.000D+00 0.000D+00 0.194D+00 0.806D+00
 Coeff:     -0.192D-01 0.784D-01 0.400D+00 0.540D+00
 Gap=     0.221 Goal=   None    Shift=    0.000
 RMSDP=1.65D-04 MaxDP=5.59D-03 DE=-1.35D-03 OVMax= 1.28D-02

 Cycle   5  Pass 1  IDiag  1:
 RMSU=  1.11D-04    CP:  9.68D-01  9.77D-01  8.57D-01  5.83D-01
 E= -445.278193816870     Delta-E=       -0.000541630245 Rises=F Damp=F
 DIIS: error= 7.39D-04 at cycle   5 NSaved=   5.
 NSaved= 5 IEnMin= 5 EnMin= -445.278193816870     IErMin= 5 ErrMin= 7.39D-04
 ErrMax= 7.39D-04  0.00D+00 EMaxC= 1.00D-01 BMatC= 9.07D-05 BMatP= 6.23D-04
 IDIUse=3 WtCom= 9.93D-01 WtEn= 7.39D-03
 Coeff-Com: -0.566D-02 0.123D-01 0.128D+00 0.313D+00 0.553D+00
 Coeff-En:   0.000D+00 0.000D+00 0.000D+00 0.125D+00 0.875D+00
 Coeff:     -0.562D-02 0.122D-01 0.127D+00 0.311D+00 0.555D+00
 Gap=     0.221 Goal=   None    Shift=    0.000
 RMSDP=5.77D-05 MaxDP=1.64D-03 DE=-5.42D-04 OVMax= 4.42D-03

 Cycle   6  Pass 1  IDiag  1:
 RMSU=  2.30D-05    CP:  9.68D-01  9.77D-01  8.56D-01  6.78D-01  5.82D-01
 E= -445.278287636208     Delta-E=       -0.000093819338 Rises=F Damp=F
 DIIS: error= 1.41D-04 at cycle   6 NSaved=   6.
 NSaved= 6 IEnMin= 6 EnMin= -445.278287636208     IErMin= 6 ErrMin= 1.41D-04
 ErrMax= 1.41D-04  0.00D+00 EMaxC= 1.00D-01 BMatC= 4.51D-06 BMatP= 9.07D-05
 IDIUse=3 WtCom= 9.99D-01 WtEn= 1.41D-03
 Coeff-Com: -0.244D-02 0.424D-02 0.564D-01 0.155D+00 0.315D+00 0.472D+00
 Coeff-En:   0.000D+00 0.000D+00 0.000D+00 0.000D+00 0.000D+00 0.100D+01
 Coeff:     -0.244D-02 0.424D-02 0.563D-01 0.155D+00 0.314D+00 0.473D+00
 Gap=     0.221 Goal=   None    Shift=    0.000
 RMSDP=1.25D-05 MaxDP=3.36D-04 DE=-9.38D-05 OVMax= 7.07D-04

 Cycle   7  Pass 1  IDiag  1:
 RMSU=  5.39D-06    CP:  9.68D-01  9.77D-01  8.59D-01  6.68D-01  6.14D-01
                    CP:  6.17D-01
 E= -445.278292092248     Delta-E=       -0.000004456040 Rises=F Damp=F
 DIIS: error= 1.74D-05 at cycle   7 NSaved=   7.
 NSaved= 7 IEnMin= 7 EnMin= -445.278292092248     IErMin= 7 ErrMin= 1.74D-05
 ErrMax= 1.74D-05  0.00D+00 EMaxC= 1.00D-01 BMatC= 1.21D-07 BMatP= 4.51D-06
 IDIUse=1 WtCom= 1.00D+00 WtEn= 0.00D+00
 Coeff-Com: -0.459D-03 0.416D-03 0.111D-01 0.341D-01 0.771D-01 0.188D+00
 Coeff-Com:  0.690D+00
 Coeff:     -0.459D-03 0.416D-03 0.111D-01 0.341D-01 0.771D-01 0.188D+00
 Coeff:      0.690D+00
 Gap=     0.221 Goal=   None    Shift=    0.000
 RMSDP=2.06D-06 MaxDP=6.32D-05 DE=-4.46D-06 OVMax= 9.79D-05

 Cycle   8  Pass 1  IDiag  1:
 RMSU=  1.34D-06    CP:  9.68D-01  9.77D-01  8.59D-01  6.70D-01  6.17D-01
                    CP:  6.33D-01  7.62D-01
 E= -445.278292189472     Delta-E=       -0.000000097224 Rises=F Damp=F
 DIIS: error= 4.89D-06 at cycle   8 NSaved=   8.
 NSaved= 8 IEnMin= 8 EnMin= -445.278292189472     IErMin= 8 ErrMin= 4.89D-06
 ErrMax= 4.89D-06  0.00D+00 EMaxC= 1.00D-01 BMatC= 1.06D-08 BMatP= 1.21D-07
 IDIUse=1 WtCom= 1.00D+00 WtEn= 0.00D+00
 Coeff-Com: -0.648D-04-0.510D-04 0.173D-02 0.638D-02 0.166D-01 0.580D-01
 Coeff-Com:  0.303D+00 0.614D+00
 Coeff:     -0.648D-04-0.510D-04 0.173D-02 0.638D-02 0.166D-01 0.580D-01
 Coeff:      0.303D+00 0.614D+00
 Gap=     0.221 Goal=   None    Shift=    0.000
 RMSDP=7.46D-07 MaxDP=2.12D-05 DE=-9.72D-08 OVMax= 6.97D-05

 Cycle   9  Pass 1  IDiag  1:
 RMSU=  5.35D-07    CP:  9.68D-01  9.77D-01  8.59D-01  6.70D-01  6.17D-01
                    CP:  6.37D-01  7.95D-01  6.50D-01
 E= -445.278292197755     Delta-E=       -0.000000008283 Rises=F Damp=F
 DIIS: error= 3.10D-06 at cycle   9 NSaved=   9.
 NSaved= 9 IEnMin= 9 EnMin= -445.278292197755     IErMin= 9 ErrMin= 3.10D-06
 ErrMax= 3.10D-06  0.00D+00 EMaxC= 1.00D-01 BMatC= 2.62D-09 BMatP= 1.06D-08
 IDIUse=1 WtCom= 1.00D+00 WtEn= 0.00D+00
 Coeff-Com:  0.172D-04-0.832D-04-0.349D-03-0.461D-03 0.170D-03 0.111D-01
 Coeff-Com:  0.891D-01 0.367D+00 0.534D+00
 Coeff:      0.172D-04-0.832D-04-0.349D-03-0.461D-03 0.170D-03 0.111D-01
 Coeff:      0.891D-01 0.367D+00 0.534D+00
 Gap=     0.221 Goal=   None    Shift=    0.000
 RMSDP=3.12D-07 MaxDP=8.70D-06 DE=-8.28D-09 OVMax= 2.84D-05

 Cycle  10  Pass 1  IDiag  1:
 RMSU=  1.44D-07    CP:  9.68D-01  9.77D-01  8.59D-01  6.70D-01  6.17D-01
                    CP:  6.39D-01  7.99D-01  7.49D-01  5.63D-01
 E= -445.278292200469     Delta-E=       -0.000000002714 Rises=F Damp=F
 DIIS: error= 6.76D-07 at cycle  10 NSaved=  10.
 NSaved=10 IEnMin=10 EnMin= -445.278292200469     IErMin=10 ErrMin= 6.76D-07
 ErrMax= 6.76D-07  0.00D+00 EMaxC= 1.00D-01 BMatC= 1.57D-10 BMatP= 2.62D-09
 IDIUse=1 WtCom= 1.00D+00 WtEn= 0.00D+00
 Coeff-Com:  0.133D-04-0.381D-04-0.318D-03-0.730D-03-0.118D-02 0.157D-02
 Coeff-Com:  0.229D-01 0.150D+00 0.276D+00 0.552D+00
 Coeff:      0.133D-04-0.381D-04-0.318D-03-0.730D-03-0.118D-02 0.157D-02
 Coeff:      0.229D-01 0.150D+00 0.276D+00 0.552D+00
 Gap=     0.221 Goal=   None    Shift=    0.000
 RMSDP=7.30D-08 MaxDP=1.63D-06 DE=-2.71D-09 OVMax= 6.32D-06

 Cycle  11  Pass 1  IDiag  1:
 RMSU=  4.48D-08    CP:  9.68D-01  9.77D-01  8.59D-01  6.70D-01  6.17D-01
                    CP:  6.39D-01  8.01D-01  7.42D-01  6.28D-01  7.02D-01
 E= -445.278292200631     Delta-E=       -0.000000000162 Rises=F Damp=F
 DIIS: error= 1.48D-07 at cycle  11 NSaved=  11.
 NSaved=11 IEnMin=11 EnMin= -445.278292200631     IErMin=11 ErrMin= 1.48D-07
 ErrMax= 1.48D-07  0.00D+00 EMaxC= 1.00D-01 BMatC= 1.05D-11 BMatP= 1.57D-10
 IDIUse=1 WtCom= 1.00D+00 WtEn= 0.00D+00
 Coeff-Com:  0.377D-05-0.729D-05-0.101D-03-0.259D-03-0.504D-03-0.324D-03
 Coeff-Com:  0.767D-03 0.294D-01 0.604D-01 0.248D+00 0.662D+00
 Coeff:      0.377D-05-0.729D-05-0.101D-03-0.259D-03-0.504D-03-0.324D-03
 Coeff:      0.767D-03 0.294D-01 0.604D-01 0.248D+00 0.662D+00
 Gap=     0.221 Goal=   None    Shift=    0.000
 RMSDP=1.96D-08 MaxDP=4.46D-07 DE=-1.62D-10 OVMax= 1.00D-06

 Cycle  12  Pass 1  IDiag  1:
 RMSU=  9.97D-09    CP:  9.68D-01  9.77D-01  8.59D-01  6.70D-01  6.17D-01
                    CP:  6.39D-01  8.00D-01  7.48D-01  6.25D-01  7.38D-01
                    CP:  7.47D-01
 E= -445.278292200633     Delta-E=       -0.000000000003 Rises=F Damp=F
 DIIS: error= 1.80D-08 at cycle  12 NSaved=  12.
 NSaved=12 IEnMin=12 EnMin= -445.278292200633     IErMin=12 ErrMin= 1.80D-08
 ErrMax= 1.80D-08  0.00D+00 EMaxC= 1.00D-01 BMatC= 1.96D-13 BMatP= 1.05D-11
 IDIUse=1 WtCom= 1.00D+00 WtEn= 0.00D+00
 Coeff-Com:  0.284D-06 0.366D-07-0.101D-04-0.290D-04-0.715D-04-0.152D-03
 Coeff-Com: -0.971D-03 0.350D-03-0.993D-03 0.350D-01 0.153D+00 0.813D+00
 Coeff:      0.284D-06 0.366D-07-0.101D-04-0.290D-04-0.715D-04-0.152D-03
 Coeff:     -0.971D-03 0.350D-03-0.993D-03 0.350D-01 0.153D+00 0.813D+00
 Gap=     0.221 Goal=   None    Shift=    0.000
 RMSDP=3.28D-09 MaxDP=7.63D-08 DE=-2.50D-12 OVMax= 1.71D-07

 Error on total polarization charges =  0.00712
 SCF Done:  E(RB3LYP) =  -445.278292201     A.U. after   12 cycles
            NFock= 12  Conv=0.33D-08     -V/T= 2.0093
 KE= 4.411679152622D+02 PE=-2.269948347886D+03 EE= 7.567322623526D+02
 Leave Link  502 at Sun Jul 18 14:23:14 2021, MaxMem=   104857600 cpu:             465.8 elap:             121.5
 (Enter /dades/curu/g16A03_MST/g16/l601.exe)
 Copying SCF densities to generalized density rwf, IOpCl= 0 IROHF=0.

 **********************************************************************

            Population analysis using the SCF density.

 **********************************************************************

 Orbital symmetries:
       Occupied  (A) (A) (A) (A) (A) (A) (A) (A) (A) (A) (A) (A)
                 (A) (A) (A) (A) (A) (A) (A) (A) (A) (A) (A) (A)
                 (A) (A) (A) (A) (A) (A) (A) (A) (A) (A) (A) (A)
                 (A) (A) (A) (A) (A)
       Virtual   (A) (A) (A) (A) (A) (A) (A) (A) (A) (A) (A) (A)
                 (A) (A) (A) (A) (A) (A) (A) (A) (A) (A) (A) (A)
                 (A) (A) (A) (A) (A) (A) (A) (A) (A) (A) (A) (A)
                 (A) (A) (A) (A) (A) (A) (A) (A) (A) (A) (A) (A)
                 (A) (A) (A) (A) (A) (A) (A) (A) (A) (A) (A) (A)
                 (A) (A) (A) (A) (A) (A) (A) (A) (A) (A) (A) (A)
                 (A) (A) (A) (A) (A) (A) (A) (A) (A) (A) (A) (A)
                 (A) (A) (A) (A) (A) (A) (A) (A) (A) (A) (A) (A)
                 (A) (A) (A) (A) (A) (A) (A) (A) (A) (A) (A) (A)
                 (A) (A) (A) (A) (A) (A) (A) (A) (A) (A) (A) (A)
                 (A) (A) (A) (A) (A) (A) (A) (A) (A) (A) (A) (A)
                 (A) (A) (A) (A) (A) (A) (A) (A) (A) (A) (A) (A)
                 (A) (A) (A) (A) (A) (A) (A) (A) (A) (A) (A) (A)
 The electronic state is 1-A.
 Alpha  occ. eigenvalues --  -14.48016 -10.28149 -10.26722 -10.22357 -10.21461
 Alpha  occ. eigenvalues --  -10.21202 -10.21027 -10.20880 -10.20422 -10.20392
 Alpha  occ. eigenvalues --  -10.20263  -1.04724  -0.88351  -0.83827  -0.78740
 Alpha  occ. eigenvalues --   -0.76377  -0.74297  -0.70918  -0.67098  -0.62839
 Alpha  occ. eigenvalues --   -0.62383  -0.60077  -0.54837  -0.53794  -0.53001
 Alpha  occ. eigenvalues --   -0.48328  -0.47527  -0.46447  -0.45595  -0.44286
 Alpha  occ. eigenvalues --   -0.43917  -0.43507  -0.41814  -0.41580  -0.40727
 Alpha  occ. eigenvalues --   -0.39133  -0.37440  -0.35306  -0.34541  -0.27489
 Alpha  occ. eigenvalues --   -0.25378
 Alpha virt. eigenvalues --   -0.03263  -0.01444   0.03328   0.05623   0.06757
 Alpha virt. eigenvalues --    0.07909   0.08144   0.09602   0.11005   0.11207
 Alpha virt. eigenvalues --    0.12950   0.13480   0.13671   0.14727   0.15010
 Alpha virt. eigenvalues --    0.16001   0.17016   0.17183   0.17404   0.18658
 Alpha virt. eigenvalues --    0.20727   0.22195   0.23770   0.25031   0.28685
 Alpha virt. eigenvalues --    0.31249   0.32141   0.33976   0.43191   0.43515
 Alpha virt. eigenvalues --    0.44830   0.47126   0.50261   0.51493   0.52115
 Alpha virt. eigenvalues --    0.52824   0.54357   0.55337   0.55698   0.56684
 Alpha virt. eigenvalues --    0.57466   0.58816   0.59084   0.60465   0.61615
 Alpha virt. eigenvalues --    0.62384   0.63781   0.65621   0.67374   0.69485
 Alpha virt. eigenvalues --    0.72962   0.74304   0.75284   0.77323   0.78398
 Alpha virt. eigenvalues --    0.80139   0.80949   0.81743   0.82172   0.83538
 Alpha virt. eigenvalues --    0.84194   0.85688   0.86823   0.87295   0.88317
 Alpha virt. eigenvalues --    0.89225   0.90808   0.91535   0.91609   0.93648
 Alpha virt. eigenvalues --    0.94201   0.95407   0.97265   0.97311   0.99583
 Alpha virt. eigenvalues --    1.03395   1.05597   1.07891   1.10756   1.12980
 Alpha virt. eigenvalues --    1.13709   1.17368   1.22396   1.27897   1.30129
 Alpha virt. eigenvalues --    1.32969   1.34985   1.39228   1.42844   1.44287
 Alpha virt. eigenvalues --    1.45941   1.48894   1.50819   1.53951   1.58533
 Alpha virt. eigenvalues --    1.59852   1.65046   1.70598   1.74102   1.76564
 Alpha virt. eigenvalues --    1.78997   1.80884   1.82761   1.84196   1.86972
 Alpha virt. eigenvalues --    1.88359   1.89320   1.91334   1.94441   1.97519
 Alpha virt. eigenvalues --    1.98276   2.01921   2.04924   2.05242   2.08858
 Alpha virt. eigenvalues --    2.11889   2.13704   2.15583   2.16181   2.17925
 Alpha virt. eigenvalues --    2.21235   2.23442   2.25676   2.26733   2.31255
 Alpha virt. eigenvalues --    2.32848   2.34605   2.35576   2.38840   2.42857
 Alpha virt. eigenvalues --    2.47056   2.51130   2.56720   2.58094   2.60212
 Alpha virt. eigenvalues --    2.62047   2.67780   2.68301   2.71680   2.75037
 Alpha virt. eigenvalues --    2.76572   2.77825   2.86863   3.04869   3.35863
 Alpha virt. eigenvalues --    3.86949   4.07850   4.11208   4.17987   4.22194
 Alpha virt. eigenvalues --    4.22840   4.29448   4.33462   4.41010   4.53867
 Alpha virt. eigenvalues --    4.67084
          Condensed to atoms (all electrons):
               1          2          3          4          5          6
     1  C    5.085141   0.370856   0.374297   0.380933   0.237665  -0.018551
     2  H    0.370856   0.475129  -0.016797  -0.034526  -0.019713  -0.000215
     3  H    0.374297  -0.016797   0.446645  -0.023447  -0.027554  -0.002966
     4  H    0.380933  -0.034526  -0.023447   0.491783  -0.034114   0.003007
     5  N    0.237665  -0.019713  -0.027554  -0.034114   6.759021   0.299375
     6  H   -0.018551  -0.000215  -0.002966   0.003007   0.299375   0.290596
     7  C   -0.033262   0.002475  -0.001333  -0.004037   0.222848  -0.025475
     8  C    0.004465  -0.000131  -0.000092   0.000299  -0.056061   0.001227
     9  H   -0.000042  -0.000008  -0.000004   0.000017  -0.004471  -0.000212
    10  H   -0.000131   0.000002   0.000005  -0.000009   0.004089  -0.000111
    11  H   -0.000050   0.000005   0.000001  -0.000002  -0.001712   0.001522
    12  H   -0.002766   0.000100  -0.000161   0.004724  -0.040399   0.003522
    13  C   -0.001814  -0.000095  -0.000667   0.000203  -0.057543  -0.002026
    14  H    0.000137  -0.000005   0.000090  -0.000002  -0.007243   0.006247
    15  H   -0.000133   0.000005   0.000035   0.000010   0.004625   0.000164
    16  C   -0.003393   0.000447   0.003860  -0.000109  -0.005222  -0.000817
    17  C    0.000725   0.000109  -0.001997   0.000669  -0.000951   0.000134
    18  H   -0.000085   0.000001  -0.000004   0.000000   0.000112  -0.000024
    19  C    0.000247   0.000003  -0.000425   0.000030  -0.000025  -0.000004
    20  H   -0.000002   0.000000  -0.000001  -0.000001  -0.000000   0.000000
    21  C    0.000021  -0.000006   0.000151  -0.000012   0.000005  -0.000001
    22  H   -0.000000  -0.000000   0.000003  -0.000000   0.000000  -0.000000
    23  C   -0.000987  -0.000013   0.002255   0.000016   0.000008   0.000028
    24  H   -0.000002   0.000000   0.000001   0.000000  -0.000000  -0.000001
    25  C   -0.007571   0.000181   0.010123   0.000076   0.002562   0.001644
    26  H    0.000070  -0.000001  -0.000074  -0.000003  -0.000211   0.000961
    27  H   -0.018303  -0.002778   0.002393  -0.000913   0.303549  -0.012669
               7          8          9         10         11         12
     1  C   -0.033262   0.004465  -0.000042  -0.000131  -0.000050  -0.002766
     2  H    0.002475  -0.000131  -0.000008   0.000002   0.000005   0.000100
     3  H   -0.001333  -0.000092  -0.000004   0.000005   0.000001  -0.000161
     4  H   -0.004037   0.000299   0.000017  -0.000009  -0.000002   0.004724
     5  N    0.222848  -0.056061  -0.004471   0.004089  -0.001712  -0.040399
     6  H   -0.025475   0.001227  -0.000212  -0.000111   0.001522   0.003522
     7  C    5.008290   0.358910  -0.036684  -0.026523  -0.032329   0.391366
     8  C    0.358910   5.142571   0.363867   0.374848   0.383009  -0.030614
     9  H   -0.036684   0.363867   0.543784  -0.024910  -0.024096  -0.000604
    10  H   -0.026523   0.374848  -0.024910   0.504196  -0.021167  -0.003742
    11  H   -0.032329   0.383009  -0.024096  -0.021167   0.508755   0.003487
    12  H    0.391366  -0.030614  -0.000604  -0.003742   0.003487   0.488150
    13  C    0.340416  -0.067623   0.005812  -0.004153  -0.008058  -0.030984
    14  H   -0.024501  -0.007041   0.000017   0.000140   0.003942   0.002957
    15  H   -0.038517  -0.003858   0.000308   0.002335  -0.000971  -0.001531
    16  C   -0.047717   0.006429  -0.000233  -0.000052   0.000732  -0.005698
    17  C   -0.002503   0.000163  -0.000002   0.000013  -0.000000   0.003045
    18  H    0.001613  -0.000243   0.000014   0.000030  -0.000004   0.004010
    19  C    0.000105   0.000004  -0.000000  -0.000001   0.000000  -0.000032
    20  H   -0.000002  -0.000000   0.000000   0.000000   0.000000   0.000001
    21  C    0.000035  -0.000000   0.000000   0.000000   0.000000   0.000005
    22  H    0.000000  -0.000000  -0.000000  -0.000000   0.000000  -0.000000
    23  C   -0.000314   0.000006  -0.000000   0.000000   0.000000   0.000000
    24  H    0.000001  -0.000000   0.000000   0.000000  -0.000000   0.000000
    25  C   -0.002875  -0.000061   0.000003  -0.000005  -0.000025   0.000156
    26  H    0.000299  -0.000035   0.000001   0.000000  -0.000006   0.000002
    27  H   -0.024809  -0.003467   0.007200   0.000029  -0.000382  -0.000157
              13         14         15         16         17         18
     1  C   -0.001814   0.000137  -0.000133  -0.003393   0.000725  -0.000085
     2  H   -0.000095  -0.000005   0.000005   0.000447   0.000109   0.000001
     3  H   -0.000667   0.000090   0.000035   0.003860  -0.001997  -0.000004
     4  H    0.000203  -0.000002   0.000010  -0.000109   0.000669   0.000000
     5  N   -0.057543  -0.007243   0.004625  -0.005222  -0.000951   0.000112
     6  H   -0.002026   0.006247   0.000164  -0.000817   0.000134  -0.000024
     7  C    0.340416  -0.024501  -0.038517  -0.047717  -0.002503   0.001613
     8  C   -0.067623  -0.007041  -0.003858   0.006429   0.000163  -0.000243
     9  H    0.005812   0.000017   0.000308  -0.000233  -0.000002   0.000014
    10  H   -0.004153   0.000140   0.002335  -0.000052   0.000013   0.000030
    11  H   -0.008058   0.003942  -0.000971   0.000732  -0.000000  -0.000004
    12  H   -0.030984   0.002957  -0.001531  -0.005698   0.003045   0.004010
    13  C    5.287085   0.367443   0.373907   0.329654  -0.069249  -0.008797
    14  H    0.367443   0.522374  -0.025704  -0.036706   0.004256  -0.000054
    15  H    0.373907  -0.025704   0.522028  -0.031517  -0.004681   0.002014
    16  C    0.329654  -0.036706  -0.031517   4.707446   0.525433  -0.054009
    17  C   -0.069249   0.004256  -0.004681   0.525433   4.967319   0.355399
    18  H   -0.008797  -0.000054   0.002014  -0.054009   0.355399   0.597741
    19  C    0.006953  -0.000155   0.000172  -0.018172   0.554719  -0.041246
    20  H   -0.000210   0.000003   0.000001   0.004284  -0.040666  -0.007011
    21  C    0.000321   0.000006   0.000037  -0.033878  -0.041243   0.005856
    22  H    0.000006  -0.000000  -0.000001   0.000747   0.005413  -0.000207
    23  C    0.008900   0.000172  -0.000185  -0.024379  -0.053984   0.000155
    24  H   -0.000245  -0.000014   0.000007   0.003453   0.001121   0.000016
    25  C   -0.057027  -0.003835   0.001411   0.570474  -0.039381   0.006750
    26  H   -0.013824   0.008114   0.000189  -0.050371   0.006645  -0.000217
    27  H    0.004987   0.000008  -0.000131  -0.000011  -0.000027   0.000006
              19         20         21         22         23         24
     1  C    0.000247  -0.000002   0.000021  -0.000000  -0.000987  -0.000002
     2  H    0.000003   0.000000  -0.000006  -0.000000  -0.000013   0.000000
     3  H   -0.000425  -0.000001   0.000151   0.000003   0.002255   0.000001
     4  H    0.000030  -0.000001  -0.000012  -0.000000   0.000016   0.000000
     5  N   -0.000025  -0.000000   0.000005   0.000000   0.000008  -0.000000
     6  H   -0.000004   0.000000  -0.000001  -0.000000   0.000028  -0.000001
     7  C    0.000105  -0.000002   0.000035   0.000000  -0.000314   0.000001
     8  C    0.000004  -0.000000  -0.000000  -0.000000   0.000006  -0.000000
     9  H   -0.000000   0.000000   0.000000  -0.000000  -0.000000   0.000000
    10  H   -0.000001   0.000000   0.000000  -0.000000   0.000000   0.000000
    11  H    0.000000   0.000000   0.000000   0.000000   0.000000  -0.000000
    12  H   -0.000032   0.000001   0.000005  -0.000000   0.000000   0.000000
    13  C    0.006953  -0.000210   0.000321   0.000006   0.008900  -0.000245
    14  H   -0.000155   0.000003   0.000006  -0.000000   0.000172  -0.000014
    15  H    0.000172   0.000001   0.000037  -0.000001  -0.000185   0.000007
    16  C   -0.018172   0.004284  -0.033878   0.000747  -0.024379   0.003453
    17  C    0.554719  -0.040666  -0.041243   0.005413  -0.053984   0.001121
    18  H   -0.041246  -0.007011   0.005856  -0.000207   0.000155   0.000016
    19  C    4.844096   0.361158   0.523383  -0.043182  -0.017262   0.003820
    20  H    0.361158   0.571157  -0.041414  -0.004832   0.004102  -0.000154
    21  C    0.523383  -0.041414   4.903607   0.362630   0.538447  -0.041082
    22  H   -0.043182  -0.004832   0.362630   0.565270  -0.037637  -0.004130
    23  C   -0.017262   0.004102   0.538447  -0.037637   4.942656   0.359295
    24  H    0.003820  -0.000154  -0.041082  -0.004130   0.359295   0.565070
    25  C   -0.048724   0.000697  -0.036218   0.004000   0.476602  -0.035370
    26  H    0.000221   0.000019   0.003803  -0.000110  -0.040228  -0.004109
    27  H   -0.000000  -0.000000   0.000000   0.000000  -0.000001   0.000000
              25         26         27
     1  C   -0.007571   0.000070  -0.018303
     2  H    0.000181  -0.000001  -0.002778
     3  H    0.010123  -0.000074   0.002393
     4  H    0.000076  -0.000003  -0.000913
     5  N    0.002562  -0.000211   0.303549
     6  H    0.001644   0.000961  -0.012669
     7  C   -0.002875   0.000299  -0.024809
     8  C   -0.000061  -0.000035  -0.003467
     9  H    0.000003   0.000001   0.007200
    10  H   -0.000005   0.000000   0.000029
    11  H   -0.000025  -0.000006  -0.000382
    12  H    0.000156   0.000002  -0.000157
    13  C   -0.057027  -0.013824   0.004987
    14  H   -0.003835   0.008114   0.000008
    15  H    0.001411   0.000189  -0.000131
    16  C    0.570474  -0.050371  -0.000011
    17  C   -0.039381   0.006645  -0.000027
    18  H    0.006750  -0.000217   0.000006
    19  C   -0.048724   0.000221  -0.000000
    20  H    0.000697   0.000019  -0.000000
    21  C   -0.036218   0.003803   0.000000
    22  H    0.004000  -0.000110   0.000000
    23  C    0.476602  -0.040228  -0.000001
    24  H   -0.035370  -0.004109   0.000000
    25  C    5.004393   0.360009  -0.000035
    26  H    0.360009   0.583842   0.000004
    27  H   -0.000035   0.000004   0.285410
 Mulliken charges:
               1
     1  C   -0.367463
     2  H    0.224975
     3  H    0.235662
     4  H    0.215408
     5  N   -0.578640
     6  H    0.454647
     7  C   -0.025478
     8  C   -0.466571
     9  H    0.170244
    10  H    0.195117
    11  H    0.187346
    12  H    0.215163
    13  C   -0.403370
    14  H    0.189353
    15  H    0.199981
    16  C    0.159326
    17  C   -0.170479
    18  H    0.138185
    19  C   -0.125683
    20  H    0.152873
    21  C   -0.144451
    22  H    0.152031
    23  C   -0.157652
    24  H    0.152323
    25  C   -0.207953
    26  H    0.145008
    27  H    0.460096
 Sum of Mulliken charges =   1.00000
 Mulliken charges with hydrogens summed into heavy atoms:
               1
     1  C    0.308583
     5  N    0.336103
     7  C    0.189686
     8  C    0.086135
    13  C   -0.014036
    16  C    0.159326
    17  C   -0.032294
    19  C    0.027190
    21  C    0.007580
    23  C   -0.005328
    25  C   -0.062945
 Electronic spatial extent (au):  <R**2>=           1955.0288
 Charge=              1.0000 electrons
 Dipole moment (field-independent basis, Debye):
    X=              8.7196    Y=              4.0615    Z=             -0.1841  Tot=              9.6209
 Quadrupole moment (field-independent basis, Debye-Ang):
   XX=            -38.5065   YY=            -56.0673   ZZ=            -57.6860
   XY=              6.9833   XZ=              0.9728   YZ=              1.2536
 Traceless Quadrupole moment (field-independent basis, Debye-Ang):
   XX=             12.2468   YY=             -5.3140   ZZ=             -6.9328
   XY=              6.9833   XZ=              0.9728   YZ=              1.2536
 Octapole moment (field-independent basis, Debye-Ang**2):
  XXX=             48.0699  YYY=             22.8435  ZZZ=             -0.6101  XYY=             30.9078
  XXY=             23.3366  XXZ=             -3.8687  XZZ=              7.7496  YZZ=              5.0217
  YYZ=             -5.0972  XYZ=             -5.6722
 Hexadecapole moment (field-independent basis, Debye-Ang**3):
 XXXX=          -1513.8935 YYYY=           -414.1342 ZZZZ=           -325.8661 XXXY=             52.9111
 XXXZ=              3.4025 YYYX=             33.7045 YYYZ=            -15.1093 ZZZX=              9.8352
 ZZZY=              8.5732 XXYY=           -342.6415 XXZZ=           -325.1311 YYZZ=           -125.6306
 XXYZ=             13.5599 YYXZ=             -6.8163 ZZXY=              6.7102
 N-N= 6.267698780709D+02 E-N=-2.269948348093D+03  KE= 4.411679152622D+02
 No NMR shielding tensors so no spin-rotation constants.
 Leave Link  601 at Sun Jul 18 14:23:14 2021, MaxMem=   104857600 cpu:               0.5 elap:               0.2
 (Enter /dades/curu/g16A03_MST/g16/l701.exe)
 ... and contract with generalized density number  0.
 Compute integral first derivatives.
 D1PCM: PCM CHGder 1st derivatives, ID1Alg=3 FixD1E=F DoIter=F DoCFld=F I1PDM=0.
 GePol: Maximum number of non-zero 1st derivatives   =     250
 Leave Link  701 at Sun Jul 18 14:23:16 2021, MaxMem=   104857600 cpu:              10.2 elap:               2.6
 (Enter /dades/curu/g16A03_MST/g16/l702.exe)
 L702 exits ... SP integral derivatives will be done elsewhere.
 Leave Link  702 at Sun Jul 18 14:23:16 2021, MaxMem=   104857600 cpu:               0.0 elap:               0.0
 (Enter /dades/curu/g16A03_MST/g16/l703.exe)
 Integral derivatives from FoFJK, PRISM(SPDF).
 Compute integral first derivatives, UseDBF=F ICtDFT=           0.
 Calling FoFJK, ICntrl=      2127 FMM=F ISym2X=0 I1Cent= 0 IOpClX= 0 NMat=1 NMatS=1 NMatT=0.
 FoFJK:  IHMeth= 1 ICntrl=    2127 DoSepK=F KAlg= 0 I1Cent=           0 FoldK=F
 IRaf=         0 NMat=       1 IRICut=       1 DoRegI=T DoRafI=F ISym2E= 0 IDoP0=0 IntGTp=1.
 FoFCou: FMM=F IPFlag=           0 FMFlag=      100000 FMFlg1=         800
         NFxFlg=           0 DoJE=F BraDBF=F KetDBF=F FulRan=T
         wScrn=  0.000000 ICntrl=      2127 IOpCl=  0 I1Cent=           0 NGrid=           0
         NMat0=    1 NMatS0=      1 NMatT0=    0 NMatD0=    1 NMtDS0=    0 NMtDT0=    0
 Symmetry not used in FoFCou.
 Leave Link  703 at Sun Jul 18 14:23:32 2021, MaxMem=   104857600 cpu:              63.5 elap:              15.9
 (Enter /dades/curu/g16A03_MST/g16/l716.exe)
 Dipole        = 3.43055832D+00 1.59792804D+00-7.24205369D-02
 ***** Axes restored to original set *****
 -------------------------------------------------------------------
 Center     Atomic                   Forces (Hartrees/Bohr)
 Number     Number              X              Y              Z
 -------------------------------------------------------------------
      1        6          -0.009350876    0.014662659    0.019065061
      2        1           0.007952891   -0.014440534   -0.013750404
      3        1          -0.005429393   -0.005332112   -0.004386205
      4        1           0.006193650   -0.006006945    0.004540020
      5        7          -0.010782006    0.047850681    0.008822842
      6        1           0.007397588   -0.008935057   -0.023069280
      7        6           0.041011430   -0.052088481   -0.007596715
      8        6          -0.025438173    0.013881006    0.016667677
      9        1          -0.001566630   -0.009679168   -0.006232132
     10        1           0.004193176   -0.006580205   -0.002407755
     11        1          -0.005650098    0.000536655    0.000731358
     12        1           0.001133474    0.001260804   -0.005003712
     13        6          -0.004184055    0.022127920    0.035767857
     14        1          -0.008585634   -0.000936542   -0.002498858
     15        1          -0.003156395   -0.006595339   -0.001265163
     16        6          -0.013489615    0.006691724    0.034740356
     17        6          -0.024768846   -0.042250308   -0.023519280
     18        1           0.005867535   -0.000428944    0.005366928
     19        6           0.010658171    0.012560756    0.012133594
     20        1           0.008044341    0.004376913   -0.001669736
     21        6          -0.013230444    0.003945959   -0.026944163
     22        1           0.002063440   -0.000548601   -0.010256426
     23        6           0.027751991    0.005182544    0.035011346
     24        1          -0.007565122    0.001866661   -0.005037354
     25        6           0.025152404    0.021952990   -0.024255161
     26        1           0.008539249    0.004021937   -0.001880707
     27        1          -0.022762053   -0.007096974   -0.013073987
 -------------------------------------------------------------------
 Cartesian Forces:  Max     0.052088481 RMS     0.016788041
 Leave Link  716 at Sun Jul 18 14:23:32 2021, MaxMem=   104857600 cpu:               0.0 elap:               0.0
 (Enter /dades/curu/g16A03_MST/g16/l103.exe)

 GradGradGradGradGradGradGradGradGradGradGradGradGradGradGradGradGradGrad
 Berny optimization.
 FormGI is forming the generalized inverse of G from B-inverse, IUseBI=4.
 Internal  Forces:  Max     0.051683788 RMS     0.010518458
 Search for a local minimum.
 Step number   1 out of a maximum of  151
 All quantities printed in internal units (Hartrees-Bohrs-Radians)
 RMS Force = .10518D-01 SwitMx=.10000D-02 MixMth= 1
 Mixed Optimization -- RFO/linear search
 Second derivative matrix not updated -- first step.
 ITU=  0
     Eigenvalues ---    0.00230   0.00230   0.00339   0.00798   0.00968
     Eigenvalues ---    0.01705   0.01850   0.01930   0.02036   0.02147
     Eigenvalues ---    0.02251   0.02405   0.02445   0.02566   0.03535
     Eigenvalues ---    0.04132   0.04261   0.04612   0.04637   0.04947
     Eigenvalues ---    0.05344   0.05494   0.05575   0.05920   0.06349
     Eigenvalues ---    0.08685   0.09261   0.12437   0.12695   0.13730
     Eigenvalues ---    0.15204   0.15529   0.15824   0.15932   0.15987
     Eigenvalues ---    0.15997   0.16000   0.16000   0.16000   0.16000
     Eigenvalues ---    0.16000   0.16000   0.21681   0.21834   0.21905
     Eigenvalues ---    0.22035   0.23469   0.24963   0.26944   0.29216
     Eigenvalues ---    0.30339   0.34038   0.34401   0.34433   0.34492
     Eigenvalues ---    0.34544   0.34545   0.34570   0.34580   0.34583
     Eigenvalues ---    0.34592   0.35071   0.35107   0.35140   0.35173
     Eigenvalues ---    0.35184   0.36030   0.37890   0.40467   0.42387
     Eigenvalues ---    0.44923   0.47740   0.47755   0.53048   0.54705
 RFO step:  Lambda=-5.63684154D-02 EMin= 2.30000000D-03
 Linear search not attempted -- first point.
 Maximum step size (   0.300) exceeded in Quadratic search.
    -- Step size scaled by   0.796
 Iteration  1 RMS(Cart)=  0.10917279 RMS(Int)=  0.00215222
 Iteration  2 RMS(Cart)=  0.00350087 RMS(Int)=  0.00091579
 Iteration  3 RMS(Cart)=  0.00000982 RMS(Int)=  0.00091578
 Iteration  4 RMS(Cart)=  0.00000001 RMS(Int)=  0.00091578
 ITry= 1 IFail=0 DXMaxC= 3.77D-01 DCOld= 1.00D+10 DXMaxT= 3.00D-01 DXLimC= 3.00D+00 Rises=F
 Variable       Old X    -DE/DX   Delta X   Delta X   Delta X     New X
                                 (Linear)    (Quad)   (Total)
    R1        2.06659  -0.00289   0.00000  -0.00575  -0.00575   2.06084
    R2        2.06606  -0.00690   0.00000  -0.01369  -0.01369   2.05237
    R3        2.06509  -0.00015   0.00000  -0.00029  -0.00029   2.06479
    R4        2.87292  -0.01097   0.00000  -0.02427  -0.02427   2.84865
    R5        1.88901   0.02382   0.00000   0.03549   0.03549   1.92450
    R6        2.77335   0.03524   0.00000   0.06728   0.06728   2.84062
    R7        1.88917   0.02626   0.00000   0.03914   0.03914   1.92831
    R8        2.89555   0.00973   0.00000   0.02220   0.02220   2.91775
    R9        2.06362  -0.00377   0.00000  -0.00746  -0.00746   2.05616
   R10        2.94506   0.00818   0.00000   0.01997   0.01997   2.96503
   R11        2.06421   0.00292   0.00000   0.00578   0.00578   2.06999
   R12        2.06357   0.00035   0.00000   0.00069   0.00069   2.06426
   R13        2.06379  -0.00379   0.00000  -0.00750  -0.00750   2.05630
   R14        2.06343  -0.00034   0.00000  -0.00066  -0.00066   2.06277
   R15        2.06419   0.00189   0.00000   0.00374   0.00374   2.06793
   R16        2.80566   0.02749   0.00000   0.05512   0.05512   2.86078
   R17        2.70877  -0.01712   0.00000  -0.02644  -0.02634   2.68242
   R18        2.54340   0.05168   0.00000   0.06817   0.06836   2.61176
   R19        2.05448  -0.00086   0.00000  -0.00167  -0.00167   2.05281
   R20        2.55021   0.03778   0.00000   0.05079   0.05077   2.60098
   R21        2.05377  -0.00088   0.00000  -0.00171  -0.00171   2.05206
   R22        2.64131   0.00903   0.00000   0.01280   0.01271   2.65402
   R23        2.05396  -0.00200   0.00000  -0.00389  -0.00389   2.05006
   R24        2.70697  -0.03413   0.00000  -0.06226  -0.06245   2.64452
   R25        2.05502  -0.00163   0.00000  -0.00318  -0.00318   2.05184
   R26        2.65748   0.00027   0.00000  -0.00109  -0.00106   2.65641
   R27        2.05559  -0.00038   0.00000  -0.00075  -0.00075   2.05485
    A1        1.98322   0.00675   0.00000   0.00644   0.00353   1.98675
    A2        1.74155   0.01635   0.00000   0.07869   0.07945   1.82100
    A3        2.02632  -0.02052   0.00000  -0.07939  -0.08074   1.94558
    A4        1.88602   0.00329   0.00000   0.01878   0.01890   1.90491
    A5        1.93204  -0.00033   0.00000  -0.01062  -0.01227   1.91976
    A6        1.87697  -0.00277   0.00000   0.00283   0.00325   1.88022
    A7        1.89137   0.00037   0.00000   0.00397   0.00371   1.89507
    A8        2.00336   0.00164   0.00000   0.00959   0.00949   2.01286
    A9        1.89151  -0.00330   0.00000  -0.01740  -0.01748   1.87404
   A10        1.89127   0.00167   0.00000   0.01460   0.01448   1.90575
   A11        1.89244  -0.00352   0.00000  -0.02737  -0.02749   1.86495
   A12        1.89135   0.00280   0.00000   0.01410   0.01419   1.90554
   A13        1.91260  -0.00842   0.00000  -0.01796  -0.02362   1.88898
   A14        1.95311  -0.00235   0.00000  -0.03773  -0.03772   1.91539
   A15        1.84602   0.01108   0.00000   0.06757   0.06704   1.91306
   A16        1.97649  -0.00234   0.00000  -0.02589  -0.02571   1.95078
   A17        1.75582   0.01600   0.00000   0.08831   0.08784   1.84366
   A18        2.00609  -0.01190   0.00000  -0.05759  -0.05624   1.94985
   A19        1.89486   0.01292   0.00000   0.04894   0.04839   1.94325
   A20        1.84034   0.00717   0.00000   0.02976   0.02908   1.86942
   A21        1.96163  -0.00190   0.00000  -0.01271  -0.01253   1.94910
   A22        1.82660  -0.00256   0.00000   0.00451   0.00295   1.82955
   A23        1.99012  -0.00926   0.00000  -0.04053  -0.04032   1.94981
   A24        1.93961  -0.00496   0.00000  -0.02267  -0.02255   1.91705
   A25        2.00552  -0.01707   0.00000  -0.06775  -0.06832   1.93720
   A26        1.87843  -0.00838   0.00000  -0.02541  -0.02788   1.85055
   A27        1.92129   0.03146   0.00000   0.09581   0.09601   2.01730
   A28        1.86916   0.00508   0.00000   0.00014  -0.00166   1.86750
   A29        1.93262  -0.00758   0.00000  -0.01324  -0.01147   1.92115
   A30        1.84856  -0.00359   0.00000   0.01283   0.01267   1.86123
   A31        2.12340  -0.00403   0.00000  -0.01445  -0.01441   2.10899
   A32        2.07757   0.01453   0.00000   0.03346   0.03348   2.11105
   A33        2.08097  -0.01038   0.00000  -0.01784  -0.01818   2.06279
[...]
 Alpha virt. eigenvalues --    0.00079   0.00548   0.01220   0.01608   0.02041
 Alpha virt. eigenvalues --    0.02828   0.03077   0.03891   0.04486   0.04842
 Alpha virt. eigenvalues --    0.05546   0.05789   0.05878   0.06358   0.06615
 Alpha virt. eigenvalues --    0.06939   0.07339   0.07427   0.07742   0.08036
 Alpha virt. eigenvalues --    0.08199   0.08673   0.08858   0.08938   0.09544
 Alpha virt. eigenvalues --    0.10091   0.10473   0.11044   0.11233   0.11500
 Alpha virt. eigenvalues --    0.11881   0.12098   0.12713   0.12955   0.13793
 Alpha virt. eigenvalues --    0.14119   0.14561   0.14896   0.16868   0.17122
 Alpha virt. eigenvalues --    0.17784   0.18665   0.19087   0.19420   0.20314
 Alpha virt. eigenvalues --    0.20577   0.21055   0.21631   0.21774   0.22505
 Alpha virt. eigenvalues --    0.22946   0.23889   0.24068   0.24598   0.25356
 Alpha virt. eigenvalues --    0.25505   0.25578   0.26704   0.27048   0.27719
 Alpha virt. eigenvalues --    0.28085   0.28364   0.28882   0.29614   0.30317
 Alpha virt. eigenvalues --    0.30868   0.31465   0.31772   0.32593   0.33131
 Alpha virt. eigenvalues --    0.33472   0.33754   0.34380   0.35082   0.35322
 Alpha virt. eigenvalues --    0.35581   0.36184   0.36509   0.36889   0.37245
 Alpha virt. eigenvalues --    0.37542   0.38420   0.39263   0.39357   0.40405
 Alpha virt. eigenvalues --    0.40614   0.41340   0.41868   0.42544   0.43042
 Alpha virt. eigenvalues --    0.43464   0.44475   0.45018   0.45784   0.46429
 Alpha virt. eigenvalues --    0.46993   0.47325   0.48309   0.49157   0.49343
 Alpha virt. eigenvalues --    0.50249   0.50353   0.51264   0.51406   0.52416
 Alpha virt. eigenvalues --    0.52805   0.53226   0.53613   0.54044   0.54295
 Alpha virt. eigenvalues --    0.54590   0.55772   0.56409   0.56792   0.57696
 Alpha virt. eigenvalues --    0.57861   0.58438   0.58878   0.59216   0.59893
 Alpha virt. eigenvalues --    0.60269   0.61104   0.61828   0.62153   0.62773
 Alpha virt. eigenvalues --    0.63079   0.64026   0.64145   0.65321   0.65662
 Alpha virt. eigenvalues --    0.67214   0.67512   0.67752   0.68400   0.69227
 Alpha virt. eigenvalues --    0.69300   0.70307   0.70653   0.71539   0.72030
 Alpha virt. eigenvalues --    0.72233   0.73355   0.73768   0.74131   0.75828
 Alpha virt. eigenvalues --    0.76037   0.76737   0.77450   0.78138   0.79050
 Alpha virt. eigenvalues --    0.79997   0.80461   0.81367   0.81884   0.83153
 Alpha virt. eigenvalues --    0.83843   0.84419   0.84920   0.85116   0.86133
 Alpha virt. eigenvalues --    0.86472   0.88771   0.89178   0.89380   0.90198
 Alpha virt. eigenvalues --    0.91478   0.92100   0.92120   0.94018   0.94599
 Alpha virt. eigenvalues --    0.95936   0.96384   0.97395   0.97949   0.99655
 Alpha virt. eigenvalues --    1.00280   1.01151   1.01639   1.02633   1.04577
 Alpha virt. eigenvalues --    1.05637   1.08133   1.08737   1.09496   1.11747
 Alpha virt. eigenvalues --    1.13712   1.13883   1.16782   1.18288   1.20230
 Alpha virt. eigenvalues --    1.21492   1.21775   1.23313   1.25304   1.28016
 Alpha virt. eigenvalues --    1.31147   1.32086   1.33946   1.36647   1.40155
 Alpha virt. eigenvalues --    1.40962   1.41965   1.42272   1.43627   1.45065
 Alpha virt. eigenvalues --    1.46327   1.47797   1.48555   1.49326   1.50627
 Alpha virt. eigenvalues --    1.51767   1.53294   1.53902   1.54647   1.55344
 Alpha virt. eigenvalues --    1.56502   1.57820   1.58309   1.59269   1.60861
 Alpha virt. eigenvalues --    1.62236   1.63084   1.64330   1.65784   1.66361
 Alpha virt. eigenvalues --    1.67864   1.69919   1.70476   1.71284   1.72840
 Alpha virt. eigenvalues --    1.73147   1.75229   1.76507   1.77522   1.77993
 Alpha virt. eigenvalues --    1.79231   1.80020   1.81398   1.82665   1.83602
 Alpha virt. eigenvalues --    1.84497   1.84639   1.85511   1.86637   1.87288
 Alpha virt. eigenvalues --    1.88268   1.89178   1.89866   1.90598   1.91876
 Alpha virt. eigenvalues --    1.95611   1.95994   1.96349   1.98675   1.99757
 Alpha virt. eigenvalues --    1.99936   2.01004   2.02699   2.03055   2.04218
 Alpha virt. eigenvalues --    2.05884   2.06982   2.07958   2.09470   2.10537
 Alpha virt. eigenvalues --    2.11598   2.13399   2.13779   2.15420   2.16201
 Alpha virt. eigenvalues --    2.17012   2.18819   2.20235   2.20911   2.22616
 Alpha virt. eigenvalues --    2.23339   2.23713   2.24162   2.25340   2.26674
 Alpha virt. eigenvalues --    2.27228   2.28443   2.29499   2.31487   2.32061
 Alpha virt. eigenvalues --    2.33806   2.34711   2.37260   2.37533   2.38184
 Alpha virt. eigenvalues --    2.39751   2.41474   2.44510   2.46352   2.47409
 Alpha virt. eigenvalues --    2.51032   2.52687   2.54104   2.55513   2.57481
 Alpha virt. eigenvalues --    2.59184   2.60661   2.61681   2.63376   2.63860
 Alpha virt. eigenvalues --    2.66977   2.69171   2.70862   2.71329   2.72989
 Alpha virt. eigenvalues --    2.73113   2.75569   2.75831   2.77688   2.78355
 Alpha virt. eigenvalues --    2.80524   2.85555   2.86873   2.87850   2.90186
 Alpha virt. eigenvalues --    2.91678   2.94802   2.96658   2.97153   3.00876
 Alpha virt. eigenvalues --    3.05064   3.06905   3.08626   3.14235   3.17451
 Alpha virt. eigenvalues --    3.22385   3.26320   3.28272   3.31930   3.44694
 Alpha virt. eigenvalues --    3.52633   3.60468   3.63043   3.76612   4.04726
 Alpha virt. eigenvalues --    4.76353
          Condensed to atoms (all electrons):
               1          2          3          4          5          6
     1  C    3.937991   0.353102   0.380248   0.318044   0.142954  -0.043488
     2  H    0.353102   1.376173  -0.260061  -0.222283  -0.230674   0.010994
     3  H    0.380248  -0.260061   1.131922  -0.116625   0.122742  -0.030205
     4  H    0.318044  -0.222283  -0.116625   1.118716  -0.022643   0.021045
     5  N    0.142954  -0.230674   0.122742  -0.022643   7.698965   0.395556
     6  H   -0.043488   0.010994  -0.030205   0.021045   0.395556   0.601523
     7  C   -0.019192   0.151715  -0.110210  -0.035739  -1.061419  -0.119739
     8  C   -0.025400  -0.027842   0.051425  -0.009595   0.114129   0.005320
     9  H    0.020102   0.000300   0.004779   0.000240  -0.042640  -0.009895
    10  H   -0.001022   0.000108   0.000392  -0.002386   0.009690   0.002843
    11  H   -0.008797  -0.001121  -0.001035   0.000853  -0.032275   0.007321
    12  H    0.014738   0.015955  -0.021733   0.012337  -0.096565   0.023900
    13  C   -0.022737  -0.021422   0.035069   0.000405   0.173168  -0.011016
    14  H    0.019647   0.006195  -0.000200  -0.005149  -0.116380   0.000913
    15  H    0.000640  -0.002963   0.006177   0.004844   0.048036   0.013618
    16  C    0.035619   0.038888   0.009931  -0.060332   0.040156  -0.033343
    17  C   -0.049566   0.004465  -0.094888   0.061603  -0.137526   0.034300
    18  H    0.002127   0.000819   0.012002  -0.001744  -0.000884   0.001194
    19  C    0.028160   0.010064  -0.019446  -0.016614   0.038837  -0.003858
    20  H   -0.001121  -0.000277   0.004421  -0.000232   0.001742  -0.000103
    21  C   -0.008432  -0.011647   0.027829   0.019283  -0.026851   0.003624
    22  H    0.000475  -0.000112  -0.004857   0.000476   0.000114   0.000286
    23  C    0.051522   0.010570  -0.015337  -0.027214   0.023825  -0.014520
    24  H   -0.000623   0.000146   0.006890  -0.001482  -0.000102  -0.000558
    25  C   -0.012162  -0.033514  -0.057288   0.065688  -0.066063   0.034525
    26  H    0.005376  -0.002989  -0.009649   0.007095  -0.002290   0.001799
    27  H   -0.023459  -0.004812   0.015272  -0.030977   0.492066  -0.078191
               7          8          9         10         11         12
     1  C   -0.019192  -0.025400   0.020102  -0.001022  -0.008797   0.014738
     2  H    0.151715  -0.027842   0.000300   0.000108  -0.001121   0.015955
     3  H   -0.110210   0.051425   0.004779   0.000392  -0.001035  -0.021733
     4  H   -0.035739  -0.009595   0.000240  -0.002386   0.000853   0.012337
     5  N   -1.061419   0.114129  -0.042640   0.009690  -0.032275  -0.096565
     6  H   -0.119739   0.005320  -0.009895   0.002843   0.007321   0.023900
     7  C    8.025913  -0.081167   0.164806   0.157423  -0.159322  -0.176486
     8  C   -0.081167   4.691727   0.139551   0.262186   0.456521  -0.157432
     9  H    0.164806   0.139551   1.240889  -0.211413  -0.237769  -0.053083
    10  H    0.157423   0.262186  -0.211413   1.052871  -0.116095  -0.062911
    11  H   -0.159322   0.456521  -0.237769  -0.116095   1.041919   0.082690
    12  H   -0.176486  -0.157432  -0.053083  -0.062911   0.082690   1.907023
    13  C   -0.008668   0.159302   0.054253  -0.093802  -0.044447  -0.131178
    14  H    0.221915  -0.094629   0.009065  -0.018837   0.002762   0.067443
    15  H   -0.112360  -0.099923   0.014723  -0.004083  -0.029284  -0.009439
    16  C    0.150135  -0.168011  -0.025739   0.047721   0.042215  -0.010228
    17  C   -0.347024  -0.061425  -0.001973  -0.024599   0.012962   0.047682
    18  H    0.025023   0.013308  -0.000703   0.002600   0.002284  -0.039285
    19  C    0.025786   0.030744  -0.001443   0.003630   0.001316   0.022989
    20  H    0.002272   0.000292  -0.000006   0.000455  -0.000081  -0.001283
    21  C   -0.101607  -0.005110   0.000082  -0.001657   0.000848  -0.001597
    22  H   -0.002908  -0.000223  -0.000019  -0.000028   0.000009   0.000790
    23  C    0.199170   0.000625  -0.000690   0.003586  -0.001598   0.000665
    24  H   -0.001385  -0.000169  -0.000001   0.000037  -0.000101  -0.000297
    25  C   -0.382595  -0.040645   0.000997   0.004440  -0.001732   0.011745
    26  H    0.033256   0.004152  -0.001048   0.000380   0.004439   0.002992
    27  H   -0.072469  -0.046614  -0.000607   0.007679  -0.008412  -0.018690
              13         14         15         16         17         18
     1  C   -0.022737   0.019647   0.000640   0.035619  -0.049566   0.002127
     2  H   -0.021422   0.006195  -0.002963   0.038888   0.004465   0.000819
     3  H    0.035069  -0.000200   0.006177   0.009931  -0.094888   0.012002
     4  H    0.000405  -0.005149   0.004844  -0.060332   0.061603  -0.001744
     5  N    0.173168  -0.116380   0.048036   0.040156  -0.137526  -0.000884
     6  H   -0.011016   0.000913   0.013618  -0.033343   0.034300   0.001194
     7  C   -0.008668   0.221915  -0.112360   0.150135  -0.347024   0.025023
     8  C    0.159302  -0.094629  -0.099923  -0.168011  -0.061425   0.013308
     9  H    0.054253   0.009065   0.014723  -0.025739  -0.001973  -0.000703
    10  H   -0.093802  -0.018837  -0.004083   0.047721  -0.024599   0.002600
    11  H   -0.044447   0.002762  -0.029284   0.042215   0.012962   0.002284
    12  H   -0.131178   0.067443  -0.009439  -0.010228   0.047682  -0.039285
    13  C    7.848296  -0.281006   0.132798  -0.775662  -0.630010  -0.059092
    14  H   -0.281006   1.572505  -0.205228   0.025444  -0.220399   0.006322
    15  H    0.132798  -0.205228   1.406718  -0.156954   0.134177  -0.021458
    16  C   -0.775662   0.025444  -0.156954  13.768440  -5.945458   0.682894
    17  C   -0.630010  -0.220399   0.134177  -5.945458  16.242151  -1.289077
    18  H   -0.059092   0.006322  -0.021458   0.682894  -1.289077   2.223048
    19  C   -0.191230  -0.048217   0.047001   2.730728  -4.095828   0.478826
    20  H    0.022918  -0.000354   0.000448  -0.138611   0.602544  -0.094890
    21  C    0.147848  -0.001389   0.015961  -3.523307   3.230938  -0.189465
    22  H   -0.002146   0.000641   0.000689   0.067193  -0.109477  -0.016177
    23  C   -0.482068   0.121219  -0.044742   3.159495  -3.665723   0.140222
    24  H    0.016759   0.003509   0.000379  -0.170069   0.126843   0.009644
    25  C   -0.490190   0.199021  -0.024134  -5.638300   1.779260  -0.130193
    26  H    0.013581  -0.054845   0.014055   0.735696  -0.014410  -0.022972
    27  H    0.007687  -0.004517  -0.000441   0.021046  -0.008472  -0.000633
              19         20         21         22         23         24
     1  C    0.028160  -0.001121  -0.008432   0.000475   0.051522  -0.000623
     2  H    0.010064  -0.000277  -0.011647  -0.000112   0.010570   0.000146
     3  H   -0.019446   0.004421   0.027829  -0.004857  -0.015337   0.006890
     4  H   -0.016614  -0.000232   0.019283   0.000476  -0.027214  -0.001482
     5  N    0.038837   0.001742  -0.026851   0.000114   0.023825  -0.000102
     6  H   -0.003858  -0.000103   0.003624   0.000286  -0.014520  -0.000558
     7  C    0.025786   0.002272  -0.101607  -0.002908   0.199170  -0.001385
     8  C    0.030744   0.000292  -0.005110  -0.000223   0.000625  -0.000169
     9  H   -0.001443  -0.000006   0.000082  -0.000019  -0.000690  -0.000001
    10  H    0.003630   0.000455  -0.001657  -0.000028   0.003586   0.000037
    11  H    0.001316  -0.000081   0.000848   0.000009  -0.001598  -0.000101
    12  H    0.022989  -0.001283  -0.001597   0.000790   0.000665  -0.000297
    13  C   -0.191230   0.022918   0.147848  -0.002146  -0.482068   0.016759
    14  H   -0.048217  -0.000354  -0.001389   0.000641   0.121219   0.003509
    15  H    0.047001   0.000448   0.015961   0.000689  -0.044742   0.000379
    16  C    2.730728  -0.138611  -3.523307   0.067193   3.159495  -0.170069
    17  C   -4.095828   0.602544   3.230938  -0.109477  -3.665723   0.126843
    18  H    0.478826  -0.094890  -0.189465  -0.016177   0.140222   0.009644
    19  C   10.754910  -0.753655  -3.194862   0.355042   3.653625  -0.218486
    20  H   -0.753655   1.666908   0.327990  -0.058529  -0.235921  -0.018434
    21  C   -3.194862   0.327990   8.890276  -0.605518  -3.264964   0.351791
    22  H    0.355042  -0.058529  -0.605518   1.597898   0.355109  -0.053595
    23  C    3.653625  -0.235921  -3.264964   0.355109  10.448198  -0.699804
    24  H   -0.218486  -0.018434   0.351791  -0.053595  -0.699804   1.645187
    25  C   -3.875832   0.116047   3.417235  -0.087507  -4.202917   0.540819
    26  H    0.122037   0.009442  -0.173606  -0.014795   0.325681  -0.091865
    27  H    0.002324   0.000116  -0.001299  -0.000019   0.002553   0.000057
              25         26         27
     1  C   -0.012162   0.005376  -0.023459
     2  H   -0.033514  -0.002989  -0.004812
     3  H   -0.057288  -0.009649   0.015272
     4  H    0.065688   0.007095  -0.030977
     5  N   -0.066063  -0.002290   0.492066
     6  H    0.034525   0.001799  -0.078191
     7  C   -0.382595   0.033256  -0.072469
     8  C   -0.040645   0.004152  -0.046614
     9  H    0.000997  -0.001048  -0.000607
    10  H    0.004440   0.000380   0.007679
    11  H   -0.001732   0.004439  -0.008412
    12  H    0.011745   0.002992  -0.018690
    13  C   -0.490190   0.013581   0.007687
    14  H    0.199021  -0.054845  -0.004517
    15  H   -0.024134   0.014055  -0.000441
    16  C   -5.638300   0.735696   0.021046
    17  C    1.779260  -0.014410  -0.008472
    18  H   -0.130193  -0.022972  -0.000633
    19  C   -3.875832   0.122037   0.002324
    20  H    0.116047   0.009442   0.000116
    21  C    3.417235  -0.173606  -0.001299
    22  H   -0.087507  -0.014795  -0.000019
    23  C   -4.202917   0.325681   0.002553
    24  H    0.540819  -0.091865   0.000057
    25  C   15.765027  -1.376120  -0.004667
    26  H   -1.376120   2.169225  -0.000054
    27  H   -0.004667  -0.000054   0.581786
 Mulliken charges:
               1
     1  C    0.905254
     2  H   -0.159778
     3  H   -0.067563
     4  H   -0.077614
     5  N   -0.465668
     6  H    0.186153
     7  C   -0.365122
     8  C    0.888901
     9  H   -0.062756
    10  H   -0.019208
    11  H   -0.014069
    12  H   -0.430744
    13  C    0.632589
    14  H   -0.205448
    15  H   -0.129258
    16  C    1.090412
    17  C    0.418929
    18  H   -0.733738
    19  C    0.113453
    20  H   -0.452097
    21  C    0.677607
    22  H   -0.422814
    23  C    0.159432
    24  H   -0.445089
    25  C    0.489054
    26  H   -0.684564
    27  H    0.173747
 Sum of Mulliken charges =   1.00000
 Mulliken charges with hydrogens summed into heavy atoms:
               1
     1  C    0.600299
     5  N   -0.105767
     7  C   -0.795866
     8  C    0.792867
    13  C    0.297882
    16  C    1.090412
    17  C   -0.314809
    19  C   -0.338644
    21  C    0.254793
    23  C   -0.285657
    25  C   -0.195510
 Electronic spatial extent (au):  <R**2>=           2059.4566
 Charge=              1.0000 electrons
 Dipole moment (field-independent basis, Debye):
    X=              7.3656    Y=              3.4908    Z=             -0.6388  Tot=              8.1760
 Quadrupole moment (field-independent basis, Debye-Ang):
   XX=            -34.3788   YY=            -54.9517   ZZ=            -60.2811
   XY=              4.5966   XZ=              1.0199   YZ=              2.3558
 Traceless Quadrupole moment (field-independent basis, Debye-Ang):
   XX=             15.4917   YY=             -5.0812   ZZ=            -10.4105
   XY=              4.5966   XZ=              1.0199   YZ=              2.3558
 Octapole moment (field-independent basis, Debye-Ang**2):
  XXX=             45.4789  YYY=             20.3058  ZZZ=             -1.5859  XYY=             31.1805
  XXY=             24.0389  XXZ=             -9.1984  XZZ=              8.2559  YZZ=              6.1114
  YYZ=             -5.3066  XYZ=            -10.3352
 Hexadecapole moment (field-independent basis, Debye-Ang**3):
 XXXX=          -1571.5104 YYYY=           -449.7595 ZZZZ=           -318.4180 XXXY=              7.4589
 XXXZ=             17.1971 YYYX=             25.6757 YYYZ=             -5.3562 ZZZX=              6.1190
 ZZZY=             11.3778 XXYY=           -358.0436 XXZZ=           -346.1814 YYZZ=           -127.0045
 XXYZ=             22.0189 YYXZ=             -3.1189 ZZXY=             10.6375
 N-N= 6.157016278218D+02 E-N=-2.247442946428D+03  KE= 4.417689665975D+02
 Leave Link  601 at Sun Jul 18 16:56:44 2021, MaxMem=   262144000 cpu:               0.3 elap:               0.3
 (Enter /dades/curu/g16A03_MST/g16/l9999.exe)
 1\1\GINC-PIRINEUS38\SP\RMP2-FC\Aug-CC-pVDZ\C10H16N1(1+)\UBATOR02\18-Ju
 l-2021\0\\#p mp2/aug-cc-pVDZ scf=tight maxdisk=180GB geom=allcheck\\SE
 T_328_BBB30_conf1.geo_060_075_270 geometry\\1,1\C,0,-1.7406774024,0.95
 63853254,-1.1419628651\H,0,-2.1468457637,1.3358140819,-2.0775028402\H,
 0,-0.7163744532,1.2898608053,-1.0022339244\H,0,-2.3626482646,1.2707429
 865,-0.3062153457\N,0,-1.7561180481,-0.5423227204,-1.1999899896\H,0,-1
 .2092020873,-0.863135055,-2.0118915467\C,0,-1.2744906358,-1.2641208696
 ,0.0587732867\C,0,-1.8851105889,-2.6606396566,0.083934922\H,0,-2.97764
 40217,-2.6308747248,0.1194460178\H,0,-1.5400817504,-3.182440884,0.9783
 969649\H,0,-1.5762149955,-3.2492976825,-0.784490345\H,0,-1.6667102712,
 -0.6683486875,0.8876866018\C,0,0.2624707618,-1.3241280444,0.1253381118
 \H,0,0.6409416758,-1.8225928428,-0.7739743923\H,0,0.4862291486,-1.9987
 228533,0.9581791329\C,0,0.9898599427,-0.0131222079,0.3327101118\C,0,0.
 9209139189,0.6555200394,1.5621775185\H,0,0.3487878552,0.2249663693,2.3
 777358155\C,0,1.5892613649,1.8634919197,1.7527028587\H,0,1.5289038706,
 2.3661515695,2.7119791662\C,0,2.3410931851,2.4203315094,0.7160704236\H
 ,0,2.8631654444,3.3589457683,0.8657581498\C,0,2.4252964213,1.758321061
 2,-0.5088641059\H,0,3.0150272491,2.1780578622,-1.3168681469\C,0,1.7551
 549293,0.5481920312,-0.6954041141\H,0,1.8330660303,0.0275983543,-1.644
 9653548\H,0,-2.7190535154,-0.8456334546,-1.4055261114\\Version=ES64L-G
 16RevA.03\State=1-A\HF=-442.2923643\MP2=-443.8797507\RMSD=6.464e-09\PG
 =C01 [X(C10H16N1)]\\@


 "I COULD HAVE DONE IT IN A MUCH MORE COMPLICATED WAY"
 SAID THE RED QUEEN, IMMENSELY PROUD.

                                      -- LEWIS CARROLL
 Job cpu time:       0 days  0 hours 49 minutes 23.0 seconds.
 Elapsed time:       0 days  0 hours 13 minutes 50.2 seconds.
 File lengths (MBytes):  RWF=  17648 Int=      0 D2E=      0 Chk=     14 Scr=      1
 Normal termination of Gaussian 16 at Sun Jul 18 16:56:45 2021.
