 Entering Gaussian System, Link 0=g16
 Input=SET_328_BBB301_conf1.geo_165_120_105_OCTANOL.dat
 Output=SET_328_BBB301_conf1.geo_165_120_105_OCTANOL.log
 Initial command:
 /dades/curu/g16A03_MST/g16/l1.exe "/tmp/ubator02/1839651/Gau-102762.inp" -scrdir="/tmp/ubator02/1839651/"
 Entering Link 1 = /dades/curu/g16A03_MST/g16/l1.exe PID=    102763.
  
 Copyright (c) 1988,1990,1992,1993,1995,1998,2003,2009,2016,
            Gaussian, Inc.  All Rights Reserved.
  
 This is part of the Gaussian(R) 16 program.  It is based on
 the Gaussian(R) 09 system (copyright 2009, Gaussian, Inc.),
 the Gaussian(R) 03 system (copyright 2003, Gaussian, Inc.),
 the Gaussian(R) 98 system (copyright 1998, Gaussian, Inc.),
 the Gaussian(R) 94 system (copyright 1995, Gaussian, Inc.),
 the Gaussian 92(TM) system (copyright 1992, Gaussian, Inc.),
 the Gaussian 90(TM) system (copyright 1990, Gaussian, Inc.),
 the Gaussian 88(TM) system (copyright 1988, Gaussian, Inc.),
 the Gaussian 86(TM) system (copyright 1986, Carnegie Mellon
 University), and the Gaussian 82(TM) system (copyright 1983,
 Carnegie Mellon University). Gaussian is a federally registered
 trademark of Gaussian, Inc.
  
 This software contains proprietary and confidential information,
 including trade secrets, belonging to Gaussian, Inc.
  
 This software is provided under written license and may be
 used, copied, transmitted, or stored only in accord with that
 written license.
  
 The following legend is applicable only to US Government
 contracts under FAR:
  
                    RESTRICTED RIGHTS LEGEND
  
 Use, reproduction and disclosure by the US Government is
 subject to restrictions as set forth in subparagraphs (a)
 and (c) of the Commercial Computer Software - Restricted
 Rights clause in FAR 52.227-19.
  
 Gaussian, Inc.
 340 Quinnipiac St., Bldg. 40, Wallingford CT 06492
  
  
 ---------------------------------------------------------------
 Warning -- This program may not be used in any manner that
 competes with the business of Gaussian, Inc. or will provide
 assistance to any competitor of Gaussian, Inc.  The licensee
 of this program is prohibited from giving any competitor of
 Gaussian, Inc. access to this program.  By using this program,
 the user acknowledges that Gaussian, Inc. is engaged in the
 business of creating and licensing software in the field of
 computational chemistry and represents and warrants to the
 licensee that it is not a competitor of Gaussian, Inc. and that
 it will not use this program in any manner prohibited above.
 ---------------------------------------------------------------
  

 Cite this work as:
 Gaussian 16, Revision A.03,
 M. J. Frisch, G. W. Trucks, H. B. Schlegel, G. E. Scuseria, 
 M. A. Robb, J. R. Cheeseman, G. Scalmani, V. Barone, 
 G. A. Petersson, H. Nakatsuji, X. Li, M. Caricato, A. V. Marenich, 
 J. Bloino, B. G. Janesko, R. Gomperts, B. Mennucci, H. P. Hratchian, 
 J. V. Ortiz, A. F. Izmaylov, J. L. Sonnenberg, D. Williams-Young, 
 F. Ding, F. Lipparini, F. Egidi, J. Goings, B. Peng, A. Petrone, 
 T. Henderson, D. Ranasinghe, V. G. Zakrzewski, J. Gao, N. Rega, 
 G. Zheng, W. Liang, M. Hada, M. Ehara, K. Toyota, R. Fukuda, 
 J. Hasegawa, M. Ishida, T. Nakajima, Y. Honda, O. Kitao, H. Nakai, 
 T. Vreven, K. Throssell, J. A. Montgomery, Jr., J. E. Peralta, 
 F. Ogliaro, M. J. Bearpark, J. J. Heyd, E. N. Brothers, K. N. Kudin, 
 V. N. Staroverov, T. A. Keith, R. Kobayashi, J. Normand, 
 K. Raghavachari, A. P. Rendell, J. C. Burant, S. S. Iyengar, 
 J. Tomasi, M. Cossi, J. M. Millam, M. Klene, C. Adamo, R. Cammi, 
 J. W. Ochterski, R. L. Martin, K. Morokuma, O. Farkas, 
 J. B. Foresman, and D. J. Fox, Gaussian, Inc., Wallingford CT, 2016.
 
 ******************************************
 Gaussian 16:  ES64L-G16RevA.03 25-Dec-2016
                18-Jul-2021 
 ******************************************
 %mem=800MB
 %nproc=4
 Will use up to    4 processors via shared memory.
 %chk=SET_328_BBB301_conf1.geo_165_120_105.chk
 ---------------------------------------------------------------
 #p b3lyp/6-31G(d) opt freq scrf=(iefpcm,read,solvent=n-octanol)
 ---------------------------------------------------------------
 1/18=20,19=15,26=3,38=1,40=2/1,3;
 2/9=110,12=2,17=6,18=5,40=1/2;
 3/5=1,6=6,7=1,11=2,25=1,30=1,70=2203,71=1,72=25,74=-5/1,2,3;
 4//1;
 5/5=2,38=5,53=25/2;
 6/7=2,8=2,9=2,10=2,28=1/1;
 7//1,2,3,16;
 1/18=20,19=15,26=3/3(2);
 2/9=110/2;
 99//99;
 2/9=110/2;
 3/5=1,6=6,7=1,11=2,25=1,30=1,70=2205,71=1,72=25,74=-5/1,2,3;
 4/5=5,16=3,69=1/1;
 5/5=2,38=5,53=25/2;
 7//1,2,3,16;
 1/18=20,19=15,26=3/3(-5);
 2/9=110/2;
 6/7=2,8=2,9=2,10=2,19=2,28=1/1;
 99/9=1/99;
 Leave Link    1 at Sun Jul 18 14:47:51 2021, MaxMem=   104857600 cpu:               0.0 elap:               0.0
 (Enter /dades/curu/g16A03_MST/g16/l101.exe)
 ---------------------------------------------
 SET_328_BBB301_conf1.geo_165_120_105 geometry
 ---------------------------------------------
 Symbolic Z-matrix:
 Charge =  1 Multiplicity = 1
 C                    -0.688    -3.41     -1.523 
 H                    -0.857    -4.145    -2.313 
 H                    -0.382    -3.862    -0.577 
 H                     0.243    -2.9      -1.779 
 C                    -1.928    -2.62     -1.453 
 C                    -2.08     -1.758    -2.659 
 H                    -2.673    -2.317    -3.386 
 H                    -1.134    -1.509    -3.144 
 H                    -2.741    -0.898    -2.525 
 C                    -3.13     -3.473    -0.983 
 H                    -4.041    -2.953    -0.679 
 H                    -2.806    -4.186    -0.222 
 H                    -3.399    -4.105    -1.832 
 N                    -1.865    -1.681    -0.272 
 H                    -1.716    -2.236     0.546 
 C                    -0.851    -0.611    -0.272 
 H                    -1.125     0.069    -1.082 
 H                     0.16     -1.004    -0.411 
 C                    -0.562     0.142     1.084 
 O                    -0.474    -0.818     2.137 
 H                    -1.286    -1.355     2.12 
 H                    -1.493     0.674     1.294 
 C                     0.701     1.01      1.127 
 C                     0.637     2.411     1.384 
 H                    -0.351     2.863     1.41 
 C                     1.808     3.208     1.268 
 C                     1.659     4.727     1.425 
 O                     1.161     5.232     0.224 
 H                     1.901     5.117    -0.4 
 H                     2.665     5.089     1.654 
 H                     0.98      4.848     2.272 
 C                     3.039     2.61      1.105 
 O                     4.197     3.305     1.018 
 H                     4.964     2.722     1.162 
 C                     3.136     1.257     1.186 
 H                     4.116     0.787     1.177 
 C                     1.999     0.464     1.142 
 H                     2.06     -0.59      0.883 
 H                    -2.761    -1.246    -0.186 
 
 ITRead=  0  0  0  0  0  0  0  0  0  0  0  0  0  0  0  0  0  0  0  0
 ITRead=  0  0  0  0  0  0  0  0  0  0  0  0  0  0  0  0  0  0  0
 MicOpt= -1 -1 -1 -1 -1 -1 -1 -1 -1 -1 -1 -1 -1 -1 -1 -1 -1 -1 -1 -1
 MicOpt= -1 -1 -1 -1 -1 -1 -1 -1 -1 -1 -1 -1 -1 -1 -1 -1 -1 -1 -1
 NAtoms=     39 NQM=       39 NQMF=       0 NMMI=      0 NMMIF=      0
                NMic=       0 NMicF=      0.
                    Isotopes and Nuclear Properties:
 (Nuclear quadrupole moments (NQMom) in fm**2, nuclear magnetic moments (NMagM)
  in nuclear magnetons)

  Atom         1           2           3           4           5           6           7           8           9          10
 IAtWgt=          12           1           1           1          12          12           1           1           1          12
 AtmWgt=  12.0000000   1.0078250   1.0078250   1.0078250  12.0000000  12.0000000   1.0078250   1.0078250   1.0078250  12.0000000
 NucSpn=           0           1           1           1           0           0           1           1           1           0
 AtZEff=  -0.0000000  -0.0000000  -0.0000000  -0.0000000  -0.0000000  -0.0000000  -0.0000000  -0.0000000  -0.0000000  -0.0000000
 NQMom=    0.0000000   0.0000000   0.0000000   0.0000000   0.0000000   0.0000000   0.0000000   0.0000000   0.0000000   0.0000000
 NMagM=    0.0000000   2.7928460   2.7928460   2.7928460   0.0000000   0.0000000   2.7928460   2.7928460   2.7928460   0.0000000
 AtZNuc=   6.0000000   1.0000000   1.0000000   1.0000000   6.0000000   6.0000000   1.0000000   1.0000000   1.0000000   6.0000000

  Atom        11          12          13          14          15          16          17          18          19          20
 IAtWgt=           1           1           1          14           1          12           1           1          12          16
 AtmWgt=   1.0078250   1.0078250   1.0078250  14.0030740   1.0078250  12.0000000   1.0078250   1.0078250  12.0000000  15.9949146
 NucSpn=           1           1           1           2           1           0           1           1           0           0
 AtZEff=  -0.0000000  -0.0000000  -0.0000000  -0.0000000  -0.0000000  -0.0000000  -0.0000000  -0.0000000  -0.0000000  -0.0000000
 NQMom=    0.0000000   0.0000000   0.0000000   2.0440000   0.0000000   0.0000000   0.0000000   0.0000000   0.0000000   0.0000000
 NMagM=    2.7928460   2.7928460   2.7928460   0.4037610   2.7928460   0.0000000   2.7928460   2.7928460   0.0000000   0.0000000
 AtZNuc=   1.0000000   1.0000000   1.0000000   7.0000000   1.0000000   6.0000000   1.0000000   1.0000000   6.0000000   8.0000000

  Atom        21          22          23          24          25          26          27          28          29          30
 IAtWgt=           1           1          12          12           1          12          12          16           1           1
 AtmWgt=   1.0078250   1.0078250  12.0000000  12.0000000   1.0078250  12.0000000  12.0000000  15.9949146   1.0078250   1.0078250
 NucSpn=           1           1           0           0           1           0           0           0           1           1
 AtZEff=  -0.0000000  -0.0000000  -0.0000000  -0.0000000  -0.0000000  -0.0000000  -0.0000000  -0.0000000  -0.0000000  -0.0000000
 NQMom=    0.0000000   0.0000000   0.0000000   0.0000000   0.0000000   0.0000000   0.0000000   0.0000000   0.0000000   0.0000000
 NMagM=    2.7928460   2.7928460   0.0000000   0.0000000   2.7928460   0.0000000   0.0000000   0.0000000   2.7928460   2.7928460
 AtZNuc=   1.0000000   1.0000000   6.0000000   6.0000000   1.0000000   6.0000000   6.0000000   8.0000000   1.0000000   1.0000000

  Atom        31          32          33          34          35          36          37          38          39
 IAtWgt=           1          12          16           1          12           1          12           1           1
 AtmWgt=   1.0078250  12.0000000  15.9949146   1.0078250  12.0000000   1.0078250  12.0000000   1.0078250   1.0078250
 NucSpn=           1           0           0           1           0           1           0           1           1
 AtZEff=  -0.0000000  -0.0000000  -0.0000000  -0.0000000  -0.0000000  -0.0000000  -0.0000000  -0.0000000  -0.0000000
 NQMom=    0.0000000   0.0000000   0.0000000   0.0000000   0.0000000   0.0000000   0.0000000   0.0000000   0.0000000
 NMagM=    2.7928460   0.0000000   0.0000000   2.7928460   0.0000000   2.7928460   0.0000000   2.7928460   2.7928460
 AtZNuc=   1.0000000   6.0000000   8.0000000   1.0000000   6.0000000   1.0000000   6.0000000   1.0000000   1.0000000
 Leave Link  101 at Sun Jul 18 14:47:51 2021, MaxMem=   104857600 cpu:               0.1 elap:               0.1
 (Enter /dades/curu/g16A03_MST/g16/l103.exe)

 GradGradGradGradGradGradGradGradGradGradGradGradGradGradGradGradGradGrad
 Berny optimization.
 Initialization pass.
                           ----------------------------
                           !    Initial Parameters    !
                           ! (Angstroms and Degrees)  !
 --------------------------                            --------------------------
 ! Name  Definition              Value          Derivative Info.                !
 --------------------------------------------------------------------------------
 ! R1    R(1,2)                  1.0922         estimate D2E/DX2                !
 ! R2    R(1,3)                  1.0922         estimate D2E/DX2                !
 ! R3    R(1,4)                  1.092          estimate D2E/DX2                !
 ! R4    R(1,5)                  1.4719         estimate D2E/DX2                !
 ! R5    R(5,6)                  1.4902         estimate D2E/DX2                !
 ! R6    R(5,10)                 1.547          estimate D2E/DX2                !
 ! R7    R(5,14)                 1.5101         estimate D2E/DX2                !
 ! R8    R(6,7)                  1.0921         estimate D2E/DX2                !
 ! R9    R(6,8)                  1.0919         estimate D2E/DX2                !
 ! R10   R(6,9)                  1.0929         estimate D2E/DX2                !
 ! R11   R(10,11)                1.0921         estimate D2E/DX2                !
 ! R12   R(10,12)                1.092          estimate D2E/DX2                !
 ! R13   R(10,13)                1.0921         estimate D2E/DX2                !
 ! R14   R(14,15)                0.9997         estimate D2E/DX2                !
 ! R15   R(14,16)                1.4741         estimate D2E/DX2                !
 ! R16   R(14,39)                0.9997         estimate D2E/DX2                !
 ! R17   R(16,17)                1.0925         estimate D2E/DX2                !
 ! R18   R(16,18)                1.0936         estimate D2E/DX2                !
 ! R19   R(16,19)                1.5777         estimate D2E/DX2                !
 ! R20   R(19,20)                1.4276         estimate D2E/DX2                !
 ! R21   R(19,22)                1.0927         estimate D2E/DX2                !
 ! R22   R(19,23)                1.5331         estimate D2E/DX2                !
 ! R23   R(20,21)                0.9737         estimate D2E/DX2                !
 ! R24   R(23,24)                1.4258         estimate D2E/DX2                !
 ! R25   R(23,37)                1.4082         estimate D2E/DX2                !
 ! R26   R(24,25)                1.0868         estimate D2E/DX2                !
 ! R27   R(24,26)                1.4212         estimate D2E/DX2                !
 ! R28   R(26,27)                1.5343         estimate D2E/DX2                !
 ! R29   R(26,32)                1.3782         estimate D2E/DX2                !
 ! R30   R(27,28)                1.3948         estimate D2E/DX2                !
 ! R31   R(27,30)                1.0934         estimate D2E/DX2                !
 ! R32   R(27,31)                1.0923         estimate D2E/DX2                !
 ! R33   R(28,29)                0.9748         estimate D2E/DX2                !
 ! R34   R(32,33)                1.3534         estimate D2E/DX2                !
 ! R35   R(32,35)                1.3589         estimate D2E/DX2                !
 ! R36   R(33,34)                0.9741         estimate D2E/DX2                !
 ! R37   R(35,36)                1.0869         estimate D2E/DX2                !
 ! R38   R(35,37)                1.3869         estimate D2E/DX2                !
 ! R39   R(37,38)                1.0871         estimate D2E/DX2                !
 ! A1    A(2,1,3)              113.0387         estimate D2E/DX2                !
 ! A2    A(2,1,4)              106.0606         estimate D2E/DX2                !
 ! A3    A(2,1,5)              105.3805         estimate D2E/DX2                !
 ! A4    A(3,1,4)               99.0604         estimate D2E/DX2                !
 ! A5    A(3,1,5)              114.6423         estimate D2E/DX2                !
 ! A6    A(4,1,5)              118.6022         estimate D2E/DX2                !
 ! A7    A(1,5,6)              110.9716         estimate D2E/DX2                !
 ! A8    A(1,5,10)             111.9045         estimate D2E/DX2                !
 ! A9    A(1,5,14)             109.6197         estimate D2E/DX2                !
 ! A10   A(6,5,10)             119.0499         estimate D2E/DX2                !
 ! A11   A(6,5,14)             106.1105         estimate D2E/DX2                !
 ! A12   A(10,5,14)             97.913          estimate D2E/DX2                !
 ! A13   A(5,6,7)              107.3404         estimate D2E/DX2                !
 ! A14   A(5,6,8)              113.7682         estimate D2E/DX2                !
 ! A15   A(5,6,9)              114.6859         estimate D2E/DX2                !
 ! A16   A(7,6,8)              106.9472         estimate D2E/DX2                !
 ! A17   A(7,6,9)               98.9742         estimate D2E/DX2                !
 ! A18   A(8,6,9)              113.517          estimate D2E/DX2                !
 ! A19   A(5,10,11)            118.044          estimate D2E/DX2                !
 ! A20   A(5,10,12)            109.95           estimate D2E/DX2                !
 ! A21   A(5,10,13)            105.9199         estimate D2E/DX2                !
 ! A22   A(11,10,12)           111.3705         estimate D2E/DX2                !
 ! A23   A(11,10,13)           106.6475         estimate D2E/DX2                !
 ! A24   A(12,10,13)           103.7096         estimate D2E/DX2                !
 ! A25   A(5,14,15)            107.5138         estimate D2E/DX2                !
 ! A26   A(5,14,16)            118.6875         estimate D2E/DX2                !
 ! A27   A(5,14,39)            107.4845         estimate D2E/DX2                !
 ! A28   A(15,14,16)           107.4847         estimate D2E/DX2                !
 ! A29   A(15,14,39)           107.7441         estimate D2E/DX2                !
 ! A30   A(16,14,39)           107.4974         estimate D2E/DX2                !
 ! A31   A(14,16,17)           106.2165         estimate D2E/DX2                !
 ! A32   A(14,16,18)           112.0288         estimate D2E/DX2                !
 ! A33   A(14,16,19)           118.1913         estimate D2E/DX2                !
 ! A34   A(17,16,18)           111.1804         estimate D2E/DX2                !
 ! A35   A(17,16,19)           112.7116         estimate D2E/DX2                !
 ! A36   A(18,16,19)            96.397          estimate D2E/DX2                !
 ! A37   A(16,19,20)           108.9219         estimate D2E/DX2                !
 ! A38   A(16,19,22)           103.9741         estimate D2E/DX2                !
 ! A39   A(16,19,23)           116.4373         estimate D2E/DX2                !
 ! A40   A(20,19,22)           103.7783         estimate D2E/DX2                !
 ! A41   A(20,19,23)           108.0138         estimate D2E/DX2                !
 ! A42   A(22,19,23)           114.8904         estimate D2E/DX2                !
 ! A43   A(19,20,21)           107.8536         estimate D2E/DX2                !
 ! A44   A(19,23,24)           121.6273         estimate D2E/DX2                !
 ! A45   A(19,23,37)           122.691          estimate D2E/DX2                !
 ! A46   A(24,23,37)           114.8613         estimate D2E/DX2                !
 ! A47   A(23,24,25)           116.9866         estimate D2E/DX2                !
 ! A48   A(23,24,26)           119.9554         estimate D2E/DX2                !
 ! A49   A(25,24,26)           121.1818         estimate D2E/DX2                !
 ! A50   A(24,26,27)           117.8273         estimate D2E/DX2                !
 ! A51   A(24,26,32)           120.1489         estimate D2E/DX2                !
 ! A52   A(27,26,32)           121.8965         estimate D2E/DX2                !
 ! A53   A(26,27,28)           107.7586         estimate D2E/DX2                !
 ! A54   A(26,27,30)           105.0612         estimate D2E/DX2                !
 ! A55   A(26,27,31)           104.4409         estimate D2E/DX2                !
 ! A56   A(28,27,30)           112.8906         estimate D2E/DX2                !
 ! A57   A(28,27,31)           113.9314         estimate D2E/DX2                !
 ! A58   A(30,27,31)           111.8921         estimate D2E/DX2                !
 ! A59   A(27,28,29)           103.7356         estimate D2E/DX2                !
 ! A60   A(26,32,33)           123.3004         estimate D2E/DX2                !
 ! A61   A(26,32,35)           119.2561         estimate D2E/DX2                !
 ! A62   A(33,32,35)           117.005          estimate D2E/DX2                !
 ! A63   A(32,33,34)           110.9081         estimate D2E/DX2                !
 ! A64   A(32,35,36)           119.6309         estimate D2E/DX2                !
 ! A65   A(32,35,37)           120.5894         estimate D2E/DX2                !
 ! A66   A(36,35,37)           119.4495         estimate D2E/DX2                !
 ! A67   A(23,37,35)           122.2949         estimate D2E/DX2                !
 ! A68   A(23,37,38)           115.1574         estimate D2E/DX2                !
 ! A69   A(35,37,38)           121.0598         estimate D2E/DX2                !
 ! D1    D(2,1,5,6)            -70.0752         estimate D2E/DX2                !
 ! D2    D(2,1,5,10)            65.5352         estimate D2E/DX2                !
 ! D3    D(2,1,5,14)           173.0444         estimate D2E/DX2                !
 ! D4    D(3,1,5,6)            164.9829         estimate D2E/DX2                !
 ! D5    D(3,1,5,10)           -59.4067         estimate D2E/DX2                !
 ! D6    D(3,1,5,14)            48.1026         estimate D2E/DX2                !
 ! D7    D(4,1,5,6)             48.4016         estimate D2E/DX2                !
 ! D8    D(4,1,5,10)          -175.9879         estimate D2E/DX2                !
 ! D9    D(4,1,5,14)           -68.4787         estimate D2E/DX2                !
 ! D10   D(1,5,6,7)             92.8542         estimate D2E/DX2                !
 ! D11   D(1,5,6,8)            -25.2565         estimate D2E/DX2                !
 ! D12   D(1,5,6,9)           -158.2787         estimate D2E/DX2                !
 ! D13   D(10,5,6,7)           -39.2068         estimate D2E/DX2                !
 ! D14   D(10,5,6,8)          -157.3176         estimate D2E/DX2                !
 ! D15   D(10,5,6,9)            69.6603         estimate D2E/DX2                !
 ! D16   D(14,5,6,7)          -148.1331         estimate D2E/DX2                !
 ! D17   D(14,5,6,8)            93.7562         estimate D2E/DX2                !
 ! D18   D(14,5,6,9)           -39.2659         estimate D2E/DX2                !
 ! D19   D(1,5,10,11)          166.4575         estimate D2E/DX2                !
 ! D20   D(1,5,10,12)           37.216          estimate D2E/DX2                !
 ! D21   D(1,5,10,13)          -74.236          estimate D2E/DX2                !
 ! D22   D(6,5,10,11)          -61.8904         estimate D2E/DX2                !
 ! D23   D(6,5,10,12)          168.8682         estimate D2E/DX2                !
 ! D24   D(6,5,10,13)           57.4162         estimate D2E/DX2                !
 ! D25   D(14,5,10,11)          51.5428         estimate D2E/DX2                !
 ! D26   D(14,5,10,12)         -77.6987         estimate D2E/DX2                !
 ! D27   D(14,5,10,13)         170.8493         estimate D2E/DX2                !
 ! D28   D(1,5,14,15)          -57.2713         estimate D2E/DX2                !
 ! D29   D(1,5,14,16)           64.857          estimate D2E/DX2                !
 ! D30   D(1,5,14,39)         -173.0224         estimate D2E/DX2                !
 ! D31   D(6,5,14,15)         -177.1694         estimate D2E/DX2                !
 ! D32   D(6,5,14,16)          -55.0411         estimate D2E/DX2                !
 ! D33   D(6,5,14,39)           67.0795         estimate D2E/DX2                !
 ! D34   D(10,5,14,15)          59.4345         estimate D2E/DX2                !
 ! D35   D(10,5,14,16)        -178.4372         estimate D2E/DX2                !
 ! D36   D(10,5,14,39)         -56.3167         estimate D2E/DX2                !
 ! D37   D(5,14,16,17)          66.3933         estimate D2E/DX2                !
 ! D38   D(5,14,16,18)         -55.1798         estimate D2E/DX2                !
 ! D39   D(5,14,16,19)        -165.8654         estimate D2E/DX2                !
 ! D40   D(15,14,16,17)       -171.4638         estimate D2E/DX2                !
 ! D41   D(15,14,16,18)         66.9631         estimate D2E/DX2                !
 ! D42   D(15,14,16,19)        -43.7225         estimate D2E/DX2                !
 ! D43   D(39,14,16,17)        -55.7208         estimate D2E/DX2                !
 ! D44   D(39,14,16,18)       -177.2939         estimate D2E/DX2                !
 ! D45   D(39,14,16,19)         72.0205         estimate D2E/DX2                !
 ! D46   D(14,16,19,20)         44.0855         estimate D2E/DX2                !
 ! D47   D(14,16,19,22)        -66.0814         estimate D2E/DX2                !
 ! D48   D(14,16,19,23)        166.466          estimate D2E/DX2                !
 ! D49   D(17,16,19,20)        168.6845         estimate D2E/DX2                !
 ! D50   D(17,16,19,22)         58.5176         estimate D2E/DX2                !
 ! D51   D(17,16,19,23)        -68.935          estimate D2E/DX2                !
 ! D52   D(18,16,19,20)        -75.1443         estimate D2E/DX2                !
 ! D53   D(18,16,19,22)        174.6889         estimate D2E/DX2                !
 ! D54   D(18,16,19,23)         47.2362         estimate D2E/DX2                !
 ! D55   D(16,19,20,21)        -53.9081         estimate D2E/DX2                !
 ! D56   D(22,19,20,21)         56.3899         estimate D2E/DX2                !
 ! D57   D(23,19,20,21)        178.7633         estimate D2E/DX2                !
 ! D58   D(16,19,23,24)        120.084          estimate D2E/DX2                !
 ! D59   D(16,19,23,37)        -70.8248         estimate D2E/DX2                !
 ! D60   D(20,19,23,24)       -117.0616         estimate D2E/DX2                !
 ! D61   D(20,19,23,37)         52.0297         estimate D2E/DX2                !
 ! D62   D(22,19,23,24)         -1.7864         estimate D2E/DX2                !
 ! D63   D(22,19,23,37)        167.3049         estimate D2E/DX2                !
 ! D64   D(19,23,24,25)         -8.3378         estimate D2E/DX2                !
 ! D65   D(19,23,24,26)       -172.9345         estimate D2E/DX2                !
 ! D66   D(37,23,24,25)       -178.228          estimate D2E/DX2                !
 ! D67   D(37,23,24,26)         17.1753         estimate D2E/DX2                !
 ! D68   D(19,23,37,35)       -179.7531         estimate D2E/DX2                !
 ! D69   D(19,23,37,38)         14.0416         estimate D2E/DX2                !
 ! D70   D(24,23,37,35)         -9.9829         estimate D2E/DX2                !
 ! D71   D(24,23,37,38)       -176.1882         estimate D2E/DX2                !
 ! D72   D(23,24,26,27)        174.3386         estimate D2E/DX2                !
 ! D73   D(23,24,26,32)         -9.6846         estimate D2E/DX2                !
 ! D74   D(25,24,26,27)         10.3995         estimate D2E/DX2                !
 ! D75   D(25,24,26,32)       -173.6237         estimate D2E/DX2                !
 ! D76   D(24,26,27,28)        -78.8239         estimate D2E/DX2                !
 ! D77   D(24,26,27,30)        160.5691         estimate D2E/DX2                !
 ! D78   D(24,26,27,31)         42.6634         estimate D2E/DX2                !
 ! D79   D(32,26,27,28)        105.2739         estimate D2E/DX2                !
 ! D80   D(32,26,27,30)        -15.3331         estimate D2E/DX2                !
 ! D81   D(32,26,27,31)       -133.2388         estimate D2E/DX2                !
 ! D82   D(24,26,32,33)       -178.4725         estimate D2E/DX2                !
 ! D83   D(24,26,32,35)         -6.306          estimate D2E/DX2                !
 ! D84   D(27,26,32,33)         -2.6635         estimate D2E/DX2                !
 ! D85   D(27,26,32,35)        169.503          estimate D2E/DX2                !
 ! D86   D(26,27,28,29)        -69.205          estimate D2E/DX2                !
 ! D87   D(30,27,28,29)         46.3514         estimate D2E/DX2                !
 ! D88   D(31,27,28,29)        175.4149         estimate D2E/DX2                !
 ! D89   D(26,32,33,34)        163.7356         estimate D2E/DX2                !
 ! D90   D(35,32,33,34)         -8.5947         estimate D2E/DX2                !
 ! D91   D(26,32,35,36)       -172.7494         estimate D2E/DX2                !
 ! D92   D(26,32,35,37)         13.8856         estimate D2E/DX2                !
 ! D93   D(33,32,35,36)         -0.0952         estimate D2E/DX2                !
 ! D94   D(33,32,35,37)       -173.4601         estimate D2E/DX2                !
 ! D95   D(32,35,37,23)         -5.4781         estimate D2E/DX2                !
 ! D96   D(32,35,37,38)        159.9291         estimate D2E/DX2                !
 ! D97   D(36,35,37,23)       -178.855          estimate D2E/DX2                !
 ! D98   D(36,35,37,38)        -13.4478         estimate D2E/DX2                !
 --------------------------------------------------------------------------------
 Trust Radius=3.00D-01 FncErr=1.00D-07 GrdErr=1.00D-06 EigMax=2.50D+02 EigMin=1.00D-04
 Number of steps in this run=    216 maximum allowed number of steps=    234.
 GradGradGradGradGradGradGradGradGradGradGradGradGradGradGradGradGradGrad

 Leave Link  103 at Sun Jul 18 14:47:51 2021, MaxMem=   104857600 cpu:               0.0 elap:               0.0
 (Enter /dades/curu/g16A03_MST/g16/l202.exe)
                          Input orientation:                          
 ---------------------------------------------------------------------
 Center     Atomic      Atomic             Coordinates (Angstroms)
 Number     Number       Type             X           Y           Z
 ---------------------------------------------------------------------
      1          6           0       -0.688000   -3.410000   -1.523000
      2          1           0       -0.857000   -4.145000   -2.313000
      3          1           0       -0.382000   -3.862000   -0.577000
      4          1           0        0.243000   -2.900000   -1.779000
      5          6           0       -1.928000   -2.620000   -1.453000
      6          6           0       -2.080000   -1.758000   -2.659000
      7          1           0       -2.673000   -2.317000   -3.386000
      8          1           0       -1.134000   -1.509000   -3.144000
      9          1           0       -2.741000   -0.898000   -2.525000
     10          6           0       -3.130000   -3.473000   -0.983000
     11          1           0       -4.041000   -2.953000   -0.679000
     12          1           0       -2.806000   -4.186000   -0.222000
     13          1           0       -3.399000   -4.105000   -1.832000
     14          7           0       -1.865000   -1.681000   -0.272000
     15          1           0       -1.716000   -2.236000    0.546000
     16          6           0       -0.851000   -0.611000   -0.272000
     17          1           0       -1.125000    0.069000   -1.082000
     18          1           0        0.160000   -1.004000   -0.411000
     19          6           0       -0.562000    0.142000    1.084000
     20          8           0       -0.474000   -0.818000    2.137000
     21          1           0       -1.286000   -1.355000    2.120000
     22          1           0       -1.493000    0.674000    1.294000
     23          6           0        0.701000    1.010000    1.127000
     24          6           0        0.637000    2.411000    1.384000
     25          1           0       -0.351000    2.863000    1.410000
     26          6           0        1.808000    3.208000    1.268000
     27          6           0        1.659000    4.727000    1.425000
     28          8           0        1.161000    5.232000    0.224000
     29          1           0        1.901000    5.117000   -0.400000
     30          1           0        2.665000    5.089000    1.654000
     31          1           0        0.980000    4.848000    2.272000
     32          6           0        3.039000    2.610000    1.105000
     33          8           0        4.197000    3.305000    1.018000
     34          1           0        4.964000    2.722000    1.162000
     35          6           0        3.136000    1.257000    1.186000
     36          1           0        4.116000    0.787000    1.177000
     37          6           0        1.999000    0.464000    1.142000
     38          1           0        2.060000   -0.590000    0.883000
     39          1           0       -2.761000   -1.246000   -0.186000
 ---------------------------------------------------------------------
                    Distance matrix (angstroms):
                    1          2          3          4          5
     1  C    0.000000
     2  H    1.092193   0.000000
     3  H    1.092179   1.821925   0.000000
     4  H    1.091969   1.745045   1.661587   0.000000
     5  C    1.471937   2.052381   2.167961   2.213124   0.000000
     6  C    2.440751   2.704295   3.412440   2.734025   1.490162
     7  H    2.933538   2.791195   3.940328   3.380147   2.093639
     8  H    2.537786   2.777730   3.562527   2.386260   2.173531
     9  H    3.395432   3.759975   4.259681   3.669983   2.185277
    10  C    2.501786   2.717906   2.804935   3.512702   1.547034
    11  H    3.487663   3.772092   3.771600   4.423287   2.274804
    12  H    2.603978   2.858769   2.471189   3.657109   2.176833
    13  H    2.815675   2.587417   3.276639   3.836535   2.124313
    14  N    2.437165   3.354555   2.655009   2.863682   1.510116
    15  H    2.591490   3.543451   2.384232   3.111945   2.046558
    16  C    3.070174   4.081038   3.298786   2.950831   2.567250
    17  H    3.533963   4.398293   4.032349   3.342483   2.830754
    18  H    2.782891   3.810220   2.913672   2.339472   2.838479
    19  C    4.407837   5.477682   4.338587   4.254240   3.991362
    20  O    4.489973   5.569391   4.079240   4.492646   4.271934
    21  H    4.225172   5.255438   3.791579   4.463974   3.844310
    22  H    5.026188   6.052909   5.030930   5.022997   4.311110
    23  C    5.337436   6.390226   5.273793   4.893128   5.171551
    24  C    6.640054   7.673394   6.650896   6.194072   6.319712
    25  H    6.933007   7.951656   7.012471   6.613224   6.383337
    26  C    7.603790   8.601883   7.627911   7.002935   7.438220
    27  C    8.967156   9.950642   9.052326   8.392961   8.667633
    28  O    9.008606   9.921533   9.258687   8.425210   8.602799
    29  H    8.981858   9.851435   9.266383   8.301981   8.696621
    30  H    9.673104  10.649335   9.715038   9.026389   9.496198
    31  H    9.240066  10.260158   9.264769   8.774125   8.837597
    32  C    7.552305   8.514198   7.511268   6.818737   7.652931
    33  O    8.683958   9.599009   8.653159   7.871426   8.872829
    34  H    8.761036   9.649630   8.657534   7.908489   9.103563
    35  C    6.613815   7.574210   6.456675   5.868673   6.902141
    36  H    6.926992   7.825308   6.702367   6.109995   7.419871
    37  C    5.415724   6.429358   5.228613   4.788765   5.627292
    38  H    4.614406   5.600119   4.336006   3.965329   5.047964
    39  H    3.281432   4.068605   3.557524   3.781188   2.046229
                    6          7          8          9         10
     6  C    0.000000
     7  H    1.092089   0.000000
     8  H    1.091853   1.754978   0.000000
     9  H    1.092921   1.661176   1.827274   0.000000
    10  C    2.617766   2.705475   3.537122   3.026501   0.000000
    11  H    3.032152   3.098995   4.075783   3.052989   1.092125
    12  H    3.515854   3.677193   4.301162   4.014845   1.092001
    13  H    2.816398   2.477688   3.686568   3.346351   1.092056
    14  N    2.397900   3.279383   2.968557   2.540959   2.305864
    15  H    3.260829   4.047596   3.805700   3.503129   2.422273
    16  C    2.919558   3.990879   3.022396   2.954738   3.726983
    17  H    2.595551   3.660289   2.596538   2.372508   4.071313
    18  H    3.261843   4.312828   3.065738   3.591105   4.152980
    19  C    4.463673   5.521223   4.574819   4.342179   4.892375
    20  O    5.144361   6.130753   5.366753   5.184586   4.882393
    21  H    4.861243   5.758928   5.268445   4.888957   4.185077
    22  H    4.678184   5.678105   4.958852   4.314331   5.006207
    23  C    5.452484   6.543697   5.287157   5.368886   6.263062
    24  C    6.411591   7.487522   6.245448   6.135197   7.376614
    25  H    6.395299   7.431400   6.361320   5.944867   7.320805
    26  C    7.429605   8.500865   7.097267   7.206905   8.607358
    27  C    8.527274   9.567125   8.219751   8.161074   9.796580
    28  O    8.226535   9.204296   7.877279   7.769138   9.779906
    29  H    8.259362   9.225076   7.787467   7.889488   9.971908
    30  H    9.380746  10.428072   8.999267   9.084770  10.669753
    31  H    8.793043   9.833341   8.614726   8.359041   9.834946
    32  C    7.710466   8.779029   7.241139   7.674071   8.911745
    33  O    8.863127   9.909541   8.301590   8.851774  10.179893
    34  H    9.180870  10.217612   8.580711   9.277144  10.415944
    35  C    7.147091   8.211038   6.680760   7.276996   8.144950
    36  H    7.718960   8.749075   7.176709   7.972608   8.678578
    37  C    6.001927   7.075615   5.663763   6.145692   6.806044
    38  H    5.572216   6.603649   5.221391   5.895670   6.223323
    39  H    2.615652   3.375616   3.386157   2.364831   2.393930
                   11         12         13         14         15
    11  H    0.000000
    12  H    1.803985   0.000000
    13  H    1.751764   1.717647   0.000000
    14  N    2.553157   2.676379   3.265353   0.000000
    15  H    2.724030   2.362292   3.461291   0.999675   0.000000
    16  C    3.978280   4.074942   4.597167   1.474142   2.014441
    17  H    4.218762   4.655146   4.812053   2.065478   2.883174
    18  H    4.638839   4.354079   4.929698   2.139690   2.439887
    19  C    4.979019   5.047054   5.881210   2.619136   2.697414
    20  O    5.021112   4.727212   5.925619   2.912547   2.466692
    21  H    4.240051   3.976170   5.257906   2.482575   1.854329
    22  H    4.851820   5.257549   6.020262   2.852502   3.012861
    23  C    6.438445   6.412275   7.192281   3.972787   4.088516
    24  C    7.410273   7.612745   8.312052   5.074131   5.275743
    25  H    7.197630   7.640605   8.267641   5.076343   5.348787
    26  C    8.715477   8.841964   9.497516   6.305938   6.525105
    27  C    9.792815  10.103980  10.686236   7.507386   7.787595
    28  O    9.740146  10.229112  10.592465   7.562557   8.009484
    29  H   10.025473  10.427528  10.732470   7.772512   8.248892
    30  H   10.727865  10.930546  11.552226   8.370381   8.606768
    31  H    9.735217  10.107769  10.778435   7.562658   7.773709
    32  C    9.179108   9.061488   9.755257   6.660182   6.812211
    33  O   10.483655  10.329312  10.987712   7.954379   8.117206
    34  H   10.802080  10.488509  11.203202   8.250940   8.341680
    35  C    8.527113   8.180225   8.975834   5.980603   6.012699
    36  H    9.163459   8.637246   9.458381   6.630459   6.599160
    37  C    7.174506   6.824296   7.671952   4.640142   4.631030
    38  H    6.726501   6.150626   7.037551   4.234375   4.132924
    39  H    2.189817   2.940565   3.360095   0.999718   1.614915
                   16         17         18         19         20
    16  C    0.000000
    17  H    1.092509   0.000000
    18  H    1.093568   1.803551   0.000000
    19  C    1.577741   2.239164   2.017331   0.000000
    20  O    2.447092   3.401842   2.632272   1.427639   0.000000
    21  H    2.542523   3.508062   2.935997   1.959204   0.973654
    22  H    2.125028   2.479279   2.907769   1.092650   1.993759
    23  C    2.644531   3.016527   2.591201   1.533115   2.396312
    24  C    3.753527   3.830243   3.887387   2.583788   3.496823
    25  H    3.892017   3.823032   4.304747   2.748570   3.754120
    26  C    4.901698   4.896765   4.824509   3.879576   4.708647
    27  C    6.137927   5.977681   6.201795   5.106011   5.983616
    28  O    6.199581   5.795516   6.347671   5.442098   6.552503
    29  H    6.356089   5.924872   6.363792   5.746238   6.877588
    30  H    6.968625   6.859315   6.903905   5.933906   6.706658
    31  H    6.294853   6.206382   6.489745   5.092695   5.851145
    32  C    5.234794   5.345891   4.862910   4.365623   5.015713
    33  O    6.517780   6.573080   6.075104   5.714631   6.330050
    34  H    6.854157   7.010697   6.279795   6.099111   6.561560
    35  C    4.638034   4.971045   4.064370   3.863785   4.271080
    36  H    5.359580   5.752103   4.623782   4.723172   4.956382
    37  C    3.358202   3.855072   2.819353   2.581815   2.957918
    38  H    3.131834   3.799965   2.335772   2.729672   2.836487
    39  H    2.014627   2.282222   2.939631   2.893967   3.287838
                   21         22         23         24         25
    21  H    0.000000
    22  H    2.200447   0.000000
    23  C    3.244602   2.225853   0.000000
    24  C    4.292130   2.749940   1.425814   0.000000
    25  H    4.378339   2.471708   2.149512   1.086795   0.000000
    26  C    5.578504   4.161542   2.465063   1.421234   2.190997
    27  C    6.793142   5.136056   3.850020   2.531802   2.741317
    28  O    7.278131   5.381819   4.341923   3.094869   3.050394
    29  H    7.641607   5.842013   4.543036   3.478906   3.664440
    30  H    7.573156   6.075425   4.557770   3.370069   3.756444
    31  H    6.605685   4.949191   4.014861   2.616326   2.540636
    32  C    5.954584   4.931819   2.833148   2.426324   3.413083
    33  O    7.279649   6.274905   4.183410   3.688739   4.586211
    34  H    7.523443   6.775292   4.594055   4.343839   5.322651
    35  C    5.220056   4.666818   2.448206   2.759696   3.845592
    36  H    5.887191   5.611358   3.422638   3.844953   4.931344
    37  C    3.880267   3.501609   1.408242   2.388392   3.368906
    38  H    3.648439   3.793471   2.113390   3.358859   4.244274
    39  H    2.739551   2.735804   4.335775   5.233063   5.023863
                   26         27         28         29         30
    26  C    0.000000
    27  C    1.534344   0.000000
    28  O    2.367514   1.394787   0.000000
    29  H    2.536761   1.881831   0.974783   0.000000
    30  H    2.102762   1.093399   2.080232   2.191665   0.000000
    31  H    2.093609   1.092287   2.091536   2.839047   1.810864
    32  C    1.378236   2.547251   3.343341   3.137693   2.566460
    33  O    2.404003   2.937546   3.682535   3.250490   2.436016
    34  H    3.194960   3.874560   4.652177   4.190207   3.336189
    35  C    2.361506   3.778829   4.541662   4.352036   3.889099
    36  H    3.346100   4.649941   5.422016   5.112930   4.565100
    37  C    2.753524   4.285891   4.927351   4.902834   4.700673
    38  H    3.825772   5.359576   5.927745   5.851600   5.762943
    39  H    6.544310   7.603187   7.583843   7.890995   8.541622
                   31         32         33         34         35
    31  H    0.000000
    32  C    3.257302   0.000000
    33  O    3.781859   1.353351   0.000000
    34  H    4.650186   1.929098   0.974122   0.000000
    35  C    4.327010   1.358889   2.312628   2.342730   0.000000
    36  H    5.246450   2.118594   2.524315   2.112712   1.086914
    37  C    4.640551   2.385013   3.594143   3.726954   1.386922
    38  H    5.715555   3.353763   4.444774   4.413661   2.158934
    39  H    7.561328   7.083461   8.400892   8.788501   6.551489
                   36         37         38         39
    36  H    0.000000
    37  C    2.141785   0.000000
    38  H    2.491927   1.087069   0.000000
    39  H    7.299588   5.229272   4.981479   0.000000
 Stoichiometry    C13H22NO3(1+)
 Framework group  C1[X(C13H22NO3)]
 Deg. of freedom   111
 Full point group                 C1      NOp   1
 Largest Abelian subgroup         C1      NOp   1
 Largest concise Abelian subgroup C1      NOp   1
                         Standard orientation:                         
 ---------------------------------------------------------------------
 Center     Atomic      Atomic             Coordinates (Angstroms)
 Number     Number       Type             X           Y           Z
 ---------------------------------------------------------------------
      1          6           0       -4.091912   -1.215726   -1.047009
      2          1           0       -4.984758   -1.334549   -1.664742
      3          1           0       -4.002476   -1.981367   -0.273283
      4          1           0       -3.248344   -1.507531   -1.676009
      5          6           0       -4.148640    0.165108   -0.540375
      6          6           0       -3.907194    1.145623   -1.636220
      7          1           0       -4.881572    1.429437   -2.039577
      8          1           0       -3.324066    0.742645   -2.466710
      9          1           0       -3.567940    2.129329   -1.301993
     10          6           0       -5.349370    0.382050    0.410676
     11          1           0       -5.365812    1.289486    1.018150
     12          1           0       -5.506109   -0.509031    1.022129
     13          1           0       -6.234687    0.416866   -0.227751
     14          7           0       -3.044181    0.381575    0.466483
     15          1           0       -3.159219   -0.298506    1.190089
     16          6           0       -1.644872    0.308670    0.008537
     17          1           0       -1.499952    1.156027   -0.665674
     18          1           0       -1.426488   -0.637814   -0.493824
     19          6           0       -0.509071    0.195703    1.097785
     20          8           0       -0.906347   -0.757260    2.083780
     21          1           0       -1.782648   -0.494413    2.416960
     22          1           0       -0.554228    1.151051    1.626139
     23          6           0        0.884182   -0.197225    0.592916
     24          6           0        2.013191    0.654229    0.775434
     25          1           0        1.821261    1.651760    1.161720
     26          6           0        3.254301    0.327834    0.164681
     27          6           0        4.399160    1.342582    0.282137
     28          8           0        4.170876    2.351667   -0.653311
     29          1           0        4.315752    1.910047   -1.510156
     30          1           0        5.308099    0.770414    0.077257
     31          1           0        4.356815    1.682166    1.319432
     32          6           0        3.428935   -0.900963   -0.434564
     33          8           0        4.591644   -1.289528   -1.007873
     34          1           0        4.606846   -2.253970   -1.144011
     35          6           0        2.452449   -1.839301   -0.322421
     36          1           0        2.630759   -2.846893   -0.688952
     37          6           0        1.187646   -1.491363    0.127875
     38          1           0        0.326657   -2.123309   -0.074754
     39          1           0       -3.180836    1.284764    0.872699
 ---------------------------------------------------------------------
 Rotational constants (GHZ):           0.9449847           0.1735357           0.1675542
 Leave Link  202 at Sun Jul 18 14:47:51 2021, MaxMem=   104857600 cpu:               0.0 elap:               0.0
 (Enter /dades/curu/g16A03_MST/g16/l301.exe)
 Standard basis: 6-31G(d) (6D, 7F)
 Ernie: Thresh=  0.10000D-02 Tol=  0.10000D-05 Strict=F.
 There are   299 symmetry adapted cartesian basis functions of A   symmetry.
 There are   299 symmetry adapted basis functions of A   symmetry.
   299 basis functions,   564 primitive gaussians,   299 cartesian basis functions
    65 alpha electrons       65 beta electrons
       nuclear repulsion energy      1240.8491815568 Hartrees.
 IExCor=  402 DFT=T Ex+Corr=B3LYP ExCW=0 ScaHFX=  0.200000
 ScaDFX=  0.800000  0.720000  1.000000  0.810000 ScalE2=  1.000000  1.000000
 IRadAn=      5 IRanWt=     -1 IRanGd=            0 ICorTp=0 IEmpDi=  4
 NAtoms=   39 NActive=   39 NUniq=   39 SFac= 1.00D+00 NAtFMM=   60 NAOKFM=F Big=F
 Integral buffers will be    131072 words long.
 Raffenetti 2 integral format.
 Two-electron integral symmetry is turned on.
 Using the following non-standard input for PCM:
 MSTModel=DFT cav MSTCharged
 --- end of non-standard input.
 MST model for solvation energy: B3LYP parametrization.
 MST cavity parameters:
 ISph   IAn     Re0     Alpha   Atom Type   QCorr
 ------------------------------------------------
   1      6     1.50     1.50      CH3        F
   2      1     1.20     1.50      CH3        F
   3      1     1.20     1.50      CH3        F
   4      1     1.20     1.50      CH3        F
   5      6     1.50     1.50      CN+        F
   6      6     1.50     1.50      CH3        F
   7      1     1.20     1.50      CH3        F
   8      1     1.20     1.50      CH3        F
   9      1     1.20     1.50      CH3        F
  10      6     1.50     1.50      CH3        F
  11      1     1.20     1.50      CH3        F
  12      1     1.20     1.50      CH3        F
  13      1     1.20     1.50      CH3        F
  14      7     1.50     1.15      NH+        T
  15      1     0.90     1.15      NH+        T
  16      6     1.50     1.50      CN+        F
  17      1     1.20     1.50      CN+        F
  18      1     1.20     1.50      CN+        F
  19      6     1.50     1.50      CH         F
  20      8     1.40     1.50      OH         F
  21      1     0.90     1.50      OH         F
  22      1     1.20     1.50      CH         F
  23      6     1.50     1.50      C          F
  24      6     1.50     1.50      CH         F
  25      1     1.20     1.50      CH         F
  26      6     1.50     1.50      C          F
  27      6     1.50     1.50      CH2        F
  28      8     1.40     1.50      OH         F
  29      1     0.90     1.50      OH         F
  30      1     1.20     1.50      CH2        F
  31      1     1.20     1.50      CH2        F
  32      6     1.50     1.50      C          F
  33      8     1.40     1.50      OH         F
  34      1     0.90     1.50      OH         F
  35      6     1.50     1.50      CH         F
  36      1     1.20     1.50      CH         F
  37      6     1.50     1.50      CH         F
  38      1     1.20     1.50      CH         F
  39      1     0.90     1.15      NH+        T
 ------------------------------------------------------------------------------
 Polarizable Continuum Model (PCM)
 =================================
 Model                : PCM.
 Atomic radii         : MST.
 Polarization charges : Total charges.
 Charge compensation  : None.
 Solution method      : On-the-fly selection.
 Cavity type          : Scaled VdW (van der Waals Surface) (Alpha=1.500).
 Cavity algorithm     : GePol (No added spheres)
                        Default sphere list used, NSphG=   39.
                        Lebedev-Laikov grids with approx.  5.0 points / Ang**2.
                        Smoothing algorithm: York/Karplus (Gamma=1.0000).
                        Polarization charges: spherical gaussians, with
                                              point-specific exponents (IZeta= 3).
                        Self-potential: point-specific (ISelfS= 7).
                        Self-field    : sphere-specific E.n sum rule (ISelfD= 2).
 1st derivatives      : Analytical E(r).r(x)/FMM algorithm (CHGder, D1EAlg=3).
                        Cavity 1st derivative terms included.
 Solvent              : n-Octanol, Eps=   9.862900 Eps(inf)=   2.043470
 ------------------------------------------------------------------------------
 GePol: Number of generator spheres                  =      39
 GePol: Total number of spheres                      =      39
 GePol: Number of exposed spheres                    =      39 (100.00%)
 GePol: Number of points                             =    3317
 GePol: Average weight of points                     =       0.11
 GePol: Minimum weight of points                     =   0.54D-11
 GePol: Maximum weight of points                     =    0.20228
 GePol: Number of points with low weight             =     193
 GePol: Fraction of low-weight points (<1% of avg)   =       5.82%
 GePol: Cavity surface area                          =    366.840 Ang**2
 GePol: Cavity volume                                =    416.359 Ang**3
 Surface areas from nonelectrostatic (unscaled) cavity and vdw tensions:
 Sphere =    1 Type =  CH3 Surf =        4.412 Tension =       -0.183
 Sphere =    2 Type =  CH3 Surf =        9.989 Tension =       -0.183
 Sphere =    3 Type =  CH3 Surf =       10.049 Tension =       -0.183
 Sphere =    4 Type =  CH3 Surf =        9.753 Tension =       -0.183
 Sphere =    5 Type =  CN+ Surf =        1.725 Tension =       -0.227
 Sphere =    6 Type =  CH3 Surf =        4.355 Tension =       -0.183
 Sphere =    7 Type =  CH3 Surf =        9.882 Tension =       -0.183
 Sphere =    8 Type =  CH3 Surf =        9.908 Tension =       -0.183
 Sphere =    9 Type =  CH3 Surf =        9.840 Tension =       -0.183
 Sphere =   10 Type =  CH3 Surf =        4.629 Tension =       -0.183
 Sphere =   11 Type =  CH3 Surf =       10.105 Tension =       -0.183
 Sphere =   12 Type =  CH3 Surf =        9.962 Tension =       -0.183
 Sphere =   13 Type =  CH3 Surf =        9.980 Tension =       -0.183
 Sphere =   14 Type =  NH+ Surf =        6.684 Tension =       -0.274
 Sphere =   15 Type =  NH+ Surf =        3.809 Tension =       -0.274
 Sphere =   16 Type =  CN+ Surf =        3.951 Tension =       -0.227
 Sphere =   17 Type =  CN+ Surf =        9.515 Tension =       -0.227
 Sphere =   18 Type =  CN+ Surf =        9.033 Tension =       -0.227
 Sphere =   19 Type =  CH  Surf =        3.327 Tension =       -0.195
 Sphere =   20 Type =  OH  Surf =       14.200 Tension =       -0.238
 Sphere =   21 Type =  OH  Surf =        4.413 Tension =       -0.238
 Sphere =   22 Type =  CH  Surf =        9.874 Tension =       -0.195
 Sphere =   23 Type =  C   Surf =        6.364 Tension =       -0.205
 Sphere =   24 Type =  CH  Surf =        7.806 Tension =       -0.195
 Sphere =   25 Type =  CH  Surf =       10.191 Tension =       -0.195
 Sphere =   26 Type =  C   Surf =        6.013 Tension =       -0.205
 Sphere =   27 Type =  CH2 Surf =        4.610 Tension =       -0.194
 Sphere =   28 Type =  OH  Surf =       14.418 Tension =       -0.238
 Sphere =   29 Type =  OH  Surf =        4.420 Tension =       -0.238
 Sphere =   30 Type =  CH2 Surf =        9.409 Tension =       -0.194
 Sphere =   31 Type =  CH2 Surf =        9.984 Tension =       -0.194
 Sphere =   32 Type =  C   Surf =        6.433 Tension =       -0.205
 Sphere =   33 Type =  OH  Surf =       13.735 Tension =       -0.238
 Sphere =   34 Type =  OH  Surf =        4.409 Tension =       -0.238
 Sphere =   35 Type =  CH  Surf =        7.485 Tension =       -0.195
 Sphere =   36 Type =  CH  Surf =       10.136 Tension =       -0.195
 Sphere =   37 Type =  CH  Surf =        7.687 Tension =       -0.195
 Sphere =   38 Type =  CH  Surf =        9.956 Tension =       -0.195
 Sphere =   39 Type =  NH+ Surf =        3.816 Tension =       -0.274
 PCM non-electrostatic energy =        -0.0180990115 Hartrees.
 Nuclear repulsion after PCM non-electrostatic terms =     1240.8310825453 Hartrees.
 Leave Link  301 at Sun Jul 18 14:47:51 2021, MaxMem=   104857600 cpu:               0.1 elap:               0.1
 (Enter /dades/curu/g16A03_MST/g16/l302.exe)
 NPDir=0 NMtPBC=     1 NCelOv=     1 NCel=       1 NClECP=     1 NCelD=      1
         NCelK=      1 NCelE2=     1 NClLst=     1 CellRange=     0.0.
 One-electron integrals computed using PRISM.
 One-electron integral symmetry used in STVInt
 NBasis=   299 RedAO= T EigKep=  5.00D-04  NBF=   299
 NBsUse=   299 1.00D-06 EigRej= -1.00D+00 NBFU=   299
 Precomputing XC quadrature grid using
 IXCGrd= 4 IRadAn=           5 IRanWt=          -1 IRanGd=           0 AccXCQ= 0.00D+00.
 Generated NRdTot=       0 NPtTot=           0 NUsed=           0 NTot=          32
 NSgBfM=   296   296   296   296   296 MxSgAt=    39 MxSgA2=    39.
 Leave Link  302 at Sun Jul 18 14:47:52 2021, MaxMem=   104857600 cpu:               5.2 elap:               1.4
 (Enter /dades/curu/g16A03_MST/g16/l303.exe)
 DipDrv:  MaxL=1.
 Leave Link  303 at Sun Jul 18 14:47:52 2021, MaxMem=   104857600 cpu:               0.1 elap:               0.1
 (Enter /dades/curu/g16A03_MST/g16/l401.exe)
 ExpMin= 1.61D-01 ExpMax= 5.48D+03 ExpMxC= 8.25D+02 IAcc=3 IRadAn=         5 AccDes= 0.00D+00
 Harris functional with IExCor=  402 and IRadAn=       5 diagonalized for initial guess.
 HarFok:  IExCor=  402 AccDes= 0.00D+00 IRadAn=         5 IDoV= 1 UseB2=F ITyADJ=14
 ICtDFT=  3500011 ScaDFX=  1.000000  1.000000  1.000000  1.000000
 FoFCou: FMM=F IPFlag=           0 FMFlag=      100000 FMFlg1=           0
         NFxFlg=           0 DoJE=T BraDBF=F KetDBF=T FulRan=T
         wScrn=  0.000000 ICntrl=       500 IOpCl=  0 I1Cent=   200000004 NGrid=           0
         NMat0=    1 NMatS0=      1 NMatT0=    0 NMatD0=    1 NMtDS0=    0 NMtDT0=    0
 Petite list used in FoFCou.
 Harris En= -788.839558358816    
 JPrj=0 DoOrth=F DoCkMO=F.
 Leave Link  401 at Sun Jul 18 14:48:01 2021, MaxMem=   104857600 cpu:              32.4 elap:               8.2
 (Enter /dades/curu/g16A03_MST/g16/l502.exe)
 Integral symmetry usage will be decided dynamically.
 Closed shell SCF:
 Using DIIS extrapolation, IDIIS=  1040.
 NGot=   104857600 LenX=   104673418 LenY=   104583576
 Requested convergence on RMS density matrix=1.00D-08 within 128 cycles.
 Requested convergence on MAX density matrix=1.00D-06.
 Requested convergence on             energy=1.00D-06.
 No special actions if energy rises.
 Fock matrices will be formed incrementally for  20 cycles.

 Cycle   1  Pass 1  IDiag  1:
 FoFJK:  IHMeth= 1 ICntrl=       0 DoSepK=F KAlg= 0 I1Cent=           0 FoldK=F
 IRaf= 770000000 NMat=       1 IRICut=       1 DoRegI=T DoRafI=F ISym2E= 0 IDoP0=0 IntGTp=1.
 FoFCou: FMM=F IPFlag=           0 FMFlag=      100000 FMFlg1=           0
         NFxFlg=           0 DoJE=F BraDBF=F KetDBF=F FulRan=T
         wScrn=  0.000000 ICntrl=         0 IOpCl=  0 I1Cent=           0 NGrid=           0
         NMat0=    1 NMatS0=      1 NMatT0=    0 NMatD0=    1 NMtDS0=    0 NMtDT0=    0
 Symmetry not used in FoFCou.
 Inv3:  Mode=1 IEnd=    33007467.
 Iteration    1 A*A^-1 deviation from unit magnitude is 5.11D-15 for   3275.
 Iteration    1 A*A^-1 deviation from orthogonality  is 3.33D-15 for   3311   1573.
 Iteration    1 A^-1*A deviation from unit magnitude is 5.11D-15 for   3275.
 Iteration    1 A^-1*A deviation from orthogonality  is 2.43D-15 for   3308    391.
 E= -788.416714835728    
 DIIS: error= 2.87D-02 at cycle   1 NSaved=   1.
 NSaved= 1 IEnMin= 1 EnMin= -788.416714835728     IErMin= 1 ErrMin= 2.87D-02
 ErrMax= 2.87D-02  0.00D+00 EMaxC= 1.00D-01 BMatC= 4.54D-01 BMatP= 4.54D-01
 IDIUse=3 WtCom= 7.13D-01 WtEn= 2.87D-01
 Coeff-Com:  0.100D+01
 Coeff-En:   0.100D+01
 Coeff:      0.100D+01
 Gap=     0.224 Goal=   None    Shift=    0.000
 GapD=    0.224 DampG=1.000 DampE=0.500 DampFc=0.5000 IDamp=-1.
 Damping current iteration by 5.00D-01
 RMSDP=4.62D-03 MaxDP=1.31D-01              OVMax= 1.63D-01

 Cycle   2  Pass 1  IDiag  1:
 RMSU=  2.29D-03    CP:  9.83D-01
 E= -788.614048658908     Delta-E=       -0.197333823180 Rises=F Damp=T
 DIIS: error= 6.86D-03 at cycle   2 NSaved=   2.
 NSaved= 2 IEnMin= 2 EnMin= -788.614048658908     IErMin= 2 ErrMin= 6.86D-03
 ErrMax= 6.86D-03  0.00D+00 EMaxC= 1.00D-01 BMatC= 2.40D-02 BMatP= 4.54D-01
 IDIUse=3 WtCom= 9.31D-01 WtEn= 6.86D-02
 Coeff-Com:  0.531D-01 0.947D+00
 Coeff-En:   0.707D-01 0.929D+00
 Coeff:      0.543D-01 0.946D+00
 Gap=     0.256 Goal=   None    Shift=    0.000
 RMSDP=1.03D-03 MaxDP=2.42D-02 DE=-1.97D-01 OVMax= 8.19D-02

 Cycle   3  Pass 1  IDiag  1:
 RMSU=  1.00D-03    CP:  9.77D-01  9.16D-01
 E= -788.836799762406     Delta-E=       -0.222751103498 Rises=F Damp=F
 DIIS: error= 5.04D-03 at cycle   3 NSaved=   3.
 NSaved= 3 IEnMin= 3 EnMin= -788.836799762406     IErMin= 3 ErrMin= 5.04D-03
 ErrMax= 5.04D-03  0.00D+00 EMaxC= 1.00D-01 BMatC= 1.11D-02 BMatP= 2.40D-02
 IDIUse=3 WtCom= 9.50D-01 WtEn= 5.04D-02
 Coeff-Com: -0.173D-01 0.383D+00 0.634D+00
 Coeff-En:   0.000D+00 0.000D+00 0.100D+01
 Coeff:     -0.165D-01 0.364D+00 0.653D+00
 Gap=     0.212 Goal=   None    Shift=    0.000
 RMSDP=4.73D-04 MaxDP=2.23D-02 DE=-2.23D-01 OVMax= 2.05D-02

 Cycle   4  Pass 1  IDiag  1:
 RMSU=  3.92D-04    CP:  9.78D-01  9.38D-01  7.43D-01
 E= -788.843122375814     Delta-E=       -0.006322613409 Rises=F Damp=F
 DIIS: error= 2.55D-03 at cycle   4 NSaved=   4.
 NSaved= 4 IEnMin= 4 EnMin= -788.843122375814     IErMin= 4 ErrMin= 2.55D-03
 ErrMax= 2.55D-03  0.00D+00 EMaxC= 1.00D-01 BMatC= 3.07D-03 BMatP= 1.11D-02
 IDIUse=3 WtCom= 9.74D-01 WtEn= 2.55D-02
 Coeff-Com: -0.120D-01 0.717D-01 0.364D+00 0.576D+00
 Coeff-En:   0.000D+00 0.000D+00 0.230D+00 0.770D+00
 Coeff:     -0.117D-01 0.699D-01 0.361D+00 0.581D+00
 Gap=     0.212 Goal=   None    Shift=    0.000
 RMSDP=1.96D-04 MaxDP=8.18D-03 DE=-6.32D-03 OVMax= 8.61D-03

 Cycle   5  Pass 1  IDiag  1:
 RMSU=  8.38D-05    CP:  9.77D-01  9.41D-01  7.96D-01  5.70D-01
 E= -788.845604802600     Delta-E=       -0.002482426785 Rises=F Damp=F
 DIIS: error= 2.99D-04 at cycle   5 NSaved=   5.
 NSaved= 5 IEnMin= 5 EnMin= -788.845604802600     IErMin= 5 ErrMin= 2.99D-04
 ErrMax= 2.99D-04  0.00D+00 EMaxC= 1.00D-01 BMatC= 7.79D-05 BMatP= 3.07D-03
 IDIUse=3 WtCom= 9.97D-01 WtEn= 2.99D-03
 Coeff-Com: -0.392D-02 0.135D-01 0.126D+00 0.249D+00 0.615D+00
 Coeff-En:   0.000D+00 0.000D+00 0.000D+00 0.000D+00 0.100D+01
 Coeff:     -0.390D-02 0.135D-01 0.126D+00 0.249D+00 0.616D+00
 Gap=     0.212 Goal=   None    Shift=    0.000
 RMSDP=4.40D-05 MaxDP=1.83D-03 DE=-2.48D-03 OVMax= 4.11D-03

 Cycle   6  Pass 1  IDiag  1:
 RMSU=  3.06D-05    CP:  9.77D-01  9.42D-01  8.01D-01  5.99D-01  6.54D-01
 E= -788.845661799567     Delta-E=       -0.000056996967 Rises=F Damp=F
 DIIS: error= 1.90D-04 at cycle   6 NSaved=   6.
 NSaved= 6 IEnMin= 6 EnMin= -788.845661799567     IErMin= 6 ErrMin= 1.90D-04
 ErrMax= 1.90D-04  0.00D+00 EMaxC= 1.00D-01 BMatC= 1.88D-05 BMatP= 7.79D-05
 IDIUse=3 WtCom= 9.98D-01 WtEn= 1.90D-03
 Coeff-Com: -0.128D-02 0.183D-02 0.443D-01 0.100D+00 0.376D+00 0.479D+00
 Coeff-En:   0.000D+00 0.000D+00 0.000D+00 0.000D+00 0.200D+00 0.800D+00
 Coeff:     -0.128D-02 0.182D-02 0.442D-01 0.100D+00 0.376D+00 0.479D+00
 Gap=     0.212 Goal=   None    Shift=    0.000
 RMSDP=1.73D-05 MaxDP=7.86D-04 DE=-5.70D-05 OVMax= 1.88D-03

 Cycle   7  Pass 1  IDiag  1:
 RMSU=  6.31D-06    CP:  9.77D-01  9.41D-01  8.03D-01  5.98D-01  7.21D-01
                    CP:  5.13D-01
 E= -788.845680999201     Delta-E=       -0.000019199634 Rises=F Damp=F
 DIIS: error= 3.39D-05 at cycle   7 NSaved=   7.
 NSaved= 7 IEnMin= 7 EnMin= -788.845680999201     IErMin= 7 ErrMin= 3.39D-05
 ErrMax= 3.39D-05  0.00D+00 EMaxC= 1.00D-01 BMatC= 6.95D-07 BMatP= 1.88D-05
 IDIUse=1 WtCom= 1.00D+00 WtEn= 0.00D+00
 Coeff-Com: -0.479D-03 0.266D-03 0.171D-01 0.410D-01 0.169D+00 0.253D+00
 Coeff-Com:  0.520D+00
 Coeff:     -0.479D-03 0.266D-03 0.171D-01 0.410D-01 0.169D+00 0.253D+00
 Coeff:      0.520D+00
 Gap=     0.212 Goal=   None    Shift=    0.000
 RMSDP=3.54D-06 MaxDP=1.34D-04 DE=-1.92D-05 OVMax= 3.78D-04

 Cycle   8  Pass 1  IDiag  1:
 RMSU=  2.08D-06    CP:  9.77D-01  9.41D-01  8.03D-01  6.00D-01  7.18D-01
                    CP:  5.54D-01  6.15D-01
 E= -788.845681666536     Delta-E=       -0.000000667335 Rises=F Damp=F
 DIIS: error= 7.25D-06 at cycle   8 NSaved=   8.
 NSaved= 8 IEnMin= 8 EnMin= -788.845681666536     IErMin= 8 ErrMin= 7.25D-06
 ErrMax= 7.25D-06  0.00D+00 EMaxC= 1.00D-01 BMatC= 4.94D-08 BMatP= 6.95D-07
 IDIUse=1 WtCom= 1.00D+00 WtEn= 0.00D+00
 Coeff-Com: -0.640D-04-0.108D-03 0.256D-02 0.697D-02 0.326D-01 0.594D-01
 Coeff-Com:  0.246D+00 0.652D+00
 Coeff:     -0.640D-04-0.108D-03 0.256D-02 0.697D-02 0.326D-01 0.594D-01
 Coeff:      0.246D+00 0.652D+00
 Gap=     0.212 Goal=   None    Shift=    0.000
 RMSDP=9.59D-07 MaxDP=3.80D-05 DE=-6.67D-07 OVMax= 9.60D-05

 Cycle   9  Pass 1  IDiag  1:
 RMSU=  5.78D-07    CP:  9.77D-01  9.41D-01  8.03D-01  6.00D-01  7.20D-01
                    CP:  5.50D-01  6.66D-01  6.87D-01
 E= -788.845681709058     Delta-E=       -0.000000042522 Rises=F Damp=F
 DIIS: error= 3.08D-06 at cycle   9 NSaved=   9.
 NSaved= 9 IEnMin= 9 EnMin= -788.845681709058     IErMin= 9 ErrMin= 3.08D-06
 ErrMax= 3.08D-06  0.00D+00 EMaxC= 1.00D-01 BMatC= 5.06D-09 BMatP= 4.94D-08
 IDIUse=1 WtCom= 1.00D+00 WtEn= 0.00D+00
 Coeff-Com:  0.326D-05-0.788D-04 0.412D-04 0.543D-03 0.407D-02 0.112D-01
 Coeff-Com:  0.836D-01 0.328D+00 0.573D+00
 Coeff:      0.326D-05-0.788D-04 0.412D-04 0.543D-03 0.407D-02 0.112D-01
 Coeff:      0.836D-01 0.328D+00 0.573D+00
 Gap=     0.212 Goal=   None    Shift=    0.000
 RMSDP=3.09D-07 MaxDP=9.02D-06 DE=-4.25D-08 OVMax= 3.01D-05

 Cycle  10  Pass 1  IDiag  1:
 RMSU=  1.95D-07    CP:  9.77D-01  9.41D-01  8.03D-01  6.00D-01  7.20D-01
                    CP:  5.52D-01  6.71D-01  7.33D-01  6.62D-01
 E= -788.845681713396     Delta-E=       -0.000000004337 Rises=F Damp=F
 DIIS: error= 9.26D-07 at cycle  10 NSaved=  10.
 NSaved=10 IEnMin=10 EnMin= -788.845681713396     IErMin=10 ErrMin= 9.26D-07
 ErrMax= 9.26D-07  0.00D+00 EMaxC= 1.00D-01 BMatC= 5.06D-10 BMatP= 5.06D-09
 IDIUse=1 WtCom= 1.00D+00 WtEn= 0.00D+00
 Coeff-Com:  0.783D-05-0.264D-04-0.267D-03-0.501D-03-0.156D-02-0.834D-03
 Coeff-Com:  0.157D-01 0.977D-01 0.290D+00 0.600D+00
 Coeff:      0.783D-05-0.264D-04-0.267D-03-0.501D-03-0.156D-02-0.834D-03
 Coeff:      0.157D-01 0.977D-01 0.290D+00 0.600D+00
 Gap=     0.212 Goal=   None    Shift=    0.000
 RMSDP=1.03D-07 MaxDP=3.77D-06 DE=-4.34D-09 OVMax= 1.10D-05

 Cycle  11  Pass 1  IDiag  1:
 RMSU=  5.34D-08    CP:  9.77D-01  9.41D-01  8.03D-01  6.00D-01  7.20D-01
                    CP:  5.52D-01  6.72D-01  7.41D-01  7.39D-01  6.35D-01
 E= -788.845681713824     Delta-E=       -0.000000000428 Rises=F Damp=F
 DIIS: error= 3.06D-07 at cycle  11 NSaved=  11.
 NSaved=11 IEnMin=11 EnMin= -788.845681713824     IErMin=11 ErrMin= 3.06D-07
 ErrMax= 3.06D-07  0.00D+00 EMaxC= 1.00D-01 BMatC= 5.94D-11 BMatP= 5.06D-10
 IDIUse=1 WtCom= 1.00D+00 WtEn= 0.00D+00
 Coeff-Com:  0.398D-05-0.890D-05-0.156D-03-0.326D-03-0.117D-02-0.128D-02
 Coeff-Com:  0.287D-02 0.321D-01 0.123D+00 0.338D+00 0.507D+00
 Coeff:      0.398D-05-0.890D-05-0.156D-03-0.326D-03-0.117D-02-0.128D-02
 Coeff:      0.287D-02 0.321D-01 0.123D+00 0.338D+00 0.507D+00
 Gap=     0.212 Goal=   None    Shift=    0.000
 RMSDP=3.03D-08 MaxDP=1.39D-06 DE=-4.28D-10 OVMax= 3.63D-06

 Cycle  12  Pass 1  IDiag  1:
 RMSU=  1.62D-08    CP:  9.77D-01  9.41D-01  8.03D-01  6.00D-01  7.20D-01
                    CP:  5.52D-01  6.72D-01  7.43D-01  7.32D-01  7.01D-01
                    CP:  6.05D-01
 E= -788.845681713903     Delta-E=       -0.000000000079 Rises=F Damp=F
 DIIS: error= 6.34D-08 at cycle  12 NSaved=  12.
 NSaved=12 IEnMin=12 EnMin= -788.845681713903     IErMin=12 ErrMin= 6.34D-08
 ErrMax= 6.34D-08  0.00D+00 EMaxC= 1.00D-01 BMatC= 2.19D-12 BMatP= 5.94D-11
 IDIUse=1 WtCom= 1.00D+00 WtEn= 0.00D+00
 Coeff-Com:  0.580D-06-0.388D-06-0.325D-04-0.726D-04-0.277D-03-0.393D-03
 Coeff-Com: -0.449D-03 0.241D-02 0.166D-01 0.662D-01 0.196D+00 0.720D+00
 Coeff:      0.580D-06-0.388D-06-0.325D-04-0.726D-04-0.277D-03-0.393D-03
 Coeff:     -0.449D-03 0.241D-02 0.166D-01 0.662D-01 0.196D+00 0.720D+00
 Gap=     0.212 Goal=   None    Shift=    0.000
 RMSDP=7.30D-09 MaxDP=2.27D-07 DE=-7.91D-11 OVMax= 7.46D-07

 Error on total polarization charges =  0.00869
 SCF Done:  E(RB3LYP) =  -788.845681714     A.U. after   12 cycles
            NFock= 12  Conv=0.73D-08     -V/T= 2.0089
 KE= 7.819240024919D+02 PE=-4.299516802723D+03 EE= 1.487916035972D+03
 Leave Link  502 at Sun Jul 18 14:51:32 2021, MaxMem=   104857600 cpu:             814.7 elap:             211.5
 (Enter /dades/curu/g16A03_MST/g16/l601.exe)
 Copying SCF densities to generalized density rwf, IOpCl= 0 IROHF=0.

 **********************************************************************

            Population analysis using the SCF density.

 **********************************************************************

 Orbital symmetries:
       Occupied  (A) (A) (A) (A) (A) (A) (A) (A) (A) (A) (A) (A)
                 (A) (A) (A) (A) (A) (A) (A) (A) (A) (A) (A) (A)
                 (A) (A) (A) (A) (A) (A) (A) (A) (A) (A) (A) (A)
                 (A) (A) (A) (A) (A) (A) (A) (A) (A) (A) (A) (A)
                 (A) (A) (A) (A) (A) (A) (A) (A) (A) (A) (A) (A)
                 (A) (A) (A) (A) (A)
       Virtual   (A) (A) (A) (A) (A) (A) (A) (A) (A) (A) (A) (A)
                 (A) (A) (A) (A) (A) (A) (A) (A) (A) (A) (A) (A)
                 (A) (A) (A) (A) (A) (A) (A) (A) (A) (A) (A) (A)
                 (A) (A) (A) (A) (A) (A) (A) (A) (A) (A) (A) (A)
                 (A) (A) (A) (A) (A) (A) (A) (A) (A) (A) (A) (A)
                 (A) (A) (A) (A) (A) (A) (A) (A) (A) (A) (A) (A)
                 (A) (A) (A) (A) (A) (A) (A) (A) (A) (A) (A) (A)
                 (A) (A) (A) (A) (A) (A) (A) (A) (A) (A) (A) (A)
                 (A) (A) (A) (A) (A) (A) (A) (A) (A) (A) (A) (A)
                 (A) (A) (A) (A) (A) (A) (A) (A) (A) (A) (A) (A)
                 (A) (A) (A) (A) (A) (A) (A) (A) (A) (A) (A) (A)
                 (A) (A) (A) (A) (A) (A) (A) (A) (A) (A) (A) (A)
                 (A) (A) (A) (A) (A) (A) (A) (A) (A) (A) (A) (A)
                 (A) (A) (A) (A) (A) (A) (A) (A) (A) (A) (A) (A)
                 (A) (A) (A) (A) (A) (A) (A) (A) (A) (A) (A) (A)
                 (A) (A) (A) (A) (A) (A) (A) (A) (A) (A) (A) (A)
                 (A) (A) (A) (A) (A) (A) (A) (A) (A) (A) (A) (A)
                 (A) (A) (A) (A) (A) (A) (A) (A) (A) (A) (A) (A)
                 (A) (A) (A) (A) (A) (A) (A) (A) (A) (A) (A) (A)
                 (A) (A) (A) (A) (A) (A)
 The electronic state is 1-A.
 Alpha  occ. eigenvalues --  -19.18887 -19.17672 -19.15210 -14.47627 -10.29236
 Alpha  occ. eigenvalues --  -10.28333 -10.26920 -10.25983 -10.23882 -10.21844
 Alpha  occ. eigenvalues --  -10.21619 -10.21369 -10.21310 -10.21124 -10.20892
 Alpha  occ. eigenvalues --  -10.20259 -10.19936  -1.07573  -1.06411  -1.04271
 Alpha  occ. eigenvalues --   -1.03387  -0.87153  -0.86181  -0.80004  -0.77413
 Alpha  occ. eigenvalues --   -0.76073  -0.74458  -0.73272  -0.68293  -0.67200
 Alpha  occ. eigenvalues --   -0.63971  -0.63490  -0.62699  -0.58908  -0.56070
 Alpha  occ. eigenvalues --   -0.55394  -0.54632  -0.53278  -0.51871  -0.49341
 Alpha  occ. eigenvalues --   -0.49105  -0.48343  -0.47714  -0.45791  -0.45547
 Alpha  occ. eigenvalues --   -0.44638  -0.43505  -0.42798  -0.42166  -0.42044
 Alpha  occ. eigenvalues --   -0.41891  -0.40699  -0.40279  -0.39831  -0.38821
 Alpha  occ. eigenvalues --   -0.38624  -0.38044  -0.36234  -0.35789  -0.34704
 Alpha  occ. eigenvalues --   -0.33813  -0.29647  -0.27828  -0.25521  -0.23874
 Alpha virt. eigenvalues --   -0.02681  -0.01746   0.01632   0.05088   0.06437
 Alpha virt. eigenvalues --    0.06728   0.07116   0.07433   0.08818   0.09616
 Alpha virt. eigenvalues --    0.10068   0.10720   0.11436   0.11722   0.12417
 Alpha virt. eigenvalues --    0.13486   0.14310   0.14540   0.14757   0.15395
 Alpha virt. eigenvalues --    0.15645   0.16000   0.17349   0.18312   0.18777
 Alpha virt. eigenvalues --    0.19169   0.19681   0.21087   0.21829   0.22398
 Alpha virt. eigenvalues --    0.22543   0.23672   0.24818   0.25405   0.25800
 Alpha virt. eigenvalues --    0.26592   0.32556   0.34105   0.34573   0.36151
 Alpha virt. eigenvalues --    0.44071   0.45201   0.46698   0.47054   0.48073
 Alpha virt. eigenvalues --    0.49447   0.50168   0.51092   0.51468   0.52680
 Alpha virt. eigenvalues --    0.53097   0.54493   0.55289   0.56517   0.56998
 Alpha virt. eigenvalues --    0.58571   0.59220   0.59821   0.61143   0.61767
 Alpha virt. eigenvalues --    0.62908   0.63524   0.64181   0.66074   0.67437
 Alpha virt. eigenvalues --    0.68671   0.69618   0.70533   0.71160   0.71927
 Alpha virt. eigenvalues --    0.72510   0.74431   0.75147   0.76672   0.77494
 Alpha virt. eigenvalues --    0.78913   0.80133   0.80383   0.81841   0.82013
 Alpha virt. eigenvalues --    0.82991   0.83413   0.84451   0.85174   0.85951
 Alpha virt. eigenvalues --    0.86419   0.86574   0.87475   0.88220   0.88833
 Alpha virt. eigenvalues --    0.89106   0.89921   0.90085   0.90666   0.91624
 Alpha virt. eigenvalues --    0.93180   0.94313   0.94754   0.95879   0.96031
 Alpha virt. eigenvalues --    0.96636   0.97528   0.97996   0.99441   1.00408
 Alpha virt. eigenvalues --    1.01393   1.02279   1.03571   1.05081   1.06553
 Alpha virt. eigenvalues --    1.09766   1.10334   1.13171   1.14168   1.15907
 Alpha virt. eigenvalues --    1.18868   1.20225   1.20985   1.22846   1.26448
 Alpha virt. eigenvalues --    1.28315   1.30763   1.31669   1.34912   1.36881
 Alpha virt. eigenvalues --    1.37278   1.40116   1.40534   1.43998   1.45032
 Alpha virt. eigenvalues --    1.47744   1.50242   1.53881   1.54993   1.59292
 Alpha virt. eigenvalues --    1.60225   1.63146   1.64256   1.65976   1.67641
 Alpha virt. eigenvalues --    1.68357   1.69458   1.70343   1.72777   1.73418
 Alpha virt. eigenvalues --    1.73988   1.74773   1.76659   1.77776   1.79470
 Alpha virt. eigenvalues --    1.80006   1.81511   1.83743   1.85635   1.87247
 Alpha virt. eigenvalues --    1.89029   1.90524   1.91390   1.91947   1.94941
 Alpha virt. eigenvalues --    1.95516   1.95826   1.98313   1.98867   2.01985
 Alpha virt. eigenvalues --    2.03363   2.05625   2.06074   2.08663   2.09680
 Alpha virt. eigenvalues --    2.10680   2.11728   2.12534   2.13508   2.17019
 Alpha virt. eigenvalues --    2.20035   2.20643   2.22232   2.22491   2.23117
 Alpha virt. eigenvalues --    2.25308   2.26231   2.26877   2.30538   2.31923
 Alpha virt. eigenvalues --    2.33921   2.35119   2.36449   2.36955   2.40175
 Alpha virt. eigenvalues --    2.41641   2.42622   2.43508   2.44762   2.46200
 Alpha virt. eigenvalues --    2.48615   2.54161   2.56400   2.59403   2.60839
 Alpha virt. eigenvalues --    2.62066   2.63267   2.65299   2.69169   2.70139
 Alpha virt. eigenvalues --    2.71986   2.74485   2.76218   2.78707   2.81432
 Alpha virt. eigenvalues --    2.82552   2.84647   2.89844   2.92847   2.94695
 Alpha virt. eigenvalues --    3.15734   3.38303   3.73457   3.74072   3.92440
 Alpha virt. eigenvalues --    3.96462   4.09864   4.11630   4.16252   4.22586
 Alpha virt. eigenvalues --    4.25494   4.26161   4.29240   4.30771   4.40750
 Alpha virt. eigenvalues --    4.44752   4.51853   4.63144   4.74538
          Condensed to atoms (all electrons):
               1          2          3          4          5          6
     1  C    5.172105   0.375161   0.367095   0.369358   0.405340  -0.072789
     2  H    0.375161   0.499016  -0.014458  -0.024221  -0.034307  -0.002527
     3  H    0.367095  -0.014458   0.532010  -0.041261  -0.026967   0.006271
     4  H    0.369358  -0.024221  -0.041261   0.524859  -0.019980  -0.007916
     5  C    0.405340  -0.034307  -0.026967  -0.019980   4.743161   0.382221
     6  C   -0.072789  -0.002527   0.006271  -0.007916   0.382221   5.204662
     7  H   -0.001150   0.001096  -0.000126  -0.000015  -0.030722   0.368354
     8  H   -0.006734  -0.000000   0.000183   0.004025  -0.027040   0.376265
     9  H    0.005218  -0.000056  -0.000199   0.000127  -0.028592   0.369304
    10  C   -0.061780  -0.004948  -0.006281   0.004891   0.394840  -0.051034
    11  H    0.004147   0.000050   0.000023  -0.000121  -0.024637  -0.001835
    12  H   -0.006059   0.000086   0.003733   0.000000  -0.025725   0.004502
    13  H   -0.001632   0.002620  -0.000024  -0.000128  -0.028490  -0.004562
    14  N   -0.066108   0.005160  -0.004418  -0.003589   0.217059  -0.071810
    15  H   -0.003284  -0.000060   0.005364  -0.000422  -0.018749   0.006214
    16  C   -0.003593   0.000155  -0.000291   0.001735  -0.032584  -0.007472
    17  H   -0.000335  -0.000010   0.000026   0.000058  -0.005420   0.007580
    18  H    0.004840  -0.000057   0.000017   0.002597  -0.004481  -0.001401
    19  C   -0.000065  -0.000001  -0.000055  -0.000072   0.003071  -0.000042
    20  O   -0.000044   0.000000   0.000035   0.000010   0.000045  -0.000010
    21  H    0.000006  -0.000000  -0.000032   0.000006   0.000105   0.000003
    22  H    0.000010   0.000000   0.000003  -0.000000  -0.000226  -0.000021
    23  C    0.000004  -0.000000  -0.000004   0.000010   0.000000   0.000001
    24  C   -0.000000   0.000000  -0.000000   0.000000   0.000000  -0.000000
    25  H   -0.000000   0.000000  -0.000000  -0.000000   0.000000  -0.000000
    26  C    0.000000   0.000000   0.000000   0.000000  -0.000000   0.000000
    27  C   -0.000000   0.000000  -0.000000  -0.000000   0.000000  -0.000000
    28  O   -0.000000  -0.000000   0.000000   0.000000  -0.000000   0.000000
    29  H    0.000000   0.000000   0.000000   0.000000   0.000000  -0.000000
    30  H    0.000000  -0.000000  -0.000000   0.000000  -0.000000   0.000000
    31  H    0.000000   0.000000  -0.000000  -0.000000   0.000000  -0.000000
    32  C    0.000000  -0.000000   0.000000   0.000000   0.000000  -0.000000
    33  O    0.000000  -0.000000  -0.000000  -0.000000  -0.000000   0.000000
    34  H   -0.000000   0.000000  -0.000000  -0.000000   0.000000  -0.000000
    35  C   -0.000000   0.000000   0.000000  -0.000000  -0.000000   0.000000
    36  H   -0.000000   0.000000  -0.000000  -0.000000   0.000000  -0.000000
    37  C   -0.000010   0.000000   0.000001  -0.000010  -0.000004   0.000000
    38  H   -0.000009  -0.000000   0.000012   0.000019   0.000002  -0.000000
    39  H    0.005596  -0.000130  -0.000034  -0.000119  -0.019626  -0.003476
               7          8          9         10         11         12
     1  C   -0.001150  -0.006734   0.005218  -0.061780   0.004147  -0.006059
     2  H    0.001096  -0.000000  -0.000056  -0.004948   0.000050   0.000086
     3  H   -0.000126   0.000183  -0.000199  -0.006281   0.000023   0.003733
     4  H   -0.000015   0.004025   0.000127   0.004891  -0.000121   0.000000
     5  C   -0.030722  -0.027040  -0.028592   0.394840  -0.024637  -0.025725
     6  C    0.368354   0.376265   0.369304  -0.051034  -0.001835   0.004502
     7  H    0.518091  -0.022867  -0.030327  -0.006261   0.000130   0.000115
     8  H   -0.022867   0.497383  -0.021749   0.003890  -0.000066  -0.000134
     9  H   -0.030327  -0.021749   0.526776  -0.000300   0.000820  -0.000132
    10  C   -0.006261   0.003890  -0.000300   5.206739   0.372409   0.368565
    11  H    0.000130  -0.000066   0.000820   0.372409   0.506009  -0.025353
    12  H    0.000115  -0.000134  -0.000132   0.368565  -0.025353   0.516304
    13  H    0.003934  -0.000001  -0.000039   0.366222  -0.022037  -0.024811
    14  N    0.005329  -0.000850  -0.007170  -0.089467  -0.004728  -0.003267
    15  H   -0.000125  -0.000212   0.000105  -0.003918  -0.000426   0.004198
    16  C    0.000318   0.001086  -0.002462   0.006256   0.000113  -0.000141
    17  H    0.000027  -0.000655   0.002072  -0.000042  -0.000005  -0.000010
    18  H   -0.000012   0.000106   0.000130   0.000149  -0.000003   0.000001
    19  C   -0.000001   0.000014  -0.000005  -0.000182  -0.000008   0.000002
    20  O    0.000000  -0.000000  -0.000000  -0.000017   0.000001  -0.000007
    21  H   -0.000000  -0.000000   0.000001   0.000005   0.000009  -0.000025
    22  H    0.000000   0.000002  -0.000001   0.000000   0.000001   0.000000
    23  C   -0.000000   0.000001  -0.000000   0.000001  -0.000000  -0.000000
    24  C   -0.000000   0.000000   0.000000  -0.000000   0.000000  -0.000000
    25  H    0.000000   0.000000  -0.000000   0.000000  -0.000000  -0.000000
    26  C   -0.000000   0.000000   0.000000   0.000000   0.000000   0.000000
[...]
    38  H   -0.000068  -0.000834   0.000146   0.000853   0.000011  -0.000059
    39  H    0.011884  -0.031346   0.014037  -0.014919  -0.009428  -0.002828
              13         14         15         16         17         18
     1  C    0.009978   0.155251   0.016280  -0.048807   0.037637  -0.075434
     2  H   -0.017266   0.073725   0.013163  -0.025234   0.008478  -0.007205
     3  H    0.000654  -0.035294   0.004025   0.046490  -0.007597   0.000347
     4  H    0.012845  -0.101293  -0.023583   0.128498  -0.023391   0.001381
     5  C   -0.103897  -1.653063  -0.068887  -0.220604   0.076251   0.016093
     6  C    0.019779   0.259262  -0.023575  -0.170063  -0.082072   0.045997
     7  H   -0.021683   0.016045  -0.008503  -0.013275  -0.011200   0.012514
     8  H    0.014603  -0.005989   0.013070   0.063973   0.014945  -0.021778
     9  H   -0.001562  -0.066437  -0.001289   0.086561   0.005125  -0.011743
    10  C    0.203613   0.161924  -0.008821  -0.011611   0.001667   0.033518
    11  H   -0.247908  -0.093570  -0.011315   0.004611   0.004142   0.002668
    12  H   -0.243536  -0.021523  -0.010858   0.011818  -0.000080   0.007305
    13  H    1.276718   0.038308   0.003781   0.027394  -0.001866  -0.004718
    14  N    0.038308  10.014386   0.308110  -1.226059  -0.203733  -0.221331
    15  H    0.003781   0.308110   0.624567   0.055229   0.077248  -0.047122
    16  C    0.027394  -1.226059   0.055229   7.277089   0.063564   0.111867
    17  H   -0.001866  -0.203733   0.077248   0.063564   1.765784  -0.208964
    18  H   -0.004718  -0.221331  -0.047122   0.111867  -0.208964   1.722773
    19  C   -0.001911  -1.014455  -0.019029   0.159348   0.125677  -0.316863
    20  O    0.000752   0.024242   0.029360  -0.005172   0.031978   0.027682
    21  H    0.000088  -0.008988  -0.005625  -0.024319   0.001926  -0.013534
    22  H    0.000456  -0.006315  -0.004345   0.136765  -0.091718   0.095817
    23  C    0.001149   1.106582  -0.085413  -0.475557  -0.175466  -0.153395
    24  C   -0.001298  -0.060493   0.021719  -0.820204  -0.003075   0.071818
    25  H   -0.000119   0.013513  -0.006756   0.136838  -0.028959   0.026955
    26  C   -0.000132   0.034583  -0.005868   0.076202   0.001192  -0.025305
    27  C    0.000020   0.005909  -0.000065  -0.064402  -0.005159  -0.005288
    28  O   -0.000000  -0.000056   0.000028  -0.006541  -0.000574  -0.000450
    29  H    0.000000  -0.000080  -0.000010  -0.000684   0.000088   0.000081
    30  H    0.000001   0.000531  -0.000054   0.002366  -0.001045   0.000137
    31  H    0.000005  -0.000862   0.000196  -0.003855   0.002246  -0.000589
    32  C    0.000022   0.001867   0.000951  -0.157113  -0.013449   0.020074
    33  O   -0.000000  -0.000274   0.000035  -0.003911   0.001151  -0.000203
    34  H    0.000000   0.000117   0.000055   0.000722  -0.000030   0.000011
    35  C    0.000129   0.025127   0.002069   0.445513   0.007858  -0.035908
    36  H   -0.000001   0.000309  -0.000374  -0.011231  -0.001756  -0.001091
    37  C    0.000877  -0.084272  -0.023550  -0.469562  -0.065452   0.155863
    38  H   -0.000073   0.021508   0.007067   0.088767   0.012505  -0.027791
    39  H    0.004349   0.237484  -0.094890   0.065232  -0.061730   0.039192
              19         20         21         22         23         24
     1  C   -0.035363   0.007383  -0.000685  -0.005413   0.069893   0.019367
     2  H   -0.006048   0.002896  -0.000349   0.000383   0.003641   0.002446
     3  H   -0.030452   0.000975   0.000826  -0.005652   0.013718  -0.004343
     4  H    0.091824  -0.011649   0.000915   0.003472  -0.047391   0.003935
     5  C   -0.015791   0.038631  -0.003992   0.020191  -0.091642  -0.045407
     6  C   -0.097708   0.001998  -0.000313  -0.001622   0.133219  -0.008789
     7  H    0.014950  -0.000491   0.000171   0.000020   0.000569   0.000298
     8  H   -0.050077   0.001713  -0.000314   0.000464   0.007065   0.005535
     9  H    0.000733   0.000403  -0.000099   0.003007   0.000030   0.001236
    10  C   -0.088915   0.005067  -0.002511   0.008250  -0.006028  -0.001794
    11  H   -0.003871  -0.002380  -0.000383   0.002621  -0.005959   0.003118
    12  H    0.002204   0.000476  -0.000174   0.001037  -0.006002  -0.000068
    13  H   -0.001911   0.000752   0.000088   0.000456   0.001149  -0.001298
    14  N   -1.014455   0.024242  -0.008988  -0.006315   1.106582  -0.060493
    15  H   -0.019029   0.029360  -0.005625  -0.004345  -0.085413   0.021719
    16  C    0.159348  -0.005172  -0.024319   0.136765  -0.475557  -0.820204
    17  H    0.125677   0.031978   0.001926  -0.091718  -0.175466  -0.003075
    18  H   -0.316863   0.027682  -0.013534   0.095817  -0.153395   0.071818
    19  C   15.274753  -0.868037   0.213375  -0.697542  -4.876394  -1.333659
    20  O   -0.868037   9.024776   0.318983  -0.015346   0.297252  -0.263780
    21  H    0.213375   0.318983   0.525823  -0.079193  -0.140904  -0.019676
    22  H   -0.697542  -0.015346  -0.079193   1.652996   0.369126   0.092122
    23  C   -4.876394   0.297252  -0.140904   0.369126  26.490980  -8.746941
    24  C   -1.333659  -0.263780  -0.019676   0.092122  -8.746941  28.760599
    25  H   -0.318247   0.023551   0.005074  -0.078259   1.595372  -2.576209
    26  C   -1.325550  -0.017205  -0.006632  -0.002470   2.146785  -4.950532
    27  C   -0.209566  -0.001378  -0.002953   0.018633  -1.200467  -1.104182
    28  O    0.009100  -0.000048  -0.000040   0.001324  -0.046175  -0.084273
    29  H    0.001252   0.000051   0.000008  -0.000013   0.030062   0.037514
    30  H   -0.024479   0.000049  -0.000197  -0.000241  -0.070878  -0.142412
    31  H    0.036773  -0.001001  -0.000170   0.003834   0.044280   0.271168
    32  C    0.291354  -0.020236   0.000396   0.012725  -6.003946   2.166387
    33  O    0.017887  -0.000169  -0.000046   0.001413   0.233045  -0.193995
    34  H    0.001268  -0.000224  -0.000072   0.000079  -0.014647   0.059335
    35  C    0.007789  -0.009963   0.015128  -0.026013   2.593740  -5.885127
    36  H    0.026850   0.001414   0.000034  -0.000904  -0.446423   0.095737
    37  C   -0.517788   0.310029   0.038988  -0.160853  -7.607854  -0.250883
    38  H    0.123051  -0.026520  -0.013117   0.025799   0.581686   0.040577
    39  H    0.059795  -0.003519   0.001245  -0.022606  -0.059798  -0.010822
              25         26         27         28         29         30
     1  C   -0.001014   0.004378  -0.000386  -0.000006  -0.000030   0.000010
     2  H   -0.000069  -0.000168  -0.000001  -0.000001  -0.000001   0.000003
     3  H    0.000822   0.001023  -0.000091  -0.000002  -0.000004   0.000004
     4  H   -0.002799   0.000003   0.000048  -0.000004   0.000001  -0.000050
     5  C   -0.003287  -0.042248  -0.000674  -0.000117  -0.000004  -0.000033
     6  C    0.007114   0.017802   0.000181  -0.000016  -0.000028   0.000047
     7  H    0.001323   0.000548  -0.000054  -0.000003  -0.000003  -0.000000
     8  H   -0.001313   0.001146   0.001213   0.000082   0.000006   0.000044
     9  H   -0.002218   0.002320   0.000125   0.000017   0.000003   0.000006
    10  C    0.000864  -0.001517   0.000060  -0.000003   0.000001   0.000003
    11  H   -0.000196   0.000230  -0.000032  -0.000001  -0.000001  -0.000002
    12  H    0.000115  -0.000175   0.000001  -0.000000   0.000001   0.000000
    13  H   -0.000119  -0.000132   0.000020  -0.000000   0.000000   0.000001
    14  N    0.013513   0.034583   0.005909  -0.000056  -0.000080   0.000531
    15  H   -0.006756  -0.005868  -0.000065   0.000028  -0.000010  -0.000054
    16  C    0.136838   0.076202  -0.064402  -0.006541  -0.000684   0.002366
    17  H   -0.028959   0.001192  -0.005159  -0.000574   0.000088  -0.001045
    18  H    0.026955  -0.025305  -0.005288  -0.000450   0.000081   0.000137
    19  C   -0.318247  -1.325550  -0.209566   0.009100   0.001252  -0.024479
    20  O    0.023551  -0.017205  -0.001378  -0.000048   0.000051   0.000049
    21  H    0.005074  -0.006632  -0.002953  -0.000040   0.000008  -0.000197
    22  H   -0.078259  -0.002470   0.018633   0.001324  -0.000013  -0.000241
    23  C    1.595372   2.146785  -1.200467  -0.046175   0.030062  -0.070878
    24  C   -2.576209  -4.950532  -1.104182  -0.084273   0.037514  -0.142412
    25  H    2.633790   0.587108  -0.082767  -0.027366   0.001938   0.008460
    26  C    0.587108  17.167095  -1.197704  -0.074707   0.212318   0.073473
    27  C   -0.082767  -1.197704   7.350722   0.211093  -0.141942   0.278461
    28  O   -0.027366  -0.074707   0.211093   8.476337   0.312587   0.021745
    29  H    0.001938   0.212318  -0.141942   0.312587   0.522503  -0.024412
    30  H    0.008460   0.073473   0.278461   0.021745  -0.024412   0.822472
    31  H   -0.074414   0.057283  -0.134177  -0.027063   0.018579  -0.171282
    32  C   -0.327435  -3.509812   0.255469   0.011180  -0.101317   0.083036
    33  O   -0.008224   0.358589   0.060198  -0.032323   0.014656  -0.003344
    34  H   -0.002492  -0.061710  -0.026288   0.002081  -0.001619  -0.002144
    35  C    0.144960   1.542394   0.181022  -0.029314  -0.075759   0.077368
    36  H    0.013409  -0.228043   0.028490   0.000732   0.000470   0.002329
    37  C    0.134364  -4.358356   0.554507  -0.002127  -0.002452   0.010053
    38  H   -0.034757  -0.120637  -0.015561   0.000306  -0.000149  -0.000651
    39  H    0.010718  -0.006078  -0.000654  -0.000060   0.000009   0.000043
              31         32         33         34         35         36
     1  C   -0.000140  -0.004815   0.000018   0.000025   0.000867   0.000469
     2  H   -0.000016  -0.000086   0.000002   0.000003  -0.000522   0.000012
     3  H   -0.000033  -0.001199   0.000001  -0.000005   0.004638   0.000146
     4  H    0.000256  -0.000298   0.000033   0.000008  -0.001308  -0.000275
     5  C    0.000164   0.012346  -0.000112   0.000046   0.004601  -0.000863
     6  C   -0.000198  -0.001422  -0.000029   0.000000  -0.000455   0.000211
     7  H   -0.000020   0.000077  -0.000005   0.000001   0.000001   0.000000
     8  H   -0.000127   0.000455   0.000003  -0.000015  -0.002837   0.000045
     9  H    0.000055  -0.000400   0.000004  -0.000002   0.000333   0.000030
    10  C    0.000011   0.000886  -0.000002   0.000001  -0.002635  -0.000166
    11  H    0.000007   0.000071   0.000000   0.000000  -0.000458  -0.000007
    12  H    0.000000   0.000158  -0.000001  -0.000001  -0.000314  -0.000024
    13  H    0.000005   0.000022  -0.000000   0.000000   0.000129  -0.000001
    14  N   -0.000862   0.001867  -0.000274   0.000117   0.025127   0.000309
    15  H    0.000196   0.000951   0.000035   0.000055   0.002069  -0.000374
    16  C   -0.003855  -0.157113  -0.003911   0.000722   0.445513  -0.011231
    17  H    0.002246  -0.013449   0.001151  -0.000030   0.007858  -0.001756
    18  H   -0.000589   0.020074  -0.000203   0.000011  -0.035908  -0.001091
    19  C    0.036773   0.291354   0.017887   0.001268   0.007789   0.026850
    20  O   -0.001001  -0.020236  -0.000169  -0.000224  -0.009963   0.001414
    21  H   -0.000170   0.000396  -0.000046  -0.000072   0.015128   0.000034
    22  H    0.003834   0.012725   0.001413   0.000079  -0.026013  -0.000904
    23  C    0.044280  -6.003946   0.233045  -0.014647   2.593740  -0.446423
    24  C    0.271168   2.166387  -0.193995   0.059335  -5.885127   0.095737
    25  H   -0.074414  -0.327435  -0.008224  -0.002492   0.144960   0.013409
    26  C    0.057283  -3.509812   0.358589  -0.061710   1.542394  -0.228043
    27  C   -0.134177   0.255469   0.060198  -0.026288   0.181022   0.028490
    28  O   -0.027063   0.011180  -0.032323   0.002081  -0.029314   0.000732
    29  H    0.018579  -0.101317   0.014656  -0.001619  -0.075759   0.000470
    30  H   -0.171282   0.083036  -0.003344  -0.002144   0.077368   0.002329
    31  H    1.373576  -0.077574  -0.004014   0.003094  -0.068440  -0.001046
    32  C   -0.077574  16.663093  -1.439045   0.005005  -6.249265   1.211779
    33  O   -0.004014  -1.439045   9.290533   0.287875   0.680472  -0.129075
    34  H    0.003094   0.005005   0.287875   0.502872  -0.055665   0.010856
    35  C   -0.068440  -6.249265   0.680472  -0.055665  19.206173  -1.735646
    36  H   -0.001046   1.211779  -0.129075   0.010856  -1.735646   2.018646
    37  C    0.017978   2.344934  -0.062664   0.036569  -5.779545   0.872302
    38  H   -0.000966  -0.146650   0.000078  -0.000363   0.770775  -0.107610
    39  H   -0.000389   0.001956  -0.000092  -0.000007  -0.002485  -0.000043
              37         38         39
     1  C   -0.074144   0.005755  -0.014085
     2  H   -0.003660   0.000663  -0.008228
     3  H    0.000582  -0.001228   0.000520
     4  H   -0.005454   0.000681   0.014664
     5  C    0.125240  -0.005308  -0.079803
     6  C   -0.018079   0.000145   0.000690
     7  H    0.000119  -0.000068   0.011884
     8  H   -0.003136  -0.000834  -0.031346
     9  H   -0.002188   0.000146   0.014037
    10  C    0.001100   0.000853  -0.014919
    11  H   -0.003191   0.000011  -0.009428
    12  H    0.001925  -0.000059  -0.002828
    13  H    0.000877  -0.000073   0.004349
    14  N   -0.084272   0.021508   0.237484
    15  H   -0.023550   0.007067  -0.094890
    16  C   -0.469562   0.088767   0.065232
    17  H   -0.065452   0.012505  -0.061730
    18  H    0.155863  -0.027791   0.039192
    19  C   -0.517788   0.123051   0.059795
    20  O    0.310029  -0.026520  -0.003519
    21  H    0.038988  -0.013117   0.001245
    22  H   -0.160853   0.025799  -0.022606
    23  C   -7.607854   0.581686  -0.059798
    24  C   -0.250883   0.040577  -0.010822
    25  H    0.134364  -0.034757   0.010718
    26  C   -4.358356  -0.120637  -0.006078
    27  C    0.554507  -0.015561  -0.000654
    28  O   -0.002127   0.000306  -0.000060
    29  H   -0.002452  -0.000149   0.000009
    30  H    0.010053  -0.000651   0.000043
    31  H    0.017978  -0.000966  -0.000389
    32  C    2.344934  -0.146650   0.001956
    33  O   -0.062664   0.000078  -0.000092
    34  H    0.036569  -0.000363  -0.000007
    35  C   -5.779545   0.770775  -0.002485
    36  H    0.872302  -0.107610  -0.000043
    37  C   22.378612  -1.704260   0.046067
    38  H   -1.704260   2.283057  -0.002927
    39  H    0.046067  -0.002927   0.700524
 Mulliken charges:
               1
     1  C    1.306585
     2  H   -0.028563
     3  H    0.001893
     4  H   -0.023067
     5  C   -3.412707
     6  C    1.316246
     7  H    0.020382
     8  H   -0.035943
     9  H   -0.022652
    10  C    1.308756
    11  H   -0.013070
    12  H    0.002375
    13  H    0.030447
    14  N   -0.694695
    15  H    0.272980
    16  C    0.769359
    17  H   -0.252145
    18  H   -0.213378
    19  C    1.393763
    20  O   -0.902540
    21  H    0.201307
    22  H   -0.252027
    23  C    0.543088
    24  C    0.855048
    25  H   -0.769388
    26  C   -0.349620
    27  C    1.247641
    28  O   -0.715344
    29  H    0.196376
    30  H    0.060584
    31  H   -0.263129
    32  C    0.969842
    33  O   -1.068465
    34  H    0.255260
    35  C    0.250702
    36  H   -0.619692
    37  C    0.169363
    38  H   -0.753901
    39  H    0.218329
 Sum of Mulliken charges =   1.00000
 Mulliken charges with hydrogens summed into heavy atoms:
               1
     1  C    1.256848
     5  C   -3.412707
     6  C    1.278034
    10  C    1.328509
    14  N   -0.203385
    16  C    0.303836
    19  C    1.141736
    20  O   -0.701233
    23  C    0.543088
    24  C    0.085660
    26  C   -0.349620
    27  C    1.045096
    28  O   -0.518968
    32  C    0.969842
    33  O   -0.813205
    35  C   -0.368991
    37  C   -0.584538
 Electronic spatial extent (au):  <R**2>=           6597.7073
 Charge=              1.0000 electrons
 Dipole moment (field-independent basis, Debye):
    X=            -11.0633    Y=             -2.4612    Z=              1.4453  Tot=             11.4256
 Quadrupole moment (field-independent basis, Debye-Ang):
   XX=            -39.3271   YY=            -97.5679   ZZ=            -89.2620
   XY=            -20.3448   XZ=             -6.3020   YZ=              4.5781
 Traceless Quadrupole moment (field-independent basis, Debye-Ang):
   XX=             36.0586   YY=            -22.1822   ZZ=            -13.8764
   XY=            -20.3448   XZ=             -6.3020   YZ=              4.5781
 Octapole moment (field-independent basis, Debye-Ang**2):
  XXX=           -166.8736  YYY=            -33.8326  ZZZ=              4.5701  XYY=            -27.4038
  XXY=            -41.7359  XXZ=            -40.7672  XZZ=             -1.9803  YZZ=             -8.2175
  YYZ=              6.3941  XYZ=             31.1188
 Hexadecapole moment (field-independent basis, Debye-Ang**3):
 XXXX=          -5505.9346 YYYY=          -1039.3450 ZZZZ=           -517.8855 XXXY=           -386.4193
 XXXZ=           -165.4515 YYYX=           -106.6823 YYYZ=             -4.5674 ZZZX=            -63.4231
 ZZZY=            -12.4930 XXYY=          -1340.9751 XXZZ=          -1060.4695 YYZZ=           -220.9330
 XXYZ=             92.9308 YYXZ=            -23.3843 ZZXY=            -12.9517
 N-N= 1.244619074619D+03 E-N=-4.306352363796D+03  KE= 7.830257193426D+02
 Leave Link  601 at Sun Jul 18 18:20:47 2021, MaxMem=   262144000 cpu:               0.5 elap:               0.6
 (Enter /dades/curu/g16A03_MST/g16/l9999.exe)
 1\1\GINC-PIRINEUS30\SP\RMP2-FC\Aug-CC-pVDZ\C13H22N1O3(1+)\UBATOR02\18-
 Jul-2021\0\\#p mp2/aug-cc-pVDZ scf=tight maxdisk=180GB geom=allcheck\\
 SET_328_BBB301_conf1.geo_165_120_105 geometry\\1,1\C,0,-0.7736086883,-
 3.2248887206,-1.8435135496\H,0,-1.0091758367,-3.8674728983,-2.69445984
 91\H,0,-0.3995519975,-3.8640325542,-1.038516248\H,0,0.0254436842,-2.54
 79103118,-2.1560023192\C,0,-2.0452544524,-2.4794433414,-1.433001507\C,
 0,-2.5011724328,-1.4956744015,-2.5131122989\H,0,-2.7335161852,-2.05492
 40461,-3.4218574202\H,0,-1.723441693,-0.7681897755,-2.7624232116\H,0,-
 3.405443616,-0.9577531267,-2.2119514434\C,0,-3.1627230834,-3.465586888
 8,-1.0791360204\H,0,-4.0628546501,-2.949727156,-0.7329692091\H,0,-2.84
 65442777,-4.1748856205,-0.3071213444\H,0,-3.4286023079,-4.0377150937,-
 1.9700920954\N,0,-1.7619333263,-1.6834960866,-0.1455141047\H,0,-1.5363
 119596,-2.3313384037,0.6238532213\C,0,-0.660327817,-0.6605493101,-0.16
 99142323\H,0,-0.9503509389,0.1501370262,-0.8344359668\H,0,0.2332699808
 ,-1.1478309557,-0.5560978908\C,0,-0.3997088083,-0.1615864615,1.2554034
 761\O,0,-0.1568932642,-1.3528097852,1.9989377606\H,0,-0.1171260683,-1.
 1291508424,2.9442948814\H,0,-1.303007634,0.3432185655,1.6247239805\C,0
 ,0.7638364469,0.8100398877,1.2801570793\C,0,0.560805956,2.1744316973,1
 .0373293101\H,0,-0.4435737244,2.5511743315,0.8588380757\C,0,1.61934722
 43,3.0780063208,1.023199949\C,0,1.4217770837,4.554260318,0.7713968389\
 O,0,2.2040978881,5.0477592545,-0.3090717988\H,0,3.1290196345,4.8941696
 123,-0.0505299564\H,0,1.6353583011,5.116394504,1.6922580562\H,0,0.3775
 84822,4.7423806309,0.5108443215\C,0,2.9145516819,2.5899530719,1.265239
 0287\O,0,3.9166870716,3.5218715682,1.2481196783\H,0,4.7772920949,3.101
 3354347,1.4129349222\C,0,3.1383882068,1.2361747646,1.5141532882\H,0,4.
 1445038717,0.8761805626,1.7063078003\C,0,2.0602669437,0.3504429872,1.5
 165483893\H,0,2.2163676166,-0.7028067133,1.7178608836\H,0,-2.634475747
 1,-1.2221580442,0.1473195248\\Version=ES64L-G16RevA.03\State=1-A\HF=-7
 84.0356665\MP2=-786.6690989\RMSD=4.751e-09\PG=C01 [X(C13H22N1O3)]\\@


 WHEN A MATHEMATICIAN ENGAGED IN INVESTIGATING
 PHYSICAL ACTIONS AND RESULTS HAS ARRIVED AT HIS
 CONCLUSIONS, MAY THEY NOT BE EXPRESSED IN COMMON
 LANGUAGE AS FULLY, CLEARLY, AND DEFINITELY AS IN
 MATHEMATICAL FORMULAE?
           - LETTER FROM M. FARADAY TO J.C. MAXWELL, 1857.
 Job cpu time:       0 days  3 hours 25 minutes 46.9 seconds.
 Elapsed time:       0 days  1 hours  4 minutes 43.5 seconds.
 File lengths (MBytes):  RWF=  98957 Int=      0 D2E=      0 Chk=     28 Scr=      1
 Normal termination of Gaussian 16 at Sun Jul 18 18:20:49 2021.
