 Entering Gaussian System, Link 0=g16
 Input=SET_328_BBB321_conf1.geo_165_150_255_OCTANOL.dat
 Output=SET_328_BBB321_conf1.geo_165_150_255_OCTANOL.log
 Initial command:
 /dades/curu/g16A03_MST/g16/l1.exe "/tmp/ubator02/1839683/Gau-73236.inp" -scrdir="/tmp/ubator02/1839683/"
 Entering Link 1 = /dades/curu/g16A03_MST/g16/l1.exe PID=     73237.
  
 Copyright (c) 1988,1990,1992,1993,1995,1998,2003,2009,2016,
            Gaussian, Inc.  All Rights Reserved.
  
 This is part of the Gaussian(R) 16 program.  It is based on
 the Gaussian(R) 09 system (copyright 2009, Gaussian, Inc.),
 the Gaussian(R) 03 system (copyright 2003, Gaussian, Inc.),
 the Gaussian(R) 98 system (copyright 1998, Gaussian, Inc.),
 the Gaussian(R) 94 system (copyright 1995, Gaussian, Inc.),
 the Gaussian 92(TM) system (copyright 1992, Gaussian, Inc.),
 the Gaussian 90(TM) system (copyright 1990, Gaussian, Inc.),
 the Gaussian 88(TM) system (copyright 1988, Gaussian, Inc.),
 the Gaussian 86(TM) system (copyright 1986, Carnegie Mellon
 University), and the Gaussian 82(TM) system (copyright 1983,
 Carnegie Mellon University). Gaussian is a federally registered
 trademark of Gaussian, Inc.
  
 This software contains proprietary and confidential information,
 including trade secrets, belonging to Gaussian, Inc.
  
 This software is provided under written license and may be
 used, copied, transmitted, or stored only in accord with that
 written license.
  
 The following legend is applicable only to US Government
 contracts under FAR:
  
                    RESTRICTED RIGHTS LEGEND
  
 Use, reproduction and disclosure by the US Government is
 subject to restrictions as set forth in subparagraphs (a)
 and (c) of the Commercial Computer Software - Restricted
 Rights clause in FAR 52.227-19.
  
 Gaussian, Inc.
 340 Quinnipiac St., Bldg. 40, Wallingford CT 06492
  
  
 ---------------------------------------------------------------
 Warning -- This program may not be used in any manner that
 competes with the business of Gaussian, Inc. or will provide
 assistance to any competitor of Gaussian, Inc.  The licensee
 of this program is prohibited from giving any competitor of
 Gaussian, Inc. access to this program.  By using this program,
 the user acknowledges that Gaussian, Inc. is engaged in the
 business of creating and licensing software in the field of
 computational chemistry and represents and warrants to the
 licensee that it is not a competitor of Gaussian, Inc. and that
 it will not use this program in any manner prohibited above.
 ---------------------------------------------------------------
  

 Cite this work as:
 Gaussian 16, Revision A.03,
 M. J. Frisch, G. W. Trucks, H. B. Schlegel, G. E. Scuseria, 
 M. A. Robb, J. R. Cheeseman, G. Scalmani, V. Barone, 
 G. A. Petersson, H. Nakatsuji, X. Li, M. Caricato, A. V. Marenich, 
 J. Bloino, B. G. Janesko, R. Gomperts, B. Mennucci, H. P. Hratchian, 
 J. V. Ortiz, A. F. Izmaylov, J. L. Sonnenberg, D. Williams-Young, 
 F. Ding, F. Lipparini, F. Egidi, J. Goings, B. Peng, A. Petrone, 
 T. Henderson, D. Ranasinghe, V. G. Zakrzewski, J. Gao, N. Rega, 
 G. Zheng, W. Liang, M. Hada, M. Ehara, K. Toyota, R. Fukuda, 
 J. Hasegawa, M. Ishida, T. Nakajima, Y. Honda, O. Kitao, H. Nakai, 
 T. Vreven, K. Throssell, J. A. Montgomery, Jr., J. E. Peralta, 
 F. Ogliaro, M. J. Bearpark, J. J. Heyd, E. N. Brothers, K. N. Kudin, 
 V. N. Staroverov, T. A. Keith, R. Kobayashi, J. Normand, 
 K. Raghavachari, A. P. Rendell, J. C. Burant, S. S. Iyengar, 
 J. Tomasi, M. Cossi, J. M. Millam, M. Klene, C. Adamo, R. Cammi, 
 J. W. Ochterski, R. L. Martin, K. Morokuma, O. Farkas, 
 J. B. Foresman, and D. J. Fox, Gaussian, Inc., Wallingford CT, 2016.
 
 ******************************************
 Gaussian 16:  ES64L-G16RevA.03 25-Dec-2016
                18-Jul-2021 
 ******************************************
 %mem=800MB
 %nproc=4
 Will use up to    4 processors via shared memory.
 %chk=SET_328_BBB321_conf1.geo_165_150_255.chk
 ---------------------------------------------------------------
 #p b3lyp/6-31G(d) opt freq scrf=(iefpcm,read,solvent=n-octanol)
 ---------------------------------------------------------------
 1/18=20,19=15,26=3,38=1,40=2/1,3;
 2/9=110,12=2,17=6,18=5,40=1/2;
 3/5=1,6=6,7=1,11=2,25=1,30=1,70=2203,71=1,72=25,74=-5/1,2,3;
 4//1;
 5/5=2,38=5,53=25/2;
 6/7=2,8=2,9=2,10=2,28=1/1;
 7//1,2,3,16;
 1/18=20,19=15,26=3/3(2);
 2/9=110/2;
 99//99;
 2/9=110/2;
 3/5=1,6=6,7=1,11=2,25=1,30=1,70=2205,71=1,72=25,74=-5/1,2,3;
 4/5=5,16=3,69=1/1;
 5/5=2,38=5,53=25/2;
 7//1,2,3,16;
 1/18=20,19=15,26=3/3(-5);
 2/9=110/2;
 6/7=2,8=2,9=2,10=2,19=2,28=1/1;
 99/9=1/99;
 Leave Link    1 at Sun Jul 18 15:59:02 2021, MaxMem=   104857600 cpu:               0.0 elap:               0.0
 (Enter /dades/curu/g16A03_MST/g16/l101.exe)
 ---------------------------------------------
 SET_328_BBB321_conf1.geo_165_150_255 geometry
 ---------------------------------------------
 Symbolic Z-matrix:
 Charge =  1 Multiplicity = 1
 C                    -1.686    -0.517    -5.685 
 H                    -1.278    -1.509    -5.888 
 H                    -1.209     0.279    -6.26 
 H                    -2.737    -0.533    -5.982 
 C                    -1.738    -0.173    -4.23 
 O                    -2.173     0.86     -3.792 
 N                    -1.174    -1.109    -3.447 
 H                    -0.652    -1.872    -3.851 
 C                    -1.264    -1.011    -2.073 
 C                    -2.532    -1.253    -1.494 
 C                    -2.624    -1.097    -0.157 
 C                    -1.494    -0.819     0.628 
 H                    -1.547    -0.834     1.714 
 H                    -3.566    -1.222     0.372 
 H                    -3.335    -1.53     -2.172 
 C                    -0.173    -0.556    -1.334 
 H                     0.731    -0.242    -1.849 
 C                    -0.227    -0.571     0.04 
 C                     0.934    -0.298     0.902 
 N                     0.957     0.23      2.17 
 C                     2.107    -0.897     0.529 
 H                     2.217    -1.558    -0.322 
 S                     3.322    -0.591     1.68 
 C                     2.14      0.176     2.703 
 N                     2.57      0.757     3.874 
 C                     1.852     1.545     4.514 
 N                     1.436     2.64      4.017 
 H                     1.772     2.651     3.06 
 H                     1.79      3.348     4.65 
 N                     2.415     2.122     5.568 
 H                     1.886     1.978     6.421 
 H                     3.279     1.606     5.695 
 H                     3.483     0.54      4.219 
 
 ITRead=  0  0  0  0  0  0  0  0  0  0  0  0  0  0  0  0  0  0  0  0
 ITRead=  0  0  0  0  0  0  0  0  0  0  0  0  0
 MicOpt= -1 -1 -1 -1 -1 -1 -1 -1 -1 -1 -1 -1 -1 -1 -1 -1 -1 -1 -1 -1
 MicOpt= -1 -1 -1 -1 -1 -1 -1 -1 -1 -1 -1 -1 -1
 NAtoms=     33 NQM=       33 NQMF=       0 NMMI=      0 NMMIF=      0
                NMic=       0 NMicF=      0.
                    Isotopes and Nuclear Properties:
 (Nuclear quadrupole moments (NQMom) in fm**2, nuclear magnetic moments (NMagM)
  in nuclear magnetons)

  Atom         1           2           3           4           5           6           7           8           9          10
 IAtWgt=          12           1           1           1          12          16          14           1          12          12
 AtmWgt=  12.0000000   1.0078250   1.0078250   1.0078250  12.0000000  15.9949146  14.0030740   1.0078250  12.0000000  12.0000000
 NucSpn=           0           1           1           1           0           0           2           1           0           0
 AtZEff=  -0.0000000  -0.0000000  -0.0000000  -0.0000000  -0.0000000  -0.0000000  -0.0000000  -0.0000000  -0.0000000  -0.0000000
 NQMom=    0.0000000   0.0000000   0.0000000   0.0000000   0.0000000   0.0000000   2.0440000   0.0000000   0.0000000   0.0000000
 NMagM=    0.0000000   2.7928460   2.7928460   2.7928460   0.0000000   0.0000000   0.4037610   2.7928460   0.0000000   0.0000000
 AtZNuc=   6.0000000   1.0000000   1.0000000   1.0000000   6.0000000   8.0000000   7.0000000   1.0000000   6.0000000   6.0000000

  Atom        11          12          13          14          15          16          17          18          19          20
 IAtWgt=          12          12           1           1           1          12           1          12          12          14
 AtmWgt=  12.0000000  12.0000000   1.0078250   1.0078250   1.0078250  12.0000000   1.0078250  12.0000000  12.0000000  14.0030740
 NucSpn=           0           0           1           1           1           0           1           0           0           2
 AtZEff=  -0.0000000  -0.0000000  -0.0000000  -0.0000000  -0.0000000  -0.0000000  -0.0000000  -0.0000000  -0.0000000  -0.0000000
 NQMom=    0.0000000   0.0000000   0.0000000   0.0000000   0.0000000   0.0000000   0.0000000   0.0000000   0.0000000   2.0440000
 NMagM=    0.0000000   0.0000000   2.7928460   2.7928460   2.7928460   0.0000000   2.7928460   0.0000000   0.0000000   0.4037610
 AtZNuc=   6.0000000   6.0000000   1.0000000   1.0000000   1.0000000   6.0000000   1.0000000   6.0000000   6.0000000   7.0000000

  Atom        21          22          23          24          25          26          27          28          29          30
 IAtWgt=          12           1          32          12          14          12          14           1           1          14
 AtmWgt=  12.0000000   1.0078250  31.9720718  12.0000000  14.0030740  12.0000000  14.0030740   1.0078250   1.0078250  14.0030740
 NucSpn=           0           1           0           0           2           0           2           1           1           2
 AtZEff=  -0.0000000  -0.0000000  -0.0000000  -0.0000000  -0.0000000  -0.0000000  -0.0000000  -0.0000000  -0.0000000  -0.0000000
 NQMom=    0.0000000   0.0000000   0.0000000   0.0000000   2.0440000   0.0000000   2.0440000   0.0000000   0.0000000   2.0440000
 NMagM=    0.0000000   2.7928460   0.0000000   0.0000000   0.4037610   0.0000000   0.4037610   2.7928460   2.7928460   0.4037610
 AtZNuc=   6.0000000   1.0000000  16.0000000   6.0000000   7.0000000   6.0000000   7.0000000   1.0000000   1.0000000   7.0000000

  Atom        31          32          33
 IAtWgt=           1           1           1
 AtmWgt=   1.0078250   1.0078250   1.0078250
 NucSpn=           1           1           1
 AtZEff=  -0.0000000  -0.0000000  -0.0000000
 NQMom=    0.0000000   0.0000000   0.0000000
 NMagM=    2.7928460   2.7928460   2.7928460
 AtZNuc=   1.0000000   1.0000000   1.0000000
 Leave Link  101 at Sun Jul 18 15:59:03 2021, MaxMem=   104857600 cpu:               0.1 elap:               0.1
 (Enter /dades/curu/g16A03_MST/g16/l103.exe)

 GradGradGradGradGradGradGradGradGradGradGradGradGradGradGradGradGradGrad
 Berny optimization.
 Initialization pass.
                           ----------------------------
                           !    Initial Parameters    !
                           ! (Angstroms and Degrees)  !
 --------------------------                            --------------------------
 ! Name  Definition              Value          Derivative Info.                !
 --------------------------------------------------------------------------------
 ! R1    R(1,2)                  1.0917         estimate D2E/DX2                !
 ! R2    R(1,3)                  1.0917         estimate D2E/DX2                !
 ! R3    R(1,4)                  1.0923         estimate D2E/DX2                !
 ! R4    R(1,5)                  1.496          estimate D2E/DX2                !
 ! R5    R(5,6)                  1.2034         estimate D2E/DX2                !
 ! R6    R(5,7)                  1.3444         estimate D2E/DX2                !
 ! R7    R(7,8)                  1.0089         estimate D2E/DX2                !
 ! R8    R(7,9)                  1.3804         estimate D2E/DX2                !
 ! R9    R(9,10)                 1.4148         estimate D2E/DX2                !
 ! R10   R(9,16)                 1.3941         estimate D2E/DX2                !
 ! R11   R(10,11)                1.3492         estimate D2E/DX2                !
 ! R12   R(10,15)                1.0868         estimate D2E/DX2                !
 ! R13   R(11,12)                1.4037         estimate D2E/DX2                !
 ! R14   R(11,14)                1.0876         estimate D2E/DX2                !
 ! R15   R(12,13)                1.0874         estimate D2E/DX2                !
 ! R16   R(12,18)                1.4186         estimate D2E/DX2                !
 ! R17   R(16,17)                1.0868         estimate D2E/DX2                !
 ! R18   R(16,18)                1.3751         estimate D2E/DX2                !
 ! R19   R(18,19)                1.4716         estimate D2E/DX2                !
 ! R20   R(19,20)                1.3737         estimate D2E/DX2                !
 ! R21   R(19,21)                1.3689         estimate D2E/DX2                !
 ! R22   R(20,24)                1.2987         estimate D2E/DX2                !
 ! R23   R(21,22)                1.0832         estimate D2E/DX2                !
 ! R24   R(21,23)                1.7014         estimate D2E/DX2                !
 ! R25   R(23,24)                1.7412         estimate D2E/DX2                !
 ! R26   R(24,25)                1.3761         estimate D2E/DX2                !
 ! R27   R(25,26)                1.2434         estimate D2E/DX2                !
 ! R28   R(25,33)                0.9998         estimate D2E/DX2                !
 ! R29   R(26,27)                1.2724         estimate D2E/DX2                !
 ! R30   R(26,30)                1.327          estimate D2E/DX2                !
 ! R31   R(27,28)                1.0143         estimate D2E/DX2                !
 ! R32   R(27,29)                1.0135         estimate D2E/DX2                !
 ! R33   R(30,31)                1.014          estimate D2E/DX2                !
 ! R34   R(30,32)                1.0143         estimate D2E/DX2                !
 ! A1    A(2,1,3)              113.6616         estimate D2E/DX2                !
 ! A2    A(2,1,4)              107.2021         estimate D2E/DX2                !
 ! A3    A(2,1,5)              113.7532         estimate D2E/DX2                !
 ! A4    A(3,1,4)              106.7318         estimate D2E/DX2                !
 ! A5    A(3,1,5)              111.0875         estimate D2E/DX2                !
 ! A6    A(4,1,5)              103.5549         estimate D2E/DX2                !
 ! A7    A(1,5,6)              124.3288         estimate D2E/DX2                !
 ! A8    A(1,5,7)              113.0658         estimate D2E/DX2                !
 ! A9    A(6,5,7)              122.5016         estimate D2E/DX2                !
 ! A10   A(5,7,8)              120.6897         estimate D2E/DX2                !
 ! A11   A(5,7,9)              120.195          estimate D2E/DX2                !
 ! A12   A(8,7,9)              119.0778         estimate D2E/DX2                !
 ! A13   A(7,9,10)             116.977          estimate D2E/DX2                !
 ! A14   A(7,9,16)             119.9856         estimate D2E/DX2                !
 ! A15   A(10,9,16)            122.7032         estimate D2E/DX2                !
 ! A16   A(9,10,11)            116.5437         estimate D2E/DX2                !
 ! A17   A(9,10,15)            116.7743         estimate D2E/DX2                !
 ! A18   A(11,10,15)           126.6746         estimate D2E/DX2                !
 ! A19   A(10,11,12)           121.4784         estimate D2E/DX2                !
 ! A20   A(10,11,14)           121.8549         estimate D2E/DX2                !
 ! A21   A(12,11,14)           116.6157         estimate D2E/DX2                !
 ! A22   A(11,12,13)           121.1008         estimate D2E/DX2                !
 ! A23   A(11,12,18)           121.4524         estimate D2E/DX2                !
 ! A24   A(13,12,18)           117.3801         estimate D2E/DX2                !
 ! A25   A(9,16,17)            119.6096         estimate D2E/DX2                !
 ! A26   A(9,16,18)            119.6942         estimate D2E/DX2                !
 ! A27   A(17,16,18)           120.6179         estimate D2E/DX2                !
 ! A28   A(12,18,16)           116.8153         estimate D2E/DX2                !
 ! A29   A(12,18,19)           119.6213         estimate D2E/DX2                !
 ! A30   A(16,18,19)           123.5236         estimate D2E/DX2                !
 ! A31   A(18,19,20)           128.697          estimate D2E/DX2                !
 ! A32   A(18,19,21)           115.8021         estimate D2E/DX2                !
 ! A33   A(20,19,21)           113.9131         estimate D2E/DX2                !
 ! A34   A(19,20,24)           112.2164         estimate D2E/DX2                !
 ! A35   A(19,21,22)           124.6207         estimate D2E/DX2                !
 ! A36   A(19,21,23)           110.4199         estimate D2E/DX2                !
 ! A37   A(22,21,23)           124.663          estimate D2E/DX2                !
 ! A38   A(21,23,24)            89.5367         estimate D2E/DX2                !
 ! A39   A(20,24,23)           113.3008         estimate D2E/DX2                !
 ! A40   A(20,24,25)           128.0493         estimate D2E/DX2                !
 ! A41   A(23,24,25)           118.2812         estimate D2E/DX2                !
 ! A42   A(24,25,26)           121.6766         estimate D2E/DX2                !
 ! A43   A(24,25,33)           119.1648         estimate D2E/DX2                !
 ! A44   A(26,25,33)           119.1587         estimate D2E/DX2                !
 ! A45   A(25,26,27)           122.216          estimate D2E/DX2                !
 ! A46   A(25,26,30)           116.0661         estimate D2E/DX2                !
 ! A47   A(27,26,30)            94.2875         estimate D2E/DX2                !
 ! A48   A(26,27,28)           105.6374         estimate D2E/DX2                !
 ! A49   A(26,27,29)           104.0639         estimate D2E/DX2                !
 ! A50   A(28,27,29)           117.7731         estimate D2E/DX2                !
 ! A51   A(26,30,31)           112.6492         estimate D2E/DX2                !
 ! A52   A(26,30,32)           103.8656         estimate D2E/DX2                !
 ! A53   A(31,30,32)           105.4744         estimate D2E/DX2                !
 ! D1    D(2,1,5,6)           -178.687          estimate D2E/DX2                !
 ! D2    D(2,1,5,7)              4.9458         estimate D2E/DX2                !
 ! D3    D(3,1,5,6)             51.5473         estimate D2E/DX2                !
 ! D4    D(3,1,5,7)           -124.82           estimate D2E/DX2                !
 ! D5    D(4,1,5,6)            -62.6806         estimate D2E/DX2                !
 ! D6    D(4,1,5,7)            120.9522         estimate D2E/DX2                !
 ! D7    D(1,5,7,8)              9.0681         estimate D2E/DX2                !
 ! D8    D(1,5,7,9)           -173.1818         estimate D2E/DX2                !
 ! D9    D(6,5,7,8)           -167.3749         estimate D2E/DX2                !
 ! D10   D(6,5,7,9)             10.3752         estimate D2E/DX2                !
 ! D11   D(5,7,9,10)            71.3201         estimate D2E/DX2                !
 ! D12   D(5,7,9,16)          -102.2211         estimate D2E/DX2                !
 ! D13   D(8,7,9,10)          -110.8937         estimate D2E/DX2                !
 ! D14   D(8,7,9,16)            75.5651         estimate D2E/DX2                !
 ! D15   D(7,9,10,11)         -177.1567         estimate D2E/DX2                !
 ! D16   D(7,9,10,15)            1.9198         estimate D2E/DX2                !
 ! D17   D(16,9,10,11)          -3.8057         estimate D2E/DX2                !
 ! D18   D(16,9,10,15)         175.2708         estimate D2E/DX2                !
 ! D19   D(7,9,16,17)            2.4764         estimate D2E/DX2                !
 ! D20   D(7,9,16,18)         -174.3276         estimate D2E/DX2                !
 ! D21   D(10,9,16,17)        -170.6815         estimate D2E/DX2                !
 ! D22   D(10,9,16,18)          12.5145         estimate D2E/DX2                !
 ! D23   D(9,10,11,12)          -5.1626         estimate D2E/DX2                !
 ! D24   D(9,10,11,14)         177.5222         estimate D2E/DX2                !
 ! D25   D(15,10,11,12)        175.8654         estimate D2E/DX2                !
 ! D26   D(15,10,11,14)         -1.4498         estimate D2E/DX2                !
 ! D27   D(10,11,12,13)       -171.2124         estimate D2E/DX2                !
 ! D28   D(10,11,12,18)          5.7404         estimate D2E/DX2                !
 ! D29   D(14,11,12,13)          6.237          estimate D2E/DX2                !
 ! D30   D(14,11,12,18)       -176.8102         estimate D2E/DX2                !
 ! D31   D(11,12,18,16)          2.8718         estimate D2E/DX2                !
 ! D32   D(11,12,18,19)       -179.3424         estimate D2E/DX2                !
 ! D33   D(13,12,18,16)        179.9336         estimate D2E/DX2                !
 ! D34   D(13,12,18,19)         -2.2806         estimate D2E/DX2                !
 ! D35   D(9,16,18,12)         -11.4807         estimate D2E/DX2                !
 ! D36   D(9,16,18,19)         170.8283         estimate D2E/DX2                !
 ! D37   D(17,16,18,12)        171.7481         estimate D2E/DX2                !
 ! D38   D(17,16,18,19)         -5.9429         estimate D2E/DX2                !
 ! D39   D(12,18,19,20)        -26.0673         estimate D2E/DX2                !
 ! D40   D(12,18,19,21)        138.5494         estimate D2E/DX2                !
 ! D41   D(16,18,19,20)        151.5622         estimate D2E/DX2                !
 ! D42   D(16,18,19,21)        -43.8211         estimate D2E/DX2                !
 ! D43   D(18,19,20,24)        171.728          estimate D2E/DX2                !
 ! D44   D(21,19,20,24)          6.8725         estimate D2E/DX2                !
 ! D45   D(18,19,21,22)         -1.5836         estimate D2E/DX2                !
 ! D46   D(18,19,21,23)       -175.5674         estimate D2E/DX2                !
 ! D47   D(20,19,21,22)        165.3266         estimate D2E/DX2                !
 ! D48   D(20,19,21,23)         -8.6572         estimate D2E/DX2                !
 ! D49   D(19,20,24,23)         -1.894          estimate D2E/DX2                !
 ! D50   D(19,20,24,25)        170.9354         estimate D2E/DX2                !
 ! D51   D(19,21,23,24)          6.172          estimate D2E/DX2                !
 ! D52   D(22,21,23,24)       -167.8088         estimate D2E/DX2                !
 ! D53   D(21,23,24,20)         -2.5308         estimate D2E/DX2                !
 ! D54   D(21,23,24,25)       -176.1221         estimate D2E/DX2                !
 ! D55   D(20,24,25,26)         -7.2726         estimate D2E/DX2                !
 ! D56   D(20,24,25,33)        172.7271         estimate D2E/DX2                !
 ! D57   D(23,24,25,26)        165.2472         estimate D2E/DX2                !
 ! D58   D(23,24,25,33)        -14.7531         estimate D2E/DX2                !
 ! D59   D(24,25,26,27)        -60.8102         estimate D2E/DX2                !
 ! D60   D(24,25,26,30)       -174.8019         estimate D2E/DX2                !
 ! D61   D(33,25,26,27)        119.1901         estimate D2E/DX2                !
 ! D62   D(33,25,26,30)          5.1985         estimate D2E/DX2                !
 ! D63   D(25,26,27,28)          2.8398         estimate D2E/DX2                !
 ! D64   D(25,26,27,29)       -121.8375         estimate D2E/DX2                !
 ! D65   D(30,26,27,28)        127.4553         estimate D2E/DX2                !
 ! D66   D(30,26,27,29)          2.778          estimate D2E/DX2                !
 ! D67   D(25,26,30,31)       -124.9605         estimate D2E/DX2                !
 ! D68   D(25,26,30,32)        -11.3336         estimate D2E/DX2                !
 ! D69   D(27,26,30,31)        105.8554         estimate D2E/DX2                !
 ! D70   D(27,26,30,32)       -140.5178         estimate D2E/DX2                !
 --------------------------------------------------------------------------------
 Trust Radius=3.00D-01 FncErr=1.00D-07 GrdErr=1.00D-06 EigMax=2.50D+02 EigMin=1.00D-04
 Number of steps in this run=    167 maximum allowed number of steps=    198.
 GradGradGradGradGradGradGradGradGradGradGradGradGradGradGradGradGradGrad

 Leave Link  103 at Sun Jul 18 15:59:03 2021, MaxMem=   104857600 cpu:               0.0 elap:               0.0
 (Enter /dades/curu/g16A03_MST/g16/l202.exe)
                          Input orientation:                          
 ---------------------------------------------------------------------
 Center     Atomic      Atomic             Coordinates (Angstroms)
 Number     Number       Type             X           Y           Z
 ---------------------------------------------------------------------
      1          6           0       -1.686000   -0.517000   -5.685000
      2          1           0       -1.278000   -1.509000   -5.888000
      3          1           0       -1.209000    0.279000   -6.260000
      4          1           0       -2.737000   -0.533000   -5.982000
      5          6           0       -1.738000   -0.173000   -4.230000
      6          8           0       -2.173000    0.860000   -3.792000
      7          7           0       -1.174000   -1.109000   -3.447000
      8          1           0       -0.652000   -1.872000   -3.851000
      9          6           0       -1.264000   -1.011000   -2.073000
     10          6           0       -2.532000   -1.253000   -1.494000
     11          6           0       -2.624000   -1.097000   -0.157000
     12          6           0       -1.494000   -0.819000    0.628000
     13          1           0       -1.547000   -0.834000    1.714000
     14          1           0       -3.566000   -1.222000    0.372000
     15          1           0       -3.335000   -1.530000   -2.172000
     16          6           0       -0.173000   -0.556000   -1.334000
     17          1           0        0.731000   -0.242000   -1.849000
     18          6           0       -0.227000   -0.571000    0.040000
     19          6           0        0.934000   -0.298000    0.902000
     20          7           0        0.957000    0.230000    2.170000
     21          6           0        2.107000   -0.897000    0.529000
     22          1           0        2.217000   -1.558000   -0.322000
     23         16           0        3.322000   -0.591000    1.680000
     24          6           0        2.140000    0.176000    2.703000
     25          7           0        2.570000    0.757000    3.874000
     26          6           0        1.852000    1.545000    4.514000
     27          7           0        1.436000    2.640000    4.017000
     28          1           0        1.772000    2.651000    3.060000
     29          1           0        1.790000    3.348000    4.650000
     30          7           0        2.415000    2.122000    5.568000
     31          1           0        1.886000    1.978000    6.421000
     32          1           0        3.279000    1.606000    5.695000
     33          1           0        3.483000    0.540000    4.219000
 ---------------------------------------------------------------------
                    Distance matrix (angstroms):
                    1          2          3          4          5
     1  C    0.000000
     2  H    1.091667   0.000000
     3  H    1.091682   1.827591   0.000000
     4  H    1.092276   1.757866   1.752544   0.000000
     5  C    1.496016   2.178408   2.145937   2.048684   0.000000
     6  O    2.390972   3.287309   2.712541   2.656058   1.203394
     7  N    2.370918   2.475742   3.136995   3.033310   1.344352
     8  H    2.503745   2.161716   3.277244   3.268227   2.051740
     9  C    3.669968   3.847392   4.381563   4.204580   2.362111
    10  C    4.338421   4.576602   5.178041   4.550008   3.046725
    11  C    5.636934   5.901341   6.414219   5.853332   4.269438
    12  C    6.323135   6.555991   6.980786   6.731935   4.906834
    13  H    7.407092   7.636648   8.058392   7.793274   5.983689
    14  H    6.381119   6.671200   7.196657   6.444787   5.061659
    15  H    4.010803   4.247393   4.950162   3.983430   2.937213
    16  C    4.606722   4.782065   5.102548   5.308345   3.314020
    17  H    4.542291   4.685605   4.846851   5.403091   3.430726
    18  C    5.908233   6.093080   6.432482   6.524265   4.546914
    19  C    7.092315   7.243174   7.497975   7.805186   5.787282
    20  N    8.321327   8.541119   8.703956   8.982367   6.955964
    21  C    7.290065   7.280842   7.646526   8.123420   6.160867
    22  H    6.714079   6.572502   7.097316   7.591333   5.729984
    23  S    8.906670   8.903783   9.183162   9.768372   7.791433
    24  C    9.245381   9.398257   9.568792   9.985842   7.951552
    25  N   10.540925  10.734920  10.826231  11.268056   9.224889
    26  C   10.990400  11.283857  11.271715  11.642294   9.607141
    27  N   10.669692  11.076508  10.871388  11.289901   9.273632
    28  H    9.923155  10.328350  10.068522  10.593710   8.569666
    29  H   11.568622  12.002188  11.723517  12.189968  10.183252
    30  N   12.264279  12.572285  12.507262  12.922640  10.886470
    31  H   12.866213  13.178829  13.163335  13.472626  11.454430
    32  H   12.596140  12.831031  12.838423  13.308640  11.262360
    33  H   11.221632  11.358564  11.484443  11.995838   9.957550
                    6          7          8          9         10
     6  O    0.000000
     7  N    2.234723   0.000000
     8  H    3.127418   1.008895   0.000000
     9  C    2.698496   1.380427   2.068127   0.000000
    10  C    3.142364   2.383088   3.077826   1.414789   0.000000
    11  C    4.152888   3.595378   4.258526   2.351181   1.349211
    12  C    4.776660   4.097820   4.677522   2.717566   2.401808
    13  H    5.794614   5.181764   5.731291   3.801682   3.381871
    14  H    4.859431   4.507682   5.171811   3.364781   2.133559
    15  H    3.112353   2.544167   3.183472   2.137335   1.086840
    16  C    3.470853   2.402619   2.880379   1.394069   2.465013
    17  H    3.663723   2.633309   2.928753   2.149782   3.434431
    18  C    4.529779   3.653139   4.124695   2.394522   2.851544
    19  C    5.747003   4.900529   5.252036   3.766988   4.320416
    20  N    6.763079   6.155061   6.577213   4.947320   5.272315
    21  C    6.330599   5.159310   5.267552   4.259934   5.073420
    22  H    6.095878   4.633153   4.558903   3.934790   4.900981
    23  S    7.889437   6.838748   6.930050   5.940775   6.691923
    24  C    7.826548   7.103261   7.412455   5.983842   6.440841
    25  N    9.015221   8.431876   8.773172   7.293298   7.673717
    26  C    9.255241   8.920645   9.376520   7.722122   7.946340
    27  N    8.784860   8.750908   9.307165   7.596572   7.827617
    28  H    8.106825   8.072024   8.607858   6.998230   7.382720
    29  H    9.652092   9.706264  10.270286   8.574761   8.808951
    30  N   10.500095  10.226950  10.680641   9.040775   9.259335
    31  H   11.046754  10.782884  11.259571   9.539636   9.623165
    32  H   10.967406  10.525046  10.893822   9.371732   9.675915
    33  H    9.811669   9.120000   9.383010   8.032987   8.487252
                   11         12         13         14         15
    11  C    0.000000
    12  C    1.403713   0.000000
    13  H    2.174796   1.087396   0.000000
    14  H    1.087580   2.126295   2.455172   0.000000
    15  H    2.180192   3.425610   4.333862   2.572967   0.000000
    16  C    2.772257   2.379843   3.354916   3.855702   3.413087
    17  H    3.853559   3.379213   4.270213   4.935327   4.277339
    18  C    2.461929   1.418639   2.147986   3.418032   3.933483
    19  C    3.797268   2.498340   2.664958   4.624357   5.402931
    20  N    4.472071   3.079865   2.758632   5.079236   6.353883
    21  C    4.784659   3.603205   3.841863   5.684470   6.108310
    22  H    4.865699   3.901300   4.340181   5.834177   5.852178
    23  S    6.243839   4.934830   4.875179   7.039430   7.748243
    24  C    5.700511   4.301349   3.948695   6.320317   7.526731
    25  N    6.831099   5.434739   4.913916   7.336957   8.755199
    26  C    6.988060   5.646699   5.005281   7.359835   9.003510
    27  N    6.918890   5.659938   5.125502   7.295277   8.857486
    28  H    6.612217   5.349979   4.997269   7.121778   8.422353
    29  H    7.896117   6.657704   6.102851   8.238502   9.828540
    30  N    8.278231   6.952220   6.268070   8.599600  10.310538
    31  H    8.547854   7.266805   6.469056   8.749555  10.649157
    32  H    8.740568   7.371339   6.715075   9.120633  10.745659
    33  H    7.689252   6.285912   5.784790   8.221463   9.571568
                   16         17         18         19         20
    16  C    0.000000
    17  H    1.086755   0.000000
    18  C    1.375143   2.143438   0.000000
    19  C    2.508328   2.759048   1.471562   0.000000
    20  N    3.764666   4.052927   2.565221   1.373731   0.000000
    21  C    2.964026   2.824409   2.406855   1.368890   2.299024
    22  H    2.782130   2.504352   2.660517   2.175285   3.315812
    23  S    4.615241   4.391916   3.909655   2.528572   2.550954
    24  C    4.709900   4.783378   3.640366   2.218719   1.298651
    25  N    6.030861   6.093657   4.928118   3.552788   2.404811
    26  C    6.535589   6.703565   5.368088   4.157634   2.832770
    27  N    6.437119   6.573652   5.375185   4.311273   3.073914
    28  H    5.777120   5.792358   4.847441   3.749108   2.705100
    29  H    7.409645   7.499772   6.378005   5.298448   4.070161
    30  N    7.842642   7.964687   6.692623   5.460890   4.153532
    31  H    8.414313   8.640331   7.188834   6.045316   4.689301
    32  H    8.123878   8.174310   7.000742   5.665429   4.439672
    33  H    6.738202   6.708625   5.697584   4.266396   3.267289
                   21         22         23         24         25
    21  C    0.000000
    22  H    1.083154   0.000000
    23  S    1.701371   2.482764   0.000000
    24  C    2.424602   3.487594   1.741247   0.000000
    25  N    3.760201   4.805232   2.682582   1.376118   0.000000
    26  C    4.680664   5.757493   3.841218   2.288411   1.243410
    27  N    5.012659   6.087700   4.411114   2.879845   2.202747
    28  H    4.371097   5.417714   3.849346   2.527548   2.210574
    29  H    5.924792   6.997996   5.165621   3.738301   2.814935
    30  N    5.882240   6.947928   4.826962   3.474301   2.181029
    31  H    6.559736   7.621083   5.580227   4.139474   2.906184
    32  H    5.858852   6.880627   4.576995   3.506321   2.130616
    33  H    4.192189   5.159946   2.784170   2.057766   0.999841
                   26         27         28         29         30
    26  C    0.000000
    27  N    1.272435   0.000000
    28  H    1.828593   1.014330   0.000000
    29  H    1.809185   1.013543   1.736155   0.000000
    30  N    1.326957   1.905877   2.642604   1.654214   0.000000
    31  H    1.955836   2.533764   3.429613   2.241106   1.013995
    32  H    1.853324   2.698423   3.210343   2.518672   1.014338
    33  H    1.938353   2.939560   2.954170   3.307094   2.337338
                   31         32         33
    31  H    0.000000
    32  H    1.614283   0.000000
    33  H    3.076858   1.832088   0.000000
 Stoichiometry    C12H14N5OS(1+)
 Framework group  C1[X(C12H14N5OS)]
 Deg. of freedom    93
 Full point group                 C1      NOp   1
 Largest Abelian subgroup         C1      NOp   1
 Largest concise Abelian subgroup C1      NOp   1
                         Standard orientation:                         
 ---------------------------------------------------------------------
 Center     Atomic      Atomic             Coordinates (Angstroms)
 Number     Number       Type             X           Y           Z
 ---------------------------------------------------------------------
      1          6           0       -6.227378    0.811123    1.075878
      2          1           0       -6.400965    1.577643    0.318216
      3          1           0       -6.337548    1.174047    2.099557
      4          1           0       -6.985707    0.038087    0.932982
      5          6           0       -4.937558    0.073374    0.902230
      6          8           0       -4.567355   -0.823196    1.614459
      7          7           0       -4.180612    0.563397   -0.094861
      8          1           0       -4.427458    1.428610   -0.551308
      9          6           0       -3.026411   -0.090792   -0.476225
     10          6           0       -3.181283   -1.318628   -1.161834
     11          6           0       -2.048419   -1.979651   -1.478120
     12          6           0       -0.782899   -1.421826   -1.237912
     13          1           0        0.119940   -1.891901   -1.620458
     14          1           0       -2.068016   -2.949638   -1.969619
     15          1           0       -4.199129   -1.640359   -1.366044
     16          6           0       -1.784308    0.391637   -0.066508
     17          1           0       -1.733868    1.259232    0.586005
     18          6           0       -0.635046   -0.193324   -0.544039
     19          6           0        0.710273    0.362148   -0.327102
     20          7           0        1.911465   -0.300358   -0.253902
     21          6           0        0.832125    1.714208   -0.503014
     22          1           0        0.025773    2.370354   -0.807140
     23         16           0        2.457369    2.190039   -0.339225
     24          6           0        2.921303    0.515649   -0.224658
     25          7           0        4.243550    0.220487    0.016681
     26          6           0        4.604248   -0.913806    0.376326
     27          7           0        4.194055   -1.445105    1.457322
     28          1           0        3.535816   -0.783456    1.854573
     29          1           0        5.043705   -1.635351    1.976138
     30          7           0        5.888758   -1.047880    0.681075
     31          1           0        6.339920   -1.787550    0.154266
     32          1           0        6.308301   -0.185555    0.350532
     33          1           0        4.931760    0.936312   -0.100130
 ---------------------------------------------------------------------
 Rotational constants (GHZ):           0.8340801           0.1333516           0.1266389
 Leave Link  202 at Sun Jul 18 15:59:03 2021, MaxMem=   104857600 cpu:               0.0 elap:               0.0
 (Enter /dades/curu/g16A03_MST/g16/l301.exe)
 Standard basis: 6-31G(d) (6D, 7F)
 Ernie: Thresh=  0.10000D-02 Tol=  0.10000D-05 Strict=F.
 There are   317 symmetry adapted cartesian basis functions of A   symmetry.
 There are   317 symmetry adapted basis functions of A   symmetry.
   317 basis functions,   612 primitive gaussians,   317 cartesian basis functions
    72 alpha electrons       72 beta electrons
       nuclear repulsion energy      1467.9979216999 Hartrees.
 IExCor=  402 DFT=T Ex+Corr=B3LYP ExCW=0 ScaHFX=  0.200000
 ScaDFX=  0.800000  0.720000  1.000000  0.810000 ScalE2=  1.000000  1.000000
 IRadAn=      5 IRanWt=     -1 IRanGd=            0 ICorTp=0 IEmpDi=  4
 NAtoms=   33 NActive=   33 NUniq=   33 SFac= 1.00D+00 NAtFMM=   60 NAOKFM=F Big=F
 Integral buffers will be    131072 words long.
 Raffenetti 2 integral format.
 Two-electron integral symmetry is turned on.
 Using the following non-standard input for PCM:
 MSTModel=DFT cav MSTCharged
 --- end of non-standard input.
 MST model for solvation energy: B3LYP parametrization.
 MST cavity parameters:
 ISph   IAn     Re0     Alpha   Atom Type   QCorr
 ------------------------------------------------
   1      6     1.50     1.50      CH3        F
   2      1     1.20     1.50      CH3        F
   3      1     1.20     1.50      CH3        F
   4      1     1.20     1.50      CH3        F
   5      6     1.50     1.50      C          F
   6      8     1.40     1.50      O          F
   7      7     1.50     1.50      NH         F
   8      1     0.90     1.50      NH         F
   9      6     1.50     1.50      C          F
  10      6     1.50     1.50      CH         F
  11      6     1.50     1.50      CH         F
  12      6     1.50     1.50      CH         F
  13      1     1.20     1.50      CH         F
  14      1     1.20     1.50      CH         F
  15      1     1.20     1.50      CH         F
  16      6     1.50     1.50      CH         F
  17      1     1.20     1.50      CH         F
  18      6     1.50     1.50      C          F
  19      6     1.50     1.50      C          F
  20      7     1.50     1.50      Nc         F
  21      6     1.50     1.50      CH         F
  22      1     1.20     1.50      CH         F
  23     16     1.75     1.50      S          F
  24      6     1.50     1.50      C          F
  25      7     1.50     1.15      NH         T
  26      6     1.50     1.15      CN+        T
  27      7     1.50     1.15      NH+        T
  28      1     0.90     1.15      NH+        T
  29      1     0.90     1.15      NH+        T
  30      7     1.50     1.15      NH+        T
  31      1     0.90     1.15      NH+        T
  32      1     0.90     1.15      NH+        T
  33      1     0.90     1.15      NH         T
 ------------------------------------------------------------------------------
 Polarizable Continuum Model (PCM)
 =================================
 Model                : PCM.
 Atomic radii         : MST.
 Polarization charges : Total charges.
 Charge compensation  : None.
 Solution method      : On-the-fly selection.
 Cavity type          : Scaled VdW (van der Waals Surface) (Alpha=1.500).
 Cavity algorithm     : GePol (No added spheres)
                        Default sphere list used, NSphG=   33.
                        Lebedev-Laikov grids with approx.  5.0 points / Ang**2.
                        Smoothing algorithm: York/Karplus (Gamma=1.0000).
                        Polarization charges: spherical gaussians, with
                                              point-specific exponents (IZeta= 3).
                        Self-potential: point-specific (ISelfS= 7).
                        Self-field    : sphere-specific E.n sum rule (ISelfD= 2).
 1st derivatives      : Analytical E(r).r(x)/FMM algorithm (CHGder, D1EAlg=3).
                        Cavity 1st derivative terms included.
 Solvent              : n-Octanol, Eps=   9.862900 Eps(inf)=   2.043470
 ------------------------------------------------------------------------------
 GePol: Number of generator spheres                  =      33
 GePol: Total number of spheres                      =      33
 GePol: Number of exposed spheres                    =      33 (100.00%)
 GePol: Number of points                             =    3006
 GePol: Average weight of points                     =       0.12
 GePol: Minimum weight of points                     =   0.22D-10
 GePol: Maximum weight of points                     =    0.22065
 GePol: Number of points with low weight             =     173
 GePol: Fraction of low-weight points (<1% of avg)   =       5.76%
 GePol: Cavity surface area                          =    349.287 Ang**2
 GePol: Cavity volume                                =    388.716 Ang**3
 Surface areas from nonelectrostatic (unscaled) cavity and vdw tensions:
 Sphere =    1 Type =  CH3 Surf =        5.290 Tension =       -0.183
 Sphere =    2 Type =  CH3 Surf =        9.926 Tension =       -0.183
 Sphere =    3 Type =  CH3 Surf =       10.151 Tension =       -0.183
 Sphere =    4 Type =  CH3 Surf =        9.947 Tension =       -0.183
 Sphere =    5 Type =  C   Surf =        6.248 Tension =       -0.205
 Sphere =    6 Type =  O   Surf =       16.147 Tension =       -0.185
 Sphere =    7 Type =  NH  Surf =        9.264 Tension =       -0.234
 Sphere =    8 Type =  NH  Surf =        3.907 Tension =       -0.234
 Sphere =    9 Type =  C   Surf =        5.640 Tension =       -0.205
 Sphere =   10 Type =  CH  Surf =        7.666 Tension =       -0.195
 Sphere =   11 Type =  CH  Surf =        7.651 Tension =       -0.195
 Sphere =   12 Type =  CH  Surf =        7.730 Tension =       -0.195
 Sphere =   13 Type =  CH  Surf =       10.169 Tension =       -0.195
 Sphere =   14 Type =  CH  Surf =       10.221 Tension =       -0.195
 Sphere =   15 Type =  CH  Surf =       10.152 Tension =       -0.195
 Sphere =   16 Type =  CH  Surf =        7.513 Tension =       -0.195
 Sphere =   17 Type =  CH  Surf =       10.195 Tension =       -0.195
 Sphere =   18 Type =  C   Surf =        6.154 Tension =       -0.205
 Sphere =   19 Type =  C   Surf =        6.142 Tension =       -0.205
 Sphere =   20 Type =  Nc  Surf =       12.763 Tension =       -0.161
 Sphere =   21 Type =  CH  Surf =        7.249 Tension =       -0.195
 Sphere =   22 Type =  CH  Surf =       10.197 Tension =       -0.195
 Sphere =   23 Type =  S   Surf =       24.118 Tension =       -0.186
 Sphere =   24 Type =  C   Surf =        5.339 Tension =       -0.205
 Sphere =   25 Type =  NH  Surf =        8.817 Tension =       -0.234
 Sphere =   26 Type =  CN+ Surf =        6.174 Tension =       -0.227
 Sphere =   27 Type =  NH+ Surf =       13.784 Tension =       -0.274
 Sphere =   28 Type =  NH+ Surf =        3.854 Tension =       -0.274
 Sphere =   29 Type =  NH+ Surf =        2.983 Tension =       -0.274
 Sphere =   30 Type =  NH+ Surf =       12.745 Tension =       -0.274
 Sphere =   31 Type =  NH+ Surf =        3.951 Tension =       -0.274
 Sphere =   32 Type =  NH+ Surf =        3.759 Tension =       -0.274
 Sphere =   33 Type =  NH  Surf =        3.820 Tension =       -0.234
 PCM non-electrostatic energy =        -0.0205786252 Hartrees.
 Nuclear repulsion after PCM non-electrostatic terms =     1467.9773430748 Hartrees.
 Leave Link  301 at Sun Jul 18 15:59:03 2021, MaxMem=   104857600 cpu:               0.1 elap:               0.1
 (Enter /dades/curu/g16A03_MST/g16/l302.exe)
 NPDir=0 NMtPBC=     1 NCelOv=     1 NCel=       1 NClECP=     1 NCelD=      1
         NCelK=      1 NCelE2=     1 NClLst=     1 CellRange=     0.0.
 One-electron integrals computed using PRISM.
 One-electron integral symmetry used in STVInt
 NBasis=   317 RedAO= T EigKep=  4.55D-04  NBF=   317
 NBsUse=   317 1.00D-06 EigRej= -1.00D+00 NBFU=   317
 Precomputing XC quadrature grid using
 IXCGrd= 4 IRadAn=           5 IRanWt=          -1 IRanGd=           0 AccXCQ= 0.00D+00.
 Generated NRdTot=       0 NPtTot=           0 NUsed=           0 NTot=          32
 NSgBfM=   311   311   311   311   311 MxSgAt=    33 MxSgA2=    33.
 Leave Link  302 at Sun Jul 18 15:59:05 2021, MaxMem=   104857600 cpu:               5.5 elap:               2.0
 (Enter /dades/curu/g16A03_MST/g16/l303.exe)
 DipDrv:  MaxL=1.
 Leave Link  303 at Sun Jul 18 15:59:05 2021, MaxMem=   104857600 cpu:               0.1 elap:               0.1
 (Enter /dades/curu/g16A03_MST/g16/l401.exe)
 ExpMin= 1.17D-01 ExpMax= 2.19D+04 ExpMxC= 3.30D+03 IAcc=3 IRadAn=         5 AccDes= 0.00D+00
 Harris functional with IExCor=  402 and IRadAn=       5 diagonalized for initial guess.
 HarFok:  IExCor=  402 AccDes= 0.00D+00 IRadAn=         5 IDoV= 1 UseB2=F ITyADJ=14
 ICtDFT=  3500011 ScaDFX=  1.000000  1.000000  1.000000  1.000000
 FoFCou: FMM=F IPFlag=           0 FMFlag=      100000 FMFlg1=           0
         NFxFlg=           0 DoJE=T BraDBF=F KetDBF=T FulRan=T
         wScrn=  0.000000 ICntrl=       500 IOpCl=  0 I1Cent=   200000004 NGrid=           0
         NMat0=    1 NMatS0=      1 NMatT0=    0 NMatD0=    1 NMtDS0=    0 NMtDT0=    0
 Petite list used in FoFCou.
 Harris En= -1212.48551072545    
 JPrj=0 DoOrth=F DoCkMO=F.
 Leave Link  401 at Sun Jul 18 15:59:12 2021, MaxMem=   104857600 cpu:              27.3 elap:               6.9
 (Enter /dades/curu/g16A03_MST/g16/l502.exe)
 Integral symmetry usage will be decided dynamically.
 Closed shell SCF:
 Using DIIS extrapolation, IDIIS=  1040.
 NGot=   104857600 LenX=   104651201 LenY=   104550271
 Requested convergence on RMS density matrix=1.00D-08 within 128 cycles.
 Requested convergence on MAX density matrix=1.00D-06.
 Requested convergence on             energy=1.00D-06.
 No special actions if energy rises.
 Fock matrices will be formed incrementally for  20 cycles.

 Cycle   1  Pass 1  IDiag  1:
 FoFJK:  IHMeth= 1 ICntrl=       0 DoSepK=F KAlg= 0 I1Cent=           0 FoldK=F
 IRaf= 710000000 NMat=       1 IRICut=       1 DoRegI=T DoRafI=F ISym2E= 0 IDoP0=0 IntGTp=1.
 FoFCou: FMM=F IPFlag=           0 FMFlag=      100000 FMFlg1=           0
         NFxFlg=           0 DoJE=F BraDBF=F KetDBF=F FulRan=T
         wScrn=  0.000000 ICntrl=         0 IOpCl=  0 I1Cent=           0 NGrid=           0
         NMat0=    1 NMatS0=      1 NMatT0=    0 NMatD0=    1 NMtDS0=    0 NMtDT0=    0
 Symmetry not used in FoFCou.
 Inv3:  Mode=1 IEnd=    27108108.
 Iteration    1 A*A^-1 deviation from unit magnitude is 4.22D-15 for   2980.
 Iteration    1 A*A^-1 deviation from orthogonality  is 2.56D-15 for   2347   1999.
 Iteration    1 A^-1*A deviation from unit magnitude is 4.44D-15 for   2974.
 Iteration    1 A^-1*A deviation from orthogonality  is 1.62D-15 for   2996   2881.
 E= -1212.08660706403    
 DIIS: error= 2.65D-02 at cycle   1 NSaved=   1.
 NSaved= 1 IEnMin= 1 EnMin= -1212.08660706403     IErMin= 1 ErrMin= 2.65D-02
 ErrMax= 2.65D-02  0.00D+00 EMaxC= 1.00D-01 BMatC= 5.42D-01 BMatP= 5.42D-01
 IDIUse=3 WtCom= 7.35D-01 WtEn= 2.65D-01
 Coeff-Com:  0.100D+01
 Coeff-En:   0.100D+01
 Coeff:      0.100D+01
 Gap=     0.182 Goal=   None    Shift=    0.000
 GapD=    0.182 DampG=1.000 DampE=0.500 DampFc=0.5000 IDamp=-1.
 Damping current iteration by 5.00D-01
 RMSDP=6.08D-03 MaxDP=2.33D-01              OVMax= 3.44D-01

 Cycle   2  Pass 1  IDiag  1:
 RMSU=  3.02D-03    CP:  9.85D-01
 E= -1212.24078240800     Delta-E=       -0.154175343975 Rises=F Damp=T
 DIIS: error= 7.51D-03 at cycle   2 NSaved=   2.
 NSaved= 2 IEnMin= 2 EnMin= -1212.24078240800     IErMin= 2 ErrMin= 7.51D-03
 ErrMax= 7.51D-03  0.00D+00 EMaxC= 1.00D-01 BMatC= 6.65D-02 BMatP= 5.42D-01
 IDIUse=3 WtCom= 9.25D-01 WtEn= 7.51D-02
 Coeff-Com:  0.180D+00 0.820D+00
 Coeff-En:   0.316D+00 0.684D+00
 Coeff:      0.191D+00 0.809D+00
 Gap=     0.133 Goal=   None    Shift=    0.000
 RMSDP=1.91D-03 MaxDP=8.37D-02 DE=-1.54D-01 OVMax= 2.84D-01

 Cycle   3  Pass 1  IDiag  1:
 RMSU=  1.59D-03    CP:  9.76D-01  6.56D-01
 E= -1212.53301337995     Delta-E=       -0.292230971950 Rises=F Damp=F
 DIIS: error= 7.89D-03 at cycle   3 NSaved=   3.
 NSaved= 3 IEnMin= 3 EnMin= -1212.53301337995     IErMin= 2 ErrMin= 7.51D-03
 ErrMax= 7.89D-03  0.00D+00 EMaxC= 1.00D-01 BMatC= 6.38D-02 BMatP= 6.65D-02
 IDIUse=3 WtCom= 9.21D-01 WtEn= 7.89D-02
 Coeff-Com:  0.502D-01 0.491D+00 0.459D+00
 Coeff-En:   0.000D+00 0.000D+00 0.100D+01
 Coeff:      0.463D-01 0.452D+00 0.501D+00
 Gap=     0.125 Goal=   None    Shift=    0.000
 RMSDP=1.05D-03 MaxDP=4.79D-02 DE=-2.92D-01 OVMax= 6.69D-02

 Cycle   4  Pass 1  IDiag  1:
 RMSU=  7.21D-04    CP:  9.79D-01  7.67D-01  5.67D-01
 E= -1212.58521767841     Delta-E=       -0.052204298455 Rises=F Damp=F
 DIIS: error= 2.55D-03 at cycle   4 NSaved=   4.
 NSaved= 4 IEnMin= 4 EnMin= -1212.58521767841     IErMin= 4 ErrMin= 2.55D-03
 ErrMax= 2.55D-03  0.00D+00 EMaxC= 1.00D-01 BMatC= 8.50D-03 BMatP= 6.38D-02
 IDIUse=3 WtCom= 9.75D-01 WtEn= 2.55D-02
 Coeff-Com: -0.496D-02 0.824D-01 0.282D+00 0.640D+00
 Coeff-En:   0.000D+00 0.000D+00 0.125D+00 0.875D+00
 Coeff:     -0.484D-02 0.803D-01 0.278D+00 0.646D+00
 Gap=     0.122 Goal=   None    Shift=    0.000
 RMSDP=3.46D-04 MaxDP=1.32D-02 DE=-5.22D-02 OVMax= 2.33D-02

 Cycle   5  Pass 1  IDiag  1:
 RMSU=  1.89D-04    CP:  9.79D-01  7.45D-01  6.77D-01  6.92D-01
 E= -1212.59237625628     Delta-E=       -0.007158577874 Rises=F Damp=F
 DIIS: error= 7.46D-04 at cycle   5 NSaved=   5.
 NSaved= 5 IEnMin= 5 EnMin= -1212.59237625628     IErMin= 5 ErrMin= 7.46D-04
 ErrMax= 7.46D-04  0.00D+00 EMaxC= 1.00D-01 BMatC= 5.61D-04 BMatP= 8.50D-03
 IDIUse=3 WtCom= 9.93D-01 WtEn= 7.46D-03
 Coeff-Com: -0.506D-02 0.141D-01 0.119D+00 0.346D+00 0.526D+00
 Coeff-En:   0.000D+00 0.000D+00 0.000D+00 0.000D+00 0.100D+01
 Coeff:     -0.502D-02 0.140D-01 0.118D+00 0.343D+00 0.529D+00
 Gap=     0.121 Goal=   None    Shift=    0.000
 RMSDP=9.94D-05 MaxDP=3.92D-03 DE=-7.16D-03 OVMax= 7.23D-03

 Cycle   6  Pass 1  IDiag  1:
 RMSU=  6.36D-05    CP:  9.79D-01  7.50D-01  6.73D-01  7.35D-01  6.39D-01
 E= -1212.59288957771     Delta-E=       -0.000513321431 Rises=F Damp=F
 DIIS: error= 2.64D-04 at cycle   6 NSaved=   6.
 NSaved= 6 IEnMin= 6 EnMin= -1212.59288957771     IErMin= 6 ErrMin= 2.64D-04
 ErrMax= 2.64D-04  0.00D+00 EMaxC= 1.00D-01 BMatC= 6.04D-05 BMatP= 5.61D-04
 IDIUse=3 WtCom= 9.97D-01 WtEn= 2.64D-03
 Coeff-Com: -0.222D-02 0.133D-02 0.432D-01 0.136D+00 0.304D+00 0.517D+00
 Coeff-En:   0.000D+00 0.000D+00 0.000D+00 0.000D+00 0.446D-01 0.955D+00
 Coeff:     -0.221D-02 0.132D-02 0.431D-01 0.136D+00 0.304D+00 0.518D+00
 Gap=     0.121 Goal=   None    Shift=    0.000
 RMSDP=3.37D-05 MaxDP=1.65D-03 DE=-5.13D-04 OVMax= 2.75D-03

 Cycle   7  Pass 1  IDiag  1:
 RMSU=  2.05D-05    CP:  9.78D-01  7.47D-01  6.79D-01  7.35D-01  6.66D-01
                    CP:  6.29D-01
 E= -1212.59294874972     Delta-E=       -0.000059172013 Rises=F Damp=F
 DIIS: error= 7.61D-05 at cycle   7 NSaved=   7.
 NSaved= 7 IEnMin= 7 EnMin= -1212.59294874972     IErMin= 7 ErrMin= 7.61D-05
 ErrMax= 7.61D-05  0.00D+00 EMaxC= 1.00D-01 BMatC= 4.82D-06 BMatP= 6.04D-05
 IDIUse=1 WtCom= 1.00D+00 WtEn= 0.00D+00
 Coeff-Com: -0.671D-03-0.914D-03 0.105D-01 0.357D-01 0.109D+00 0.276D+00
 Coeff-Com:  0.570D+00
 Coeff:     -0.671D-03-0.914D-03 0.105D-01 0.357D-01 0.109D+00 0.276D+00
 Coeff:      0.570D+00
 Gap=     0.121 Goal=   None    Shift=    0.000
 RMSDP=9.26D-06 MaxDP=6.64D-04 DE=-5.92D-05 OVMax= 7.83D-04

 Cycle   8  Pass 1  IDiag  1:
 RMSU=  5.40D-06    CP:  9.78D-01  7.47D-01  6.78D-01  7.37D-01  6.72D-01
                    CP:  6.83D-01  6.83D-01
 E= -1212.59295349150     Delta-E=       -0.000004741773 Rises=F Damp=F
 DIIS: error= 2.24D-05 at cycle   8 NSaved=   8.
 NSaved= 8 IEnMin= 8 EnMin= -1212.59295349150     IErMin= 8 ErrMin= 2.24D-05
 ErrMax= 2.24D-05  0.00D+00 EMaxC= 1.00D-01 BMatC= 2.74D-07 BMatP= 4.82D-06
 IDIUse=1 WtCom= 1.00D+00 WtEn= 0.00D+00
 Coeff-Com: -0.704D-04-0.475D-03 0.747D-03 0.293D-02 0.203D-01 0.694D-01
 Coeff-Com:  0.244D+00 0.664D+00
 Coeff:     -0.704D-04-0.475D-03 0.747D-03 0.293D-02 0.203D-01 0.694D-01
 Coeff:      0.244D+00 0.664D+00
 Gap=     0.121 Goal=   None    Shift=    0.000
 RMSDP=2.89D-06 MaxDP=1.07D-04 DE=-4.74D-06 OVMax= 1.83D-04

 Cycle   9  Pass 1  IDiag  1:
 RMSU=  2.36D-06    CP:  9.79D-01  7.47D-01  6.78D-01  7.37D-01  6.75D-01
                    CP:  6.81D-01  7.29D-01  7.98D-01
 E= -1212.59295371147     Delta-E=       -0.000000219974 Rises=F Damp=F
 DIIS: error= 1.01D-05 at cycle   9 NSaved=   9.
 NSaved= 9 IEnMin= 9 EnMin= -1212.59295371147     IErMin= 9 ErrMin= 1.01D-05
 ErrMax= 1.01D-05  0.00D+00 EMaxC= 1.00D-01 BMatC= 8.14D-08 BMatP= 2.74D-07
 IDIUse=1 WtCom= 1.00D+00 WtEn= 0.00D+00
 Coeff-Com:  0.303D-04-0.201D-03-0.692D-03-0.218D-02-0.119D-03 0.845D-02
 Coeff-Com:  0.790D-01 0.406D+00 0.510D+00
 Coeff:      0.303D-04-0.201D-03-0.692D-03-0.218D-02-0.119D-03 0.845D-02
 Coeff:      0.790D-01 0.406D+00 0.510D+00
 Gap=     0.121 Goal=   None    Shift=    0.000
 RMSDP=1.22D-06 MaxDP=5.62D-05 DE=-2.20D-07 OVMax= 1.26D-04

 Cycle  10  Pass 1  IDiag  1:
 RMSU=  7.03D-07    CP:  9.79D-01  7.47D-01  6.78D-01  7.37D-01  6.76D-01
                    CP:  6.86D-01  7.34D-01  8.77D-01  6.48D-01
 E= -1212.59295378989     Delta-E=       -0.000000078419 Rises=F Damp=F
 DIIS: error= 3.38D-06 at cycle  10 NSaved=  10.
 NSaved=10 IEnMin=10 EnMin= -1212.59295378989     IErMin=10 ErrMin= 3.38D-06
 ErrMax= 3.38D-06  0.00D+00 EMaxC= 1.00D-01 BMatC= 6.15D-09 BMatP= 8.14D-08
 IDIUse=1 WtCom= 1.00D+00 WtEn= 0.00D+00
 Coeff-Com:  0.247D-04-0.592D-04-0.499D-03-0.165D-02-0.239D-02-0.322D-02
 Coeff-Com:  0.180D-01 0.155D+00 0.279D+00 0.555D+00
 Coeff:      0.247D-04-0.592D-04-0.499D-03-0.165D-02-0.239D-02-0.322D-02
 Coeff:      0.180D-01 0.155D+00 0.279D+00 0.555D+00
 Gap=     0.121 Goal=   None    Shift=    0.000
 RMSDP=3.60D-07 MaxDP=1.80D-05 DE=-7.84D-08 OVMax= 2.68D-05

 Cycle  11  Pass 1  IDiag  1:
 RMSU=  2.03D-07    CP:  9.79D-01  7.47D-01  6.78D-01  7.37D-01  6.75D-01
                    CP:  6.86D-01  7.40D-01  8.87D-01  7.02D-01  6.94D-01
 E= -1212.59295379610     Delta-E=       -0.000000006208 Rises=F Damp=F
 DIIS: error= 8.56D-07 at cycle  11 NSaved=  11.
 NSaved=11 IEnMin=11 EnMin= -1212.59295379610     IErMin=11 ErrMin= 8.56D-07
 ErrMax= 8.56D-07  0.00D+00 EMaxC= 1.00D-01 BMatC= 5.16D-10 BMatP= 6.15D-09
 IDIUse=1 WtCom= 1.00D+00 WtEn= 0.00D+00
 Coeff-Com:  0.743D-05-0.378D-05-0.153D-03-0.525D-03-0.107D-02-0.260D-02
 Coeff-Com: -0.216D-03 0.272D-01 0.715D-01 0.263D+00 0.643D+00
 Coeff:      0.743D-05-0.378D-05-0.153D-03-0.525D-03-0.107D-02-0.260D-02
 Coeff:     -0.216D-03 0.272D-01 0.715D-01 0.263D+00 0.643D+00
 Gap=     0.121 Goal=   None    Shift=    0.000
 RMSDP=1.13D-07 MaxDP=3.80D-06 DE=-6.21D-09 OVMax= 1.16D-05

 Cycle  12  Pass 1  IDiag  1:
 RMSU=  7.31D-08    CP:  9.79D-01  7.47D-01  6.78D-01  7.37D-01  6.75D-01
                    CP:  6.86D-01  7.40D-01  8.93D-01  7.12D-01  7.68D-01
                    CP:  7.65D-01
 E= -1212.59295379659     Delta-E=       -0.000000000495 Rises=F Damp=F
 DIIS: error= 2.99D-07 at cycle  12 NSaved=  12.
 NSaved=12 IEnMin=12 EnMin= -1212.59295379659     IErMin=12 ErrMin= 2.99D-07
 ErrMax= 2.99D-07  0.00D+00 EMaxC= 1.00D-01 BMatC= 8.42D-11 BMatP= 5.16D-10
 IDIUse=1 WtCom= 1.00D+00 WtEn= 0.00D+00
 Coeff-Com:  0.103D-05 0.547D-05-0.289D-04-0.107D-03-0.327D-03-0.119D-02
 Coeff-Com: -0.231D-02-0.328D-02 0.616D-02 0.762D-01 0.347D+00 0.578D+00
 Coeff:      0.103D-05 0.547D-05-0.289D-04-0.107D-03-0.327D-03-0.119D-02
 Coeff:     -0.231D-02-0.328D-02 0.616D-02 0.762D-01 0.347D+00 0.578D+00
 Gap=     0.121 Goal=   None    Shift=    0.000
 RMSDP=3.59D-08 MaxDP=1.33D-06 DE=-4.95D-10 OVMax= 1.68D-06

 Cycle  13  Pass 1  IDiag  1:
 RMSU=  2.48D-08    CP:  9.79D-01  7.47D-01  6.78D-01  7.37D-01  6.75D-01
                    CP:  6.86D-01  7.41D-01  8.94D-01  7.16D-01  7.78D-01
                    CP:  8.44D-01  8.42D-01
 E= -1212.59295379669     Delta-E=       -0.000000000099 Rises=F Damp=F
 DIIS: error= 5.68D-08 at cycle  13 NSaved=  13.
 NSaved=13 IEnMin=13 EnMin= -1212.59295379669     IErMin=13 ErrMin= 5.68D-08
 ErrMax= 5.68D-08  0.00D+00 EMaxC= 1.00D-01 BMatC= 4.27D-12 BMatP= 8.42D-11
 IDIUse=1 WtCom= 1.00D+00 WtEn= 0.00D+00
 Coeff-Com: -0.583D-06 0.233D-05 0.686D-05 0.214D-04 0.144D-04-0.148D-03
 Coeff-Com: -0.671D-03-0.406D-02-0.605D-02-0.272D-02 0.684D-01 0.219D+00
 Coeff-Com:  0.726D+00
 Coeff:     -0.583D-06 0.233D-05 0.686D-05 0.214D-04 0.144D-04-0.148D-03
 Coeff:     -0.671D-03-0.406D-02-0.605D-02-0.272D-02 0.684D-01 0.219D+00
 Coeff:      0.726D+00
 Gap=     0.121 Goal=   None    Shift=    0.000
 RMSDP=1.27D-08 MaxDP=3.69D-07 DE=-9.91D-11 OVMax= 1.81D-06

 Cycle  14  Pass 1  IDiag  1:
 RMSU=  7.79D-09    CP:  9.79D-01  7.47D-01  6.78D-01  7.37D-01  6.75D-01
                    CP:  6.86D-01  7.41D-01  8.94D-01  7.17D-01  7.84D-01
                    CP:  8.72D-01  9.18D-01  9.28D-01
 E= -1212.59295379670     Delta-E=       -0.000000000003 Rises=F Damp=F
 DIIS: error= 3.22D-08 at cycle  14 NSaved=  14.
 NSaved=14 IEnMin=14 EnMin= -1212.59295379670     IErMin=14 ErrMin= 3.22D-08
 ErrMax= 3.22D-08  0.00D+00 EMaxC= 1.00D-01 BMatC= 7.94D-13 BMatP= 4.27D-12
 IDIUse=1 WtCom= 1.00D+00 WtEn= 0.00D+00
 Coeff-Com: -0.342D-06 0.734D-06 0.519D-05 0.179D-04 0.300D-04 0.498D-05
 Coeff-Com: -0.152D-03-0.175D-02-0.359D-02-0.726D-02 0.971D-02 0.591D-01
 Coeff-Com:  0.371D+00 0.573D+00
 Coeff:     -0.342D-06 0.734D-06 0.519D-05 0.179D-04 0.300D-04 0.498D-05
 Coeff:     -0.152D-03-0.175D-02-0.359D-02-0.726D-02 0.971D-02 0.591D-01
 Coeff:      0.371D+00 0.573D+00
 Gap=     0.121 Goal=   None    Shift=    0.000
 RMSDP=3.93D-09 MaxDP=1.54D-07 DE=-3.41D-12 OVMax= 3.35D-07

 Error on total polarization charges =  0.01506
 SCF Done:  E(RB3LYP) =  -1212.59295380     A.U. after   14 cycles
            NFock= 14  Conv=0.39D-08     -V/T= 2.0059
 KE= 1.205464118993D+03 PE=-5.758102349462D+03 EE= 1.872067933598D+03
 Leave Link  502 at Sun Jul 18 16:02:52 2021, MaxMem=   104857600 cpu:             847.9 elap:             220.1
 (Enter /dades/curu/g16A03_MST/g16/l601.exe)
 Copying SCF densities to generalized density rwf, IOpCl= 0 IROHF=0.

 **********************************************************************

            Population analysis using the SCF density.

 **********************************************************************

 Orbital symmetries:
       Occupied  (A) (A) (A) (A) (A) (A) (A) (A) (A) (A) (A) (A)
                 (A) (A) (A) (A) (A) (A) (A) (A) (A) (A) (A) (A)
                 (A) (A) (A) (A) (A) (A) (A) (A) (A) (A) (A) (A)
                 (A) (A) (A) (A) (A) (A) (A) (A) (A) (A) (A) (A)
                 (A) (A) (A) (A) (A) (A) (A) (A) (A) (A) (A) (A)
                 (A) (A) (A) (A) (A) (A) (A) (A) (A) (A) (A) (A)
       Virtual   (A) (A) (A) (A) (A) (A) (A) (A) (A) (A) (A) (A)
                 (A) (A) (A) (A) (A) (A) (A) (A) (A) (A) (A) (A)
                 (A) (A) (A) (A) (A) (A) (A) (A) (A) (A) (A) (A)
                 (A) (A) (A) (A) (A) (A) (A) (A) (A) (A) (A) (A)
                 (A) (A) (A) (A) (A) (A) (A) (A) (A) (A) (A) (A)
                 (A) (A) (A) (A) (A) (A) (A) (A) (A) (A) (A) (A)
                 (A) (A) (A) (A) (A) (A) (A) (A) (A) (A) (A) (A)
                 (A) (A) (A) (A) (A) (A) (A) (A) (A) (A) (A) (A)
                 (A) (A) (A) (A) (A) (A) (A) (A) (A) (A) (A) (A)
                 (A) (A) (A) (A) (A) (A) (A) (A) (A) (A) (A) (A)
                 (A) (A) (A) (A) (A) (A) (A) (A) (A) (A) (A) (A)
                 (A) (A) (A) (A) (A) (A) (A) (A) (A) (A) (A) (A)
                 (A) (A) (A) (A) (A) (A) (A) (A) (A) (A) (A) (A)
                 (A) (A) (A) (A) (A) (A) (A) (A) (A) (A) (A) (A)
                 (A) (A) (A) (A) (A) (A) (A) (A) (A) (A) (A) (A)
                 (A) (A) (A) (A) (A) (A) (A) (A) (A) (A) (A) (A)
                 (A) (A) (A) (A) (A) (A) (A) (A) (A) (A) (A) (A)
                 (A) (A) (A) (A) (A) (A) (A) (A) (A) (A) (A) (A)
                 (A) (A) (A) (A) (A) (A) (A) (A) (A) (A) (A) (A)
                 (A) (A) (A) (A) (A) (A) (A) (A) (A) (A) (A) (A)
                 (A) (A) (A) (A) (A)
 The electronic state is 1-A.
 Alpha  occ. eigenvalues --  -88.95129 -19.11490 -14.45032 -14.37741 -14.37270
 Alpha  occ. eigenvalues --  -14.36444 -14.36005 -10.35568 -10.33162 -10.28942
 Alpha  occ. eigenvalues --  -10.26050 -10.24655 -10.23705 -10.22127 -10.20674
 Alpha  occ. eigenvalues --  -10.20636 -10.20341 -10.20260 -10.19007  -8.01378
 Alpha  occ. eigenvalues --   -5.97764  -5.97394  -5.97082  -1.13378  -1.05267
 Alpha  occ. eigenvalues --   -1.03287  -0.98669  -0.95099  -0.91455  -0.87239
 Alpha  occ. eigenvalues --   -0.84374  -0.81227  -0.77108  -0.76458  -0.72879
 Alpha  occ. eigenvalues --   -0.70641  -0.67501  -0.63871  -0.63337  -0.62847
 Alpha  occ. eigenvalues --   -0.60103  -0.58747  -0.56332  -0.55452  -0.54714
 Alpha  occ. eigenvalues --   -0.53568  -0.50517  -0.49994  -0.48338  -0.48102
 Alpha  occ. eigenvalues --   -0.47562  -0.46654  -0.45663  -0.45128  -0.44434
 Alpha  occ. eigenvalues --   -0.43737  -0.41323  -0.40750  -0.40542  -0.38830
 Alpha  occ. eigenvalues --   -0.37759  -0.37048  -0.35737  -0.35344  -0.32286
 Alpha  occ. eigenvalues --   -0.31568  -0.29240  -0.27696  -0.27585  -0.26050
 Alpha  occ. eigenvalues --   -0.25639  -0.24061
 Alpha virt. eigenvalues --   -0.11940  -0.05338  -0.02664  -0.01825  -0.01127
 Alpha virt. eigenvalues --    0.03041   0.03994   0.06053   0.07525   0.08398
 Alpha virt. eigenvalues --    0.09788   0.10170   0.11365   0.12113   0.13044
 Alpha virt. eigenvalues --    0.13740   0.13798   0.15037   0.15578   0.16519
 Alpha virt. eigenvalues --    0.16767   0.17717   0.17944   0.18190   0.21228
 Alpha virt. eigenvalues --    0.23481   0.23755   0.25188   0.25703   0.28479
 Alpha virt. eigenvalues --    0.29089   0.29805   0.30813   0.31865   0.33075
 Alpha virt. eigenvalues --    0.33902   0.34920   0.36794   0.37332   0.38448
 Alpha virt. eigenvalues --    0.41538   0.42060   0.42467   0.43613   0.47599
 Alpha virt. eigenvalues --    0.49882   0.50347   0.51096   0.51939   0.52314
 Alpha virt. eigenvalues --    0.52642   0.53346   0.54184   0.54602   0.54965
 Alpha virt. eigenvalues --    0.55514   0.56778   0.57398   0.57853   0.59411
 Alpha virt. eigenvalues --    0.60111   0.60726   0.61613   0.62934   0.63817
 Alpha virt. eigenvalues --    0.64426   0.65502   0.66584   0.67471   0.68821
 Alpha virt. eigenvalues --    0.69851   0.70430   0.71075   0.72568   0.73284
 Alpha virt. eigenvalues --    0.74135   0.74554   0.75155   0.76660   0.77559
 Alpha virt. eigenvalues --    0.79129   0.80322   0.80937   0.81342   0.81565
 Alpha virt. eigenvalues --    0.82825   0.83157   0.83454   0.83871   0.84170
 Alpha virt. eigenvalues --    0.85187   0.85781   0.86881   0.87478   0.88558
 Alpha virt. eigenvalues --    0.89013   0.90307   0.90809   0.91420   0.92093
 Alpha virt. eigenvalues --    0.92385   0.92903   0.94199   0.94812   0.96712
 Alpha virt. eigenvalues --    0.97112   0.97256   0.97954   0.99618   0.99975
 Alpha virt. eigenvalues --    1.01033   1.02295   1.02851   1.05657   1.07132
 Alpha virt. eigenvalues --    1.08593   1.11716   1.12415   1.15221   1.15641
 Alpha virt. eigenvalues --    1.16295   1.18271   1.22040   1.24281   1.26662
 Alpha virt. eigenvalues --    1.27289   1.28757   1.30225   1.33241   1.35615
 Alpha virt. eigenvalues --    1.37566   1.38545   1.39317   1.41630   1.43777
 Alpha virt. eigenvalues --    1.45602   1.46283   1.48508   1.48886   1.50865
 Alpha virt. eigenvalues --    1.52773   1.53816   1.58387   1.59173   1.60867
 Alpha virt. eigenvalues --    1.65232   1.68695   1.70227   1.73086   1.73659
 Alpha virt. eigenvalues --    1.74824   1.76635   1.78489   1.81108   1.81402
 Alpha virt. eigenvalues --    1.81868   1.82830   1.83575   1.86607   1.88023
 Alpha virt. eigenvalues --    1.88867   1.89737   1.90993   1.93312   1.93955
 Alpha virt. eigenvalues --    1.95794   1.96400   1.97626   2.00402   2.03080
 Alpha virt. eigenvalues --    2.06373   2.07025   2.10048   2.11915   2.12521
 Alpha virt. eigenvalues --    2.13447   2.15099   2.16935   2.18034   2.19766
 Alpha virt. eigenvalues --    2.21396   2.22070   2.22842   2.23317   2.24992
 Alpha virt. eigenvalues --    2.25484   2.27124   2.28684   2.31252   2.33310
 Alpha virt. eigenvalues --    2.34203   2.35764   2.37248   2.41134   2.41979
 Alpha virt. eigenvalues --    2.43563   2.45460   2.49446   2.52328   2.54255
 Alpha virt. eigenvalues --    2.54383   2.56005   2.56754   2.60221   2.60603
 Alpha virt. eigenvalues --    2.63738   2.64503   2.66257   2.68224   2.69604
 Alpha virt. eigenvalues --    2.73950   2.74636   2.75832   2.78511   2.82023
 Alpha virt. eigenvalues --    2.82670   2.87103   2.95413   2.95823   3.00886
 Alpha virt. eigenvalues --    3.04720   3.08021   3.16099   3.21012   3.25733
 Alpha virt. eigenvalues --    3.42585   3.80437   3.84915   3.91153   3.99939
 Alpha virt. eigenvalues --    4.06148   4.08529   4.10475   4.10966   4.12952
 Alpha virt. eigenvalues --    4.16935   4.18859   4.21835   4.23885   4.28763
 Alpha virt. eigenvalues --    4.36911   4.43517   4.46030   4.56224   4.72743
          Condensed to atoms (all electrons):
               1          2          3          4          5          6
     1  C    5.342386   0.344769   0.361827   0.356358   0.348314  -0.088830
     2  H    0.344769   0.550821  -0.019981  -0.025490  -0.025987   0.003286
     3  H    0.361827  -0.019981   0.511534  -0.022979  -0.020798   0.001371
     4  H    0.356358  -0.025490  -0.022979   0.527732  -0.024057   0.000691
     5  C    0.348314  -0.025987  -0.020798  -0.024057   4.283026   0.636169
     6  O   -0.088830   0.003286   0.001371   0.000691   0.636169   8.071446
     7  N   -0.130298   0.007108   0.002103   0.001797   0.255500  -0.111351
     8  H    0.000604   0.002516  -0.000063  -0.000015  -0.016436   0.003171
     9  C    0.009039   0.000158  -0.000153  -0.000252  -0.020233   0.010009
    10  C    0.000024  -0.000007  -0.000002   0.000022  -0.003306   0.002209
    11  C   -0.000009   0.000001   0.000000  -0.000002  -0.000113  -0.000564
    12  C    0.000001  -0.000000  -0.000000  -0.000000   0.000056   0.000047
    13  H    0.000000  -0.000000  -0.000000  -0.000000  -0.000000   0.000000
    14  H   -0.000000   0.000000  -0.000000   0.000000  -0.000013  -0.000001
    15  H   -0.000159   0.000009   0.000006   0.000002   0.002318  -0.000309
    16  C   -0.000229  -0.000011   0.000011   0.000001  -0.000993  -0.000227
    17  H   -0.000037  -0.000002  -0.000004   0.000002   0.000423  -0.000102
    18  C    0.000000   0.000000  -0.000000   0.000000  -0.000016  -0.000065
    19  C   -0.000000   0.000000   0.000000  -0.000000  -0.000004  -0.000000
    20  N    0.000000   0.000000  -0.000000   0.000000  -0.000000  -0.000000
    21  C    0.000000  -0.000000   0.000000   0.000000   0.000000   0.000000
    22  H   -0.000000  -0.000000  -0.000000   0.000000   0.000001   0.000000
    23  S    0.000000   0.000000   0.000000  -0.000000  -0.000000  -0.000000
    24  C   -0.000000   0.000000   0.000000   0.000000  -0.000000  -0.000000
    25  N   -0.000000   0.000000  -0.000000   0.000000   0.000000  -0.000000
    26  C    0.000000   0.000000  -0.000000   0.000000  -0.000000  -0.000000
    27  N    0.000000   0.000000   0.000000   0.000000   0.000000  -0.000000
    28  H    0.000000  -0.000000  -0.000000  -0.000000   0.000000   0.000000
    29  H    0.000000  -0.000000  -0.000000   0.000000   0.000000   0.000000
    30  N   -0.000000   0.000000   0.000000   0.000000   0.000000  -0.000000
    31  H   -0.000000   0.000000   0.000000   0.000000  -0.000000  -0.000000
    32  H   -0.000000  -0.000000  -0.000000   0.000000   0.000000  -0.000000
    33  H   -0.000000  -0.000000   0.000000  -0.000000   0.000000   0.000000
               7          8          9         10         11         12
     1  C   -0.130298   0.000604   0.009039   0.000024  -0.000009   0.000001
     2  H    0.007108   0.002516   0.000158  -0.000007   0.000001  -0.000000
     3  H    0.002103  -0.000063  -0.000153  -0.000002   0.000000  -0.000000
     4  H    0.001797  -0.000015  -0.000252   0.000022  -0.000002  -0.000000
     5  C    0.255500  -0.016436  -0.020233  -0.003306  -0.000113   0.000056
     6  O   -0.111351   0.003171   0.010009   0.002209  -0.000564   0.000047
     7  N    7.294743   0.300771   0.171806  -0.060686   0.007022   0.001304
     8  H    0.300771   0.364735  -0.021672   0.002357  -0.000116   0.000024
     9  C    0.171806  -0.021672   4.638391   0.556418  -0.014746  -0.042756
    10  C   -0.060686   0.002357   0.556418   4.884671   0.531333  -0.044013
    11  C    0.007022  -0.000116  -0.014746   0.531333   4.903073   0.505908
    12  C    0.001304   0.000024  -0.042756  -0.044013   0.505908   5.021070
    13  H    0.000005  -0.000000   0.000342   0.004740  -0.042102   0.360284
    14  H   -0.000205   0.000004   0.004024  -0.037864   0.355190  -0.039855
    15  H   -0.003585   0.000175  -0.039784   0.355230  -0.038450   0.003959
    16  C   -0.049997  -0.002149   0.527223  -0.057984  -0.048677  -0.066492
    17  H   -0.002599   0.000955  -0.038105   0.005187  -0.000069   0.006384
    18  C    0.003680  -0.000105  -0.007746  -0.033771  -0.007599   0.518065
    19  C   -0.000215   0.000006   0.004974   0.000681   0.007311  -0.055212
    20  N    0.000000   0.000000  -0.000063  -0.000001   0.000257  -0.004212
    21  C   -0.000004  -0.000000   0.000075   0.000052  -0.000253   0.006195
    22  H    0.000003  -0.000003  -0.000024   0.000004  -0.000011  -0.000069
    23  S   -0.000000   0.000000   0.000003  -0.000001   0.000013   0.000044
    24  C   -0.000000  -0.000000   0.000001   0.000000  -0.000002  -0.000156
    25  N   -0.000000  -0.000000  -0.000000  -0.000000  -0.000000  -0.000008
    26  C    0.000000  -0.000000  -0.000000   0.000000   0.000000   0.000002
    27  N    0.000000   0.000000   0.000000   0.000000  -0.000000  -0.000001
    28  H    0.000000  -0.000000  -0.000000  -0.000000   0.000000   0.000001
    29  H    0.000000  -0.000000  -0.000000  -0.000000   0.000000   0.000000
    30  N    0.000000  -0.000000  -0.000000  -0.000000   0.000000   0.000000
    31  H   -0.000000   0.000000   0.000000  -0.000000   0.000000   0.000000
    32  H    0.000000  -0.000000  -0.000000   0.000000   0.000000  -0.000000
    33  H   -0.000000  -0.000000  -0.000000   0.000000   0.000000  -0.000000
              13         14         15         16         17         18
     1  C    0.000000  -0.000000  -0.000159  -0.000229  -0.000037   0.000000
     2  H   -0.000000   0.000000   0.000009  -0.000011  -0.000002   0.000000
     3  H   -0.000000  -0.000000   0.000006   0.000011  -0.000004  -0.000000
     4  H   -0.000000   0.000000   0.000002   0.000001   0.000002   0.000000
     5  C   -0.000000  -0.000013   0.002318  -0.000993   0.000423  -0.000016
     6  O    0.000000  -0.000001  -0.000309  -0.000227  -0.000102  -0.000065
     7  N    0.000005  -0.000205  -0.003585  -0.049997  -0.002599   0.003680
     8  H   -0.000000   0.000004   0.000175  -0.002149   0.000955  -0.000105
     9  C    0.000342   0.004024  -0.039784   0.527223  -0.038105  -0.007746
    10  C    0.004740  -0.037864   0.355230  -0.057984   0.005187  -0.033771
    11  C   -0.042102   0.355190  -0.038450  -0.048677  -0.000069  -0.007599
    12  C    0.360284  -0.039855   0.003959  -0.066492   0.006384   0.518065
    13  H    0.574364  -0.005393  -0.000134   0.006602  -0.000174  -0.044277
    14  H   -0.005393   0.575949  -0.004846   0.001081   0.000022   0.003545
    15  H   -0.000134  -0.004846   0.562974   0.005598  -0.000150   0.000388
    16  C    0.006602   0.001081   0.005598   5.078042   0.347307   0.505367
    17  H   -0.000174   0.000022  -0.000150   0.347307   0.573640  -0.042923
    18  C   -0.044277   0.003545   0.000388   0.505367  -0.042923   4.787942
    19  C   -0.012168  -0.000184   0.000012  -0.043943  -0.008458   0.328034
    20  N    0.007752  -0.000004   0.000000   0.003194  -0.000026  -0.053314
    21  C    0.000685   0.000001  -0.000000  -0.012657   0.006312  -0.055718
    22  H   -0.000028   0.000000  -0.000000   0.004618   0.001717  -0.005493
    23  S    0.000062  -0.000000   0.000000   0.000407  -0.000138   0.005986
    24  C   -0.000216  -0.000000  -0.000000   0.000001  -0.000029   0.006854
    25  N   -0.000014   0.000000  -0.000000   0.000002   0.000000  -0.000148
    26  C    0.000018  -0.000000   0.000000  -0.000000   0.000000  -0.000018
    27  N   -0.000000  -0.000000   0.000000  -0.000000   0.000000   0.000004
    28  H    0.000001  -0.000000  -0.000000  -0.000000  -0.000000   0.000003
    29  H    0.000000  -0.000000  -0.000000  -0.000000  -0.000000   0.000000
    30  N    0.000000   0.000000   0.000000   0.000000   0.000000  -0.000000
    31  H    0.000000   0.000000   0.000000   0.000000   0.000000  -0.000000
    32  H    0.000000  -0.000000  -0.000000  -0.000000  -0.000000   0.000000
    33  H   -0.000000   0.000000  -0.000000  -0.000000  -0.000000   0.000002
              19         20         21         22         23         24
     1  C   -0.000000   0.000000   0.000000  -0.000000   0.000000  -0.000000
     2  H    0.000000   0.000000  -0.000000  -0.000000   0.000000   0.000000
     3  H    0.000000  -0.000000   0.000000  -0.000000   0.000000   0.000000
     4  H   -0.000000   0.000000   0.000000   0.000000  -0.000000   0.000000
     5  C   -0.000004  -0.000000   0.000000   0.000001  -0.000000  -0.000000
     6  O   -0.000000  -0.000000   0.000000   0.000000  -0.000000  -0.000000
     7  N   -0.000215   0.000000  -0.000004   0.000003  -0.000000  -0.000000
     8  H    0.000006   0.000000  -0.000000  -0.000003   0.000000  -0.000000
     9  C    0.004974  -0.000063   0.000075  -0.000024   0.000003   0.000001
    10  C    0.000681  -0.000001   0.000052   0.000004  -0.000001   0.000000
    11  C    0.007311   0.000257  -0.000253  -0.000011   0.000013  -0.000002
    12  C   -0.055212  -0.004212   0.006195  -0.000069   0.000044  -0.000156
    13  H   -0.012168   0.007752   0.000685  -0.000028   0.000062  -0.000216
    14  H   -0.000184  -0.000004   0.000001   0.000000  -0.000000  -0.000000
    15  H    0.000012   0.000000  -0.000000  -0.000000   0.000000  -0.000000
    16  C   -0.043943   0.003194  -0.012657   0.004618   0.000407   0.000001
    17  H   -0.008458  -0.000026   0.006312   0.001717  -0.000138  -0.000029
    18  C    0.328034  -0.053314  -0.055718  -0.005493   0.005986   0.006854
    19  C    4.748656   0.405676   0.508800  -0.016557  -0.071301  -0.052416
    20  N    0.405676   6.907130  -0.096614   0.004802  -0.087330   0.449839
    21  C    0.508800  -0.096614   5.395347   0.349601   0.315271  -0.058217
    22  H   -0.016557   0.004802   0.349601   0.464332  -0.025780   0.002070
    23  S   -0.071301  -0.087330   0.315271  -0.025780  15.332610   0.299658
    24  C   -0.052416   0.449839  -0.058217   0.002070   0.299658   4.877180
    25  N    0.001112  -0.064113   0.002223  -0.000019  -0.073572   0.234618
    26  C    0.000396   0.010833   0.000186  -0.000001   0.007017  -0.044204
    27  N    0.000085  -0.003081  -0.000019   0.000000   0.000584  -0.000587
    28  H   -0.000132   0.003643  -0.000074  -0.000001   0.000350   0.009146
    29  H    0.000002   0.000189  -0.000000  -0.000000   0.000053   0.000416
    30  N   -0.000005   0.000427   0.000002  -0.000000  -0.000265   0.006616
    31  H   -0.000001   0.000017  -0.000000  -0.000000   0.000012  -0.000265
    32  H    0.000001   0.000017   0.000001  -0.000000  -0.000051   0.001178
    33  H   -0.000045   0.001878   0.000032  -0.000001   0.000853  -0.015631
              25         26         27         28         29         30
     1  C   -0.000000   0.000000   0.000000   0.000000   0.000000  -0.000000
     2  H    0.000000   0.000000   0.000000  -0.000000  -0.000000   0.000000
     3  H   -0.000000  -0.000000   0.000000  -0.000000  -0.000000   0.000000
     4  H    0.000000   0.000000   0.000000  -0.000000   0.000000   0.000000
     5  C    0.000000  -0.000000   0.000000   0.000000   0.000000   0.000000
     6  O   -0.000000  -0.000000  -0.000000   0.000000   0.000000  -0.000000
     7  N   -0.000000   0.000000   0.000000   0.000000   0.000000   0.000000
     8  H   -0.000000  -0.000000   0.000000  -0.000000  -0.000000  -0.000000
     9  C   -0.000000  -0.000000   0.000000  -0.000000  -0.000000  -0.000000
    10  C   -0.000000   0.000000   0.000000  -0.000000  -0.000000  -0.000000
    11  C   -0.000000   0.000000  -0.000000   0.000000   0.000000   0.000000
    12  C   -0.000008   0.000002  -0.000001   0.000001   0.000000   0.000000
    13  H   -0.000014   0.000018  -0.000000   0.000001   0.000000   0.000000
    14  H    0.000000  -0.000000  -0.000000  -0.000000  -0.000000   0.000000
    15  H   -0.000000   0.000000   0.000000  -0.000000  -0.000000   0.000000
    16  C    0.000002  -0.000000  -0.000000  -0.000000  -0.000000   0.000000
    17  H    0.000000   0.000000   0.000000  -0.000000  -0.000000   0.000000
    18  C   -0.000148  -0.000018   0.000004   0.000003   0.000000  -0.000000
    19  C    0.001112   0.000396   0.000085  -0.000132   0.000002  -0.000005
    20  N   -0.064113   0.010833  -0.003081   0.003643   0.000189   0.000427
    21  C    0.002223   0.000186  -0.000019  -0.000074  -0.000000   0.000002
    22  H   -0.000019  -0.000001   0.000000  -0.000001  -0.000000  -0.000000
[...]
 Alpha virt. eigenvalues --    3.68620   3.73279   3.74709   3.75102   3.75740
 Alpha virt. eigenvalues --    3.78616   3.81171   3.85006   3.94897   4.05218
 Alpha virt. eigenvalues --    4.07648   4.16040   4.20692   4.91915
          Condensed to atoms (all electrons):
               1          2          3          4          5          6
     1  C    4.705794   0.219072   0.357192   0.348735  -0.021598  -0.051780
     2  H    0.219072   1.163500  -0.087444  -0.079051   0.246195  -0.006697
     3  H    0.357192  -0.087444   0.721321  -0.042112  -0.068112   0.015716
     4  H    0.348735  -0.079051  -0.042112   0.710899  -0.050652   0.011504
     5  C   -0.021598   0.246195  -0.068112  -0.050652   5.748247   0.131485
     6  O   -0.051780  -0.006697   0.015716   0.011504   0.131485   8.800040
     7  N   -0.086996  -0.202442   0.062842   0.057974   0.068033  -0.140061
     8  H   -0.079174  -0.007996  -0.001430  -0.000772  -0.107444  -0.012783
     9  C    0.257074  -0.039704  -0.012485  -0.022439  -0.460630   0.204947
    10  C   -0.032090   0.033110  -0.001768  -0.000338   0.239645   0.025035
    11  C   -0.006111  -0.005567   0.003218   0.003873  -0.034495  -0.067982
    12  C   -0.019061  -0.003763  -0.000682  -0.000579   0.064893   0.002010
    13  H   -0.000188   0.000051   0.000005  -0.000037  -0.006216   0.000402
    14  H    0.001338  -0.000053   0.000194   0.000198   0.017001  -0.000537
    15  H   -0.022167   0.002551  -0.002641  -0.002370   0.119363  -0.076858
    16  C   -0.163216  -0.042607   0.005752   0.006875  -0.335066   0.010676
    17  H    0.045663   0.001747   0.000782   0.000740  -0.049580   0.009912
    18  C    0.035949   0.022463  -0.002033  -0.002469  -0.032156   0.012541
    19  C   -0.002893  -0.004054   0.000774   0.000320   0.042631  -0.008954
    20  N   -0.000270  -0.000010   0.000001  -0.000010   0.001757  -0.000081
    21  C    0.001482   0.001199  -0.000193   0.000161  -0.014742   0.001323
    22  H   -0.000544   0.000556  -0.000006   0.000002   0.005116  -0.000304
    23  S    0.000118   0.000070  -0.000008  -0.000001  -0.000450   0.000035
    24  C   -0.000230  -0.000328   0.000039   0.000026   0.004123  -0.000234
    25  N   -0.000006  -0.000001  -0.000001  -0.000001  -0.000068   0.000001
    26  C    0.000004  -0.000001   0.000000  -0.000000  -0.000048   0.000003
    27  N    0.000001   0.000002  -0.000000  -0.000000  -0.000035   0.000001
    28  H   -0.000027  -0.000017  -0.000001   0.000004   0.000540  -0.000042
    29  H   -0.000000   0.000000  -0.000000  -0.000000  -0.000017   0.000001
    30  N   -0.000000   0.000000  -0.000000  -0.000000   0.000000   0.000000
    31  H   -0.000000  -0.000000  -0.000000   0.000000   0.000000  -0.000000
    32  H    0.000000   0.000000  -0.000000  -0.000000  -0.000001   0.000000
    33  H    0.000000  -0.000001   0.000000   0.000000   0.000024  -0.000000
               7          8          9         10         11         12
     1  C   -0.086996  -0.079174   0.257074  -0.032090  -0.006111  -0.019061
     2  H   -0.202442  -0.007996  -0.039704   0.033110  -0.005567  -0.003763
     3  H    0.062842  -0.001430  -0.012485  -0.001768   0.003218  -0.000682
     4  H    0.057974  -0.000772  -0.022439  -0.000338   0.003873  -0.000579
     5  C    0.068033  -0.107444  -0.460630   0.239645  -0.034495   0.064893
     6  O   -0.140061  -0.012783   0.204947   0.025035  -0.067982   0.002010
     7  N    8.194648   0.306102  -1.185950   0.902089  -0.293654   0.273149
     8  H    0.306102   0.984239  -0.178609  -0.188359  -0.004819   0.025221
     9  C   -1.185950  -0.178609  18.140721  -6.422814   3.990919  -3.582940
    10  C    0.902089  -0.188359  -6.422814  16.183083  -6.606996   3.055490
    11  C   -0.293654  -0.004819   3.990919  -6.606996  18.299919  -6.120412
    12  C    0.273149   0.025221  -3.582940   3.055490  -6.120412  21.071290
    13  H    0.000019  -0.004661  -0.052435  -0.157869   0.665215  -1.418115
    14  H   -0.003469  -0.000216  -0.338111   1.132060  -1.659456   0.876374
    15  H   -0.184602   0.010787   0.902493  -1.743090   0.754393  -0.203512
    16  C    0.604111   0.337980  -6.217433   2.574753  -4.152733  -1.755460
    17  H   -0.241142  -0.022653   0.760259  -0.179412   0.044105  -0.099255
    18  C   -0.607002  -0.064306   1.187334  -4.032523   1.605387  -5.920245
    19  C    0.093051   0.055965  -1.862521   0.576632  -0.738316   0.703028
    20  N   -0.005545   0.000477   0.135076  -0.045130   0.006267  -0.077824
    21  C   -0.052689  -0.027888   0.934742  -0.340366   0.236025  -1.415176
    22  H   -0.002541  -0.002676  -0.043969  -0.023402   0.020401   0.113035
    23  S    0.000307   0.000276  -0.018203   0.017599  -0.026948   0.060820
    24  C   -0.001000   0.008139   0.204069  -0.114427   0.181351  -0.300048
    25  N    0.000356   0.000083  -0.014421   0.008227  -0.025342   0.020179
    26  C   -0.000148   0.000069  -0.002038  -0.001786   0.033517  -0.019565
    27  N   -0.000114  -0.000117   0.001337  -0.000950  -0.016093  -0.011904
    28  H    0.000702   0.000484   0.000542   0.001852  -0.002232  -0.007241
    29  H   -0.000028  -0.000018  -0.000217   0.000235   0.002965   0.003374
    30  N    0.000001  -0.000003  -0.000261   0.000344  -0.001213   0.000316
    31  H    0.000001   0.000004  -0.000009   0.000014   0.000269  -0.000024
    32  H   -0.000002  -0.000006  -0.000049   0.000037  -0.000048   0.000511
    33  H    0.000020   0.000064   0.000577  -0.000012   0.000059  -0.003439
              13         14         15         16         17         18
     1  C   -0.000188   0.001338  -0.022167  -0.163216   0.045663   0.035949
     2  H    0.000051  -0.000053   0.002551  -0.042607   0.001747   0.022463
     3  H    0.000005   0.000194  -0.002641   0.005752   0.000782  -0.002033
     4  H   -0.000037   0.000198  -0.002370   0.006875   0.000740  -0.002469
     5  C   -0.006216   0.017001   0.119363  -0.335066  -0.049580  -0.032156
     6  O    0.000402  -0.000537  -0.076858   0.010676   0.009912   0.012541
     7  N    0.000019  -0.003469  -0.184602   0.604111  -0.241142  -0.607002
     8  H   -0.004661  -0.000216   0.010787   0.337980  -0.022653  -0.064306
     9  C   -0.052435  -0.338111   0.902493  -6.217433   0.760259   1.187334
    10  C   -0.157869   1.132060  -1.743090   2.574753  -0.179412  -4.032523
    11  C    0.665215  -1.659456   0.754393  -4.152733   0.044105   1.605387
    12  C   -1.418115   0.876374  -0.203512  -1.755460  -0.099255  -5.920245
    13  H    2.187958  -0.117270  -0.007646  -0.163172  -0.001522   0.686208
    14  H   -0.117270   1.853358  -0.100395   0.102659   0.010783  -0.252533
    15  H   -0.007646  -0.100395   2.351251  -0.063674  -0.033796  -0.071645
    16  C   -0.163172   0.102659  -0.063674  27.047278  -2.316122  -8.477068
    17  H   -0.001522   0.010783  -0.033796  -2.316122   2.489347   1.423656
    18  C    0.686208  -0.252533  -0.071645  -8.477068   1.423656  23.753378
    19  C    0.145246  -0.022461   0.018261  -0.406341  -0.314561  -8.038052
    20  N   -0.092736   0.005452   0.001298  -0.017154   0.012312   0.481352
    21  C    0.031723   0.004466  -0.000635  -1.464370   0.322213   2.668509
    22  H    0.004222  -0.000705   0.001916   0.001246  -0.053245  -0.232805
    23  S    0.001264  -0.001036   0.000372  -0.002608  -0.002655  -0.268428
    24  C   -0.053961   0.005084  -0.002568  -0.181489  -0.031879   0.622173
    25  N    0.008297  -0.001325   0.000270   0.058534   0.000901  -0.233079
    26  C    0.001865   0.001585  -0.000270  -0.039252   0.000004  -0.011592
    27  N    0.001197  -0.000099   0.000093   0.013580   0.000553   0.038583
    28  H   -0.013084   0.000669   0.000037   0.002424  -0.002192   0.025349
    29  H   -0.000711  -0.000053   0.000027   0.000860   0.000111  -0.006479
    30  N    0.002063  -0.000142   0.000011   0.001639   0.000119  -0.004294
    31  H   -0.000202   0.000012  -0.000003  -0.000334  -0.000025  -0.000507
    32  H    0.000009  -0.000001   0.000001   0.000183   0.000072  -0.000040
    33  H   -0.001216   0.000025   0.000000  -0.002578  -0.000859   0.009812
              19         20         21         22         23         24
     1  C   -0.002893  -0.000270   0.001482  -0.000544   0.000118  -0.000230
     2  H   -0.004054  -0.000010   0.001199   0.000556   0.000070  -0.000328
     3  H    0.000774   0.000001  -0.000193  -0.000006  -0.000008   0.000039
     4  H    0.000320  -0.000010   0.000161   0.000002  -0.000001   0.000026
     5  C    0.042631   0.001757  -0.014742   0.005116  -0.000450   0.004123
     6  O   -0.008954  -0.000081   0.001323  -0.000304   0.000035  -0.000234
     7  N    0.093051  -0.005545  -0.052689  -0.002541   0.000307  -0.001000
     8  H    0.055965   0.000477  -0.027888  -0.002676   0.000276   0.008139
     9  C   -1.862521   0.135076   0.934742  -0.043969  -0.018203   0.204069
    10  C    0.576632  -0.045130  -0.340366  -0.023402   0.017599  -0.114427
    11  C   -0.738316   0.006267   0.236025   0.020401  -0.026948   0.181351
    12  C    0.703028  -0.077824  -1.415176   0.113035   0.060820  -0.300048
    13  H    0.145246  -0.092736   0.031723   0.004222   0.001264  -0.053961
    14  H   -0.022461   0.005452   0.004466  -0.000705  -0.001036   0.005084
    15  H    0.018261   0.001298  -0.000635   0.001916   0.000372  -0.002568
    16  C   -0.406341  -0.017154  -1.464370   0.001246  -0.002608  -0.181489
    17  H   -0.314561   0.012312   0.322213  -0.053245  -0.002655  -0.031879
    18  C   -8.038052   0.481352   2.668509  -0.232805  -0.268428   0.622173
    19  C   26.256776  -1.466804  -8.205548   0.888789   0.152380  -1.883343
    20  N   -1.466804   8.076894   0.638033   0.003249  -0.199754   0.404308
    21  C   -8.205548   0.638033  13.654287  -0.441227   0.145784  -0.891198
    22  H    0.888789   0.003249  -0.441227   1.581854  -0.224832  -0.003643
    23  S    0.152380  -0.199754   0.145784  -0.224832  15.828955   0.230890
    24  C   -1.883343   0.404308  -0.891198  -0.003643   0.230890   8.162361
    25  N    0.671633  -0.174822  -0.056254  -0.015662  -0.138743  -0.328270
    26  C    0.112025   0.037186  -0.156959  -0.009178  -0.060720  -0.409485
    27  N   -0.112027  -0.022320   0.074938   0.002684  -0.010803   0.015628
    28  H   -0.031689  -0.022820  -0.065277  -0.002199   0.002689   0.035924
    29  H    0.011305  -0.000772   0.002772   0.000053  -0.001226  -0.002446
    30  N    0.027674   0.004376  -0.002413  -0.000147   0.004874   0.025030
    31  H    0.003156   0.002379  -0.003697  -0.000168  -0.000139  -0.015444
    32  H   -0.000364   0.000079   0.001267   0.000055  -0.002188  -0.024411
    33  H   -0.086462  -0.014009   0.002706   0.001248   0.022558  -0.097415
              25         26         27         28         29         30
     1  C   -0.000006   0.000004   0.000001  -0.000027  -0.000000  -0.000000
     2  H   -0.000001  -0.000001   0.000002  -0.000017   0.000000   0.000000
     3  H   -0.000001   0.000000  -0.000000  -0.000001  -0.000000  -0.000000
     4  H   -0.000001  -0.000000  -0.000000   0.000004  -0.000000  -0.000000
     5  C   -0.000068  -0.000048  -0.000035   0.000540  -0.000017   0.000000
     6  O    0.000001   0.000003   0.000001  -0.000042   0.000001   0.000000
     7  N    0.000356  -0.000148  -0.000114   0.000702  -0.000028   0.000001
     8  H    0.000083   0.000069  -0.000117   0.000484  -0.000018  -0.000003
     9  C   -0.014421  -0.002038   0.001337   0.000542  -0.000217  -0.000261
    10  C    0.008227  -0.001786  -0.000950   0.001852   0.000235   0.000344
    11  C   -0.025342   0.033517  -0.016093  -0.002232   0.002965  -0.001213
    12  C    0.020179  -0.019565  -0.011904  -0.007241   0.003374   0.000316
    13  H    0.008297   0.001865   0.001197  -0.013084  -0.000711   0.002063
    14  H   -0.001325   0.001585  -0.000099   0.000669  -0.000053  -0.000142
    15  H    0.000270  -0.000270   0.000093   0.000037   0.000027   0.000011
    16  C    0.058534  -0.039252   0.013580   0.002424   0.000860   0.001639
    17  H    0.000901   0.000004   0.000553  -0.002192   0.000111   0.000119
    18  C   -0.233079  -0.011592   0.038583   0.025349  -0.006479  -0.004294
    19  C    0.671633   0.112025  -0.112027  -0.031689   0.011305   0.027674
    20  N   -0.174822   0.037186  -0.022320  -0.022820  -0.000772   0.004376
    21  C   -0.056254  -0.156959   0.074938  -0.065277   0.002772  -0.002413
    22  H   -0.015662  -0.009178   0.002684  -0.002199   0.000053  -0.000147
    23  S   -0.138743  -0.060720  -0.010803   0.002689  -0.001226   0.004874
    24  C   -0.328270  -0.409485   0.015628   0.035924  -0.002446   0.025030
    25  N    7.431179   0.202263  -0.035681  -0.034632   0.018851  -0.098952
    26  C    0.202263   5.166502   0.155882  -0.094293  -0.127938   0.115504
    27  N   -0.035681   0.155882   6.320293   0.416148   0.448564  -0.105737
    28  H   -0.034632  -0.094293   0.416148   0.847747  -0.202026   0.010382
    29  H    0.018851  -0.127938   0.448564  -0.202026   0.855198  -0.002545
    30  N   -0.098952   0.115504  -0.105737   0.010382  -0.002545   6.381115
    31  H   -0.021737  -0.072810  -0.016230   0.003693  -0.009279   0.460374
    32  H    0.019081  -0.081354   0.005033  -0.001830   0.002767   0.449963
    33  H    0.437595  -0.107520   0.013266   0.003542  -0.000862  -0.005939
              31         32         33
     1  C   -0.000000   0.000000   0.000000
     2  H   -0.000000   0.000000  -0.000001
     3  H   -0.000000  -0.000000   0.000000
     4  H    0.000000  -0.000000   0.000000
     5  C    0.000000  -0.000001   0.000024
     6  O   -0.000000   0.000000  -0.000000
     7  N    0.000001  -0.000002   0.000020
     8  H    0.000004  -0.000006   0.000064
     9  C   -0.000009  -0.000049   0.000577
    10  C    0.000014   0.000037  -0.000012
    11  C    0.000269  -0.000048   0.000059
    12  C   -0.000024   0.000511  -0.003439
    13  H   -0.000202   0.000009  -0.001216
    14  H    0.000012  -0.000001   0.000025
    15  H   -0.000003   0.000001   0.000000
    16  C   -0.000334   0.000183  -0.002578
    17  H   -0.000025   0.000072  -0.000859
    18  C   -0.000507  -0.000040   0.009812
    19  C    0.003156  -0.000364  -0.086462
    20  N    0.002379   0.000079  -0.014009
    21  C   -0.003697   0.001267   0.002706
    22  H   -0.000168   0.000055   0.001248
    23  S   -0.000139  -0.002188   0.022558
    24  C   -0.015444  -0.024411  -0.097415
    25  N   -0.021737   0.019081   0.437595
    26  C   -0.072810  -0.081354  -0.107520
    27  N   -0.016230   0.005033   0.013266
    28  H    0.003693  -0.001830   0.003542
    29  H   -0.009279   0.002767  -0.000862
    30  N    0.460374   0.449963  -0.005939
    31  H    0.785492  -0.144913   0.002335
    32  H   -0.144913   0.780514  -0.003892
    33  H    0.002335  -0.003892   0.842990
 Mulliken charges:
               1
     1  C    0.513927
     2  H   -0.210784
     3  H    0.051080
     4  H    0.059521
     5  C    0.492260
     6  O   -0.859320
     7  N   -0.556021
     8  H   -0.025959
     9  C   -0.264851
    10  C    1.141127
    11  C   -0.085464
    12  C    0.689557
    13  H   -0.644701
    14  H   -0.513395
    15  H   -0.647248
    16  C    1.032128
    17  H   -0.774381
    18  C    1.684563
    19  C   -0.575255
    20  N   -0.670433
    21  C    0.417003
    22  H   -0.567173
    23  S    0.489747
    24  C    0.442674
    25  N   -0.698452
    26  C    1.368548
    27  N   -0.175670
    28  H    0.126876
    29  H    0.007535
    30  N   -0.262140
    31  H    0.027793
    32  H   -0.000474
    33  H   -0.012618
 Sum of Mulliken charges =   1.00000
 Mulliken charges with hydrogens summed into heavy atoms:
               1
     1  C    0.413743
     5  C    0.492260
     6  O   -0.859320
     7  N   -0.581979
     9  C   -0.264851
    10  C    0.493878
    11  C   -0.598859
    12  C    0.044855
    16  C    0.257747
    18  C    1.684563
    19  C   -0.575255
    20  N   -0.670433
    21  C   -0.150170
    23  S    0.489747
    24  C    0.442674
    25  N   -0.711070
    26  C    1.368548
    27  N   -0.041259
    30  N   -0.234821
 Electronic spatial extent (au):  <R**2>=           8732.8513
 Charge=              1.0000 electrons
 Dipole moment (field-independent basis, Debye):
    X=             20.0126    Y=              0.8191    Z=              1.2932  Tot=             20.0711
 Quadrupole moment (field-independent basis, Debye-Ang):
   XX=             15.2622   YY=            -88.2437   ZZ=           -123.4563
   XY=            -40.5013   XZ=              1.9785   YZ=             -1.6150
 Traceless Quadrupole moment (field-independent basis, Debye-Ang):
   XX=             80.7414   YY=            -22.7644   ZZ=            -57.9770
   XY=            -40.5013   XZ=              1.9785   YZ=             -1.6150
 Octapole moment (field-independent basis, Debye-Ang**2):
  XXX=            737.0805  YYY=            -34.9037  ZZZ=              5.3796  XYY=             82.8662
  XXY=              5.1369  XXZ=             50.3712  XZZ=             -1.1203  YZZ=             -1.0452
  YYZ=              4.0291  XYZ=            -20.7278
 Hexadecapole moment (field-independent basis, Debye-Ang**3):
 XXXX=          -4834.6234 YYYY=          -1263.5250 ZZZZ=           -180.3876 XXXY=          -1407.2759
 XXXZ=             68.1994 YYYX=           -243.1143 YYYZ=            -17.8141 ZZZX=             -5.7178
 ZZZY=             -4.9584 XXYY=          -1450.4565 XXZZ=          -1685.8010 YYZZ=           -301.8804
 XXYZ=            -62.8746 YYXZ=             41.3902 ZZXY=            -21.3138
 N-N= 1.442811303299D+03 E-N=-5.706169038970D+03  KE= 1.206025229789D+03
 Leave Link  601 at Sun Jul 18 19:44:23 2021, MaxMem=   262144000 cpu:               0.5 elap:               1.7
 (Enter /dades/curu/g16A03_MST/g16/l9999.exe)
 1\1\GINC-PIRINEUS32\SP\RMP2-FC\Aug-CC-pVDZ\C12H14N5O1S1(1+)\UBATOR02\1
 8-Jul-2021\0\\#p mp2/aug-cc-pVDZ scf=tight maxdisk=180GB geom=allcheck
 \\SET_328_BBB321_conf1.geo_165_150_255 geometry\\1,1\C,0,-1.7711344059
 ,-1.2075549451,-5.8032307798\H,0,-0.6946446406,-1.3478301446,-5.916415
 8635\H,0,-2.1015492575,-0.4241227132,-6.4891105651\H,0,-2.2803957496,-
 2.1305147424,-6.0913715221\C,0,-2.2017614575,-0.8347582123,-4.39818038
 87\O,0,-3.3761293038,-0.6094058271,-4.1265951602\N,0,-1.1792724608,-0.
 7794354377,-3.4810654754\H,0,-0.2529180467,-0.9858954476,-3.8316585972
 \C,0,-1.2452935124,-0.4760534535,-2.1077963975\C,0,-2.445918525,-0.161
 1055959,-1.4508403547\C,0,-2.4164414334,0.1297972952,-0.0885101451\C,0
 ,-1.2261298818,0.112252315,0.633578445\H,0,-1.2160514007,0.3283129175,
 1.6941604352\H,0,-3.3452671165,0.3721687218,0.4171619485\H,0,-3.365024
 7906,-0.1490495887,-2.0160545844\C,0,-0.0451988969,-0.4899626842,-1.38
 64012387\H,0,0.8836423175,-0.715367128,-1.9029694606\C,0,-0.0236734188
 ,-0.2032156058,-0.0161012497\C,0,1.2395282536,-0.2432974871,0.74065561
 77\N,0,1.2790295828,0.284334417,2.0254562805\C,0,2.4232995389,-0.78088
 78704,0.3161412214\H,0,2.6448111702,-1.2756917345,-0.6159614718\S,0,3.
 6520023607,-0.6271401394,1.533059833\C,0,2.4581315058,0.1539202687,2.5
 560780809\N,0,2.8097157251,0.5881423254,3.8253687236\C,0,2.0262881463,
 1.3000587833,4.6908153406\N,0,0.7924717314,1.646626204,4.3625404432\H,
 0,0.4195641709,1.3701812824,3.4566409478\H,0,0.2295243306,2.1882156277
 ,5.0089632084\N,0,2.5546411199,1.6271514685,5.8659201618\H,0,2.0099611
 274,2.1461646711,6.5449809001\H,0,3.5067348661,1.3732741873,6.10320100
 45\H,0,3.7394583516,0.3606882728,4.1675406623\\Version=ES64L-G16RevA.0
 3\State=1-A\HF=-1207.1558953\MP2=-1209.9716993\RMSD=7.977e-09\PG=C01 [
 X(C12H14N5O1S1)]\\@


 I LOVE MANKIND - IT'S PEOPLE I CAN'T STAND.
     -- LINUS OF PEANUTS
 Job cpu time:       0 days  2 hours 59 minutes  8.6 seconds.
 Elapsed time:       0 days  1 hours 16 minutes 33.9 seconds.
 File lengths (MBytes):  RWF=  86272 Int=      0 D2E=      0 Chk=     27 Scr=      1
 Normal termination of Gaussian 16 at Sun Jul 18 19:44:26 2021.
