 Entering Gaussian System, Link 0=g16
 Input=SET_328_BBB29_conf1.geo_090_075_180_OCTANOL.dat
 Output=SET_328_BBB29_conf1.geo_090_075_180_OCTANOL.log
 Initial command:
 /dades/curu/g16A03_MST/g16/l1.exe "/tmp/ubator02/1839603/Gau-71721.inp" -scrdir="/tmp/ubator02/1839603/"
 Entering Link 1 = /dades/curu/g16A03_MST/g16/l1.exe PID=     71722.
  
 Copyright (c) 1988,1990,1992,1993,1995,1998,2003,2009,2016,
            Gaussian, Inc.  All Rights Reserved.
  
 This is part of the Gaussian(R) 16 program.  It is based on
 the Gaussian(R) 09 system (copyright 2009, Gaussian, Inc.),
 the Gaussian(R) 03 system (copyright 2003, Gaussian, Inc.),
 the Gaussian(R) 98 system (copyright 1998, Gaussian, Inc.),
 the Gaussian(R) 94 system (copyright 1995, Gaussian, Inc.),
 the Gaussian 92(TM) system (copyright 1992, Gaussian, Inc.),
 the Gaussian 90(TM) system (copyright 1990, Gaussian, Inc.),
 the Gaussian 88(TM) system (copyright 1988, Gaussian, Inc.),
 the Gaussian 86(TM) system (copyright 1986, Carnegie Mellon
 University), and the Gaussian 82(TM) system (copyright 1983,
 Carnegie Mellon University). Gaussian is a federally registered
 trademark of Gaussian, Inc.
  
 This software contains proprietary and confidential information,
 including trade secrets, belonging to Gaussian, Inc.
  
 This software is provided under written license and may be
 used, copied, transmitted, or stored only in accord with that
 written license.
  
 The following legend is applicable only to US Government
 contracts under FAR:
  
                    RESTRICTED RIGHTS LEGEND
  
 Use, reproduction and disclosure by the US Government is
 subject to restrictions as set forth in subparagraphs (a)
 and (c) of the Commercial Computer Software - Restricted
 Rights clause in FAR 52.227-19.
  
 Gaussian, Inc.
 340 Quinnipiac St., Bldg. 40, Wallingford CT 06492
  
  
 ---------------------------------------------------------------
 Warning -- This program may not be used in any manner that
 competes with the business of Gaussian, Inc. or will provide
 assistance to any competitor of Gaussian, Inc.  The licensee
 of this program is prohibited from giving any competitor of
 Gaussian, Inc. access to this program.  By using this program,
 the user acknowledges that Gaussian, Inc. is engaged in the
 business of creating and licensing software in the field of
 computational chemistry and represents and warrants to the
 licensee that it is not a competitor of Gaussian, Inc. and that
 it will not use this program in any manner prohibited above.
 ---------------------------------------------------------------
  

 Cite this work as:
 Gaussian 16, Revision A.03,
 M. J. Frisch, G. W. Trucks, H. B. Schlegel, G. E. Scuseria, 
 M. A. Robb, J. R. Cheeseman, G. Scalmani, V. Barone, 
 G. A. Petersson, H. Nakatsuji, X. Li, M. Caricato, A. V. Marenich, 
 J. Bloino, B. G. Janesko, R. Gomperts, B. Mennucci, H. P. Hratchian, 
 J. V. Ortiz, A. F. Izmaylov, J. L. Sonnenberg, D. Williams-Young, 
 F. Ding, F. Lipparini, F. Egidi, J. Goings, B. Peng, A. Petrone, 
 T. Henderson, D. Ranasinghe, V. G. Zakrzewski, J. Gao, N. Rega, 
 G. Zheng, W. Liang, M. Hada, M. Ehara, K. Toyota, R. Fukuda, 
 J. Hasegawa, M. Ishida, T. Nakajima, Y. Honda, O. Kitao, H. Nakai, 
 T. Vreven, K. Throssell, J. A. Montgomery, Jr., J. E. Peralta, 
 F. Ogliaro, M. J. Bearpark, J. J. Heyd, E. N. Brothers, K. N. Kudin, 
 V. N. Staroverov, T. A. Keith, R. Kobayashi, J. Normand, 
 K. Raghavachari, A. P. Rendell, J. C. Burant, S. S. Iyengar, 
 J. Tomasi, M. Cossi, J. M. Millam, M. Klene, C. Adamo, R. Cammi, 
 J. W. Ochterski, R. L. Martin, K. Morokuma, O. Farkas, 
 J. B. Foresman, and D. J. Fox, Gaussian, Inc., Wallingford CT, 2016.
 
 ******************************************
 Gaussian 16:  ES64L-G16RevA.03 25-Dec-2016
                18-Jul-2021 
 ******************************************
 %mem=800MB
 %nproc=4
 Will use up to    4 processors via shared memory.
 %chk=SET_328_BBB29_conf1.geo_090_075_180.chk
 ---------------------------------------------------------------
 #p b3lyp/6-31G(d) opt freq scrf=(iefpcm,read,solvent=n-octanol)
 ---------------------------------------------------------------
 1/18=20,19=15,26=3,38=1,40=2/1,3;
 2/9=110,12=2,17=6,18=5,40=1/2;
 3/5=1,6=6,7=1,11=2,25=1,30=1,70=2203,71=1,72=25,74=-5/1,2,3;
 4//1;
 5/5=2,38=5,53=25/2;
 6/7=2,8=2,9=2,10=2,28=1/1;
 7//1,2,3,16;
 1/18=20,19=15,26=3/3(2);
 2/9=110/2;
 99//99;
 2/9=110/2;
 3/5=1,6=6,7=1,11=2,25=1,30=1,70=2205,71=1,72=25,74=-5/1,2,3;
 4/5=5,16=3,69=1/1;
 5/5=2,38=5,53=25/2;
 7//1,2,3,16;
 1/18=20,19=15,26=3/3(-5);
 2/9=110/2;
 6/7=2,8=2,9=2,10=2,19=2,28=1/1;
 99/9=1/99;
 Leave Link    1 at Sun Jul 18 13:50:21 2021, MaxMem=   104857600 cpu:               0.0 elap:               0.0
 (Enter /dades/curu/g16A03_MST/g16/l101.exe)
 --------------------------------------------
 SET_328_BBB29_conf1.geo_090_075_180 geometry
 --------------------------------------------
 Symbolic Z-matrix:
 Charge =  1 Multiplicity = 1
 N                    -1.779    -1.346    -3.426 
 H                    -1.16     -1.726    -4.113 
 H                    -2.57     -0.937    -3.88 
 C                    -1.054    -0.286    -2.624 
 H                    -1.712     0.061    -1.822 
 H                    -0.913     0.589    -3.263 
 C                     0.313    -0.792    -2.267 
 H                     0.831    -0.972    -3.211 
 H                     0.211    -1.742    -1.74 
 C                     1.117     0.249    -1.436 
 H                     0.918     1.254    -1.815 
 H                     2.184     0.015    -1.394 
 N                     0.683     0.322    -0.044 
 C                     0.927    -0.699     0.875 
 C                     2.142    -1.348     0.981 
 H                     2.966    -0.944     0.399 
 C                     2.274    -2.516     1.725 
 Cl                    3.883    -3.116     2.031 
 C                     1.18     -3.112     2.357 
 H                     1.35     -4.017     2.935 
 C                    -0.064    -2.48      2.148 
 H                    -1.056    -2.861     2.377 
 C                    -0.194    -1.265     1.443 
 S                    -1.836    -0.573     1.244 
 C                    -1.264     1.092     1.206 
 C                    -0.113     1.379     0.44 
 C                     0.291     2.723     0.442 
 H                     1.251     2.943    -0.019 
 C                    -0.456     3.719     1.062 
 H                    -0.027     4.716     1.015 
 C                    -1.56      3.384     1.776 
 H                    -2.233     4.135     2.182 
 C                    -1.929     2.027     1.947 
 H                    -2.794     1.764     2.551 
 H                    -2.086    -2.075    -2.814 
 
 ITRead=  0  0  0  0  0  0  0  0  0  0  0  0  0  0  0  0  0  0  0  0
 ITRead=  0  0  0  0  0  0  0  0  0  0  0  0  0  0  0
 MicOpt= -1 -1 -1 -1 -1 -1 -1 -1 -1 -1 -1 -1 -1 -1 -1 -1 -1 -1 -1 -1
 MicOpt= -1 -1 -1 -1 -1 -1 -1 -1 -1 -1 -1 -1 -1 -1 -1
 NAtoms=     35 NQM=       35 NQMF=       0 NMMI=      0 NMMIF=      0
                NMic=       0 NMicF=      0.
                    Isotopes and Nuclear Properties:
 (Nuclear quadrupole moments (NQMom) in fm**2, nuclear magnetic moments (NMagM)
  in nuclear magnetons)

  Atom         1           2           3           4           5           6           7           8           9          10
 IAtWgt=          14           1           1          12           1           1          12           1           1          12
 AtmWgt=  14.0030740   1.0078250   1.0078250  12.0000000   1.0078250   1.0078250  12.0000000   1.0078250   1.0078250  12.0000000
 NucSpn=           2           1           1           0           1           1           0           1           1           0
 AtZEff=  -0.0000000  -0.0000000  -0.0000000  -0.0000000  -0.0000000  -0.0000000  -0.0000000  -0.0000000  -0.0000000  -0.0000000
 NQMom=    2.0440000   0.0000000   0.0000000   0.0000000   0.0000000   0.0000000   0.0000000   0.0000000   0.0000000   0.0000000
 NMagM=    0.4037610   2.7928460   2.7928460   0.0000000   2.7928460   2.7928460   0.0000000   2.7928460   2.7928460   0.0000000
 AtZNuc=   7.0000000   1.0000000   1.0000000   6.0000000   1.0000000   1.0000000   6.0000000   1.0000000   1.0000000   6.0000000

  Atom        11          12          13          14          15          16          17          18          19          20
 IAtWgt=           1           1          14          12          12           1          12          35          12           1
 AtmWgt=   1.0078250   1.0078250  14.0030740  12.0000000  12.0000000   1.0078250  12.0000000  34.9688527  12.0000000   1.0078250
 NucSpn=           1           1           2           0           0           1           0           3           0           1
 AtZEff=  -0.0000000  -0.0000000  -0.0000000  -0.0000000  -0.0000000  -0.0000000  -0.0000000  -0.0000000  -0.0000000  -0.0000000
 NQMom=    0.0000000   0.0000000   2.0440000   0.0000000   0.0000000   0.0000000   0.0000000  -8.1650000   0.0000000   0.0000000
 NMagM=    2.7928460   2.7928460   0.4037610   0.0000000   0.0000000   2.7928460   0.0000000   0.8218740   0.0000000   2.7928460
 AtZNuc=   1.0000000   1.0000000   7.0000000   6.0000000   6.0000000   1.0000000   6.0000000  17.0000000   6.0000000   1.0000000

  Atom        21          22          23          24          25          26          27          28          29          30
 IAtWgt=          12           1          12          32          12          12          12           1          12           1
 AtmWgt=  12.0000000   1.0078250  12.0000000  31.9720718  12.0000000  12.0000000  12.0000000   1.0078250  12.0000000   1.0078250
 NucSpn=           0           1           0           0           0           0           0           1           0           1
 AtZEff=  -0.0000000  -0.0000000  -0.0000000  -0.0000000  -0.0000000  -0.0000000  -0.0000000  -0.0000000  -0.0000000  -0.0000000
 NQMom=    0.0000000   0.0000000   0.0000000   0.0000000   0.0000000   0.0000000   0.0000000   0.0000000   0.0000000   0.0000000
 NMagM=    0.0000000   2.7928460   0.0000000   0.0000000   0.0000000   0.0000000   0.0000000   2.7928460   0.0000000   2.7928460
 AtZNuc=   6.0000000   1.0000000   6.0000000  16.0000000   6.0000000   6.0000000   6.0000000   1.0000000   6.0000000   1.0000000

  Atom        31          32          33          34          35
 IAtWgt=          12           1          12           1           1
 AtmWgt=  12.0000000   1.0078250  12.0000000   1.0078250   1.0078250
 NucSpn=           0           1           0           1           1
 AtZEff=  -0.0000000  -0.0000000  -0.0000000  -0.0000000  -0.0000000
 NQMom=    0.0000000   0.0000000   0.0000000   0.0000000   0.0000000
 NMagM=    0.0000000   2.7928460   0.0000000   2.7928460   2.7928460
 AtZNuc=   6.0000000   1.0000000   6.0000000   1.0000000   1.0000000
 Leave Link  101 at Sun Jul 18 13:50:21 2021, MaxMem=   104857600 cpu:               0.1 elap:               0.1
 (Enter /dades/curu/g16A03_MST/g16/l103.exe)

 GradGradGradGradGradGradGradGradGradGradGradGradGradGradGradGradGradGrad
 Berny optimization.
 Initialization pass.
                           ----------------------------
                           !    Initial Parameters    !
                           ! (Angstroms and Degrees)  !
 --------------------------                            --------------------------
 ! Name  Definition              Value          Derivative Info.                !
 --------------------------------------------------------------------------------
 ! R1    R(1,2)                  0.9998         estimate D2E/DX2                !
 ! R2    R(1,3)                  0.9995         estimate D2E/DX2                !
 ! R3    R(1,4)                  1.5141         estimate D2E/DX2                !
 ! R4    R(1,35)                 1.0001         estimate D2E/DX2                !
 ! R5    R(4,5)                  1.0939         estimate D2E/DX2                !
 ! R6    R(4,6)                  1.0926         estimate D2E/DX2                !
 ! R7    R(4,7)                  1.5007         estimate D2E/DX2                !
 ! R8    R(7,8)                  1.0917         estimate D2E/DX2                !
 ! R9    R(7,9)                  1.0912         estimate D2E/DX2                !
 ! R10   R(7,10)                 1.5558         estimate D2E/DX2                !
 ! R11   R(10,11)                1.0924         estimate D2E/DX2                !
 ! R12   R(10,12)                1.0932         estimate D2E/DX2                !
 ! R13   R(10,13)                1.4599         estimate D2E/DX2                !
 ! R14   R(13,14)                1.3952         estimate D2E/DX2                !
 ! R15   R(13,26)                1.4089         estimate D2E/DX2                !
 ! R16   R(14,15)                1.3815         estimate D2E/DX2                !
 ! R17   R(14,23)                1.3783         estimate D2E/DX2                !
 ! R18   R(15,16)                1.0867         estimate D2E/DX2                !
 ! R19   R(15,17)                1.3911         estimate D2E/DX2                !
 ! R20   R(17,18)                1.7443         estimate D2E/DX2                !
 ! R21   R(17,19)                1.397          estimate D2E/DX2                !
 ! R22   R(19,20)                1.0872         estimate D2E/DX2                !
 ! R23   R(19,21)                1.4109         estimate D2E/DX2                !
 ! R24   R(21,22)                1.087          estimate D2E/DX2                !
 ! R25   R(21,23)                1.4107         estimate D2E/DX2                !
 ! R26   R(23,24)                1.7929         estimate D2E/DX2                !
 ! R27   R(24,25)                1.7609         estimate D2E/DX2                !
 ! R28   R(25,26)                1.4121         estimate D2E/DX2                !
 ! R29   R(25,33)                1.3658         estimate D2E/DX2                !
 ! R30   R(26,27)                1.4034         estimate D2E/DX2                !
 ! R31   R(27,28)                1.0874         estimate D2E/DX2                !
 ! R32   R(27,29)                1.3908         estimate D2E/DX2                !
 ! R33   R(29,30)                1.0864         estimate D2E/DX2                !
 ! R34   R(29,31)                1.3568         estimate D2E/DX2                !
 ! R35   R(31,32)                1.0871         estimate D2E/DX2                !
 ! R36   R(31,33)                1.4166         estimate D2E/DX2                !
 ! R37   R(33,34)                1.0873         estimate D2E/DX2                !
 ! A1    A(2,1,3)              109.4742         estimate D2E/DX2                !
 ! A2    A(2,1,4)              109.4883         estimate D2E/DX2                !
 ! A3    A(2,1,35)             109.4811         estimate D2E/DX2                !
 ! A4    A(3,1,4)              109.4545         estimate D2E/DX2                !
 ! A5    A(3,1,35)             109.4684         estimate D2E/DX2                !
 ! A6    A(4,1,35)             109.4608         estimate D2E/DX2                !
 ! A7    A(1,4,5)              108.8084         estimate D2E/DX2                !
 ! A8    A(1,4,6)              108.2199         estimate D2E/DX2                !
 ! A9    A(1,4,7)              109.0338         estimate D2E/DX2                !
 ! A10   A(5,4,6)              104.6177         estimate D2E/DX2                !
 ! A11   A(5,4,7)              118.7164         estimate D2E/DX2                !
 ! A12   A(6,4,7)              106.9531         estimate D2E/DX2                !
 ! A13   A(4,7,8)              106.3853         estimate D2E/DX2                !
 ! A14   A(4,7,9)              108.8623         estimate D2E/DX2                !
 ! A15   A(4,7,10)             111.8498         estimate D2E/DX2                !
 ! A16   A(8,7,9)              108.5678         estimate D2E/DX2                !
 ! A17   A(8,7,10)             109.0848         estimate D2E/DX2                !
 ! A18   A(9,7,10)             111.893          estimate D2E/DX2                !
 ! A19   A(7,10,11)            109.6408         estimate D2E/DX2                !
 ! A20   A(7,10,12)            112.4384         estimate D2E/DX2                !
 ! A21   A(7,10,13)            112.8987         estimate D2E/DX2                !
 ! A22   A(11,10,12)           112.8351         estimate D2E/DX2                !
 ! A23   A(11,10,13)           103.3355         estimate D2E/DX2                !
 ! A24   A(12,10,13)           105.3214         estimate D2E/DX2                !
 ! A25   A(10,13,14)           122.6476         estimate D2E/DX2                !
 ! A26   A(10,13,26)           122.2086         estimate D2E/DX2                !
 ! A27   A(14,13,26)           114.9315         estimate D2E/DX2                !
 ! A28   A(13,14,15)           123.2381         estimate D2E/DX2                !
 ! A29   A(13,14,23)           115.4508         estimate D2E/DX2                !
 ! A30   A(15,14,23)           119.3905         estimate D2E/DX2                !
 ! A31   A(14,15,16)           116.8154         estimate D2E/DX2                !
 ! A32   A(14,15,17)           121.259          estimate D2E/DX2                !
 ! A33   A(16,15,17)           121.7779         estimate D2E/DX2                !
 ! A34   A(15,17,18)           118.0451         estimate D2E/DX2                !
 ! A35   A(15,17,19)           121.7268         estimate D2E/DX2                !
 ! A36   A(18,17,19)           119.7536         estimate D2E/DX2                !
 ! A37   A(17,19,20)           118.2428         estimate D2E/DX2                !
 ! A38   A(17,19,21)           115.6178         estimate D2E/DX2                !
 ! A39   A(20,19,21)           126.121          estimate D2E/DX2                !
 ! A40   A(19,21,22)           128.0544         estimate D2E/DX2                !
 ! A41   A(19,21,23)           122.7566         estimate D2E/DX2                !
 ! A42   A(22,21,23)           108.8473         estimate D2E/DX2                !
 ! A43   A(14,23,21)           118.9918         estimate D2E/DX2                !
 ! A44   A(14,23,24)           122.7266         estimate D2E/DX2                !
 ! A45   A(21,23,24)           118.1818         estimate D2E/DX2                !
 ! A46   A(23,24,25)            94.0051         estimate D2E/DX2                !
 ! A47   A(24,25,26)           117.9472         estimate D2E/DX2                !
 ! A48   A(24,25,33)           118.5163         estimate D2E/DX2                !
 ! A49   A(26,25,33)           123.5063         estimate D2E/DX2                !
 ! A50   A(13,26,25)           119.629          estimate D2E/DX2                !
 ! A51   A(13,26,27)           123.8006         estimate D2E/DX2                !
 ! A52   A(25,26,27)           115.3737         estimate D2E/DX2                !
 ! A53   A(26,27,28)           116.5691         estimate D2E/DX2                !
 ! A54   A(26,27,29)           122.1289         estimate D2E/DX2                !
 ! A55   A(28,27,29)           121.2147         estimate D2E/DX2                !
 ! A56   A(27,29,30)           115.2024         estimate D2E/DX2                !
 ! A57   A(27,29,31)           119.6564         estimate D2E/DX2                !
 ! A58   A(30,29,31)           124.7971         estimate D2E/DX2                !
 ! A59   A(29,31,32)           121.986          estimate D2E/DX2                !
 ! A60   A(29,31,33)           120.7962         estimate D2E/DX2                !
 ! A61   A(32,31,33)           117.0917         estimate D2E/DX2                !
 ! A62   A(25,33,31)           117.6089         estimate D2E/DX2                !
 ! A63   A(25,33,34)           121.5423         estimate D2E/DX2                !
 ! A64   A(31,33,34)           120.3964         estimate D2E/DX2                !
 ! D1    D(2,1,4,5)           -175.2078         estimate D2E/DX2                !
 ! D2    D(2,1,4,6)             71.664          estimate D2E/DX2                !
 ! D3    D(2,1,4,7)            -44.331          estimate D2E/DX2                !
 ! D4    D(3,1,4,5)             64.7883         estimate D2E/DX2                !
 ! D5    D(3,1,4,6)            -48.3399         estimate D2E/DX2                !
 ! D6    D(3,1,4,7)           -164.3349         estimate D2E/DX2                !
 ! D7    D(35,1,4,5)           -55.1916         estimate D2E/DX2                !
 ! D8    D(35,1,4,6)          -168.3198         estimate D2E/DX2                !
 ! D9    D(35,1,4,7)            75.6852         estimate D2E/DX2                !
 ! D10   D(1,4,7,8)             61.1039         estimate D2E/DX2                !
 ! D11   D(1,4,7,9)            -55.7166         estimate D2E/DX2                !
 ! D12   D(1,4,7,10)          -179.8777         estimate D2E/DX2                !
 ! D13   D(5,4,7,8)           -173.5942         estimate D2E/DX2                !
 ! D14   D(5,4,7,9)             69.5853         estimate D2E/DX2                !
 ! D15   D(5,4,7,10)           -54.5759         estimate D2E/DX2                !
 ! D16   D(6,4,7,8)            -55.7            estimate D2E/DX2                !
 ! D17   D(6,4,7,9)           -172.5205         estimate D2E/DX2                !
 ! D18   D(6,4,7,10)            63.3183         estimate D2E/DX2                !
 ! D19   D(4,7,10,11)          -38.5368         estimate D2E/DX2                !
 ! D20   D(4,7,10,12)         -164.9201         estimate D2E/DX2                !
 ! D21   D(4,7,10,13)           76.0832         estimate D2E/DX2                !
 ! D22   D(8,7,10,11)           78.8721         estimate D2E/DX2                !
 ! D23   D(8,7,10,12)          -47.5112         estimate D2E/DX2                !
 ! D24   D(8,7,10,13)         -166.5079         estimate D2E/DX2                !
 ! D25   D(9,7,10,11)         -160.9842         estimate D2E/DX2                !
 ! D26   D(9,7,10,12)           72.6325         estimate D2E/DX2                !
 ! D27   D(9,7,10,13)          -46.3642         estimate D2E/DX2                !
 ! D28   D(7,10,13,14)          70.6222         estimate D2E/DX2                !
 ! D29   D(7,10,13,26)        -103.8129         estimate D2E/DX2                !
 ! D30   D(11,10,13,14)       -171.0111         estimate D2E/DX2                !
 ! D31   D(11,10,13,26)         14.5539         estimate D2E/DX2                !
 ! D32   D(12,10,13,14)        -52.4253         estimate D2E/DX2                !
 ! D33   D(12,10,13,26)        133.1397         estimate D2E/DX2                !
 ! D34   D(10,13,14,15)         43.8979         estimate D2E/DX2                !
 ! D35   D(10,13,14,23)       -120.1932         estimate D2E/DX2                !
 ! D36   D(26,13,14,15)       -141.2935         estimate D2E/DX2                !
 ! D37   D(26,13,14,23)         54.6154         estimate D2E/DX2                !
 ! D38   D(10,13,26,25)        131.3479         estimate D2E/DX2                !
 ! D39   D(10,13,26,27)        -61.7452         estimate D2E/DX2                !
 ! D40   D(14,13,26,25)        -43.486          estimate D2E/DX2                !
 ! D41   D(14,13,26,27)        123.4209         estimate D2E/DX2                !
 ! D42   D(13,14,15,16)          7.834          estimate D2E/DX2                !
 ! D43   D(13,14,15,17)       -167.8228         estimate D2E/DX2                !
 ! D44   D(23,14,15,16)        171.3308         estimate D2E/DX2                !
 ! D45   D(23,14,15,17)         -4.3259         estimate D2E/DX2                !
 ! D46   D(13,14,23,21)        166.2832         estimate D2E/DX2                !
 ! D47   D(13,14,23,24)        -10.0141         estimate D2E/DX2                !
 ! D48   D(15,14,23,21)          1.539          estimate D2E/DX2                !
 ! D49   D(15,14,23,24)       -174.7582         estimate D2E/DX2                !
 ! D50   D(14,15,17,18)       -169.7105         estimate D2E/DX2                !
 ! D51   D(14,15,17,19)          2.3628         estimate D2E/DX2                !
 ! D52   D(16,15,17,18)         14.8497         estimate D2E/DX2                !
 ! D53   D(16,15,17,19)       -173.077          estimate D2E/DX2                !
 ! D54   D(15,17,19,20)       -179.2026         estimate D2E/DX2                !
 ! D55   D(15,17,19,21)          2.2632         estimate D2E/DX2                !
 ! D56   D(18,17,19,20)         -7.2617         estimate D2E/DX2                !
 ! D57   D(18,17,19,21)        174.204          estimate D2E/DX2                !
 ! D58   D(17,19,21,22)        167.4249         estimate D2E/DX2                !
 ! D59   D(17,19,21,23)         -5.0929         estimate D2E/DX2                !
 ! D60   D(20,19,21,22)        -10.9766         estimate D2E/DX2                !
 ! D61   D(20,19,21,23)        176.5057         estimate D2E/DX2                !
 ! D62   D(19,21,23,14)          3.2959         estimate D2E/DX2                !
 ! D63   D(19,21,23,24)        179.7621         estimate D2E/DX2                !
 ! D64   D(22,21,23,14)       -170.4841         estimate D2E/DX2                !
 ! D65   D(22,21,23,24)          5.9822         estimate D2E/DX2                !
 ! D66   D(14,23,24,25)        -33.5817         estimate D2E/DX2                !
 ! D67   D(21,23,24,25)        150.0927         estimate D2E/DX2                !
 ! D68   D(23,24,25,26)         43.3713         estimate D2E/DX2                !
 ! D69   D(23,24,25,33)       -134.6992         estimate D2E/DX2                !
 ! D70   D(24,25,26,13)        -12.349          estimate D2E/DX2                !
 ! D71   D(24,25,26,27)        179.6763         estimate D2E/DX2                !
 ! D72   D(33,25,26,13)        165.6176         estimate D2E/DX2                !
 ! D73   D(33,25,26,27)         -2.357          estimate D2E/DX2                !
 ! D74   D(24,25,33,31)       -172.3471         estimate D2E/DX2                !
 ! D75   D(24,25,33,34)         -0.0386         estimate D2E/DX2                !
 ! D76   D(26,25,33,31)          9.6971         estimate D2E/DX2                !
 ! D77   D(26,25,33,34)       -177.9944         estimate D2E/DX2                !
 ! D78   D(13,26,27,28)          3.9818         estimate D2E/DX2                !
 ! D79   D(13,26,27,29)       -172.6565         estimate D2E/DX2                !
 ! D80   D(25,26,27,28)        171.3938         estimate D2E/DX2                !
 ! D81   D(25,26,27,29)         -5.2445         estimate D2E/DX2                !
 ! D82   D(26,27,29,30)        178.6139         estimate D2E/DX2                !
 ! D83   D(26,27,29,31)          5.0278         estimate D2E/DX2                !
 ! D84   D(28,27,29,30)          2.1297         estimate D2E/DX2                !
 ! D85   D(28,27,29,31)       -171.4563         estimate D2E/DX2                !
 ! D86   D(27,29,31,32)       -173.0163         estimate D2E/DX2                !
 ! D87   D(27,29,31,33)          2.7816         estimate D2E/DX2                !
 ! D88   D(30,29,31,32)         14.0541         estimate D2E/DX2                !
 ! D89   D(30,29,31,33)       -170.148          estimate D2E/DX2                !
 ! D90   D(29,31,33,25)         -9.8681         estimate D2E/DX2                !
 ! D91   D(29,31,33,34)        177.731          estimate D2E/DX2                !
 ! D92   D(32,31,33,25)        166.1288         estimate D2E/DX2                !
 ! D93   D(32,31,33,34)         -6.2721         estimate D2E/DX2                !
 --------------------------------------------------------------------------------
 Trust Radius=3.00D-01 FncErr=1.00D-07 GrdErr=1.00D-06 EigMax=2.50D+02 EigMin=1.00D-04
 Number of steps in this run=    204 maximum allowed number of steps=    210.
 GradGradGradGradGradGradGradGradGradGradGradGradGradGradGradGradGradGrad

 Leave Link  103 at Sun Jul 18 13:50:21 2021, MaxMem=   104857600 cpu:               0.1 elap:               0.0
 (Enter /dades/curu/g16A03_MST/g16/l202.exe)
                          Input orientation:                          
 ---------------------------------------------------------------------
 Center     Atomic      Atomic             Coordinates (Angstroms)
 Number     Number       Type             X           Y           Z
 ---------------------------------------------------------------------
      1          7           0       -1.779000   -1.346000   -3.426000
      2          1           0       -1.160000   -1.726000   -4.113000
      3          1           0       -2.570000   -0.937000   -3.880000
      4          6           0       -1.054000   -0.286000   -2.624000
      5          1           0       -1.712000    0.061000   -1.822000
      6          1           0       -0.913000    0.589000   -3.263000
      7          6           0        0.313000   -0.792000   -2.267000
      8          1           0        0.831000   -0.972000   -3.211000
      9          1           0        0.211000   -1.742000   -1.740000
     10          6           0        1.117000    0.249000   -1.436000
     11          1           0        0.918000    1.254000   -1.815000
     12          1           0        2.184000    0.015000   -1.394000
     13          7           0        0.683000    0.322000   -0.044000
     14          6           0        0.927000   -0.699000    0.875000
     15          6           0        2.142000   -1.348000    0.981000
     16          1           0        2.966000   -0.944000    0.399000
     17          6           0        2.274000   -2.516000    1.725000
     18         17           0        3.883000   -3.116000    2.031000
     19          6           0        1.180000   -3.112000    2.357000
     20          1           0        1.350000   -4.017000    2.935000
     21          6           0       -0.064000   -2.480000    2.148000
     22          1           0       -1.056000   -2.861000    2.377000
     23          6           0       -0.194000   -1.265000    1.443000
     24         16           0       -1.836000   -0.573000    1.244000
     25          6           0       -1.264000    1.092000    1.206000
     26          6           0       -0.113000    1.379000    0.440000
     27          6           0        0.291000    2.723000    0.442000
     28          1           0        1.251000    2.943000   -0.019000
     29          6           0       -0.456000    3.719000    1.062000
     30          1           0       -0.027000    4.716000    1.015000
     31          6           0       -1.560000    3.384000    1.776000
     32          1           0       -2.233000    4.135000    2.182000
     33          6           0       -1.929000    2.027000    1.947000
     34          1           0       -2.794000    1.764000    2.551000
     35          1           0       -2.086000   -2.075000   -2.814000
 ---------------------------------------------------------------------
                    Distance matrix (angstroms):
                    1          2          3          4          5
     1  N    0.000000
     2  H    0.999765   0.000000
     3  H    0.999539   1.632455   0.000000
     4  C    1.514077   2.074116   2.073546   0.000000
     5  H    2.134702   2.957491   2.442853   1.093882   0.000000
     6  H    2.126206   2.478454   2.335597   1.092624   1.730221
     7  C    2.454926   2.539646   3.306733   1.500724   2.241932
     8  H    2.645411   2.312185   3.466351   2.090069   3.076241
     9  H    2.638089   2.740625   3.600220   2.121701   2.637321
    10  C    3.858878   4.031338   4.579705   2.531958   2.861395
    11  H    4.077883   4.298754   4.607695   2.629613   2.887940
    12  H    4.656900   4.648266   5.448579   3.476801   3.919709
    13  N    4.503509   4.914032   5.184784   3.169106   2.994233
    14  C    5.122465   5.503675   5.907256   4.042021   3.849121
    15  C    5.898804   6.082345   6.782417   4.933385   4.969447
    16  H    6.107966   6.163890   6.996941   5.072661   5.275088
    17  C    6.657966   6.818996   7.574536   5.912891   5.925397
    18  Cl   8.060397   8.069243   9.018269   7.351999   7.499531
    19  C    6.731829   7.018368   7.595610   6.147145   5.991297
    20  H    7.575434   7.824518   8.443757   7.113512   6.973878
    21  C    5.941099   6.400770   6.708030   5.344691   4.993344
    22  H    6.040924   6.589320   6.718930   5.625000   5.157521
    23  C    5.121128   5.658163   5.838432   4.270659   3.837033
    24  S    4.733886   5.521217   5.189087   3.956680   3.133319
    25  C    5.259705   6.020274   5.629376   4.075768   3.229930
    26  C    5.014692   5.609549   5.482983   3.611897   3.067665
    27  C    5.983568   6.530469   6.345125   4.501496   4.027896
    28  H    6.259718   6.661330   6.675460   4.746103   4.509557
    29  C    6.895411   7.544817   7.111308   5.475785   4.824516
    30  H    7.716206   8.311404   7.898372   6.270331   5.705858
    31  C    7.034321   7.807203   7.188983   5.751951   4.900106
    32  H    7.854753   8.667738   7.911169   6.635730   5.735933
    33  C    6.345767   7.169377   6.568874   5.197079   4.256478
    34  H    6.813725   7.697984   6.978778   5.831871   4.816021
    35  H    1.000117   1.632997   1.632684   2.074041   2.384625
                    6          7          8          9         10
     6  H    0.000000
     7  C    2.098155   0.000000
     8  H    2.341145   1.091723   0.000000
     9  H    3.002743   1.091161   1.772326   0.000000
    10  C    2.752168   1.555846   2.173307   2.208468   0.000000
    11  H    2.427239   2.180928   2.628966   3.079203   1.092368
    12  H    3.662519   2.216759   2.471086   2.664488   1.093165
    13  N    3.602841   2.513886   3.424358   2.712802   1.459914
    14  C    4.708247   3.202781   4.096235   2.904949   2.505100
    15  C    5.576426   3.768804   4.408283   3.359738   3.072934
    16  H    5.550403   3.764182   4.194176   3.578009   2.865183
    17  C    6.684171   4.770090   5.369384   4.106248   4.356122
    18  Cl   8.047054   6.051337   6.433506   5.439844   5.567232
    19  C    7.047159   5.245519   5.975285   4.427332   5.068248
    20  H    8.046838   6.207801   6.878568   5.322459   6.112175
    21  C    6.278414   4.741698   5.638614   3.966965   4.656958
    22  H    6.613059   5.265136   6.193128   4.450521   5.378940
    23  C    5.108886   3.774239   4.774536   3.243924   3.507073
    24  S    4.745021   4.122291   5.207602   3.802766   4.071645
    25  C    4.510895   4.254188   5.306506   4.345814   3.655130
    26  C    3.869924   3.496079   4.443888   3.820735   2.511807
    27  C    4.441914   4.437836   5.223891   4.970287   3.214006
    28  H    4.554970   4.459100   5.068776   5.098300   3.046881
    29  C    5.358300   5.658862   6.474595   6.174027   4.555791
    30  H    6.009859   6.420684   7.137828   7.025129   5.222090
    31  C    5.798461   6.106796   7.040013   6.463325   5.226040
    32  H    6.630576   7.109926   8.034550   7.476252   6.278011
    33  C    5.499473   5.543566   6.573931   5.690249   4.887135
    34  H    6.222651   6.276919   7.336686   6.303550   5.786823
    35  H    2.945238   2.774977   3.143741   2.557455   4.190354
                   11         12         13         14         15
    11  H    0.000000
    12  H    1.820747   0.000000
    13  N    2.015016   2.041997   0.000000
    14  C    3.324213   2.690391   1.395184   0.000000
    15  C    4.010760   2.738642   2.442991   1.381543   0.000000
    16  H    3.731930   2.178544   2.647847   2.108109   1.086700
    17  C    5.346329   4.017738   3.703361   2.416278   1.391109
    18  Cl   6.532981   4.941699   5.134732   3.989506   2.694328
    19  C    6.044517   4.985594   4.219498   2.843044   2.435265
    20  H    7.108626   5.974347   5.305304   3.928314   3.401315
    21  C    5.532852   4.881014   3.635117   2.403034   2.740392
    22  H    6.196996   5.743641   4.360831   3.295836   3.803313
    23  C    4.265732   3.916868   2.344966   1.378267   2.382694
    24  S    4.503324   4.844088   2.967378   2.790377   4.061315
    25  C    3.730122   4.450689   2.438485   2.849162   4.195839
    26  C    2.482662   3.240411   1.408943   2.364087   3.579698
    27  C    2.764984   3.779895   2.480859   3.507431   4.504416
    28  H    2.487816   3.366645   2.681956   3.764090   4.495171
    29  C    4.030041   5.169251   3.749689   4.633183   5.694792
    30  H    4.570270   5.726360   4.575240   5.500176   6.440327
    31  C    4.855169   5.951185   4.209429   4.864962   6.060417
    32  H    5.848502   7.019406   5.291229   5.921267   7.116622
    33  C    4.780751   5.668086   3.700493   4.091087   5.375576
    34  H    5.753347   6.588058   4.571971   4.766675   6.042643
    35  H    4.593937   4.961592   4.591935   4.957849   5.727699
                   16         17         18         19         20
    16  H    0.000000
    17  C    2.169867   0.000000
    18  Cl   2.867385   1.744281   0.000000
    19  C    3.424001   1.396952   2.722591   0.000000
    20  H    4.299544   2.137961   2.836390   1.087202   0.000000
    21  C    3.820890   2.376230   3.999624   1.410901   2.231845
    22  H    4.874819   3.410723   4.957667   2.250133   2.727001
    23  C    3.343438   2.781285   4.515958   2.476829   3.490488
    24  S    4.889874   4.571511   6.308183   4.096529   4.987105
    25  C    4.763344   5.079810   6.699216   4.997154   5.993690
    26  C    3.857234   4.745526   6.221280   5.051319   6.122272
    27  C    4.539203   5.746782   7.037138   6.205221   7.263892
    28  H    4.269042   5.821404   6.916748   6.504878   7.561582
    29  C    5.821789   6.838691   8.153717   7.142554   8.161830
    30  H    6.432193   7.622370   8.812524   8.033393   9.046978
    31  C    6.411894   7.036488   8.481820   7.074120   8.036553
    32  H    7.483644   8.047217   9.487110   8.012378   8.936442
    33  C    5.931625   6.193008   7.761240   6.020241   6.946792
    34  H    6.718777   6.684706   8.286563   6.293305   7.123212
    35  H    6.093048   6.309247   7.758007   6.203335   6.973411
                   21         22         23         24         25
    21  C    0.000000
    22  H    1.087045   0.000000
    23  C    1.410727   2.040249   0.000000
    24  S    2.755694   2.669650   1.792939   0.000000
    25  C    3.884141   4.128040   2.599330   1.760924   0.000000
    26  C    4.220373   4.755925   2.829011   2.724968   1.412064
    27  C    5.487046   6.061327   4.140214   4.003867   2.379471
    28  H    5.986154   6.689505   4.683240   4.846338   3.354408
    29  C    6.305606   6.736885   5.005403   4.512071   2.752223
    30  H    7.284743   7.766905   5.998619   5.594501   3.834061
    31  C    6.063241   6.294064   4.856959   4.002131   2.380290
    32  H    6.961605   7.096997   5.819248   4.816920   3.339369
    33  C    4.881770   4.983931   3.755197   2.694969   1.365844
    34  H    5.062296   4.943839   4.142765   2.843867   2.145113
    35  H    5.373449   5.350250   4.728405   4.334267   5.183240
                   26         27         28         29         30
    26  C    0.000000
    27  C    1.403409   0.000000
    28  H    2.125388   1.087438   0.000000
    29  C    2.445431   1.390836   2.164390   0.000000
    30  H    3.387269   2.097976   2.417844   1.086397   0.000000
    31  C    2.810468   2.375432   3.364257   1.356774   2.168740
    32  H    3.889023   3.375192   4.289933   2.141305   2.562398
    33  C    2.447204   2.770892   3.849235   2.411601   3.423003
    34  H    3.433993   3.858081   4.935278   3.391960   4.327804
    35  H    5.139198   6.266775   6.642885   7.158960   8.063399
                   31         32         33         34         35
    31  C    0.000000
    32  H    1.087091   0.000000
    33  C    1.416634   2.142733   0.000000
    34  H    2.178940   2.464249   1.087295   0.000000
    35  H    7.151605   7.971557   6.286348   6.634939   0.000000
 Stoichiometry    C15H16ClN2S(1+)
 Framework group  C1[X(C15H16ClN2S)]
 Deg. of freedom    99
 Full point group                 C1      NOp   1
 Largest Abelian subgroup         C1      NOp   1
 Largest concise Abelian subgroup C1      NOp   1
                         Standard orientation:                         
 ---------------------------------------------------------------------
 Center     Atomic      Atomic             Coordinates (Angstroms)
 Number     Number       Type             X           Y           Z
 ---------------------------------------------------------------------
      1          7           0        1.605319    4.158210    0.756924
      2          1           0        1.127719    4.876344    0.251245
      3          1           0        2.522174    4.474369    0.998789
      4          6           0        1.710649    2.917999   -0.105173
      5          1           0        2.157116    2.113814    0.486884
      6          1           0        2.437371    3.113317   -0.897355
      7          6           0        0.389635    2.673117   -0.773851
      8          1           0        0.191510    3.549166   -1.394450
      9          1           0       -0.385859    2.606473   -0.009129
     10          6           0        0.423845    1.406904   -1.677286
     11          1           0        1.387202    1.346693   -2.188739
     12          1           0       -0.424963    1.361723   -2.364668
     13          7           0        0.369206    0.163256   -0.914591
     14          6           0       -0.780981   -0.261478   -0.248852
     15          6           0       -2.043495   -0.204844   -0.806985
     16          1           0       -2.103526    0.069208   -1.856845
     17          6           0       -3.183773   -0.398909   -0.034139
     18         17           0       -4.710791   -0.582251   -0.857011
     19          6           0       -3.109423   -0.610786    1.344649
     20          1           0       -4.035630   -0.769228    1.891498
     21          6           0       -1.813212   -0.564485    1.899928
     22          1           0       -1.535363   -0.513088    2.949606
     23          6           0       -0.650384   -0.425533    1.113371
     24         16           0        0.935471   -0.374085    1.948264
     25          6           0        1.808044   -1.095226    0.599403
     26          6           0        1.508321   -0.638385   -0.702668
     27          6           0        2.239802   -1.244267   -1.735817
     28          1           0        1.927194   -1.015602   -2.751942
     29          6           0        3.266632   -2.147854   -1.483677
     30          1           0        3.741744   -2.566349   -2.366508
     31          6           0        3.516027   -2.542278   -0.209680
     32          1           0        4.375520   -3.157266    0.044930
     33          6           0        2.706077   -2.090488    0.861169
     34          1           0        2.888963   -2.439519    1.874549
     35          1           0        1.096478    3.942384    1.590432
 ---------------------------------------------------------------------
 Rotational constants (GHZ):           0.4022815           0.2266935           0.1921868
 Leave Link  202 at Sun Jul 18 13:50:21 2021, MaxMem=   104857600 cpu:               0.0 elap:               0.0
 (Enter /dades/curu/g16A03_MST/g16/l301.exe)
 Standard basis: 6-31G(d) (6D, 7F)
 Ernie: Thresh=  0.10000D-02 Tol=  0.10000D-05 Strict=F.
 There are   325 symmetry adapted cartesian basis functions of A   symmetry.
 There are   325 symmetry adapted basis functions of A   symmetry.
   325 basis functions,   644 primitive gaussians,   325 cartesian basis functions
    76 alpha electrons       76 beta electrons
       nuclear repulsion energy      1676.4646492659 Hartrees.
 IExCor=  402 DFT=T Ex+Corr=B3LYP ExCW=0 ScaHFX=  0.200000
 ScaDFX=  0.800000  0.720000  1.000000  0.810000 ScalE2=  1.000000  1.000000
 IRadAn=      5 IRanWt=     -1 IRanGd=            0 ICorTp=0 IEmpDi=  4
 NAtoms=   35 NActive=   35 NUniq=   35 SFac= 1.00D+00 NAtFMM=   60 NAOKFM=F Big=F
 Integral buffers will be    131072 words long.
 Raffenetti 2 integral format.
 Two-electron integral symmetry is turned on.
 Using the following non-standard input for PCM:
 MSTModel=DFT cav MSTCharged
 --- end of non-standard input.
 MST model for solvation energy: B3LYP parametrization.
 MST cavity parameters:
 ISph   IAn     Re0     Alpha   Atom Type   QCorr
 ------------------------------------------------
   1      7     1.50     1.15      NH+        T
   2      1     0.90     1.15      NH+        T
   3      1     0.90     1.15      NH+        T
   4      6     1.50     1.50      CN+        F
   5      1     1.20     1.50      CN+        F
   6      1     1.20     1.50      CN+        F
   7      6     1.50     1.50      CH2        F
   8      1     1.20     1.50      CH2        F
   9      1     1.20     1.50      CH2        F
  10      6     1.50     1.50      CH2        F
  11      1     1.20     1.50      CH2        F
  12      1     1.20     1.50      CH2        F
  13      7     1.50     1.50      Nc         F
  14      6     1.50     1.50      C          F
  15      6     1.50     1.50      CH         F
  16      1     1.20     1.50      CH         F
  17      6     1.50     1.50      C          F
  18     17     1.80     1.50      Cl         F
  19      6     1.50     1.50      CH         F
  20      1     1.20     1.50      CH         F
  21      6     1.50     1.50      CH         F
  22      1     1.20     1.50      CH         F
  23      6     1.50     1.50      C          F
  24     16     1.75     1.50      S          F
  25      6     1.50     1.50      C          F
  26      6     1.50     1.50      C          F
  27      6     1.50     1.50      CH         F
  28      1     1.20     1.50      CH         F
  29      6     1.50     1.50      CH         F
  30      1     1.20     1.50      CH         F
  31      6     1.50     1.50      CH         F
  32      1     1.20     1.50      CH         F
  33      6     1.50     1.50      CH         F
  34      1     1.20     1.50      CH         F
  35      1     0.90     1.15      NH+        T
 ------------------------------------------------------------------------------
 Polarizable Continuum Model (PCM)
 =================================
 Model                : PCM.
 Atomic radii         : MST.
 Polarization charges : Total charges.
 Charge compensation  : None.
 Solution method      : On-the-fly selection.
 Cavity type          : Scaled VdW (van der Waals Surface) (Alpha=1.500).
 Cavity algorithm     : GePol (No added spheres)
                        Default sphere list used, NSphG=   35.
                        Lebedev-Laikov grids with approx.  5.0 points / Ang**2.
                        Smoothing algorithm: York/Karplus (Gamma=1.0000).
                        Polarization charges: spherical gaussians, with
                                              point-specific exponents (IZeta= 3).
                        Self-potential: point-specific (ISelfS= 7).
                        Self-field    : sphere-specific E.n sum rule (ISelfD= 2).
 1st derivatives      : Analytical E(r).r(x)/FMM algorithm (CHGder, D1EAlg=3).
                        Cavity 1st derivative terms included.
 Solvent              : n-Octanol, Eps=   9.862900 Eps(inf)=   2.043470
 ------------------------------------------------------------------------------
 GePol: Number of generator spheres                  =      35
 GePol: Total number of spheres                      =      35
 GePol: Number of exposed spheres                    =      35 (100.00%)
 GePol: Number of points                             =    3292
 GePol: Average weight of points                     =       0.11
 GePol: Minimum weight of points                     =   0.24D-11
 GePol: Maximum weight of points                     =    0.22065
 GePol: Number of points with low weight             =     180
 GePol: Fraction of low-weight points (<1% of avg)   =       5.47%
 GePol: Cavity surface area                          =    369.975 Ang**2
 GePol: Cavity volume                                =    451.372 Ang**3
 Surface areas from nonelectrostatic (unscaled) cavity and vdw tensions:
 Sphere =    1 Type =  NH+ Surf =       12.622 Tension =       -0.274
 Sphere =    2 Type =  NH+ Surf =        3.849 Tension =       -0.274
 Sphere =    3 Type =  NH+ Surf =        3.856 Tension =       -0.274
 Sphere =    4 Type =  CN+ Surf =        3.901 Tension =       -0.227
 Sphere =    5 Type =  CN+ Surf =       10.103 Tension =       -0.227
 Sphere =    6 Type =  CN+ Surf =        9.868 Tension =       -0.227
 Sphere =    7 Type =  CH2 Surf =        3.722 Tension =       -0.194
 Sphere =    8 Type =  CH2 Surf =        9.924 Tension =       -0.194
 Sphere =    9 Type =  CH2 Surf =       10.016 Tension =       -0.194
 Sphere =   10 Type =  CH2 Surf =        3.938 Tension =       -0.194
 Sphere =   11 Type =  CH2 Surf =        9.479 Tension =       -0.194
 Sphere =   12 Type =  CH2 Surf =        9.144 Tension =       -0.194
 Sphere =   13 Type =  Nc  Surf =        5.155 Tension =       -0.161
 Sphere =   14 Type =  C   Surf =        5.660 Tension =       -0.205
 Sphere =   15 Type =  CH  Surf =        7.279 Tension =       -0.195
 Sphere =   16 Type =  CH  Surf =        9.299 Tension =       -0.195
 Sphere =   17 Type =  C   Surf =        5.320 Tension =       -0.205
 Sphere =   18 Type =  Cl  Surf =       32.366 Tension =       -0.163
 Sphere =   19 Type =  CH  Surf =        7.824 Tension =       -0.195
 Sphere =   20 Type =  CH  Surf =       10.090 Tension =       -0.195
 Sphere =   21 Type =  CH  Surf =        7.810 Tension =       -0.195
 Sphere =   22 Type =  CH  Surf =        9.631 Tension =       -0.195
 Sphere =   23 Type =  C   Surf =        5.554 Tension =       -0.205
 Sphere =   24 Type =  S   Surf =       23.168 Tension =       -0.186
 Sphere =   25 Type =  C   Surf =        5.399 Tension =       -0.205
 Sphere =   26 Type =  C   Surf =        5.691 Tension =       -0.205
 Sphere =   27 Type =  CH  Surf =        7.640 Tension =       -0.195
 Sphere =   28 Type =  CH  Surf =       10.204 Tension =       -0.195
 Sphere =   29 Type =  CH  Surf =        7.698 Tension =       -0.195
 Sphere =   30 Type =  CH  Surf =       10.209 Tension =       -0.195
 Sphere =   31 Type =  CH  Surf =        7.726 Tension =       -0.195
 Sphere =   32 Type =  CH  Surf =       10.229 Tension =       -0.195
 Sphere =   33 Type =  CH  Surf =        7.605 Tension =       -0.195
 Sphere =   34 Type =  CH  Surf =       10.164 Tension =       -0.195
 Sphere =   35 Type =  NH+ Surf =        3.860 Tension =       -0.274
 PCM non-electrostatic energy =        -0.0195517073 Hartrees.
 Nuclear repulsion after PCM non-electrostatic terms =     1676.4450975586 Hartrees.
 Leave Link  301 at Sun Jul 18 13:50:21 2021, MaxMem=   104857600 cpu:               0.1 elap:               0.1
 (Enter /dades/curu/g16A03_MST/g16/l302.exe)
 NPDir=0 NMtPBC=     1 NCelOv=     1 NCel=       1 NClECP=     1 NCelD=      1
         NCelK=      1 NCelE2=     1 NClLst=     1 CellRange=     0.0.
 One-electron integrals computed using PRISM.
 One-electron integral symmetry used in STVInt
 NBasis=   325 RedAO= T EigKep=  4.53D-04  NBF=   325
 NBsUse=   325 1.00D-06 EigRej= -1.00D+00 NBFU=   325
 Precomputing XC quadrature grid using
 IXCGrd= 4 IRadAn=           5 IRanWt=          -1 IRanGd=           0 AccXCQ= 0.00D+00.
 Generated NRdTot=       0 NPtTot=           0 NUsed=           0 NTot=          32
 NSgBfM=   323   323   323   323   323 MxSgAt=    35 MxSgA2=    35.
 Leave Link  302 at Sun Jul 18 13:50:23 2021, MaxMem=   104857600 cpu:               4.8 elap:               1.4
 (Enter /dades/curu/g16A03_MST/g16/l303.exe)
 DipDrv:  MaxL=1.
 Leave Link  303 at Sun Jul 18 13:50:23 2021, MaxMem=   104857600 cpu:               0.1 elap:               0.1
 (Enter /dades/curu/g16A03_MST/g16/l401.exe)
 ExpMin= 1.17D-01 ExpMax= 2.52D+04 ExpMxC= 3.78D+03 IAcc=3 IRadAn=         5 AccDes= 0.00D+00
 Harris functional with IExCor=  402 and IRadAn=       5 diagonalized for initial guess.
 HarFok:  IExCor=  402 AccDes= 0.00D+00 IRadAn=         5 IDoV= 1 UseB2=F ITyADJ=14
 ICtDFT=  3500011 ScaDFX=  1.000000  1.000000  1.000000  1.000000
 FoFCou: FMM=F IPFlag=           0 FMFlag=      100000 FMFlg1=           0
         NFxFlg=           0 DoJE=T BraDBF=F KetDBF=T FulRan=T
         wScrn=  0.000000 ICntrl=       500 IOpCl=  0 I1Cent=   200000004 NGrid=           0
         NMat0=    1 NMatS0=      1 NMatT0=    0 NMatD0=    1 NMtDS0=    0 NMtDT0=    0
 Petite list used in FoFCou.
 Harris En= -1548.77368765476    
 JPrj=0 DoOrth=F DoCkMO=F.
 Leave Link  401 at Sun Jul 18 13:50:33 2021, MaxMem=   104857600 cpu:              36.2 elap:               9.5
 (Enter /dades/curu/g16A03_MST/g16/l502.exe)
 Integral symmetry usage will be decided dynamically.
 Closed shell SCF:
 Using DIIS extrapolation, IDIIS=  1040.
 NGot=   104857600 LenX=   104640758 LenY=   104534692
 Requested convergence on RMS density matrix=1.00D-08 within 128 cycles.
 Requested convergence on MAX density matrix=1.00D-06.
 Requested convergence on             energy=1.00D-06.
 No special actions if energy rises.
 Fock matrices will be formed incrementally for  20 cycles.

 Cycle   1  Pass 1  IDiag  1:
 FoFJK:  IHMeth= 1 ICntrl=       0 DoSepK=F KAlg= 0 I1Cent=           0 FoldK=F
 IRaf= 830000000 NMat=       1 IRICut=       1 DoRegI=T DoRafI=F ISym2E= 0 IDoP0=0 IntGTp=1.
 FoFCou: FMM=F IPFlag=           0 FMFlag=      100000 FMFlg1=           0
         NFxFlg=           0 DoJE=F BraDBF=F KetDBF=F FulRan=T
         wScrn=  0.000000 ICntrl=         0 IOpCl=  0 I1Cent=           0 NGrid=           0
         NMat0=    1 NMatS0=      1 NMatT0=    0 NMatD0=    1 NMtDS0=    0 NMtDT0=    0
 Symmetry not used in FoFCou.
 Inv3:  Mode=1 IEnd=    32511792.
 Iteration    1 A*A^-1 deviation from unit magnitude is 6.66D-15 for   1628.
 Iteration    1 A*A^-1 deviation from orthogonality  is 2.36D-15 for   2112    268.
 Iteration    1 A^-1*A deviation from unit magnitude is 6.44D-15 for   1628.
 Iteration    1 A^-1*A deviation from orthogonality  is 2.88D-15 for   2161    593.
 E= -1548.55048388204    
 DIIS: error= 2.70D-02 at cycle   1 NSaved=   1.
 NSaved= 1 IEnMin= 1 EnMin= -1548.55048388204     IErMin= 1 ErrMin= 2.70D-02
 ErrMax= 2.70D-02  0.00D+00 EMaxC= 1.00D-01 BMatC= 3.96D-01 BMatP= 3.96D-01
 IDIUse=3 WtCom= 7.30D-01 WtEn= 2.70D-01
 Coeff-Com:  0.100D+01
 Coeff-En:   0.100D+01
 Coeff:      0.100D+01
 Gap=     0.309 Goal=   None    Shift=    0.000
 GapD=    0.309 DampG=1.000 DampE=0.500 DampFc=0.5000 IDamp=-1.
 Damping current iteration by 5.00D-01
 RMSDP=4.82D-03 MaxDP=1.70D-01              OVMax= 2.03D-01

 Cycle   2  Pass 1  IDiag  1:
 RMSU=  2.38D-03    CP:  9.83D-01
 E= -1548.72721972778     Delta-E=       -0.176735845737 Rises=F Damp=T
 DIIS: error= 8.62D-03 at cycle   2 NSaved=   2.
 NSaved= 2 IEnMin= 2 EnMin= -1548.72721972778     IErMin= 2 ErrMin= 8.62D-03
 ErrMax= 8.62D-03  0.00D+00 EMaxC= 1.00D-01 BMatC= 2.89D-02 BMatP= 3.96D-01
 IDIUse=3 WtCom= 9.14D-01 WtEn= 8.62D-02
 Coeff-Com:  0.695D-01 0.931D+00
 Coeff-En:   0.149D+00 0.851D+00
 Coeff:      0.764D-01 0.924D+00
 Gap=     0.226 Goal=   None    Shift=    0.000
 RMSDP=1.31D-03 MaxDP=7.42D-02 DE=-1.77D-01 OVMax= 1.38D-01

 Cycle   3  Pass 1  IDiag  1:
 RMSU=  1.23D-03    CP:  9.76D-01  8.30D-01
 E= -1548.95046903801     Delta-E=       -0.223249310234 Rises=F Damp=F
 DIIS: error= 4.57D-03 at cycle   3 NSaved=   3.
 NSaved= 3 IEnMin= 3 EnMin= -1548.95046903801     IErMin= 3 ErrMin= 4.57D-03
 ErrMax= 4.57D-03  0.00D+00 EMaxC= 1.00D-01 BMatC= 1.38D-02 BMatP= 2.89D-02
 IDIUse=3 WtCom= 9.54D-01 WtEn= 4.57D-02
 Coeff-Com: -0.218D-01 0.387D+00 0.635D+00
 Coeff-En:   0.000D+00 0.000D+00 0.100D+01
 Coeff:     -0.208D-01 0.370D+00 0.651D+00
 Gap=     0.189 Goal=   None    Shift=    0.000
 RMSDP=7.74D-04 MaxDP=3.34D-02 DE=-2.23D-01 OVMax= 6.81D-02

 Cycle   4  Pass 1  IDiag  1:
 RMSU=  6.54D-04    CP:  9.78D-01  9.04D-01  6.96D-01
 E= -1548.95595977747     Delta-E=       -0.005490739453 Rises=F Damp=F
 DIIS: error= 3.95D-03 at cycle   4 NSaved=   4.
 NSaved= 4 IEnMin= 4 EnMin= -1548.95595977747     IErMin= 4 ErrMin= 3.95D-03
 ErrMax= 3.95D-03  0.00D+00 EMaxC= 1.00D-01 BMatC= 8.77D-03 BMatP= 1.38D-02
 IDIUse=3 WtCom= 9.61D-01 WtEn= 3.95D-02
 Coeff-Com: -0.225D-01 0.114D+00 0.455D+00 0.453D+00
 Coeff-En:   0.000D+00 0.000D+00 0.406D+00 0.594D+00
 Coeff:     -0.216D-01 0.110D+00 0.454D+00 0.458D+00
 Gap=     0.180 Goal=   None    Shift=    0.000
 RMSDP=4.26D-04 MaxDP=1.23D-02 DE=-5.49D-03 OVMax= 3.51D-02

 Cycle   5  Pass 1  IDiag  1:
 RMSU=  1.88D-04    CP:  9.77D-01  9.08D-01  7.83D-01  4.40D-01
 E= -1548.96505790423     Delta-E=       -0.009098126764 Rises=F Damp=F
 DIIS: error= 6.51D-04 at cycle   5 NSaved=   5.
 NSaved= 5 IEnMin= 5 EnMin= -1548.96505790423     IErMin= 5 ErrMin= 6.51D-04
 ErrMax= 6.51D-04  0.00D+00 EMaxC= 1.00D-01 BMatC= 3.79D-04 BMatP= 8.77D-03
 IDIUse=3 WtCom= 9.93D-01 WtEn= 6.51D-03
 Coeff-Com: -0.888D-02 0.266D-01 0.188D+00 0.247D+00 0.547D+00
 Coeff-En:   0.000D+00 0.000D+00 0.000D+00 0.000D+00 0.100D+01
 Coeff:     -0.882D-02 0.264D-01 0.187D+00 0.245D+00 0.550D+00
 Gap=     0.178 Goal=   None    Shift=    0.000
 RMSDP=9.81D-05 MaxDP=6.44D-03 DE=-9.10D-03 OVMax= 5.77D-03

 Cycle   6  Pass 1  IDiag  1:
 RMSU=  5.13D-05    CP:  9.77D-01  9.00D-01  8.03D-01  4.96D-01  6.36D-01
 E= -1548.96542882544     Delta-E=       -0.000370921207 Rises=F Damp=F
 DIIS: error= 2.53D-04 at cycle   6 NSaved=   6.
 NSaved= 6 IEnMin= 6 EnMin= -1548.96542882544     IErMin= 6 ErrMin= 2.53D-04
 ErrMax= 2.53D-04  0.00D+00 EMaxC= 1.00D-01 BMatC= 4.14D-05 BMatP= 3.79D-04
 IDIUse=3 WtCom= 9.97D-01 WtEn= 2.53D-03
 Coeff-Com: -0.288D-02 0.463D-02 0.657D-01 0.973D-01 0.310D+00 0.525D+00
 Coeff-En:   0.000D+00 0.000D+00 0.000D+00 0.000D+00 0.282D-01 0.972D+00
 Coeff:     -0.287D-02 0.461D-02 0.655D-01 0.971D-01 0.309D+00 0.526D+00
 Gap=     0.178 Goal=   None    Shift=    0.000
 RMSDP=2.68D-05 MaxDP=1.15D-03 DE=-3.71D-04 OVMax= 1.81D-03

 Cycle   7  Pass 1  IDiag  1:
 RMSU=  1.65D-05    CP:  9.77D-01  9.00D-01  8.04D-01  4.98D-01  6.76D-01
                    CP:  6.16D-01
 E= -1548.96546728329     Delta-E=       -0.000038457851 Rises=F Damp=F
 DIIS: error= 7.35D-05 at cycle   7 NSaved=   7.
 NSaved= 7 IEnMin= 7 EnMin= -1548.96546728329     IErMin= 7 ErrMin= 7.35D-05
 ErrMax= 7.35D-05  0.00D+00 EMaxC= 1.00D-01 BMatC= 3.68D-06 BMatP= 4.14D-05
 IDIUse=1 WtCom= 1.00D+00 WtEn= 0.00D+00
 Coeff-Com: -0.912D-03 0.404D-03 0.225D-01 0.348D-01 0.128D+00 0.299D+00
 Coeff-Com:  0.516D+00
 Coeff:     -0.912D-03 0.404D-03 0.225D-01 0.348D-01 0.128D+00 0.299D+00
 Coeff:      0.516D+00
 Gap=     0.178 Goal=   None    Shift=    0.000
 RMSDP=8.81D-06 MaxDP=5.15D-04 DE=-3.85D-05 OVMax= 7.53D-04

 Cycle   8  Pass 1  IDiag  1:
 RMSU=  4.91D-06    CP:  9.77D-01  9.01D-01  8.04D-01  5.00D-01  6.81D-01
                    CP:  6.79D-01  6.17D-01
 E= -1548.96547111308     Delta-E=       -0.000003829795 Rises=F Damp=F
 DIIS: error= 1.86D-05 at cycle   8 NSaved=   8.
 NSaved= 8 IEnMin= 8 EnMin= -1548.96547111308     IErMin= 8 ErrMin= 1.86D-05
 ErrMax= 1.86D-05  0.00D+00 EMaxC= 1.00D-01 BMatC= 2.95D-07 BMatP= 3.68D-06
 IDIUse=1 WtCom= 1.00D+00 WtEn= 0.00D+00
 Coeff-Com: -0.214D-04-0.509D-03 0.234D-02 0.331D-02 0.208D-01 0.769D-01
 Coeff-Com:  0.257D+00 0.640D+00
 Coeff:     -0.214D-04-0.509D-03 0.234D-02 0.331D-02 0.208D-01 0.769D-01
 Coeff:      0.257D+00 0.640D+00
 Gap=     0.178 Goal=   None    Shift=    0.000
 RMSDP=2.54D-06 MaxDP=9.72D-05 DE=-3.83D-06 OVMax= 1.69D-04

 Cycle   9  Pass 1  IDiag  1:
 RMSU=  1.93D-06    CP:  9.77D-01  9.00D-01  8.04D-01  5.00D-01  6.84D-01
                    CP:  6.81D-01  6.78D-01  7.80D-01
 E= -1548.96547140427     Delta-E=       -0.000000291188 Rises=F Damp=F
 DIIS: error= 5.20D-06 at cycle   9 NSaved=   9.
 NSaved= 9 IEnMin= 9 EnMin= -1548.96547140427     IErMin= 9 ErrMin= 5.20D-06
 ErrMax= 5.20D-06  0.00D+00 EMaxC= 1.00D-01 BMatC= 3.33D-08 BMatP= 2.95D-07
 IDIUse=1 WtCom= 1.00D+00 WtEn= 0.00D+00
 Coeff-Com:  0.106D-03-0.325D-03-0.123D-02-0.245D-02-0.376D-02 0.517D-02
 Coeff-Com:  0.706D-01 0.315D+00 0.617D+00
 Coeff:      0.106D-03-0.325D-03-0.123D-02-0.245D-02-0.376D-02 0.517D-02
 Coeff:      0.706D-01 0.315D+00 0.617D+00
 Gap=     0.178 Goal=   None    Shift=    0.000
 RMSDP=8.64D-07 MaxDP=5.79D-05 DE=-2.91D-07 OVMax= 6.16D-05

 Cycle  10  Pass 1  IDiag  1:
 RMSU=  5.11D-07    CP:  9.77D-01  9.00D-01  8.04D-01  5.00D-01  6.84D-01
                    CP:  6.87D-01  6.92D-01  8.41D-01  7.93D-01
 E= -1548.96547143957     Delta-E=       -0.000000035299 Rises=F Damp=F
 DIIS: error= 1.87D-06 at cycle  10 NSaved=  10.
 NSaved=10 IEnMin=10 EnMin= -1548.96547143957     IErMin=10 ErrMin= 1.87D-06
 ErrMax= 1.87D-06  0.00D+00 EMaxC= 1.00D-01 BMatC= 2.83D-09 BMatP= 3.33D-08
 IDIUse=1 WtCom= 1.00D+00 WtEn= 0.00D+00
 Coeff-Com:  0.576D-04-0.131D-03-0.778D-03-0.154D-02-0.331D-02-0.282D-02
 Coeff-Com:  0.173D-01 0.114D+00 0.308D+00 0.569D+00
 Coeff:      0.576D-04-0.131D-03-0.778D-03-0.154D-02-0.331D-02-0.282D-02
 Coeff:      0.173D-01 0.114D+00 0.308D+00 0.569D+00
 Gap=     0.178 Goal=   None    Shift=    0.000
 RMSDP=2.46D-07 MaxDP=1.05D-05 DE=-3.53D-08 OVMax= 2.05D-05

 Cycle  11  Pass 1  IDiag  1:
 RMSU=  1.76D-07    CP:  9.77D-01  9.00D-01  8.04D-01  5.00D-01  6.84D-01
                    CP:  6.87D-01  6.95D-01  8.52D-01  8.29D-01  7.33D-01
 E= -1548.96547144223     Delta-E=       -0.000000002657 Rises=F Damp=F
 DIIS: error= 1.27D-06 at cycle  11 NSaved=  11.
 NSaved=11 IEnMin=11 EnMin= -1548.96547144223     IErMin=11 ErrMin= 1.27D-06
 ErrMax= 1.27D-06  0.00D+00 EMaxC= 1.00D-01 BMatC= 4.23D-10 BMatP= 2.83D-09
 IDIUse=1 WtCom= 1.00D+00 WtEn= 0.00D+00
 Coeff-Com:  0.151D-04-0.207D-04-0.213D-03-0.466D-03-0.111D-02-0.222D-02
 Coeff-Com: -0.138D-02 0.141D-01 0.742D-01 0.312D+00 0.605D+00
 Coeff:      0.151D-04-0.207D-04-0.213D-03-0.466D-03-0.111D-02-0.222D-02
 Coeff:     -0.138D-02 0.141D-01 0.742D-01 0.312D+00 0.605D+00
 Gap=     0.178 Goal=   None    Shift=    0.000
 RMSDP=9.34D-08 MaxDP=4.26D-06 DE=-2.66D-09 OVMax= 8.75D-06

 Cycle  12  Pass 1  IDiag  1:
 RMSU=  5.68D-08    CP:  9.77D-01  9.00D-01  8.04D-01  5.00D-01  6.84D-01
                    CP:  6.87D-01  6.95D-01  8.58D-01  8.38D-01  8.06D-01
                    CP:  7.33D-01
 E= -1548.96547144278     Delta-E=       -0.000000000555 Rises=F Damp=F
 DIIS: error= 1.65D-07 at cycle  12 NSaved=  12.
 NSaved=12 IEnMin=12 EnMin= -1548.96547144278     IErMin=12 ErrMin= 1.65D-07
 ErrMax= 1.65D-07  0.00D+00 EMaxC= 1.00D-01 BMatC= 3.20D-11 BMatP= 4.23D-10
 IDIUse=1 WtCom= 1.00D+00 WtEn= 0.00D+00
 Coeff-Com:  0.108D-05 0.415D-05-0.126D-04-0.507D-04-0.129D-03-0.716D-03
 Coeff-Com: -0.262D-02-0.618D-02 0.984D-03 0.842D-01 0.281D+00 0.644D+00
 Coeff:      0.108D-05 0.415D-05-0.126D-04-0.507D-04-0.129D-03-0.716D-03
 Coeff:     -0.262D-02-0.618D-02 0.984D-03 0.842D-01 0.281D+00 0.644D+00
 Gap=     0.178 Goal=   None    Shift=    0.000
 RMSDP=3.22D-08 MaxDP=1.56D-06 DE=-5.55D-10 OVMax= 2.69D-06

 Cycle  13  Pass 1  IDiag  1:
 RMSU=  1.78D-08    CP:  9.77D-01  9.00D-01  8.04D-01  5.00D-01  6.84D-01
                    CP:  6.87D-01  6.95D-01  8.58D-01  8.45D-01  8.23D-01
                    CP:  8.06D-01  7.65D-01
 E= -1548.96547144273     Delta-E=        0.000000000053 Rises=F Damp=F
 DIIS: error= 6.30D-08 at cycle  13 NSaved=  13.
 NSaved=13 IEnMin=12 EnMin= -1548.96547144278     IErMin=13 ErrMin= 6.30D-08
 ErrMax= 6.30D-08  0.00D+00 EMaxC= 1.00D-01 BMatC= 3.41D-12 BMatP= 3.20D-11
 IDIUse=1 WtCom= 1.00D+00 WtEn= 0.00D+00
 Coeff-Com: -0.921D-06 0.378D-05 0.144D-04 0.230D-04 0.499D-04-0.122D-03
 Coeff-Com: -0.113D-02-0.451D-02-0.761D-02 0.538D-02 0.630D-01 0.297D+00
 Coeff-Com:  0.648D+00
 Coeff:     -0.921D-06 0.378D-05 0.144D-04 0.230D-04 0.499D-04-0.122D-03
 Coeff:     -0.113D-02-0.451D-02-0.761D-02 0.538D-02 0.630D-01 0.297D+00
 Coeff:      0.648D+00
 Gap=     0.178 Goal=   None    Shift=    0.000
 RMSDP=9.40D-09 MaxDP=3.46D-07 DE= 5.30D-11 OVMax= 9.24D-07

 Error on total polarization charges =  0.00834
 SCF Done:  E(RB3LYP) =  -1548.96547144     A.U. after   13 cycles
            NFock= 13  Conv=0.94D-08     -V/T= 2.0059
 KE= 1.539902177511D+03 PE=-6.974237630744D+03 EE= 2.208924884232D+03
 Leave Link  502 at Sun Jul 18 13:55:20 2021, MaxMem=   104857600 cpu:            1107.6 elap:             287.0
 (Enter /dades/curu/g16A03_MST/g16/l601.exe)
 Copying SCF densities to generalized density rwf, IOpCl= 0 IROHF=0.

 **********************************************************************

            Population analysis using the SCF density.

 **********************************************************************

 Orbital symmetries:
       Occupied  (A) (A) (A) (A) (A) (A) (A) (A) (A) (A) (A) (A)
                 (A) (A) (A) (A) (A) (A) (A) (A) (A) (A) (A) (A)
                 (A) (A) (A) (A) (A) (A) (A) (A) (A) (A) (A) (A)
                 (A) (A) (A) (A) (A) (A) (A) (A) (A) (A) (A) (A)
                 (A) (A) (A) (A) (A) (A) (A) (A) (A) (A) (A) (A)
                 (A) (A) (A) (A) (A) (A) (A) (A) (A) (A) (A) (A)
                 (A) (A) (A) (A)
       Virtual   (A) (A) (A) (A) (A) (A) (A) (A) (A) (A) (A) (A)
                 (A) (A) (A) (A) (A) (A) (A) (A) (A) (A) (A) (A)
                 (A) (A) (A) (A) (A) (A) (A) (A) (A) (A) (A) (A)
                 (A) (A) (A) (A) (A) (A) (A) (A) (A) (A) (A) (A)
                 (A) (A) (A) (A) (A) (A) (A) (A) (A) (A) (A) (A)
                 (A) (A) (A) (A) (A) (A) (A) (A) (A) (A) (A) (A)
                 (A) (A) (A) (A) (A) (A) (A) (A) (A) (A) (A) (A)
                 (A) (A) (A) (A) (A) (A) (A) (A) (A) (A) (A) (A)
                 (A) (A) (A) (A) (A) (A) (A) (A) (A) (A) (A) (A)
                 (A) (A) (A) (A) (A) (A) (A) (A) (A) (A) (A) (A)
                 (A) (A) (A) (A) (A) (A) (A) (A) (A) (A) (A) (A)
                 (A) (A) (A) (A) (A) (A) (A) (A) (A) (A) (A) (A)
                 (A) (A) (A) (A) (A) (A) (A) (A) (A) (A) (A) (A)
                 (A) (A) (A) (A) (A) (A) (A) (A) (A) (A) (A) (A)
                 (A) (A) (A) (A) (A) (A) (A) (A) (A) (A) (A) (A)
                 (A) (A) (A) (A) (A) (A) (A) (A) (A) (A) (A) (A)
                 (A) (A) (A) (A) (A) (A) (A) (A) (A) (A) (A) (A)
                 (A) (A) (A) (A) (A) (A) (A) (A) (A) (A) (A) (A)
                 (A) (A) (A) (A) (A) (A) (A) (A) (A) (A) (A) (A)
                 (A) (A) (A) (A) (A) (A) (A) (A) (A) (A) (A) (A)
                 (A) (A) (A) (A) (A) (A) (A) (A) (A)
 The electronic state is 1-A.
 Alpha  occ. eigenvalues -- -101.56118 -88.90884 -14.46202 -14.37067 -10.27120
 Alpha  occ. eigenvalues --  -10.26661 -10.25308 -10.24965 -10.24766 -10.23693
 Alpha  occ. eigenvalues --  -10.23287 -10.22408 -10.21976 -10.21921 -10.21475
 Alpha  occ. eigenvalues --  -10.20925 -10.20547 -10.20330 -10.20224  -9.47776
 Alpha  occ. eigenvalues --   -7.96967  -7.24166  -7.23205  -7.23168  -5.93453
 Alpha  occ. eigenvalues --   -5.93122  -5.92474  -1.02231  -0.98847  -0.90531
 Alpha  occ. eigenvalues --   -0.87976  -0.86070  -0.82221  -0.81429  -0.77789
 Alpha  occ. eigenvalues --   -0.75965  -0.75487  -0.72322  -0.69184  -0.66417
 Alpha  occ. eigenvalues --   -0.64225  -0.62194  -0.61345  -0.60606  -0.58760
 Alpha  occ. eigenvalues --   -0.57830  -0.55647  -0.52755  -0.52271  -0.50496
 Alpha  occ. eigenvalues --   -0.49916  -0.49271  -0.47677  -0.46747  -0.45950
 Alpha  occ. eigenvalues --   -0.45121  -0.44060  -0.43858  -0.42780  -0.41829
 Alpha  occ. eigenvalues --   -0.41205  -0.40207  -0.39503  -0.38923  -0.38353
 Alpha  occ. eigenvalues --   -0.37831  -0.36576  -0.35962  -0.34230  -0.32648
 Alpha  occ. eigenvalues --   -0.30814  -0.30297  -0.26942  -0.26363  -0.23915
 Alpha  occ. eigenvalues --   -0.21174
 Alpha virt. eigenvalues --   -0.03387  -0.03064  -0.02407  -0.01702   0.00709
 Alpha virt. eigenvalues --    0.02891   0.03636   0.06297   0.07024   0.08997
 Alpha virt. eigenvalues --    0.09464   0.10308   0.10576   0.11772   0.12243
 Alpha virt. eigenvalues --    0.12402   0.13342   0.13535   0.14005   0.14244
 Alpha virt. eigenvalues --    0.15291   0.16227   0.16510   0.17317   0.17974
 Alpha virt. eigenvalues --    0.19778   0.20444   0.20632   0.21907   0.22603
 Alpha virt. eigenvalues --    0.24105   0.25013   0.26435   0.28918   0.29176
 Alpha virt. eigenvalues --    0.30540   0.30658   0.31530   0.34366   0.36298
 Alpha virt. eigenvalues --    0.37257   0.37955   0.39006   0.39986   0.41461
 Alpha virt. eigenvalues --    0.42497   0.43087   0.45991   0.46559   0.47729
 Alpha virt. eigenvalues --    0.49044   0.49860   0.50660   0.50730   0.52185
 Alpha virt. eigenvalues --    0.52543   0.53494   0.54182   0.55333   0.55645
 Alpha virt. eigenvalues --    0.55664   0.56399   0.57603   0.58201   0.58717
 Alpha virt. eigenvalues --    0.59219   0.59538   0.60024   0.60671   0.60826
 Alpha virt. eigenvalues --    0.61375   0.62998   0.63814   0.64113   0.64525
 Alpha virt. eigenvalues --    0.64961   0.67283   0.68900   0.69009   0.70843
 Alpha virt. eigenvalues --    0.71842   0.73460   0.74091   0.75451   0.78593
 Alpha virt. eigenvalues --    0.78909   0.80498   0.80989   0.81401   0.82012
 Alpha virt. eigenvalues --    0.82622   0.82824   0.83456   0.83789   0.84000
 Alpha virt. eigenvalues --    0.84551   0.85634   0.86248   0.86612   0.86757
 Alpha virt. eigenvalues --    0.87076   0.88583   0.89902   0.90671   0.91253
 Alpha virt. eigenvalues --    0.91586   0.92240   0.92650   0.94153   0.94375
 Alpha virt. eigenvalues --    0.94556   0.95937   0.96406   0.97575   0.98748
 Alpha virt. eigenvalues --    1.00198   1.01466   1.03082   1.03321   1.04561
 Alpha virt. eigenvalues --    1.04940   1.08153   1.09425   1.10275   1.10850
 Alpha virt. eigenvalues --    1.12613   1.13513   1.15697   1.18319   1.20225
 Alpha virt. eigenvalues --    1.23271   1.25027   1.25937   1.28449   1.30279
 Alpha virt. eigenvalues --    1.32591   1.33776   1.34517   1.36113   1.39064
 Alpha virt. eigenvalues --    1.40044   1.41886   1.43482   1.43612   1.45558
 Alpha virt. eigenvalues --    1.47711   1.48665   1.52159   1.53885   1.56294
 Alpha virt. eigenvalues --    1.57131   1.57486   1.59177   1.61583   1.64280
 Alpha virt. eigenvalues --    1.66957   1.69075   1.73989   1.75355   1.77358
 Alpha virt. eigenvalues --    1.78434   1.79510   1.79752   1.81294   1.82751
 Alpha virt. eigenvalues --    1.85237   1.85631   1.86723   1.88560   1.90604
 Alpha virt. eigenvalues --    1.91227   1.93393   1.93729   1.95444   1.97108
 Alpha virt. eigenvalues --    1.98481   2.01246   2.02311   2.03638   2.05103
 Alpha virt. eigenvalues --    2.07913   2.09308   2.10783   2.12127   2.12567
 Alpha virt. eigenvalues --    2.14025   2.14994   2.15746   2.16145   2.20923
 Alpha virt. eigenvalues --    2.21944   2.22248   2.24451   2.25053   2.28356
 Alpha virt. eigenvalues --    2.29963   2.31285   2.31993   2.32552   2.35068
 Alpha virt. eigenvalues --    2.37455   2.38296   2.42409   2.43299   2.47899
 Alpha virt. eigenvalues --    2.51103   2.52444   2.53713   2.57201   2.59118
 Alpha virt. eigenvalues --    2.61713   2.62329   2.63482   2.64855   2.66515
 Alpha virt. eigenvalues --    2.68004   2.70329   2.71681   2.74056   2.76120
 Alpha virt. eigenvalues --    2.76331   2.79002   2.80368   2.85348   2.90505
 Alpha virt. eigenvalues --    2.96237   3.08775   3.17766   3.32676   3.37819
 Alpha virt. eigenvalues --    3.74660   3.94989   4.04252   4.06600   4.08642
 Alpha virt. eigenvalues --    4.09103   4.11077   4.15266   4.19220   4.23913
 Alpha virt. eigenvalues --    4.25961   4.33105   4.34365   4.37680   4.40319
 Alpha virt. eigenvalues --    4.41783   4.49978   4.68666   4.70995
          Condensed to atoms (all electrons):
               1          2          3          4          5          6
     1  N    6.673137   0.303608   0.304231   0.238424  -0.030222  -0.031853
     2  H    0.303608   0.275386  -0.010002  -0.020470   0.003206  -0.002130
     3  H    0.304231  -0.010002   0.265989  -0.015320  -0.000628  -0.002563
     4  C    0.238424  -0.020470  -0.015320   5.032323   0.375163   0.381411
     5  H   -0.030222   0.003206  -0.000628   0.375163   0.480760  -0.033724
     6  H   -0.031853  -0.002130  -0.002563   0.381411  -0.033724   0.520440
     7  C   -0.052993  -0.000130   0.003443   0.360945  -0.028011  -0.044244
     8  H   -0.004646   0.006062  -0.000027  -0.039232   0.004617  -0.006862
     9  H   -0.001201  -0.000577   0.000014  -0.047150  -0.003914   0.005455
    10  C    0.002894  -0.000001  -0.000088  -0.032851  -0.002310  -0.002297
    11  H    0.000075   0.000008   0.000003  -0.006507  -0.000123   0.005184
    12  H   -0.000089  -0.000004   0.000002   0.004052   0.000048  -0.000003
    13  N   -0.000096   0.000009   0.000005  -0.001147   0.003103   0.000052
    14  C    0.000008   0.000000  -0.000000   0.000048  -0.000174  -0.000014
    15  C    0.000000  -0.000000  -0.000000   0.000065  -0.000006   0.000000
    16  H   -0.000000  -0.000000  -0.000000  -0.000002  -0.000001  -0.000000
    17  C    0.000000  -0.000000   0.000000   0.000001   0.000000  -0.000000
    18  Cl  -0.000000   0.000000   0.000000   0.000000  -0.000000  -0.000000
    19  C   -0.000000   0.000000   0.000000   0.000000   0.000000   0.000000
    20  H   -0.000000   0.000000   0.000000  -0.000000   0.000000   0.000000
    21  C    0.000000   0.000000   0.000000  -0.000008  -0.000002   0.000000
    22  H    0.000000  -0.000000  -0.000000  -0.000000  -0.000000  -0.000000
    23  C    0.000003  -0.000001  -0.000000   0.000062  -0.000514  -0.000006
    24  S   -0.000267  -0.000001   0.000008  -0.003624   0.007702   0.000261
    25  C    0.000020  -0.000000  -0.000001  -0.000588   0.000772  -0.000017
    26  C    0.000000  -0.000001   0.000001   0.002022   0.001170   0.000004
    27  C   -0.000000  -0.000000   0.000000   0.000023   0.000045   0.000008
    28  H   -0.000000   0.000000   0.000000  -0.000007   0.000006  -0.000004
    29  C    0.000000  -0.000000  -0.000000   0.000000  -0.000023  -0.000000
    30  H   -0.000000   0.000000   0.000000  -0.000000   0.000000   0.000000
    31  C   -0.000000   0.000000   0.000000   0.000001  -0.000013  -0.000000
    32  H   -0.000000   0.000000   0.000000  -0.000000   0.000000   0.000000
    33  C    0.000000  -0.000000   0.000000  -0.000011   0.000008   0.000000
    34  H    0.000000   0.000000  -0.000000  -0.000000  -0.000001  -0.000000
    35  H    0.302786  -0.011011  -0.009477  -0.017487  -0.003147   0.003394
               7          8          9         10         11         12
     1  N   -0.052993  -0.004646  -0.001201   0.002894   0.000075  -0.000089
     2  H   -0.000130   0.006062  -0.000577  -0.000001   0.000008  -0.000004
     3  H    0.003443  -0.000027   0.000014  -0.000088   0.000003   0.000002
     4  C    0.360945  -0.039232  -0.047150  -0.032851  -0.006507   0.004052
     5  H   -0.028011   0.004617  -0.003914  -0.002310  -0.000123   0.000048
     6  H   -0.044244  -0.006862   0.005455  -0.002297   0.005184  -0.000003
     7  C    5.112307   0.361660   0.379159   0.347697  -0.043938  -0.046586
     8  H    0.361660   0.554889  -0.031371  -0.022893  -0.000051  -0.001085
     9  H    0.379159  -0.031371   0.538130  -0.024773   0.004081  -0.001525
    10  C    0.347697  -0.022893  -0.024773   4.901623   0.376616   0.380238
    11  H   -0.043938  -0.000051   0.004081   0.376616   0.542637  -0.019841
    12  H   -0.046586  -0.001085  -0.001525   0.380238  -0.019841   0.549320
    13  N   -0.068512   0.004274  -0.007728   0.310060  -0.043619  -0.045550
    14  C   -0.001246  -0.000058   0.005534  -0.041187   0.004684  -0.006437
    15  C   -0.000017  -0.000137   0.001401  -0.005468   0.000131   0.003935
    16  H    0.000215  -0.000017   0.000026   0.001536  -0.000140   0.002989
    17  C    0.000002  -0.000005  -0.000052   0.000213  -0.000001  -0.000157
    18  Cl  -0.000001   0.000000  -0.000001   0.000001  -0.000000  -0.000001
    19  C    0.000004   0.000001  -0.000049   0.000006   0.000000   0.000014
    20  H    0.000000   0.000000  -0.000000  -0.000000   0.000000  -0.000000
    21  C   -0.000043   0.000002   0.000019  -0.000232   0.000005   0.000012
    22  H   -0.000001  -0.000000  -0.000005   0.000006  -0.000000  -0.000000
    23  C    0.000588  -0.000031   0.001476   0.005053  -0.000263  -0.000466
    24  S   -0.000402   0.000074   0.000120  -0.000742  -0.000042   0.000151
    25  C    0.000165  -0.000006   0.000036   0.006469   0.000186  -0.000339
    26  C   -0.001123  -0.000075  -0.000022  -0.037898   0.002157   0.003362
    27  C    0.000203  -0.000007  -0.000007  -0.009008   0.004032   0.000534
    28  H    0.000061   0.000000   0.000000   0.001988   0.001682  -0.000349
    29  C    0.000013  -0.000000   0.000000   0.000012  -0.000224  -0.000007
    30  H   -0.000000   0.000000  -0.000000  -0.000002   0.000006   0.000000
    31  C   -0.000001   0.000000   0.000000   0.000005   0.000005   0.000000
    32  H   -0.000000   0.000000   0.000000   0.000000  -0.000000   0.000000
    33  C   -0.000003   0.000000  -0.000000  -0.000111  -0.000027   0.000005
    34  H    0.000000  -0.000000   0.000000   0.000002  -0.000000  -0.000000
    35  H   -0.001360  -0.000191   0.002952  -0.000062   0.000009   0.000002
              13         14         15         16         17         18
     1  N   -0.000096   0.000008   0.000000  -0.000000   0.000000  -0.000000
     2  H    0.000009   0.000000  -0.000000  -0.000000  -0.000000   0.000000
     3  H    0.000005  -0.000000  -0.000000  -0.000000   0.000000   0.000000
     4  C   -0.001147   0.000048   0.000065  -0.000002   0.000001   0.000000
     5  H    0.003103  -0.000174  -0.000006  -0.000001   0.000000  -0.000000
     6  H    0.000052  -0.000014   0.000000  -0.000000  -0.000000  -0.000000
     7  C   -0.068512  -0.001246  -0.000017   0.000215   0.000002  -0.000001
     8  H    0.004274  -0.000058  -0.000137  -0.000017  -0.000005   0.000000
     9  H   -0.007728   0.005534   0.001401   0.000026  -0.000052  -0.000001
    10  C    0.310060  -0.041187  -0.005468   0.001536   0.000213   0.000001
    11  H   -0.043619   0.004684   0.000131  -0.000140  -0.000001  -0.000000
    12  H   -0.045550  -0.006437   0.003935   0.002989  -0.000157  -0.000001
    13  N    7.117311   0.303409  -0.059689  -0.007224   0.005346  -0.000111
    14  C    0.303409   4.635330   0.514932  -0.036784   0.002184   0.004387
    15  C   -0.059689   0.514932   5.108676   0.351215   0.483146  -0.067873
    16  H   -0.007224  -0.036784   0.351215   0.551357  -0.040820  -0.001446
    17  C    0.005346   0.002184   0.483146  -0.040820   4.981216   0.233255
    18  Cl  -0.000111   0.004387  -0.067873  -0.001446   0.233255  16.916283
    19  C    0.000541  -0.035119  -0.044328   0.004102   0.519979  -0.067873
    20  H    0.000004   0.000465   0.004573  -0.000157  -0.042288   0.000320
    21  C    0.006400  -0.012391  -0.050321   0.000376  -0.018046   0.004702
    22  H   -0.000280   0.006042   0.000882   0.000017   0.003607  -0.000129
    23  C   -0.092553   0.475688  -0.075183   0.006727  -0.033787   0.000572
    24  S    0.006718  -0.071438   0.006954  -0.000274   0.000081   0.000012
    25  C   -0.082948  -0.015856   0.000330   0.000012  -0.000006   0.000000
    26  C    0.290801  -0.028665   0.004246   0.000133  -0.000161   0.000002
    27  C   -0.073928   0.000676   0.000102  -0.000005  -0.000005   0.000000
    28  H   -0.005825   0.000160   0.000015   0.000020   0.000001  -0.000000
    29  C    0.006225  -0.000112  -0.000007   0.000001   0.000000   0.000000
    30  H   -0.000136  -0.000002  -0.000000  -0.000000   0.000000  -0.000000
    31  C    0.000220  -0.000054  -0.000001   0.000000   0.000000  -0.000000
    32  H    0.000003   0.000001   0.000000  -0.000000  -0.000000   0.000000
    33  C    0.005543   0.000662   0.000009   0.000000  -0.000002   0.000000
    34  H   -0.000101   0.000007  -0.000000   0.000000   0.000000  -0.000000
    35  H    0.000031  -0.000016  -0.000000  -0.000000   0.000000  -0.000000
[...]
    22  H    0.001006   0.000101  -0.000092  -0.005765   0.000257  -0.000395
    23  C   -0.050899  -0.003299   0.001361   0.337984   0.026880   0.018370
    24  S   -0.005676   0.000073  -0.000377   0.011171   0.033364   0.000886
    25  C   -0.020744  -0.000195   0.001018   0.103443   0.017128  -0.006948
    26  C    0.321911   0.010766  -0.011426  -1.097482   0.121141  -0.047408
    27  C   -0.032087  -0.002689   0.002183   0.110960  -0.030754   0.021085
    28  H    0.001896  -0.000291   0.000043  -0.001141  -0.006961   0.004782
    29  C   -0.001722   0.000089  -0.000519  -0.038815   0.004142  -0.003559
    30  H    0.000111   0.000024  -0.000015  -0.001391   0.000091  -0.000331
    31  C   -0.001198  -0.000185   0.000301   0.014044  -0.008331   0.001128
    32  H   -0.000004  -0.000002   0.000008   0.000204   0.000071  -0.000011
    33  C    0.006343   0.000284  -0.000207  -0.021484   0.012384  -0.001576
    34  H   -0.000113  -0.000005  -0.000023   0.000052  -0.000743   0.000214
    35  H    0.392780  -0.059029  -0.053793  -0.036459  -0.045272   0.025597
               7          8          9         10         11         12
     1  N    0.108941   0.005525  -0.038543  -0.009933   0.029162  -0.017519
     2  H   -0.027218   0.007465  -0.010700   0.002146   0.002778   0.001156
     3  H    0.025724   0.000260   0.000410  -0.005994   0.000108  -0.001191
     4  C    0.001871  -0.079750  -0.080130   0.053349  -0.109653   0.051598
     5  H   -0.046796   0.078480  -0.078816  -0.067776   0.026643   0.011897
     6  H   -0.028460  -0.108502   0.084958   0.076279  -0.030113   0.016117
     7  C    5.895511   0.017210   0.017711  -0.204142  -0.327816   0.225562
     8  H    0.017210   1.502609  -0.259578  -0.030561  -0.012852  -0.141768
     9  H    0.017711  -0.259578   1.544068   0.139781   0.045345  -0.018000
    10  C   -0.204142  -0.030561   0.139781   6.565291   0.083788   0.051231
    11  H   -0.327816  -0.012852   0.045345   0.083788   2.376846  -0.513529
    12  H    0.225562  -0.141768  -0.018000   0.051231  -0.513529   1.897980
    13  N    0.190617   0.128584  -0.093149  -0.300247  -0.386396  -0.235557
    14  C   -0.305932  -0.096166  -0.057316   0.221737  -0.589531   0.684415
    15  C    0.146759   0.054718   0.136232  -0.069242   0.150190  -0.167698
    16  H    0.032102   0.011590  -0.041967  -0.072157   0.060396  -0.138841
    17  C    0.078098  -0.004700  -0.007057  -0.223546  -0.002390  -0.039992
    18  Cl  -0.008522   0.000035   0.012604   0.017650   0.001418  -0.002882
    19  C    0.032262   0.007612  -0.024816   0.044544   0.009499  -0.056541
    20  H   -0.001690   0.000157   0.000267  -0.000847  -0.000451   0.000320
    21  C   -0.038102  -0.003676  -0.001059   0.091922   0.000928   0.028873
    22  H    0.001817  -0.000189   0.001683  -0.002354   0.001602  -0.001991
    23  C   -0.200758   0.018225   0.032031   0.277636  -0.043258   0.048951
    24  S   -0.017405  -0.002898   0.004397  -0.006450   0.013932   0.010596
    25  C   -0.029548   0.009141   0.019330   0.042290   0.110911  -0.072481
    26  C    0.292959   0.033221  -0.135313  -1.752082   0.789280  -0.539334
    27  C   -0.215938   0.007201  -0.010468   0.713691  -0.173792   0.090326
    28  H    0.001700   0.003105   0.000721   0.028470  -0.014086  -0.039970
    29  C   -0.042115  -0.002479  -0.005218  -0.471921   0.077356   0.035630
    30  H    0.003024  -0.000293   0.000429   0.021007   0.000890   0.000197
    31  C   -0.025014   0.000507   0.000501   0.156386   0.021441  -0.016119
    32  H    0.000058   0.000059   0.000024   0.002167  -0.000373  -0.000640
    33  C    0.039198   0.001977   0.002662  -0.035628  -0.052373   0.006324
    34  H   -0.000833  -0.000077  -0.000025   0.007468   0.000421   0.000747
    35  H   -0.000299  -0.005079   0.005825   0.009515  -0.003519  -0.000314
              13         14         15         16         17         18
     1  N    0.119753  -0.261943   0.041190   0.001656  -0.016721   0.000414
     2  H    0.000503  -0.003734  -0.000971  -0.000557  -0.001125  -0.000021
     3  H   -0.000892   0.004357   0.002125   0.000595  -0.000699   0.000071
     4  C   -0.334790   0.854296  -0.304654   0.010913   0.072538  -0.001075
     5  H   -0.139797  -0.060178   0.011555   0.004899  -0.018628  -0.000508
     6  H   -0.033543   0.042419  -0.012595  -0.000739   0.005657  -0.000183
     7  C    0.190617  -0.305932   0.146759   0.032102   0.078098  -0.008522
     8  H    0.128584  -0.096166   0.054718   0.011590  -0.004700   0.000035
     9  H   -0.093149  -0.057316   0.136232  -0.041967  -0.007057   0.012604
    10  C   -0.300247   0.221737  -0.069242  -0.072157  -0.223546   0.017650
    11  H   -0.386396  -0.589531   0.150190   0.060396  -0.002390   0.001418
    12  H   -0.235557   0.684415  -0.167698  -0.138841  -0.039992  -0.002882
    13  N   14.267513  -3.009707   1.232399  -0.261699  -0.531558   0.011244
    14  C   -3.009707  33.373662  -9.431449   0.335047   0.338048   0.046117
    15  C    1.232399  -9.431449  20.645089  -1.736553  -2.394210  -0.037489
    16  H   -0.261699   0.335047  -1.736553   2.951956   0.652531  -0.107187
    17  C   -0.531558   0.338048  -2.394210   0.652531  13.114036  -0.103345
    18  Cl   0.011244   0.046117  -0.037489  -0.107187  -0.103345  17.576794
    19  C    0.387497  -3.650268   0.556856   0.279965  -3.621213   0.123043
    20  H    0.002059  -0.074856   0.256907  -0.017793   1.135736  -0.088564
    21  C    0.327177  -1.761660  -3.564046  -0.032457   0.963578  -0.110385
    22  H   -0.002338   0.392068   0.147978   0.008841  -0.654979   0.008216
    23  C   -1.120984  -1.611509  -1.494693  -0.074682  -2.408278   0.002484
    24  S   -0.857156  -0.174064  -0.545447   0.008723   0.352926  -0.010019
    25  C   -0.712910  -0.704161   0.696929  -0.019645   0.058642   0.000666
    26  C   -1.756230  -9.887289   0.381282  -0.192282   0.028097   0.005742
    27  C    0.584282   0.800484   0.185182   0.066619  -0.170639  -0.000017
    28  H   -0.229097  -0.222478   0.051304  -0.015930  -0.000881   0.000570
    29  C   -0.547783   0.248837  -0.146774   0.008681   0.078753  -0.001506
    30  H   -0.000806   0.026683  -0.010162   0.000360   0.002352  -0.000070
    31  C    0.592487   0.017964   0.133280   0.010590  -0.059725   0.000773
    32  H   -0.006799  -0.021857   0.006694   0.000156  -0.001520   0.000028
    33  C   -0.173972   1.075841  -0.256597  -0.016815   0.103435  -0.000954
    34  H    0.013234  -0.021642  -0.027547   0.000678   0.007223  -0.000206
    35  H    0.000172   0.010393  -0.003548  -0.000638   0.000181  -0.000272
              19         20         21         22         23         24
     1  N    0.000644  -0.000225   0.008810   0.001006  -0.050899  -0.005676
     2  H   -0.000509  -0.000046   0.000527   0.000101  -0.003299   0.000073
     3  H    0.000965   0.000031  -0.001369  -0.000092   0.001361  -0.000377
     4  C   -0.007480   0.001746  -0.057098  -0.005765   0.337984   0.011171
     5  H   -0.008285  -0.000062   0.014240   0.000257   0.026880   0.033364
     6  H   -0.002685   0.000104   0.000968  -0.000395   0.018370   0.000886
     7  C    0.032262  -0.001690  -0.038102   0.001817  -0.200758  -0.017405
     8  H    0.007612   0.000157  -0.003676  -0.000189   0.018225  -0.002898
     9  H   -0.024816   0.000267  -0.001059   0.001683   0.032031   0.004397
    10  C    0.044544  -0.000847   0.091922  -0.002354   0.277636  -0.006450
    11  H    0.009499  -0.000451   0.000928   0.001602  -0.043258   0.013932
    12  H   -0.056541   0.000320   0.028873  -0.001991   0.048951   0.010596
    13  N    0.387497   0.002059   0.327177  -0.002338  -1.120984  -0.857156
    14  C   -3.650268  -0.074856  -1.761660   0.392068  -1.611509  -0.174064
    15  C    0.556856   0.256907  -3.564046   0.147978  -1.494693  -0.545447
    16  H    0.279965  -0.017793  -0.032457   0.008841  -0.074682   0.008723
    17  C   -3.621213   1.135736   0.963578  -0.654979  -2.408278   0.352926
    18  Cl   0.123043  -0.088564  -0.110385   0.008216   0.002484  -0.010019
    19  C   15.434852  -1.300440  -3.077925   0.225668   0.076985  -0.322147
    20  H   -1.300440   1.794801   0.117919  -0.119338  -0.293779   0.023200
    21  C   -3.077925   0.117919  18.591060  -1.546492  -5.260988   0.251107
    22  H    0.225668  -0.119338  -1.546492   1.842653   1.313064  -0.094035
    23  C    0.076985  -0.293779  -5.260988   1.313064  18.117054   0.326120
    24  S   -0.322147   0.023200   0.251107  -0.094035   0.326120  16.879296
    25  C    0.184234   0.010936  -0.803507   0.019116  -0.089895   0.371697
    26  C   -0.146215  -0.011901   1.754749   0.009038  -2.583778  -0.223526
    27  C    0.125717   0.003791  -0.186900  -0.020271   0.747250  -0.481351
    28  H    0.011426   0.000265  -0.018633   0.000366  -0.034524   0.014696
    29  C   -0.063344  -0.001396   0.090727   0.009397  -0.174642   0.422149
    30  H   -0.001721  -0.000044   0.003681   0.000101  -0.008007  -0.005530
    31  C    0.064246   0.001404  -0.112256  -0.006171   0.129207  -0.349208
    32  H    0.001677   0.000027  -0.003894   0.000267   0.016033   0.020781
    33  C   -0.109301  -0.001824  -0.388611   0.020343  -0.461480   0.186417
    34  H   -0.003328   0.000208   0.041308  -0.001745   0.023388  -0.073256
    35  H    0.000893  -0.000034   0.000874  -0.000226   0.002288   0.000481
              25         26         27         28         29         30
     1  N   -0.020744   0.321911  -0.032087   0.001896  -0.001722   0.000111
     2  H   -0.000195   0.010766  -0.002689  -0.000291   0.000089   0.000024
     3  H    0.001018  -0.011426   0.002183   0.000043  -0.000519  -0.000015
     4  C    0.103443  -1.097482   0.110960  -0.001141  -0.038815  -0.001391
     5  H    0.017128   0.121141  -0.030754  -0.006961   0.004142   0.000091
     6  H   -0.006948  -0.047408   0.021085   0.004782  -0.003559  -0.000331
     7  C   -0.029548   0.292959  -0.215938   0.001700  -0.042115   0.003024
     8  H    0.009141   0.033221   0.007201   0.003105  -0.002479  -0.000293
     9  H    0.019330  -0.135313  -0.010468   0.000721  -0.005218   0.000429
    10  C    0.042290  -1.752082   0.713691   0.028470  -0.471921   0.021007
    11  H    0.110911   0.789280  -0.173792  -0.014086   0.077356   0.000890
    12  H   -0.072481  -0.539334   0.090326  -0.039970   0.035630   0.000197
    13  N   -0.712910  -1.756230   0.584282  -0.229097  -0.547783  -0.000806
    14  C   -0.704161  -9.887289   0.800484  -0.222478   0.248837   0.026683
    15  C    0.696929   0.381282   0.185182   0.051304  -0.146774  -0.010162
    16  H   -0.019645  -0.192282   0.066619  -0.015930   0.008681   0.000360
    17  C    0.058642   0.028097  -0.170639  -0.000881   0.078753   0.002352
    18  Cl   0.000666   0.005742  -0.000017   0.000570  -0.001506  -0.000070
    19  C    0.184234  -0.146215   0.125717   0.011426  -0.063344  -0.001721
    20  H    0.010936  -0.011901   0.003791   0.000265  -0.001396  -0.000044
    21  C   -0.803507   1.754749  -0.186900  -0.018633   0.090727   0.003681
    22  H    0.019116   0.009038  -0.020271   0.000366   0.009397   0.000101
    23  C   -0.089895  -2.583778   0.747250  -0.034524  -0.174642  -0.008007
    24  S    0.371697  -0.223526  -0.481351   0.014696   0.422149  -0.005530
    25  C   13.403172  -2.939850  -0.273712   0.126091  -0.700889  -0.177341
    26  C   -2.939850  32.015907  -7.479603   1.157161   0.458035   0.276751
    27  C   -0.273712  -7.479603  15.979565  -1.500317  -3.964919   0.549894
    28  H    0.126091   1.157161  -1.500317   2.343806   0.240983  -0.092150
    29  C   -0.700889   0.458035  -3.964919   0.240983  12.201264  -1.036466
    30  H   -0.177341   0.276751   0.549894  -0.092150  -1.036466   1.748795
    31  C   -0.281138  -1.838448   2.601794  -0.207257  -3.421136   0.394649
    32  H    0.074320  -0.189383   0.026969  -0.013533   0.529394  -0.058160
    33  C   -3.536377  -0.317252  -3.262470   0.110609   2.130016  -0.144413
    34  H    0.777286   0.229229   0.092712   0.003816  -0.288266  -0.010807
    35  H    0.000217  -0.008077   0.002328   0.000128   0.000296  -0.000013
              31         32         33         34         35
     1  N   -0.001198  -0.000004   0.006343  -0.000113   0.392780
     2  H   -0.000185  -0.000002   0.000284  -0.000005  -0.059029
     3  H    0.000301   0.000008  -0.000207  -0.000023  -0.053793
     4  C    0.014044   0.000204  -0.021484   0.000052  -0.036459
     5  H   -0.008331   0.000071   0.012384  -0.000743  -0.045272
     6  H    0.001128  -0.000011  -0.001576   0.000214   0.025597
     7  C   -0.025014   0.000058   0.039198  -0.000833  -0.000299
     8  H    0.000507   0.000059   0.001977  -0.000077  -0.005079
     9  H    0.000501   0.000024   0.002662  -0.000025   0.005825
    10  C    0.156386   0.002167  -0.035628   0.007468   0.009515
    11  H    0.021441  -0.000373  -0.052373   0.000421  -0.003519
    12  H   -0.016119  -0.000640   0.006324   0.000747  -0.000314
    13  N    0.592487  -0.006799  -0.173972   0.013234   0.000172
    14  C    0.017964  -0.021857   1.075841  -0.021642   0.010393
    15  C    0.133280   0.006694  -0.256597  -0.027547  -0.003548
    16  H    0.010590   0.000156  -0.016815   0.000678  -0.000638
    17  C   -0.059725  -0.001520   0.103435   0.007223   0.000181
    18  Cl   0.000773   0.000028  -0.000954  -0.000206  -0.000272
    19  C    0.064246   0.001677  -0.109301  -0.003328   0.000893
    20  H    0.001404   0.000027  -0.001824   0.000208  -0.000034
    21  C   -0.112256  -0.003894  -0.388611   0.041308   0.000874
    22  H   -0.006171   0.000267   0.020343  -0.001745  -0.000226
    23  C    0.129207   0.016033  -0.461480   0.023388   0.002288
    24  S   -0.349208   0.020781   0.186417  -0.073256   0.000481
    25  C   -0.281138   0.074320  -3.536377   0.777286   0.000217
    26  C   -1.838448  -0.189383  -0.317252   0.229229  -0.008077
    27  C    2.601794   0.026969  -3.262470   0.092712   0.002328
    28  H   -0.207257  -0.013533   0.110609   0.003816   0.000128
    29  C   -3.421136   0.529394   2.130016  -0.288266   0.000296
    30  H    0.394649  -0.058160  -0.144413  -0.010807  -0.000013
    31  C    9.986371  -0.673718  -1.955995   0.114194  -0.000123
    32  H   -0.673718   1.654623   0.153501  -0.081102  -0.000003
    33  C   -1.955995   0.153501  13.647454  -0.992630  -0.000161
    34  H    0.114194  -0.081102  -0.992630   1.682259   0.000011
    35  H   -0.000123  -0.000003  -0.000161   0.000011   0.532873
 Mulliken charges:
               1
     1  N   -0.609653
     2  H    0.246758
     3  H    0.175912
     4  C    1.213076
     5  H   -0.184089
     6  H   -0.121399
     7  C    0.409465
     8  H   -0.139114
     9  H   -0.186824
    10  C    0.646533
    11  H   -0.542800
    12  H   -0.157551
    13  N   -0.122109
    14  C   -0.526629
    15  C    1.367003
    16  H   -0.716357
    17  C   -0.730625
    18  Cl  -0.334665
    19  C    0.827631
    20  H   -0.436586
    21  C    0.680609
    22  H   -0.547197
    23  C    0.400139
    24  S    0.236534
    25  C    0.342773
    26  C   -0.728389
    27  C    1.093894
    28  H   -0.704685
    29  C    0.377722
    30  H   -0.481315
    31  C    0.714757
    32  H   -0.436065
    33  C    0.233334
    34  H   -0.492101
    35  H    0.232012
 Sum of Mulliken charges =   1.00000
 Mulliken charges with hydrogens summed into heavy atoms:
               1
     1  N    0.045029
     4  C    0.907588
     7  C    0.083528
    10  C   -0.053818
    13  N   -0.122109
    14  C   -0.526629
    15  C    0.650647
    17  C   -0.730625
    18  Cl  -0.334665
    19  C    0.391045
    21  C    0.133412
    23  C    0.400139
    24  S    0.236534
    25  C    0.342773
    26  C   -0.728389
    27  C    0.389209
    29  C   -0.103593
    31  C    0.278693
    33  C   -0.258767
 Electronic spatial extent (au):  <R**2>=           6163.3409
 Charge=              1.0000 electrons
 Dipole moment (field-independent basis, Debye):
    X=             -1.6528    Y=             16.2351    Z=              4.9947  Tot=             17.0663
 Quadrupole moment (field-independent basis, Debye-Ang):
   XX=           -109.0242   YY=            -49.5058   ZZ=           -107.6541
   XY=            -16.7366   XZ=            -13.8770   YZ=             18.1159
 Traceless Quadrupole moment (field-independent basis, Debye-Ang):
   XX=            -20.2962   YY=             39.2222   ZZ=            -18.9261
   XY=            -16.7366   XZ=            -13.8770   YZ=             18.1159
 Octapole moment (field-independent basis, Debye-Ang**2):
  XXX=             52.7087  YYY=            324.1727  ZZZ=             24.6411  XYY=            -82.9536
  XXY=             -0.2475  XXZ=              0.9004  XZZ=            -14.6886  YZZ=             73.7367
  YYZ=            128.8006  XYZ=            -23.7603
 Hexadecapole moment (field-independent basis, Debye-Ang**3):
 XXXX=          -4437.7501 YYYY=          -1024.9861 ZZZZ=          -1058.9499 XXXY=           -174.4604
 XXXZ=           -112.0972 YYYX=           -261.3816 YYYZ=            476.0753 ZZZX=            -49.9293
 ZZZY=            141.4187 XXYY=          -1026.0116 XXZZ=           -911.6119 YYZZ=           -322.1162
 XXYZ=              4.5315 YYXZ=           -118.4865 ZZXY=            -39.0133
 N-N= 1.664939852862D+03 E-N=-6.950751381192D+03  KE= 1.542438772961D+03
 Leave Link  601 at Sun Jul 18 18:38:53 2021, MaxMem=   262144000 cpu:               0.5 elap:               0.8
 (Enter /dades/curu/g16A03_MST/g16/l9999.exe)
 1\1\GINC-PIRINEUSGPU4\SP\RMP2-FC\Aug-CC-pVDZ\C15H16Cl1N2S1(1+)\UBATOR0
 2\18-Jul-2021\0\\#p mp2/aug-cc-pVDZ scf=tight maxdisk=180GB geom=allch
 eck\\SET_328_BBB29_conf1.geo_090_075_180 geometry\\1,1\N,0,-1.20433611
 09,-1.7845797882,-3.5379669577\H,0,-0.6574594459,-1.8178079269,-4.4087
 537155\H,0,-2.1964522247,-1.7801528251,-3.8086659204\C,0,-0.8584689667
 ,-0.5904742441,-2.6939458156\H,0,-1.4744292336,-0.6430839978,-1.797112
 0325\H,0,-1.1454089075,0.2933172989,-3.2659413305\C,0,0.6186803169,-0.
 5714287982,-2.3270197626\H,0,1.2340815929,-0.4019616595,-3.2148015045\
 H,0,0.913015938,-1.5347953878,-1.9030289514\C,0,0.9218196685,0.5367441
 899,-1.311171065\H,0,0.5991743394,1.4944562569,-1.7179522859\H,0,2.005
 6702613,0.6048001582,-1.1543097065\N,0,0.1971071383,0.3346588505,-0.05
 67651097\C,0,0.4874012146,-0.8198778435,0.7049560288\C,0,1.6566492512,
 -1.5622740374,0.4994992093\H,0,2.3844840017,-1.2525417431,-0.235680387
 3\C,0,1.8862036724,-2.7099919521,1.2523451588\Cl,0,3.3509769599,-3.630
 7160076,0.9491557749\C,0,1.0001164314,-3.1347302184,2.2352993276\H,0,1
 .2014200674,-4.027588412,2.8128157998\C,0,-0.150234753,-2.3774708977,2
 .4587488301\H,0,-0.8529418968,-2.6799546026,3.2273746869\C,0,-0.421126
 8815,-1.2468646533,1.6914698331\S,0,-1.952706202,-0.3631369861,1.88182
 04297\C,0,-1.3268253707,1.2832473847,1.5935037149\C,0,-0.3188556937,1.
 4665678932,0.6300348685\C,0,0.1449004202,2.7654455614,0.389193741\H,0,
 0.9520659761,2.9332841047,-0.3120119733\C,0,-0.4181045002,3.8546332823
 ,1.0541676731\H,0,-0.0509326201,4.8519982195,0.8394829856\C,0,-1.42312
 16694,3.6646381681,1.9996835624\H,0,-1.8545731417,4.5088476164,2.52294
 86879\C,0,-1.8617569294,2.3712415037,2.2825337391\H,0,-2.6283184705,2.
 2001791148,3.0301077076\H,0,-1.036714232,-2.6696276219,-3.0420152406\\
 Version=ES64L-G16RevA.03\State=1-A\HF=-1543.127446\MP2=-1545.8321654\R
 MSD=6.823e-09\PG=C01 [X(C15H16Cl1N2S1)]\\@


 THE WORLD IS MADE UP OF THE WILLS, THE WON'TS, AND THE CANT'S:
 THE WILLS DO EVERYTHING,
 THE WON'TS DO NOTHING,
 THE CAN'TS CAN'T DO ANYTHING.

                               -- FROM WALT DISNEY'S "BLACK HOLE"
 Job cpu time:       0 days  4 hours  2 minutes 27.6 seconds.
 Elapsed time:       0 days  1 hours 24 minutes 24.3 seconds.
 File lengths (MBytes):  RWF= 106130 Int=      0 D2E=      0 Chk=     29 Scr=      1
 Normal termination of Gaussian 16 at Sun Jul 18 18:38:56 2021.
