 Entering Gaussian System, Link 0=g16
 Input=SET_328_BBB20_conf1.geo_120_180_180_OCTANOL.dat
 Output=SET_328_BBB20_conf1.geo_120_180_180_OCTANOL.log
 Initial command:
 /dades/curu/g16A03_MST/g16/l1.exe "/tmp/ubator02/1839507/Gau-203650.inp" -scrdir="/tmp/ubator02/1839507/"
 Entering Link 1 = /dades/curu/g16A03_MST/g16/l1.exe PID=    203656.
  
 Copyright (c) 1988,1990,1992,1993,1995,1998,2003,2009,2016,
            Gaussian, Inc.  All Rights Reserved.
  
 This is part of the Gaussian(R) 16 program.  It is based on
 the Gaussian(R) 09 system (copyright 2009, Gaussian, Inc.),
 the Gaussian(R) 03 system (copyright 2003, Gaussian, Inc.),
 the Gaussian(R) 98 system (copyright 1998, Gaussian, Inc.),
 the Gaussian(R) 94 system (copyright 1995, Gaussian, Inc.),
 the Gaussian 92(TM) system (copyright 1992, Gaussian, Inc.),
 the Gaussian 90(TM) system (copyright 1990, Gaussian, Inc.),
 the Gaussian 88(TM) system (copyright 1988, Gaussian, Inc.),
 the Gaussian 86(TM) system (copyright 1986, Carnegie Mellon
 University), and the Gaussian 82(TM) system (copyright 1983,
 Carnegie Mellon University). Gaussian is a federally registered
 trademark of Gaussian, Inc.
  
 This software contains proprietary and confidential information,
 including trade secrets, belonging to Gaussian, Inc.
  
 This software is provided under written license and may be
 used, copied, transmitted, or stored only in accord with that
 written license.
  
 The following legend is applicable only to US Government
 contracts under FAR:
  
                    RESTRICTED RIGHTS LEGEND
  
 Use, reproduction and disclosure by the US Government is
 subject to restrictions as set forth in subparagraphs (a)
 and (c) of the Commercial Computer Software - Restricted
 Rights clause in FAR 52.227-19.
  
 Gaussian, Inc.
 340 Quinnipiac St., Bldg. 40, Wallingford CT 06492
  
  
 ---------------------------------------------------------------
 Warning -- This program may not be used in any manner that
 competes with the business of Gaussian, Inc. or will provide
 assistance to any competitor of Gaussian, Inc.  The licensee
 of this program is prohibited from giving any competitor of
 Gaussian, Inc. access to this program.  By using this program,
 the user acknowledges that Gaussian, Inc. is engaged in the
 business of creating and licensing software in the field of
 computational chemistry and represents and warrants to the
 licensee that it is not a competitor of Gaussian, Inc. and that
 it will not use this program in any manner prohibited above.
 ---------------------------------------------------------------
  

 Cite this work as:
 Gaussian 16, Revision A.03,
 M. J. Frisch, G. W. Trucks, H. B. Schlegel, G. E. Scuseria, 
 M. A. Robb, J. R. Cheeseman, G. Scalmani, V. Barone, 
 G. A. Petersson, H. Nakatsuji, X. Li, M. Caricato, A. V. Marenich, 
 J. Bloino, B. G. Janesko, R. Gomperts, B. Mennucci, H. P. Hratchian, 
 J. V. Ortiz, A. F. Izmaylov, J. L. Sonnenberg, D. Williams-Young, 
 F. Ding, F. Lipparini, F. Egidi, J. Goings, B. Peng, A. Petrone, 
 T. Henderson, D. Ranasinghe, V. G. Zakrzewski, J. Gao, N. Rega, 
 G. Zheng, W. Liang, M. Hada, M. Ehara, K. Toyota, R. Fukuda, 
 J. Hasegawa, M. Ishida, T. Nakajima, Y. Honda, O. Kitao, H. Nakai, 
 T. Vreven, K. Throssell, J. A. Montgomery, Jr., J. E. Peralta, 
 F. Ogliaro, M. J. Bearpark, J. J. Heyd, E. N. Brothers, K. N. Kudin, 
 V. N. Staroverov, T. A. Keith, R. Kobayashi, J. Normand, 
 K. Raghavachari, A. P. Rendell, J. C. Burant, S. S. Iyengar, 
 J. Tomasi, M. Cossi, J. M. Millam, M. Klene, C. Adamo, R. Cammi, 
 J. W. Ochterski, R. L. Martin, K. Morokuma, O. Farkas, 
 J. B. Foresman, and D. J. Fox, Gaussian, Inc., Wallingford CT, 2016.
 
 ******************************************
 Gaussian 16:  ES64L-G16RevA.03 25-Dec-2016
                18-Jul-2021 
 ******************************************
 %mem=800MB
 %nproc=4
 Will use up to    4 processors via shared memory.
 %chk=SET_328_BBB20_conf1.geo_120_180_180.chk
 ---------------------------------------------------------------
 #p b3lyp/6-31G(d) opt freq scrf=(iefpcm,read,solvent=n-octanol)
 ---------------------------------------------------------------
 1/18=20,19=15,26=3,38=1,40=2/1,3;
 2/9=110,12=2,17=6,18=5,40=1/2;
 3/5=1,6=6,7=1,11=2,25=1,30=1,70=2203,71=1,72=25,74=-5/1,2,3;
 4//1;
 5/5=2,38=5,53=25/2;
 6/7=2,8=2,9=2,10=2,28=1/1;
 7//1,2,3,16;
 1/18=20,19=15,26=3/3(2);
 2/9=110/2;
 99//99;
 2/9=110/2;
 3/5=1,6=6,7=1,11=2,25=1,30=1,70=2205,71=1,72=25,74=-5/1,2,3;
 4/5=5,16=3,69=1/1;
 5/5=2,38=5,53=25/2;
 7//1,2,3,16;
 1/18=20,19=15,26=3/3(-5);
 2/9=110/2;
 6/7=2,8=2,9=2,10=2,19=2,28=1/1;
 99/9=1/99;
 Leave Link    1 at Sun Jul 18 13:31:21 2021, MaxMem=   104857600 cpu:               0.0 elap:               0.0
 (Enter /dades/curu/g16A03_MST/g16/l101.exe)
 --------------------------------------------
 SET_328_BBB20_conf1.geo_120_180_180 geometry
 --------------------------------------------
 Symbolic Z-matrix:
 Charge =  1 Multiplicity = 1
 N                     2.963    -1.814     3.064 
 H                     2.836    -0.886     3.413 
 H                     3.863    -2.153     3.339 
 C                     2.871    -1.803     1.61 
 H                     2.937    -2.854     1.317 
 H                     3.81     -1.402     1.221 
 C                     1.551    -1.104     1.206 
 H                     1.742    -0.082     1.54 
 H                     0.66     -1.444     1.739 
 C                     1.344    -1.019    -0.279 
 H                     1.41     -2.048    -0.643 
 H                     2.258    -0.605    -0.714 
 N                     0.099    -0.367    -0.65 
 C                     0.261     0.747    -1.402 
 C                     0.64      0.606    -2.718 
 H                     0.676    -0.379    -3.176 
 C                     0.693     1.706    -3.576 
 H                     1.024     1.568    -4.603 
 C                     0.504     2.99     -3.071 
 H                     0.594     3.881    -3.687 
 C                     0.086     3.156    -1.758 
 H                    -0.072     4.164    -1.382 
 C                    -0.131     2.042    -0.972 
 C                    -0.569     2.316     0.455 
 H                    -0.655     3.378     0.693 
 H                     0.108     1.746     1.095 
 C                    -1.941     1.652     0.679 
 H                    -2.573     2.045    -0.12 
 H                    -2.376     2.047     1.599 
 C                    -2.021     0.097     0.634 
 C                    -3.212    -0.443     1.137 
 H                    -3.998     0.107     1.649 
 C                    -3.355    -1.842     1.062 
 H                    -4.192    -2.366     1.516 
 C                    -2.416    -2.58      0.397 
 H                    -2.679    -3.629     0.287 
 C                    -1.257    -2.072    -0.103 
 H                    -0.604    -2.751    -0.645 
 C                    -1.022    -0.728     0.023 
 H                     2.253    -2.411     3.438 
 
 ITRead=  0  0  0  0  0  0  0  0  0  0  0  0  0  0  0  0  0  0  0  0
 ITRead=  0  0  0  0  0  0  0  0  0  0  0  0  0  0  0  0  0  0  0  0
 MicOpt= -1 -1 -1 -1 -1 -1 -1 -1 -1 -1 -1 -1 -1 -1 -1 -1 -1 -1 -1 -1
 MicOpt= -1 -1 -1 -1 -1 -1 -1 -1 -1 -1 -1 -1 -1 -1 -1 -1 -1 -1 -1 -1
 NAtoms=     40 NQM=       40 NQMF=       0 NMMI=      0 NMMIF=      0
                NMic=       0 NMicF=      0.
                    Isotopes and Nuclear Properties:
 (Nuclear quadrupole moments (NQMom) in fm**2, nuclear magnetic moments (NMagM)
  in nuclear magnetons)

  Atom         1           2           3           4           5           6           7           8           9          10
 IAtWgt=          14           1           1          12           1           1          12           1           1          12
 AtmWgt=  14.0030740   1.0078250   1.0078250  12.0000000   1.0078250   1.0078250  12.0000000   1.0078250   1.0078250  12.0000000
 NucSpn=           2           1           1           0           1           1           0           1           1           0
 AtZEff=  -0.0000000  -0.0000000  -0.0000000  -0.0000000  -0.0000000  -0.0000000  -0.0000000  -0.0000000  -0.0000000  -0.0000000
 NQMom=    2.0440000   0.0000000   0.0000000   0.0000000   0.0000000   0.0000000   0.0000000   0.0000000   0.0000000   0.0000000
 NMagM=    0.4037610   2.7928460   2.7928460   0.0000000   2.7928460   2.7928460   0.0000000   2.7928460   2.7928460   0.0000000
 AtZNuc=   7.0000000   1.0000000   1.0000000   6.0000000   1.0000000   1.0000000   6.0000000   1.0000000   1.0000000   6.0000000

  Atom        11          12          13          14          15          16          17          18          19          20
 IAtWgt=           1           1          14          12          12           1          12           1          12           1
 AtmWgt=   1.0078250   1.0078250  14.0030740  12.0000000  12.0000000   1.0078250  12.0000000   1.0078250  12.0000000   1.0078250
 NucSpn=           1           1           2           0           0           1           0           1           0           1
 AtZEff=  -0.0000000  -0.0000000  -0.0000000  -0.0000000  -0.0000000  -0.0000000  -0.0000000  -0.0000000  -0.0000000  -0.0000000
 NQMom=    0.0000000   0.0000000   2.0440000   0.0000000   0.0000000   0.0000000   0.0000000   0.0000000   0.0000000   0.0000000
 NMagM=    2.7928460   2.7928460   0.4037610   0.0000000   0.0000000   2.7928460   0.0000000   2.7928460   0.0000000   2.7928460
 AtZNuc=   1.0000000   1.0000000   7.0000000   6.0000000   6.0000000   1.0000000   6.0000000   1.0000000   6.0000000   1.0000000

  Atom        21          22          23          24          25          26          27          28          29          30
 IAtWgt=          12           1          12          12           1           1          12           1           1          12
 AtmWgt=  12.0000000   1.0078250  12.0000000  12.0000000   1.0078250   1.0078250  12.0000000   1.0078250   1.0078250  12.0000000
 NucSpn=           0           1           0           0           1           1           0           1           1           0
 AtZEff=  -0.0000000  -0.0000000  -0.0000000  -0.0000000  -0.0000000  -0.0000000  -0.0000000  -0.0000000  -0.0000000  -0.0000000
 NQMom=    0.0000000   0.0000000   0.0000000   0.0000000   0.0000000   0.0000000   0.0000000   0.0000000   0.0000000   0.0000000
 NMagM=    0.0000000   2.7928460   0.0000000   0.0000000   2.7928460   2.7928460   0.0000000   2.7928460   2.7928460   0.0000000
 AtZNuc=   6.0000000   1.0000000   6.0000000   6.0000000   1.0000000   1.0000000   6.0000000   1.0000000   1.0000000   6.0000000

  Atom        31          32          33          34          35          36          37          38          39          40
 IAtWgt=          12           1          12           1          12           1          12           1          12           1
 AtmWgt=  12.0000000   1.0078250  12.0000000   1.0078250  12.0000000   1.0078250  12.0000000   1.0078250  12.0000000   1.0078250
 NucSpn=           0           1           0           1           0           1           0           1           0           1
 AtZEff=  -0.0000000  -0.0000000  -0.0000000  -0.0000000  -0.0000000  -0.0000000  -0.0000000  -0.0000000  -0.0000000  -0.0000000
 NQMom=    0.0000000   0.0000000   0.0000000   0.0000000   0.0000000   0.0000000   0.0000000   0.0000000   0.0000000   0.0000000
 NMagM=    0.0000000   2.7928460   0.0000000   2.7928460   0.0000000   2.7928460   0.0000000   2.7928460   0.0000000   2.7928460
 AtZNuc=   6.0000000   1.0000000   6.0000000   1.0000000   6.0000000   1.0000000   6.0000000   1.0000000   6.0000000   1.0000000
 Leave Link  101 at Sun Jul 18 13:31:21 2021, MaxMem=   104857600 cpu:               0.1 elap:               0.1
 (Enter /dades/curu/g16A03_MST/g16/l103.exe)

 GradGradGradGradGradGradGradGradGradGradGradGradGradGradGradGradGradGrad
 Berny optimization.
 Initialization pass.
                           ----------------------------
                           !    Initial Parameters    !
                           ! (Angstroms and Degrees)  !
 --------------------------                            --------------------------
 ! Name  Definition              Value          Derivative Info.                !
 --------------------------------------------------------------------------------
 ! R1    R(1,2)                  0.9996         estimate D2E/DX2                !
 ! R2    R(1,3)                  1.0003         estimate D2E/DX2                !
 ! R3    R(1,4)                  1.4569         estimate D2E/DX2                !
 ! R4    R(1,40)                 1.0002         estimate D2E/DX2                !
 ! R5    R(4,5)                  1.0931         estimate D2E/DX2                !
 ! R6    R(4,6)                  1.0926         estimate D2E/DX2                !
 ! R7    R(4,7)                  1.5473         estimate D2E/DX2                !
 ! R8    R(7,8)                  1.092          estimate D2E/DX2                !
 ! R9    R(7,9)                  1.0925         estimate D2E/DX2                !
 ! R10   R(7,10)                 1.5018         estimate D2E/DX2                !
 ! R11   R(10,11)                1.0935         estimate D2E/DX2                !
 ! R12   R(10,12)                1.0936         estimate D2E/DX2                !
 ! R13   R(10,13)                1.4535         estimate D2E/DX2                !
 ! R14   R(13,14)                1.3538         estimate D2E/DX2                !
 ! R15   R(13,39)                1.3564         estimate D2E/DX2                !
 ! R16   R(14,15)                1.3767         estimate D2E/DX2                !
 ! R17   R(14,23)                1.4197         estimate D2E/DX2                !
 ! R18   R(15,16)                1.0869         estimate D2E/DX2                !
 ! R19   R(15,17)                1.3961         estimate D2E/DX2                !
 ! R20   R(17,18)                1.0878         estimate D2E/DX2                !
 ! R21   R(17,19)                1.3926         estimate D2E/DX2                !
 ! R22   R(19,20)                1.0869         estimate D2E/DX2                !
 ! R23   R(19,21)                1.3879         estimate D2E/DX2                !
 ! R24   R(21,22)                1.0874         estimate D2E/DX2                !
 ! R25   R(21,23)                1.3805         estimate D2E/DX2                !
 ! R26   R(23,24)                1.5176         estimate D2E/DX2                !
 ! R27   R(24,25)                1.0917         estimate D2E/DX2                !
 ! R28   R(24,26)                1.0922         estimate D2E/DX2                !
 ! R29   R(24,27)                1.5406         estimate D2E/DX2                !
 ! R30   R(27,28)                1.0919         estimate D2E/DX2                !
 ! R31   R(27,29)                1.0916         estimate D2E/DX2                !
 ! R32   R(27,30)                1.5577         estimate D2E/DX2                !
 ! R33   R(30,31)                1.4011         estimate D2E/DX2                !
 ! R34   R(30,39)                1.4325         estimate D2E/DX2                !
 ! R35   R(31,32)                1.0874         estimate D2E/DX2                !
 ! R36   R(31,33)                1.4083         estimate D2E/DX2                !
 ! R37   R(33,34)                1.0869         estimate D2E/DX2                !
 ! R38   R(33,35)                1.367          estimate D2E/DX2                !
 ! R39   R(35,36)                1.087          estimate D2E/DX2                !
 ! R40   R(35,37)                1.3606         estimate D2E/DX2                !
 ! R41   R(37,38)                1.0868         estimate D2E/DX2                !
 ! R42   R(37,39)                1.3702         estimate D2E/DX2                !
 ! A1    A(2,1,3)              109.4494         estimate D2E/DX2                !
 ! A2    A(2,1,4)              109.4762         estimate D2E/DX2                !
 ! A3    A(2,1,40)             109.4755         estimate D2E/DX2                !
 ! A4    A(3,1,4)              109.4961         estimate D2E/DX2                !
 ! A5    A(3,1,40)             109.4881         estimate D2E/DX2                !
 ! A6    A(4,1,40)             109.442          estimate D2E/DX2                !
 ! A7    A(1,4,5)              104.8588         estimate D2E/DX2                !
 ! A8    A(1,4,6)              107.6863         estimate D2E/DX2                !
 ! A9    A(1,4,7)              108.5327         estimate D2E/DX2                !
 ! A10   A(5,4,6)              101.862          estimate D2E/DX2                !
 ! A11   A(5,4,7)              114.5749         estimate D2E/DX2                !
 ! A12   A(6,4,7)              118.3194         estimate D2E/DX2                !
 ! A13   A(4,7,8)              101.1696         estimate D2E/DX2                !
 ! A14   A(4,7,9)              115.3261         estimate D2E/DX2                !
 ! A15   A(4,7,10)             113.6618         estimate D2E/DX2                !
 ! A16   A(8,7,9)              106.5399         estimate D2E/DX2                !
 ! A17   A(8,7,10)             105.8772         estimate D2E/DX2                !
 ! A18   A(9,7,10)             112.8067         estimate D2E/DX2                !
 ! A19   A(7,10,11)            105.5206         estimate D2E/DX2                !
 ! A20   A(7,10,12)            107.4304         estimate D2E/DX2                !
 ! A21   A(7,10,13)            113.3184         estimate D2E/DX2                !
 ! A22   A(11,10,12)            99.9846         estimate D2E/DX2                !
 ! A23   A(11,10,13)           112.8826         estimate D2E/DX2                !
 ! A24   A(12,10,13)           116.3925         estimate D2E/DX2                !
 ! A25   A(10,13,14)           114.104          estimate D2E/DX2                !
 ! A26   A(10,13,39)           117.5065         estimate D2E/DX2                !
 ! A27   A(14,13,39)           126.4058         estimate D2E/DX2                !
 ! A28   A(13,14,15)           118.662          estimate D2E/DX2                !
 ! A29   A(13,14,23)           123.3195         estimate D2E/DX2                !
 ! A30   A(15,14,23)           117.3193         estimate D2E/DX2                !
 ! A31   A(14,15,16)           120.3142         estimate D2E/DX2                !
 ! A32   A(14,15,17)           121.1468         estimate D2E/DX2                !
 ! A33   A(16,15,17)           116.9904         estimate D2E/DX2                !
 ! A34   A(15,17,18)           119.4606         estimate D2E/DX2                !
 ! A35   A(15,17,19)           119.898          estimate D2E/DX2                !
 ! A36   A(18,17,19)           120.0406         estimate D2E/DX2                !
 ! A37   A(17,19,20)           122.6188         estimate D2E/DX2                !
 ! A38   A(17,19,21)           119.6175         estimate D2E/DX2                !
 ! A39   A(20,19,21)           117.5835         estimate D2E/DX2                !
 ! A40   A(19,21,22)           118.8004         estimate D2E/DX2                !
 ! A41   A(19,21,23)           119.3043         estimate D2E/DX2                !
 ! A42   A(22,21,23)           121.8916         estimate D2E/DX2                !
 ! A43   A(14,23,21)           121.346          estimate D2E/DX2                !
 ! A44   A(14,23,24)           121.9486         estimate D2E/DX2                !
 ! A45   A(21,23,24)           115.7864         estimate D2E/DX2                !
 ! A46   A(23,24,25)           113.7872         estimate D2E/DX2                !
 ! A47   A(23,24,26)           106.1331         estimate D2E/DX2                !
 ! A48   A(23,24,27)           108.4163         estimate D2E/DX2                !
 ! A49   A(25,24,26)           115.3893         estimate D2E/DX2                !
 ! A50   A(25,24,27)           108.5065         estimate D2E/DX2                !
 ! A51   A(26,24,27)           103.9982         estimate D2E/DX2                !
 ! A52   A(24,27,28)           104.7107         estimate D2E/DX2                !
 ! A53   A(24,27,29)           108.7513         estimate D2E/DX2                !
 ! A54   A(24,27,30)           118.1504         estimate D2E/DX2                !
 ! A55   A(28,27,29)           104.822          estimate D2E/DX2                !
 ! A56   A(28,27,30)           107.9646         estimate D2E/DX2                !
 ! A57   A(29,27,30)           111.4136         estimate D2E/DX2                !
 ! A58   A(27,30,31)           114.71           estimate D2E/DX2                !
 ! A59   A(27,30,39)           123.4656         estimate D2E/DX2                !
 ! A60   A(31,30,39)           121.5996         estimate D2E/DX2                !
 ! A61   A(30,31,32)           126.0528         estimate D2E/DX2                !
 ! A62   A(30,31,33)           116.7478         estimate D2E/DX2                !
 ! A63   A(32,31,33)           117.0094         estimate D2E/DX2                !
 ! A64   A(31,33,34)           122.3369         estimate D2E/DX2                !
 ! A65   A(31,33,35)           119.5036         estimate D2E/DX2                !
 ! A66   A(34,33,35)           118.1595         estimate D2E/DX2                !
 ! A67   A(33,35,36)           113.8297         estimate D2E/DX2                !
 ! A68   A(33,35,37)           124.2168         estimate D2E/DX2                !
 ! A69   A(36,35,37)           121.9505         estimate D2E/DX2                !
 ! A70   A(35,37,38)           117.5028         estimate D2E/DX2                !
 ! A71   A(35,37,39)           118.5885         estimate D2E/DX2                !
 ! A72   A(38,37,39)           123.7532         estimate D2E/DX2                !
 ! A73   A(13,39,30)           129.3984         estimate D2E/DX2                !
 ! A74   A(13,39,37)           110.9264         estimate D2E/DX2                !
 ! A75   A(30,39,37)           118.982          estimate D2E/DX2                !
 ! D1    D(2,1,4,5)           -175.4962         estimate D2E/DX2                !
 ! D2    D(2,1,4,6)             76.576          estimate D2E/DX2                !
 ! D3    D(2,1,4,7)            -52.6256         estimate D2E/DX2                !
 ! D4    D(3,1,4,5)             64.5123         estimate D2E/DX2                !
 ! D5    D(3,1,4,6)            -43.4155         estimate D2E/DX2                !
 ! D6    D(3,1,4,7)           -172.6172         estimate D2E/DX2                !
 ! D7    D(40,1,4,5)           -55.5058         estimate D2E/DX2                !
 ! D8    D(40,1,4,6)          -163.4336         estimate D2E/DX2                !
 ! D9    D(40,1,4,7)            67.3648         estimate D2E/DX2                !
 ! D10   D(1,4,7,8)             66.5084         estimate D2E/DX2                !
 ! D11   D(1,4,7,9)            -47.9782         estimate D2E/DX2                !
 ! D12   D(1,4,7,10)           179.5235         estimate D2E/DX2                !
 ! D13   D(5,4,7,8)           -176.7027         estimate D2E/DX2                !
 ! D14   D(5,4,7,9)             68.8107         estimate D2E/DX2                !
 ! D15   D(5,4,7,10)           -63.6876         estimate D2E/DX2                !
 ! D16   D(6,4,7,8)            -56.4912         estimate D2E/DX2                !
 ! D17   D(6,4,7,9)           -170.9778         estimate D2E/DX2                !
 ! D18   D(6,4,7,10)            56.5239         estimate D2E/DX2                !
 ! D19   D(4,7,10,11)           55.7198         estimate D2E/DX2                !
 ! D20   D(4,7,10,12)          -50.2898         estimate D2E/DX2                !
 ! D21   D(4,7,10,13)          179.7177         estimate D2E/DX2                !
 ! D22   D(8,7,10,11)          165.8717         estimate D2E/DX2                !
 ! D23   D(8,7,10,12)           59.8622         estimate D2E/DX2                !
 ! D24   D(8,7,10,13)          -70.1303         estimate D2E/DX2                !
 ! D25   D(9,7,10,11)          -77.9812         estimate D2E/DX2                !
 ! D26   D(9,7,10,12)          176.0093         estimate D2E/DX2                !
 ! D27   D(9,7,10,13)           46.0168         estimate D2E/DX2                !
 ! D28   D(7,10,13,14)         119.8876         estimate D2E/DX2                !
 ! D29   D(7,10,13,39)         -45.1351         estimate D2E/DX2                !
 ! D30   D(11,10,13,14)       -120.2312         estimate D2E/DX2                !
 ! D31   D(11,10,13,39)         74.7461         estimate D2E/DX2                !
 ! D32   D(12,10,13,14)         -5.4259         estimate D2E/DX2                !
 ! D33   D(12,10,13,39)       -170.4486         estimate D2E/DX2                !
 ! D34   D(10,13,14,15)         73.0403         estimate D2E/DX2                !
 ! D35   D(10,13,14,23)       -116.8088         estimate D2E/DX2                !
 ! D36   D(39,13,14,15)       -123.507          estimate D2E/DX2                !
 ! D37   D(39,13,14,23)         46.6439         estimate D2E/DX2                !
 ! D38   D(10,13,39,30)        131.4462         estimate D2E/DX2                !
 ! D39   D(10,13,39,37)        -58.3617         estimate D2E/DX2                !
 ! D40   D(14,13,39,30)        -31.5097         estimate D2E/DX2                !
 ! D41   D(14,13,39,37)        138.6823         estimate D2E/DX2                !
 ! D42   D(13,14,15,16)          8.1668         estimate D2E/DX2                !
 ! D43   D(13,14,15,17)        173.5491         estimate D2E/DX2                !
 ! D44   D(23,14,15,16)       -162.5752         estimate D2E/DX2                !
 ! D45   D(23,14,15,17)          2.8072         estimate D2E/DX2                !
 ! D46   D(13,14,23,21)        178.247          estimate D2E/DX2                !
 ! D47   D(13,14,23,24)          9.6827         estimate D2E/DX2                !
 ! D48   D(15,14,23,21)        -11.479          estimate D2E/DX2                !
 ! D49   D(15,14,23,24)        179.9567         estimate D2E/DX2                !
 ! D50   D(14,15,17,18)        178.2301         estimate D2E/DX2                !
 ! D51   D(14,15,17,19)          7.1106         estimate D2E/DX2                !
 ! D52   D(16,15,17,18)        -15.9216         estimate D2E/DX2                !
 ! D53   D(16,15,17,19)        172.9589         estimate D2E/DX2                !
 ! D54   D(15,17,19,20)        176.2917         estimate D2E/DX2                !
 ! D55   D(15,17,19,21)         -8.7085         estimate D2E/DX2                !
 ! D56   D(18,17,19,20)          5.2241         estimate D2E/DX2                !
 ! D57   D(18,17,19,21)       -179.776          estimate D2E/DX2                !
 ! D58   D(17,19,21,22)       -179.0783         estimate D2E/DX2                !
 ! D59   D(17,19,21,23)          0.2338         estimate D2E/DX2                !
 ! D60   D(20,19,21,22)         -3.8293         estimate D2E/DX2                !
 ! D61   D(20,19,21,23)        175.4828         estimate D2E/DX2                !
 ! D62   D(19,21,23,14)         10.0146         estimate D2E/DX2                !
 ! D63   D(19,21,23,24)        179.2462         estimate D2E/DX2                !
 ! D64   D(22,21,23,14)       -170.6953         estimate D2E/DX2                !
 ! D65   D(22,21,23,24)         -1.4638         estimate D2E/DX2                !
 ! D66   D(14,23,24,25)        168.802          estimate D2E/DX2                !
 ! D67   D(14,23,24,26)         40.8295         estimate D2E/DX2                !
 ! D68   D(14,23,24,27)        -70.376          estimate D2E/DX2                !
 ! D69   D(21,23,24,25)         -0.3587         estimate D2E/DX2                !
 ! D70   D(21,23,24,26)       -128.3312         estimate D2E/DX2                !
 ! D71   D(21,23,24,27)        120.4633         estimate D2E/DX2                !
 ! D72   D(23,24,27,28)        -54.2439         estimate D2E/DX2                !
 ! D73   D(23,24,27,29)       -165.8634         estimate D2E/DX2                !
 ! D74   D(23,24,27,30)         65.8981         estimate D2E/DX2                !
 ! D75   D(25,24,27,28)         69.7944         estimate D2E/DX2                !
 ! D76   D(25,24,27,29)        -41.825          estimate D2E/DX2                !
 ! D77   D(25,24,27,30)       -170.0636         estimate D2E/DX2                !
 ! D78   D(26,24,27,28)       -166.8777         estimate D2E/DX2                !
 ! D79   D(26,24,27,29)         81.5029         estimate D2E/DX2                !
 ! D80   D(26,24,27,30)        -46.7357         estimate D2E/DX2                !
 ! D81   D(24,27,30,31)        166.275          estimate D2E/DX2                !
 ! D82   D(24,27,30,39)        -19.1041         estimate D2E/DX2                !
 ! D83   D(28,27,30,31)        -75.2836         estimate D2E/DX2                !
 ! D84   D(28,27,30,39)         99.3373         estimate D2E/DX2                !
 ! D85   D(29,27,30,31)         39.3003         estimate D2E/DX2                !
 ! D86   D(29,27,30,39)       -146.0789         estimate D2E/DX2                !
 ! D87   D(27,30,31,32)         -7.9347         estimate D2E/DX2                !
 ! D88   D(27,30,31,33)        177.2481         estimate D2E/DX2                !
 ! D89   D(39,30,31,32)        177.3335         estimate D2E/DX2                !
 ! D90   D(39,30,31,33)          2.5163         estimate D2E/DX2                !
 ! D91   D(27,30,39,13)         -2.947          estimate D2E/DX2                !
 ! D92   D(27,30,39,37)       -172.4672         estimate D2E/DX2                !
 ! D93   D(31,30,39,13)        171.3146         estimate D2E/DX2                !
 ! D94   D(31,30,39,37)          1.7943         estimate D2E/DX2                !
 ! D95   D(30,31,33,34)        173.5059         estimate D2E/DX2                !
 ! D96   D(30,31,33,35)         -6.5431         estimate D2E/DX2                !
 ! D97   D(32,31,33,34)         -1.792          estimate D2E/DX2                !
 ! D98   D(32,31,33,35)        178.159          estimate D2E/DX2                !
 ! D99   D(31,33,35,36)       -172.6685         estimate D2E/DX2                !
 ! D100  D(31,33,35,37)          6.715          estimate D2E/DX2                !
 ! D101  D(34,33,35,36)          7.2846         estimate D2E/DX2                !
 ! D102  D(34,33,35,37)       -173.332          estimate D2E/DX2                !
 ! D103  D(33,35,37,38)       -177.8337         estimate D2E/DX2                !
 ! D104  D(33,35,37,39)         -2.1952         estimate D2E/DX2                !
 ! D105  D(36,35,37,38)          1.5016         estimate D2E/DX2                !
 ! D106  D(36,35,37,39)        177.1401         estimate D2E/DX2                !
 ! D107  D(35,37,39,13)       -173.4092         estimate D2E/DX2                !
 ! D108  D(35,37,39,30)         -2.0639         estimate D2E/DX2                !
 ! D109  D(38,37,39,13)          1.9373         estimate D2E/DX2                !
 ! D110  D(38,37,39,30)        173.2826         estimate D2E/DX2                !
 --------------------------------------------------------------------------------
 Trust Radius=3.00D-01 FncErr=1.00D-07 GrdErr=1.00D-06 EigMax=2.50D+02 EigMin=1.00D-04
 Number of steps in this run=    237 maximum allowed number of steps=    240.
 GradGradGradGradGradGradGradGradGradGradGradGradGradGradGradGradGradGrad

 Leave Link  103 at Sun Jul 18 13:31:21 2021, MaxMem=   104857600 cpu:               0.0 elap:               0.0
 (Enter /dades/curu/g16A03_MST/g16/l202.exe)
                          Input orientation:                          
 ---------------------------------------------------------------------
 Center     Atomic      Atomic             Coordinates (Angstroms)
 Number     Number       Type             X           Y           Z
 ---------------------------------------------------------------------
      1          7           0        2.963000   -1.814000    3.064000
      2          1           0        2.836000   -0.886000    3.413000
      3          1           0        3.863000   -2.153000    3.339000
      4          6           0        2.871000   -1.803000    1.610000
      5          1           0        2.937000   -2.854000    1.317000
      6          1           0        3.810000   -1.402000    1.221000
      7          6           0        1.551000   -1.104000    1.206000
      8          1           0        1.742000   -0.082000    1.540000
      9          1           0        0.660000   -1.444000    1.739000
     10          6           0        1.344000   -1.019000   -0.279000
     11          1           0        1.410000   -2.048000   -0.643000
     12          1           0        2.258000   -0.605000   -0.714000
     13          7           0        0.099000   -0.367000   -0.650000
     14          6           0        0.261000    0.747000   -1.402000
     15          6           0        0.640000    0.606000   -2.718000
     16          1           0        0.676000   -0.379000   -3.176000
     17          6           0        0.693000    1.706000   -3.576000
     18          1           0        1.024000    1.568000   -4.603000
     19          6           0        0.504000    2.990000   -3.071000
     20          1           0        0.594000    3.881000   -3.687000
     21          6           0        0.086000    3.156000   -1.758000
     22          1           0       -0.072000    4.164000   -1.382000
     23          6           0       -0.131000    2.042000   -0.972000
     24          6           0       -0.569000    2.316000    0.455000
     25          1           0       -0.655000    3.378000    0.693000
     26          1           0        0.108000    1.746000    1.095000
     27          6           0       -1.941000    1.652000    0.679000
     28          1           0       -2.573000    2.045000   -0.120000
     29          1           0       -2.376000    2.047000    1.599000
     30          6           0       -2.021000    0.097000    0.634000
     31          6           0       -3.212000   -0.443000    1.137000
     32          1           0       -3.998000    0.107000    1.649000
     33          6           0       -3.355000   -1.842000    1.062000
     34          1           0       -4.192000   -2.366000    1.516000
     35          6           0       -2.416000   -2.580000    0.397000
     36          1           0       -2.679000   -3.629000    0.287000
     37          6           0       -1.257000   -2.072000   -0.103000
     38          1           0       -0.604000   -2.751000   -0.645000
     39          6           0       -1.022000   -0.728000    0.023000
     40          1           0        2.253000   -2.411000    3.438000
 ---------------------------------------------------------------------
                    Distance matrix (angstroms):
                    1          2          3          4          5
     1  N    0.000000
     2  H    0.999557   0.000000
     3  H    1.000273   1.632634   0.000000
     4  C    1.456949   2.023097   2.023859   0.000000
     5  H    2.033294   2.876880   2.331815   1.093072   0.000000
     6  H    2.069735   2.453527   2.247829   1.092631   1.696953
     7  C    2.439264   2.563123   3.315936   1.547326   2.235132
     8  H    2.610219   2.313305   3.467576   2.059462   3.026836
     9  H    2.682598   2.801538   3.649916   2.243667   2.711257
    10  C    3.798531   3.984296   4.552059   2.552392   2.907248
    11  H    4.025967   4.453634   4.678093   2.696397   2.612081
    12  H    4.028894   4.176742   4.625920   2.685507   3.105480
    13  N    4.908167   4.926307   5.767982   3.854047   4.255409
    14  C    5.814179   5.699258   6.622800   4.731463   5.246059
    15  C    6.684628   6.681141   7.395070   5.432516   5.790426
    16  H    6.799058   6.952523   7.466543   5.454502   5.605782
    17  C    7.850662   7.756097   8.529830   6.629582   7.054827
    18  H    8.601194   8.576813   9.218521   7.305917   7.632827
    19  C    8.170883   7.905938   8.878143   7.105442   7.702361
    20  H    9.144462   8.840863   9.821415   8.096344   8.711480
    21  C    7.498647   7.116144   8.272280   6.609942   7.328296
    22  H    8.044540   7.546588   8.813430   7.295094   8.098827
    23  C    6.382074   6.050165   7.220442   5.519307   6.214737
    24  C    6.028168   5.531419   6.923297   5.489425   6.305869
    25  H    6.757842   6.145501   7.616141   6.333745   7.220088
    26  H    4.970069   4.443257   5.859843   4.527118   5.404861
    27  C    6.461470   6.061017   7.432364   5.996593   6.671279
    28  H    7.461704   7.094373   8.426742   6.887463   7.511676
    29  H    6.749701   6.249642   7.719632   6.507967   7.233761
    30  C    5.864902   5.681512   6.855726   5.338000   5.810048
    31  C    6.612382   6.477247   7.604507   6.251097   6.607233
    32  H    7.358532   7.127503   8.352187   7.129711   7.547978
    33  C    6.627663   6.691010   7.575023   6.250192   6.377965
    34  H    7.341324   7.428445   8.261460   7.086027   7.148453
    35  C    6.052544   6.288831   6.947196   5.479732   5.438390
    36  H    6.545083   6.907326   7.368246   5.990585   5.762029
    37  C    5.282504   5.524627   6.169953   4.477400   4.496394
    38  H    5.230501   5.637303   6.015310   4.249630   4.049535
    39  C    5.129064   5.138213   6.073690   4.339314   4.676323
    40  H    1.000192   1.632832   1.633544   2.023159   2.272168
                    6          7          8          9         10
     6  H    0.000000
     7  C    2.278620   0.000000
     8  H    2.474022   1.092026   0.000000
     9  H    3.192583   1.092506   1.750820   0.000000
    10  C    2.911674   1.501765   2.084499   2.172741   0.000000
    11  H    3.106737   2.080821   2.956496   2.569288   1.093477
    12  H    2.605406   2.106003   2.370717   3.045445   1.093626
    13  N    4.282918   2.469050   2.752594   2.679920   1.453537
    14  C    4.908537   3.448473   3.396464   3.850398   2.356432
    15  C    5.440284   4.376277   4.451776   4.905889   3.014127
    16  H    5.495643   4.526939   4.844091   5.029086   3.041124
    17  C    6.510496   5.612467   5.520036   6.178415   4.326619
    18  H    7.106453   6.415746   6.401131   7.030335   5.048955
    19  C    6.974279   6.012468   5.677248   6.543760   4.957111
    20  H    7.895645   7.050356   6.659189   7.602727   6.015560
    21  C    6.596816   5.392506   4.909560   5.806762   4.604414
    22  H    7.268142   6.089638   5.464174   6.459577   5.484994
    23  C    5.674669   4.179728   3.785452   4.486357   3.467794
    24  C    5.795336   4.093263   3.502620   4.158930   3.914147
    25  H    6.562272   5.021746   4.293555   5.106371   4.926905
    26  H    4.861130   3.196415   2.491900   3.300839   3.325778
    27  C    6.534117   4.479657   4.160837   4.180193   4.340879
    28  H    7.377180   5.355544   5.089101   5.106985   4.975567
    29  H    7.092607   5.050206   4.636167   4.628604   5.173552
    30  C    6.049143   3.811662   3.874667   3.283819   3.660908
    31  C    7.087681   4.809142   4.983457   4.044353   4.805618
    32  H    7.963990   5.696856   5.744145   4.910261   5.789821
    33  C    7.180258   4.963287   5.413455   4.091083   4.955422
    34  H    8.065254   5.888191   6.358427   4.943856   5.973586
    35  C    6.389815   4.309309   4.983515   3.543055   4.126899
    36  H    6.923800   5.011296   5.804865   4.246345   4.828766
    37  C    5.279807   3.245823   3.956457   2.731710   2.811581
    38  H    4.978469   3.283723   4.171511   2.998233   2.632201
    39  C    5.023714   2.856780   3.218431   2.507277   2.402882
    40  H    2.890920   2.680089   3.047584   2.521773   4.071859
                   11         12         13         14         15
    11  H    0.000000
    12  H    1.675230   0.000000
    13  N    2.131791   2.173021   0.000000
    14  C    3.115816   2.507839   1.353789   0.000000
    15  C    3.455755   2.846131   2.348624   1.376727   0.000000
    16  H    3.120962   2.935174   2.591090   2.141770   1.086869
    17  C    4.817582   3.997623   3.634782   2.415074   1.396056
    18  H    5.376435   4.622662   4.497339   3.391550   2.150843
    19  C    5.665462   4.642843   4.158692   2.806360   2.413827
    20  H    6.714524   5.633100   5.245369   3.892823   3.415655
    21  C    5.484325   4.466838   3.693151   2.441443   2.780470
    22  H    6.428949   5.349625   4.592932   3.433246   3.866679
    23  C    4.383038   3.574982   2.441283   1.419714   2.388525
    24  C    4.915948   4.229744   2.977539   2.568873   3.801804
    25  H    5.957399   5.131229   4.049344   3.485720   4.582132
    26  H    4.371531   3.663630   2.740415   2.693774   4.015170
    27  C    5.163999   4.966498   3.162942   3.162023   4.392640
    28  H    5.735021   5.542012   3.638438   3.370443   4.375351
    29  H    6.010772   5.818679   4.124442   4.201163   5.459783
    30  C    4.243055   4.540897   2.521577   3.126551   4.309977
    31  C    5.206468   5.776967   3.763225   4.463670   5.549714
    32  H    6.256497   6.725195   4.721810   5.278000   6.389893
    33  C    5.065046   6.015822   4.127552   5.084257   6.020061
    34  H    6.012055   7.048157   5.205789   6.167228   7.078684
    35  C    4.000362   5.194345   3.509815   4.633752   5.403051
    36  H    4.481560   5.875419   4.385875   5.535856   6.162874
    37  C    2.721225   3.857543   2.246101   3.455211   4.196250
    38  H    2.133169   3.577865   2.485496   3.682021   4.136945
    39  C    2.846152   3.364030   1.356426   2.419161   3.472014
    40  H    4.182939   4.527777   5.052662   6.112825   7.042755
                   16         17         18         19         20
    16  H    0.000000
    17  C    2.123091   0.000000
    18  H    2.438902   1.087812   0.000000
    19  C    3.375021   1.392624   2.153952   0.000000
    20  H    4.291322   2.180080   2.524663   1.086939   0.000000
    21  C    3.854225   2.403346   3.390518   1.387894   2.122435
    22  H    4.941335   3.382399   4.279635   2.136065   2.415920
    23  C    3.371959   2.751852   3.839643   2.389086   3.358388
    24  C    4.690118   4.267752   5.355419   3.746769   4.577986
    25  H    5.554797   4.778813   5.843180   3.957464   4.582293
    26  H    4.804133   4.707660   5.773902   4.365765   5.259462
    27  C    5.082782   5.004588   6.057871   4.672341   5.518752
    28  H    5.076506   4.767139   5.767428   4.366847   5.111191
    29  H    6.164479   6.026248   7.089023   5.567095   6.334529
    30  C    4.692173   5.261062   6.233942   5.335925   6.310937
    31  C    5.807117   6.486879   7.411843   6.580381   7.513560
    32  H    6.735213   7.201591   8.151227   7.131486   7.987643
    33  C    6.029094   7.105326   7.930698   7.437862   8.420233
    34  H    7.047018   8.146955   8.951267   8.472291   9.434088
    35  C    5.212600   6.619698   7.351157   7.181805   8.214845
    36  H    5.814714   7.399688   8.039472   8.075817   9.105235
    37  C    4.005754   5.489764   6.221138   6.126499   7.190929
    38  H    3.697397   5.489792   6.080289   6.330262   7.394078
    39  C    3.638490   4.671015   5.554962   5.071985   6.133387
    40  H    7.096545   8.281273   9.055416   8.636949   9.649206
                   21         22         23         24         25
    21  C    0.000000
    22  H    1.087384   0.000000
    23  C    1.380536   2.162051   0.000000
    24  C    2.456012   2.652674   1.517646   0.000000
    25  H    2.570168   2.294190   2.198112   1.091734   0.000000
    26  H    3.182482   3.466216   2.101720   1.092167   1.845859
    27  C    3.508520   3.748470   2.480726   1.540602   2.152456
    28  H    3.314762   3.512521   2.586364   2.102399   2.473172
    29  H    4.308222   4.321628   3.413223   2.155538   2.356743
    30  C    4.417985   4.939974   3.151882   2.657876   3.554490
    31  C    5.675441   6.117958   4.485049   3.881064   4.619029
    32  H    6.130506   6.407783   5.056437   4.250101   4.773785
    33  C    6.691254   7.267961   5.442131   5.041747   5.888511
    34  H    7.714457   8.247042   6.489401   6.014397   6.795678
    35  C    6.618589   7.358037   5.334629   5.233124   6.219847
    36  H    7.606805   8.385276   6.343313   6.310574   7.304756
    37  C    5.645765   6.475165   4.352934   4.476522   5.540625
    38  H    6.050415   6.974483   4.827371   5.185144   6.273554
    39  C    4.414191   5.177663   3.075192   3.107695   4.176461
    40  H    7.917436   8.477538   6.705279   6.261510   7.035909
                   26         27         28         29         30
    26  H    0.000000
    27  C    2.092915   0.000000
    28  H    2.958612   1.091913   0.000000
    29  H    2.552425   1.091627   1.730253   0.000000
    30  C    2.732099   1.557707   2.160538   2.204484   0.000000
    31  C    3.976919   2.492836   2.859810   2.666916   1.401103
    32  H    4.455611   2.749395   2.985939   2.529226   2.222353
    33  C    4.986703   3.788683   4.137320   4.046125   2.392167
    34  H    5.964544   4.681014   4.975397   4.772768   3.399637
    35  C    5.056882   4.267900   4.656454   4.780746   2.716344
    36  H    6.108261   5.346706   5.689566   5.833535   3.799533
    37  C    4.227949   3.866207   4.322249   4.595120   2.414835
    38  H    4.874172   4.788210   5.210969   5.585367   3.428532
    39  C    2.923484   2.634255   3.180500   3.466658   1.432462
    40  H    5.231761   6.458304   7.470313   6.684559   5.693817
                   31         32         33         34         35
    31  C    0.000000
    32  H    1.087401   0.000000
    33  C    1.408288   2.134624   0.000000
    34  H    2.191340   2.484161   1.086858   0.000000
    35  C    2.397496   3.360089   1.366964   2.110008   0.000000
    36  H    3.340237   4.189571   2.061788   2.322666   1.087046
    37  C    2.830771   3.915434   2.410753   3.364792   1.360641
    38  H    3.912039   4.994981   3.362756   4.206173   2.097224
    39  C    2.473524   3.492517   2.786289   3.867944   2.347981
    40  H    6.247708   6.972506   6.117091   6.725633   5.574568
                   36         37         38         39         40
    36  H    0.000000
    37  C    2.144396   0.000000
    38  H    2.438264   1.086837   0.000000
    39  C    3.351290   1.370196   2.171054   0.000000
    40  H    5.978039   4.997370   4.994891   5.021986   0.000000
 Stoichiometry    C17H21N2(1+)
 Framework group  C1[X(C17H21N2)]
 Deg. of freedom   114
 Full point group                 C1      NOp   1
 Largest Abelian subgroup         C1      NOp   1
 Largest concise Abelian subgroup C1      NOp   1
                         Standard orientation:                         
 ---------------------------------------------------------------------
 Center     Atomic      Atomic             Coordinates (Angstroms)
 Number     Number       Type             X           Y           Z
 ---------------------------------------------------------------------
      1          7           0       -3.733524   -2.809049    1.123518
      2          1           0       -3.280233   -2.705333    2.008325
      3          1           0       -4.237614   -3.672854    1.106760
      4          6           0       -2.734610   -2.808344    0.062919
      5          1           0       -3.311130   -2.841851   -0.865148
      6          1           0       -2.250591   -3.787919    0.062139
      7          6           0       -1.847051   -1.551172    0.224089
      8          1           0       -1.339435   -1.769923    1.165893
      9          1           0       -2.387548   -0.613419    0.372592
     10          6           0       -0.764056   -1.441309   -0.810489
     11          1           0       -1.276430   -1.480292   -1.775707
     12          1           0       -0.237457   -2.399449   -0.836516
     13          7           0        0.060942   -0.254592   -0.656053
     14          6           0        1.372927   -0.516436   -0.448983
     15          6           0        2.130645   -0.969378   -1.505433
     16          1           0        1.716415   -0.986419   -2.510126
     17          6           0        3.512546   -1.128483   -1.387073
     18          1           0        4.080655   -1.515733   -2.230057
     19          6           0        4.125795   -0.970363   -0.146780
     20          1           0        5.188050   -1.141248    0.007657
     21          6           0        3.391438   -0.479931    0.923941
     22          1           0        3.887449   -0.347476    1.882499
     23          6           0        2.060715   -0.161141    0.741102
     24          6           0        1.329868    0.351132    1.968573
     25          1           0        1.953205    0.400626    2.863495
     26          1           0        0.426965   -0.256546    2.059808
     27          6           0        0.798466    1.764741    1.663980
     28          1           0        1.675838    2.326172    1.336432
     29          1           0        0.499012    2.236658    2.601675
     30          6           0       -0.303594    1.916441    0.573613
     31          6           0       -0.946989    3.161012    0.560330
     32          1           0       -0.829683    3.950002    1.299367
     33          6           0       -1.909630    3.366152   -0.446901
     34          1           0       -2.535607    4.254000   -0.480650
     35          6           0       -2.072957    2.424152   -1.423913
     36          1           0       -2.746312    2.729918   -2.220637
     37          6           0       -1.452543    1.213207   -1.430583
     38          1           0       -1.633705    0.561140   -2.280997
     39          6           0       -0.571817    0.922170   -0.422092
     40          1           0       -4.368681   -2.049277    0.983137
 ---------------------------------------------------------------------
 Rotational constants (GHZ):           0.4359200           0.3195605           0.2368349
 Leave Link  202 at Sun Jul 18 13:31:21 2021, MaxMem=   104857600 cpu:               0.0 elap:               0.0
 (Enter /dades/curu/g16A03_MST/g16/l301.exe)
 Standard basis: 6-31G(d) (6D, 7F)
 Ernie: Thresh=  0.10000D-02 Tol=  0.10000D-05 Strict=F.
 There are   327 symmetry adapted cartesian basis functions of A   symmetry.
 There are   327 symmetry adapted basis functions of A   symmetry.
   327 basis functions,   616 primitive gaussians,   327 cartesian basis functions
    68 alpha electrons       68 beta electrons
       nuclear repulsion energy      1434.9495711563 Hartrees.
 IExCor=  402 DFT=T Ex+Corr=B3LYP ExCW=0 ScaHFX=  0.200000
 ScaDFX=  0.800000  0.720000  1.000000  0.810000 ScalE2=  1.000000  1.000000
 IRadAn=      5 IRanWt=     -1 IRanGd=            0 ICorTp=0 IEmpDi=  4
 NAtoms=   40 NActive=   40 NUniq=   40 SFac= 1.00D+00 NAtFMM=   60 NAOKFM=F Big=F
 Integral buffers will be    131072 words long.
 Raffenetti 2 integral format.
 Two-electron integral symmetry is turned on.
 Using the following non-standard input for PCM:
 MSTModel=DFT cav MSTCharged
 --- end of non-standard input.
 MST model for solvation energy: B3LYP parametrization.
 MST cavity parameters:
 ISph   IAn     Re0     Alpha   Atom Type   QCorr
 ------------------------------------------------
   1      7     1.50     1.15      NH+        T
   2      1     0.90     1.15      NH+        T
   3      1     0.90     1.15      NH+        T
   4      6     1.50     1.50      CN+        F
   5      1     1.20     1.50      CN+        F
   6      1     1.20     1.50      CN+        F
   7      6     1.50     1.50      CH2        F
   8      1     1.20     1.50      CH2        F
   9      1     1.20     1.50      CH2        F
  10      6     1.50     1.50      CH2        F
  11      1     1.20     1.50      CH2        F
  12      1     1.20     1.50      CH2        F
  13      7     1.50     1.50      N          F
  14      6     1.50     1.50      C          F
  15      6     1.50     1.50      CH         F
  16      1     1.20     1.50      CH         F
  17      6     1.50     1.50      CH         F
  18      1     1.20     1.50      CH         F
  19      6     1.50     1.50      CH         F
  20      1     1.20     1.50      CH         F
  21      6     1.50     1.50      CH         F
  22      1     1.20     1.50      CH         F
  23      6     1.50     1.50      C          F
  24      6     1.50     1.50      CH2        F
  25      1     1.20     1.50      CH2        F
  26      1     1.20     1.50      CH2        F
  27      6     1.50     1.50      CH2        F
  28      1     1.20     1.50      CH2        F
  29      1     1.20     1.50      CH2        F
  30      6     1.50     1.50      C          F
  31      6     1.50     1.50      CH         F
  32      1     1.20     1.50      CH         F
  33      6     1.50     1.50      CH         F
  34      1     1.20     1.50      CH         F
  35      6     1.50     1.50      CH         F
  36      1     1.20     1.50      CH         F
  37      6     1.50     1.50      CH         F
  38      1     1.20     1.50      CH         F
  39      6     1.50     1.50      C          F
  40      1     0.90     1.15      NH+        T
 ------------------------------------------------------------------------------
 Polarizable Continuum Model (PCM)
 =================================
 Model                : PCM.
 Atomic radii         : MST.
 Polarization charges : Total charges.
 Charge compensation  : None.
 Solution method      : On-the-fly selection.
 Cavity type          : Scaled VdW (van der Waals Surface) (Alpha=1.500).
 Cavity algorithm     : GePol (No added spheres)
                        Default sphere list used, NSphG=   40.
                        Lebedev-Laikov grids with approx.  5.0 points / Ang**2.
                        Smoothing algorithm: York/Karplus (Gamma=1.0000).
                        Polarization charges: spherical gaussians, with
                                              point-specific exponents (IZeta= 3).
                        Self-potential: point-specific (ISelfS= 7).
                        Self-field    : sphere-specific E.n sum rule (ISelfD= 2).
 1st derivatives      : Analytical E(r).r(x)/FMM algorithm (CHGder, D1EAlg=3).
                        Cavity 1st derivative terms included.
 Solvent              : n-Octanol, Eps=   9.862900 Eps(inf)=   2.043470
 ------------------------------------------------------------------------------
 GePol: Number of generator spheres                  =      40
 GePol: Total number of spheres                      =      40
 GePol: Number of exposed spheres                    =      40 (100.00%)
 GePol: Number of points                             =    3436
 GePol: Average weight of points                     =       0.10
 GePol: Minimum weight of points                     =   0.14D-11
 GePol: Maximum weight of points                     =    0.21373
 GePol: Number of points with low weight             =     231
 GePol: Fraction of low-weight points (<1% of avg)   =       6.72%
 GePol: Cavity surface area                          =    359.651 Ang**2
 GePol: Cavity volume                                =    426.231 Ang**3
 Surface areas from nonelectrostatic (unscaled) cavity and vdw tensions:
 Sphere =    1 Type =  NH+ Surf =       12.206 Tension =       -0.274
 Sphere =    2 Type =  NH+ Surf =        3.847 Tension =       -0.274
 Sphere =    3 Type =  NH+ Surf =        3.858 Tension =       -0.274
 Sphere =    4 Type =  CN+ Surf =        3.961 Tension =       -0.227
 Sphere =    5 Type =  CN+ Surf =        9.925 Tension =       -0.227
 Sphere =    6 Type =  CN+ Surf =       10.014 Tension =       -0.227
 Sphere =    7 Type =  CH2 Surf =        3.531 Tension =       -0.194
 Sphere =    8 Type =  CH2 Surf =        9.679 Tension =       -0.194
 Sphere =    9 Type =  CH2 Surf =        9.401 Tension =       -0.194
 Sphere =   10 Type =  CH2 Surf =        3.174 Tension =       -0.194
 Sphere =   11 Type =  CH2 Surf =        8.960 Tension =       -0.194
 Sphere =   12 Type =  CH2 Surf =        9.772 Tension =       -0.194
 Sphere =   13 Type =  N   Surf =        4.890 Tension =       -0.115
 Sphere =   14 Type =  C   Surf =        5.424 Tension =       -0.205
 Sphere =   15 Type =  CH  Surf =        7.528 Tension =       -0.195
 Sphere =   16 Type =  CH  Surf =       10.166 Tension =       -0.195
 Sphere =   17 Type =  CH  Surf =        7.784 Tension =       -0.195
 Sphere =   18 Type =  CH  Surf =       10.240 Tension =       -0.195
 Sphere =   19 Type =  CH  Surf =        7.765 Tension =       -0.195
 Sphere =   20 Type =  CH  Surf =       10.230 Tension =       -0.195
 Sphere =   21 Type =  CH  Surf =        7.496 Tension =       -0.195
 Sphere =   22 Type =  CH  Surf =        9.923 Tension =       -0.195
 Sphere =   23 Type =  C   Surf =        5.845 Tension =       -0.205
 Sphere =   24 Type =  CH2 Surf =        3.990 Tension =       -0.194
 Sphere =   25 Type =  CH2 Surf =        9.722 Tension =       -0.194
 Sphere =   26 Type =  CH2 Surf =        9.822 Tension =       -0.194
 Sphere =   27 Type =  CH2 Surf =        3.831 Tension =       -0.194
 Sphere =   28 Type =  CH2 Surf =        9.827 Tension =       -0.194
 Sphere =   29 Type =  CH2 Surf =        9.982 Tension =       -0.194
 Sphere =   30 Type =  C   Surf =        6.519 Tension =       -0.205
 Sphere =   31 Type =  CH  Surf =        7.830 Tension =       -0.195
 Sphere =   32 Type =  CH  Surf =       10.239 Tension =       -0.195
 Sphere =   33 Type =  CH  Surf =        7.687 Tension =       -0.195
 Sphere =   34 Type =  CH  Surf =       10.217 Tension =       -0.195
 Sphere =   35 Type =  CH  Surf =        7.419 Tension =       -0.195
 Sphere =   36 Type =  CH  Surf =       10.149 Tension =       -0.195
 Sphere =   37 Type =  CH  Surf =        7.071 Tension =       -0.195
 Sphere =   38 Type =  CH  Surf =        9.084 Tension =       -0.195
 Sphere =   39 Type =  C   Surf =        5.129 Tension =       -0.205
 Sphere =   40 Type =  NH+ Surf =        3.857 Tension =       -0.274
 PCM non-electrostatic energy =        -0.0180110856 Hartrees.
 Nuclear repulsion after PCM non-electrostatic terms =     1434.9315600708 Hartrees.
 Leave Link  301 at Sun Jul 18 13:31:21 2021, MaxMem=   104857600 cpu:               0.1 elap:               0.4
 (Enter /dades/curu/g16A03_MST/g16/l302.exe)
 NPDir=0 NMtPBC=     1 NCelOv=     1 NCel=       1 NClECP=     1 NCelD=      1
         NCelK=      1 NCelE2=     1 NClLst=     1 CellRange=     0.0.
 One-electron integrals computed using PRISM.
 One-electron integral symmetry used in STVInt
 NBasis=   327 RedAO= T EigKep=  4.03D-04  NBF=   327
 NBsUse=   327 1.00D-06 EigRej= -1.00D+00 NBFU=   327
 Precomputing XC quadrature grid using
 IXCGrd= 4 IRadAn=           5 IRanWt=          -1 IRanGd=           0 AccXCQ= 0.00D+00.
 Generated NRdTot=       0 NPtTot=           0 NUsed=           0 NTot=          32
 NSgBfM=   326   326   326   326   326 MxSgAt=    40 MxSgA2=    40.
 Leave Link  302 at Sun Jul 18 13:31:23 2021, MaxMem=   104857600 cpu:               5.6 elap:               1.5
 (Enter /dades/curu/g16A03_MST/g16/l303.exe)
 DipDrv:  MaxL=1.
 Leave Link  303 at Sun Jul 18 13:31:23 2021, MaxMem=   104857600 cpu:               0.1 elap:               0.1
 (Enter /dades/curu/g16A03_MST/g16/l401.exe)
 ExpMin= 1.61D-01 ExpMax= 4.17D+03 ExpMxC= 6.27D+02 IAcc=3 IRadAn=         5 AccDes= 0.00D+00
 Harris functional with IExCor=  402 and IRadAn=       5 diagonalized for initial guess.
 HarFok:  IExCor=  402 AccDes= 0.00D+00 IRadAn=         5 IDoV= 1 UseB2=F ITyADJ=14
 ICtDFT=  3500011 ScaDFX=  1.000000  1.000000  1.000000  1.000000
 FoFCou: FMM=F IPFlag=           0 FMFlag=      100000 FMFlg1=           0
         NFxFlg=           0 DoJE=T BraDBF=F KetDBF=T FulRan=T
         wScrn=  0.000000 ICntrl=       500 IOpCl=  0 I1Cent=   200000004 NGrid=           0
         NMat0=    1 NMatS0=      1 NMatT0=    0 NMatD0=    1 NMtDS0=    0 NMtDT0=    0
 Petite list used in FoFCou.
 Harris En= -769.748187684703    
 JPrj=0 DoOrth=F DoCkMO=F.
 Leave Link  401 at Sun Jul 18 13:31:33 2021, MaxMem=   104857600 cpu:              41.3 elap:              10.4
 (Enter /dades/curu/g16A03_MST/g16/l502.exe)
 Integral symmetry usage will be decided dynamically.
 Closed shell SCF:
 Using DIIS extrapolation, IDIIS=  1040.
 NGot=   104857600 LenX=   104637961 LenY=   104530591
 Requested convergence on RMS density matrix=1.00D-08 within 128 cycles.
 Requested convergence on MAX density matrix=1.00D-06.
 Requested convergence on             energy=1.00D-06.
 No special actions if energy rises.
 Fock matrices will be formed incrementally for  20 cycles.

 Cycle   1  Pass 1  IDiag  1:
 FoFJK:  IHMeth= 1 ICntrl=       0 DoSepK=F KAlg= 0 I1Cent=           0 FoldK=F
 IRaf= 840000000 NMat=       1 IRICut=       1 DoRegI=T DoRafI=F ISym2E= 0 IDoP0=0 IntGTp=1.
 FoFCou: FMM=F IPFlag=           0 FMFlag=      100000 FMFlg1=           0
         NFxFlg=           0 DoJE=F BraDBF=F KetDBF=F FulRan=T
         wScrn=  0.000000 ICntrl=         0 IOpCl=  0 I1Cent=           0 NGrid=           0
         NMat0=    1 NMatS0=      1 NMatT0=    0 NMatD0=    1 NMtDS0=    0 NMtDT0=    0
 Symmetry not used in FoFCou.
 Inv3:  Mode=1 IEnd=    35418288.
 Iteration    1 A*A^-1 deviation from unit magnitude is 5.22D-15 for   3428.
 Iteration    1 A*A^-1 deviation from orthogonality  is 4.10D-15 for   3404    132.
 Iteration    1 A^-1*A deviation from unit magnitude is 5.00D-15 for   3428.
 Iteration    1 A^-1*A deviation from orthogonality  is 2.16D-15 for   3249   1349.
 E= -769.355225047702    
 DIIS: error= 2.23D-02 at cycle   1 NSaved=   1.
 NSaved= 1 IEnMin= 1 EnMin= -769.355225047702     IErMin= 1 ErrMin= 2.23D-02
 ErrMax= 2.23D-02  0.00D+00 EMaxC= 1.00D-01 BMatC= 3.93D-01 BMatP= 3.93D-01
 IDIUse=3 WtCom= 7.77D-01 WtEn= 2.23D-01
 Coeff-Com:  0.100D+01
 Coeff-En:   0.100D+01
 Coeff:      0.100D+01
 Gap=     0.216 Goal=   None    Shift=    0.000
 GapD=    0.216 DampG=1.000 DampE=0.500 DampFc=0.5000 IDamp=-1.
 Damping current iteration by 5.00D-01
 RMSDP=4.41D-03 MaxDP=1.29D-01              OVMax= 1.82D-01

 Cycle   2  Pass 1  IDiag  1:
 RMSU=  2.16D-03    CP:  9.75D-01
 E= -769.559947098006     Delta-E=       -0.204722050304 Rises=F Damp=T
 DIIS: error= 6.10D-03 at cycle   2 NSaved=   2.
 NSaved= 2 IEnMin= 2 EnMin= -769.559947098006     IErMin= 2 ErrMin= 6.10D-03
 ErrMax= 6.10D-03  0.00D+00 EMaxC= 1.00D-01 BMatC= 2.39D-02 BMatP= 3.93D-01
 IDIUse=3 WtCom= 9.39D-01 WtEn= 6.10D-02
 Coeff-Com: -0.741D-02 0.101D+01
 Coeff-En:   0.000D+00 0.100D+01
 Coeff:     -0.696D-02 0.101D+01
 Gap=     0.222 Goal=   None    Shift=    0.000
 RMSDP=1.22D-03 MaxDP=4.85D-02 DE=-2.05D-01 OVMax= 1.27D-01

 Cycle   3  Pass 1  IDiag  1:
 RMSU=  1.20D-03    CP:  9.64D-01  9.40D-01
 E= -769.762188589979     Delta-E=       -0.202241491973 Rises=F Damp=F
 DIIS: error= 4.67D-03 at cycle   3 NSaved=   3.
 NSaved= 3 IEnMin= 3 EnMin= -769.762188589979     IErMin= 3 ErrMin= 4.67D-03
 ErrMax= 4.67D-03  0.00D+00 EMaxC= 1.00D-01 BMatC= 1.85D-02 BMatP= 2.39D-02
 IDIUse=3 WtCom= 9.53D-01 WtEn= 4.67D-02
 Coeff-Com: -0.490D-01 0.487D+00 0.562D+00
 Coeff-En:   0.000D+00 0.000D+00 0.100D+01
 Coeff:     -0.467D-01 0.464D+00 0.582D+00
 Gap=     0.198 Goal=   None    Shift=    0.000
 RMSDP=7.84D-04 MaxDP=3.25D-02 DE=-2.02D-01 OVMax= 8.51D-02

 Cycle   4  Pass 1  IDiag  1:
 RMSU=  6.48D-04    CP:  9.64D-01  9.97D-01  6.46D-01
 E= -769.772465323628     Delta-E=       -0.010276733649 Rises=F Damp=F
 DIIS: error= 3.39D-03 at cycle   4 NSaved=   4.
 NSaved= 4 IEnMin= 4 EnMin= -769.772465323628     IErMin= 4 ErrMin= 3.39D-03
 ErrMax= 3.39D-03  0.00D+00 EMaxC= 1.00D-01 BMatC= 8.27D-03 BMatP= 1.85D-02
 IDIUse=3 WtCom= 9.66D-01 WtEn= 3.39D-02
 Coeff-Com: -0.269D-01 0.115D+00 0.410D+00 0.503D+00
 Coeff-En:   0.000D+00 0.000D+00 0.354D+00 0.646D+00
 Coeff:     -0.260D-01 0.111D+00 0.408D+00 0.507D+00
 Gap=     0.187 Goal=   None    Shift=    0.000
 RMSDP=3.90D-04 MaxDP=1.38D-02 DE=-1.03D-02 OVMax= 3.55D-02

 Cycle   5  Pass 1  IDiag  1:
 RMSU=  1.25D-04    CP:  9.64D-01  9.94D-01  7.57D-01  4.68D-01
 E= -769.781382471273     Delta-E=       -0.008917147645 Rises=F Damp=F
 DIIS: error= 3.61D-04 at cycle   5 NSaved=   5.
 NSaved= 5 IEnMin= 5 EnMin= -769.781382471273     IErMin= 5 ErrMin= 3.61D-04
 ErrMax= 3.61D-04  0.00D+00 EMaxC= 1.00D-01 BMatC= 1.48D-04 BMatP= 8.27D-03
 IDIUse=3 WtCom= 9.96D-01 WtEn= 3.61D-03
 Coeff-Com: -0.866D-02 0.244D-01 0.149D+00 0.223D+00 0.612D+00
 Coeff-En:   0.000D+00 0.000D+00 0.000D+00 0.000D+00 0.100D+01
 Coeff:     -0.863D-02 0.243D-01 0.148D+00 0.223D+00 0.613D+00
 Gap=     0.187 Goal=   None    Shift=    0.000
 RMSDP=6.34D-05 MaxDP=1.78D-03 DE=-8.92D-03 OVMax= 4.75D-03

 Cycle   6  Pass 1  IDiag  1:
 RMSU=  4.26D-05    CP:  9.64D-01  9.96D-01  7.61D-01  5.09D-01  6.96D-01
 E= -769.781504654192     Delta-E=       -0.000122182919 Rises=F Damp=F
 DIIS: error= 2.38D-04 at cycle   6 NSaved=   6.
 NSaved= 6 IEnMin= 6 EnMin= -769.781504654192     IErMin= 6 ErrMin= 2.38D-04
 ErrMax= 2.38D-04  0.00D+00 EMaxC= 1.00D-01 BMatC= 3.54D-05 BMatP= 1.48D-04
 IDIUse=3 WtCom= 9.98D-01 WtEn= 2.38D-03
 Coeff-Com: -0.261D-02 0.387D-02 0.499D-01 0.842D-01 0.372D+00 0.493D+00
 Coeff-En:   0.000D+00 0.000D+00 0.000D+00 0.000D+00 0.189D+00 0.811D+00
 Coeff:     -0.260D-02 0.386D-02 0.498D-01 0.840D-01 0.372D+00 0.493D+00
 Gap=     0.187 Goal=   None    Shift=    0.000
 RMSDP=2.22D-05 MaxDP=8.19D-04 DE=-1.22D-04 OVMax= 1.91D-03

 Cycle   7  Pass 1  IDiag  1:
 RMSU=  9.58D-06    CP:  9.64D-01  9.95D-01  7.63D-01  5.11D-01  7.50D-01
                    CP:  5.62D-01
 E= -769.781541809564     Delta-E=       -0.000037155372 Rises=F Damp=F
 DIIS: error= 3.56D-05 at cycle   7 NSaved=   7.
 NSaved= 7 IEnMin= 7 EnMin= -769.781541809564     IErMin= 7 ErrMin= 3.56D-05
 ErrMax= 3.56D-05  0.00D+00 EMaxC= 1.00D-01 BMatC= 1.12D-06 BMatP= 3.54D-05
 IDIUse=1 WtCom= 1.00D+00 WtEn= 0.00D+00
 Coeff-Com: -0.816D-03 0.732D-03 0.170D-01 0.291D-01 0.151D+00 0.242D+00
 Coeff-Com:  0.561D+00
 Coeff:     -0.816D-03 0.732D-03 0.170D-01 0.291D-01 0.151D+00 0.242D+00
 Coeff:      0.561D+00
 Gap=     0.187 Goal=   None    Shift=    0.000
 RMSDP=4.87D-06 MaxDP=1.39D-04 DE=-3.72D-05 OVMax= 3.80D-04

 Cycle   8  Pass 1  IDiag  1:
 RMSU=  3.12D-06    CP:  9.64D-01  9.95D-01  7.63D-01  5.11D-01  7.51D-01
                    CP:  5.92D-01  6.41D-01
 E= -769.781542888046     Delta-E=       -0.000001078482 Rises=F Damp=F
 DIIS: error= 1.04D-05 at cycle   8 NSaved=   8.
 NSaved= 8 IEnMin= 8 EnMin= -769.781542888046     IErMin= 8 ErrMin= 1.04D-05
 ErrMax= 1.04D-05  0.00D+00 EMaxC= 1.00D-01 BMatC= 1.45D-07 BMatP= 1.12D-06
 IDIUse=1 WtCom= 1.00D+00 WtEn= 0.00D+00
 Coeff-Com:  0.162D-04-0.323D-03 0.835D-03 0.105D-02 0.192D-01 0.477D-01
 Coeff-Com:  0.287D+00 0.644D+00
 Coeff:      0.162D-04-0.323D-03 0.835D-03 0.105D-02 0.192D-01 0.477D-01
 Coeff:      0.287D+00 0.644D+00
 Gap=     0.187 Goal=   None    Shift=    0.000
 RMSDP=1.48D-06 MaxDP=4.06D-05 DE=-1.08D-06 OVMax= 1.28D-04

 Cycle   9  Pass 1  IDiag  1:
 RMSU=  9.56D-07    CP:  9.64D-01  9.95D-01  7.63D-01  5.11D-01  7.54D-01
                    CP:  5.91D-01  7.17D-01  7.55D-01
 E= -769.781543023989     Delta-E=       -0.000000135943 Rises=F Damp=F
 DIIS: error= 4.04D-06 at cycle   9 NSaved=   9.
 NSaved= 9 IEnMin= 9 EnMin= -769.781543023989     IErMin= 9 ErrMin= 4.04D-06
 ErrMax= 4.04D-06  0.00D+00 EMaxC= 1.00D-01 BMatC= 1.17D-08 BMatP= 1.45D-07
 IDIUse=1 WtCom= 1.00D+00 WtEn= 0.00D+00
 Coeff-Com:  0.536D-04-0.194D-03-0.424D-03-0.117D-02 0.157D-02 0.108D-01
 Coeff-Com:  0.111D+00 0.314D+00 0.564D+00
 Coeff:      0.536D-04-0.194D-03-0.424D-03-0.117D-02 0.157D-02 0.108D-01
 Coeff:      0.111D+00 0.314D+00 0.564D+00
 Gap=     0.187 Goal=   None    Shift=    0.000
 RMSDP=4.91D-07 MaxDP=2.05D-05 DE=-1.36D-07 OVMax= 3.77D-05

 Cycle  10  Pass 1  IDiag  1:
 RMSU=  3.41D-07    CP:  9.64D-01  9.95D-01  7.63D-01  5.11D-01  7.55D-01
                    CP:  5.94D-01  7.23D-01  7.99D-01  7.25D-01
 E= -769.781543035067     Delta-E=       -0.000000011078 Rises=F Damp=F
 DIIS: error= 1.20D-06 at cycle  10 NSaved=  10.
 NSaved=10 IEnMin=10 EnMin= -769.781543035067     IErMin=10 ErrMin= 1.20D-06
 ErrMax= 1.20D-06  0.00D+00 EMaxC= 1.00D-01 BMatC= 1.85D-09 BMatP= 1.17D-08
 IDIUse=1 WtCom= 1.00D+00 WtEn= 0.00D+00
 Coeff-Com:  0.301D-04-0.642D-04-0.389D-03-0.953D-03-0.221D-02-0.116D-02
 Coeff-Com:  0.193D-01 0.779D-01 0.318D+00 0.590D+00
 Coeff:      0.301D-04-0.642D-04-0.389D-03-0.953D-03-0.221D-02-0.116D-02
 Coeff:      0.193D-01 0.779D-01 0.318D+00 0.590D+00
 Gap=     0.187 Goal=   None    Shift=    0.000
 RMSDP=1.69D-07 MaxDP=6.83D-06 DE=-1.11D-08 OVMax= 1.22D-05

 Cycle  11  Pass 1  IDiag  1:
 RMSU=  9.13D-08    CP:  9.64D-01  9.95D-01  7.63D-01  5.11D-01  7.55D-01
                    CP:  5.94D-01  7.28D-01  8.09D-01  8.06D-01  7.33D-01
 E= -769.781543036777     Delta-E=       -0.000000001710 Rises=F Damp=F
 DIIS: error= 3.04D-07 at cycle  11 NSaved=  11.
 NSaved=11 IEnMin=11 EnMin= -769.781543036777     IErMin=11 ErrMin= 3.04D-07
 ErrMax= 3.04D-07  0.00D+00 EMaxC= 1.00D-01 BMatC= 7.14D-11 BMatP= 1.85D-09
 IDIUse=1 WtCom= 1.00D+00 WtEn= 0.00D+00
 Coeff-Com:  0.837D-05-0.122D-04-0.113D-03-0.307D-03-0.930D-03-0.111D-02
 Coeff-Com: -0.190D-03 0.771D-02 0.921D-01 0.220D+00 0.683D+00
 Coeff:      0.837D-05-0.122D-04-0.113D-03-0.307D-03-0.930D-03-0.111D-02
 Coeff:     -0.190D-03 0.771D-02 0.921D-01 0.220D+00 0.683D+00
 Gap=     0.187 Goal=   None    Shift=    0.000
 RMSDP=4.50D-08 MaxDP=1.73D-06 DE=-1.71D-09 OVMax= 3.56D-06

 Cycle  12  Pass 1  IDiag  1:
 RMSU=  3.18D-08    CP:  9.64D-01  9.95D-01  7.63D-01  5.11D-01  7.55D-01
                    CP:  5.94D-01  7.28D-01  8.11D-01  8.21D-01  7.79D-01
                    CP:  8.28D-01
 E= -769.781543036865     Delta-E=       -0.000000000088 Rises=F Damp=F
 DIIS: error= 1.85D-07 at cycle  12 NSaved=  12.
 NSaved=12 IEnMin=12 EnMin= -769.781543036865     IErMin=12 ErrMin= 1.85D-07
 ErrMax= 1.85D-07  0.00D+00 EMaxC= 1.00D-01 BMatC= 2.10D-11 BMatP= 7.14D-11
 IDIUse=1 WtCom= 1.00D+00 WtEn= 0.00D+00
 Coeff-Com:  0.823D-06 0.180D-05-0.102D-04-0.497D-04-0.230D-03-0.477D-03
 Coeff-Com: -0.294D-02-0.679D-02 0.990D-02 0.384D-01 0.399D+00 0.563D+00
 Coeff:      0.823D-06 0.180D-05-0.102D-04-0.497D-04-0.230D-03-0.477D-03
 Coeff:     -0.294D-02-0.679D-02 0.990D-02 0.384D-01 0.399D+00 0.563D+00
 Gap=     0.187 Goal=   None    Shift=    0.000
 RMSDP=1.98D-08 MaxDP=7.33D-07 DE=-8.78D-11 OVMax= 1.79D-06

 Cycle  13  Pass 1  IDiag  1:
 RMSU=  1.19D-08    CP:  9.64D-01  9.95D-01  7.63D-01  5.11D-01  7.55D-01
                    CP:  5.94D-01  7.28D-01  8.12D-01  8.29D-01  7.84D-01
                    CP:  9.07D-01  6.65D-01
 E= -769.781543036839     Delta-E=        0.000000000026 Rises=F Damp=F
 DIIS: error= 4.16D-08 at cycle  13 NSaved=  13.
 NSaved=13 IEnMin=12 EnMin= -769.781543036865     IErMin=13 ErrMin= 4.16D-08
 ErrMax= 4.16D-08  0.00D+00 EMaxC= 1.00D-01 BMatC= 1.29D-12 BMatP= 2.10D-11
 IDIUse=1 WtCom= 1.00D+00 WtEn= 0.00D+00
 Coeff-Com: -0.433D-06 0.195D-05 0.742D-05 0.976D-05-0.866D-05-0.108D-03
 Coeff-Com: -0.141D-02-0.407D-02-0.562D-02-0.944D-02 0.102D+00 0.255D+00
 Coeff-Com:  0.663D+00
 Coeff:     -0.433D-06 0.195D-05 0.742D-05 0.976D-05-0.866D-05-0.108D-03
 Coeff:     -0.141D-02-0.407D-02-0.562D-02-0.944D-02 0.102D+00 0.255D+00
 Coeff:      0.663D+00
 Gap=     0.187 Goal=   None    Shift=    0.000
 RMSDP=5.80D-09 MaxDP=1.78D-07 DE= 2.59D-11 OVMax= 5.08D-07

 Error on total polarization charges =  0.00871
 SCF Done:  E(RB3LYP) =  -769.781543037     A.U. after   13 cycles
            NFock= 13  Conv=0.58D-08     -V/T= 2.0088
 KE= 7.631006447027D+02 PE=-4.636995802382D+03 EE= 1.669182054572D+03
 Leave Link  502 at Sun Jul 18 13:36:48 2021, MaxMem=   104857600 cpu:            1225.5 elap:             314.5
 (Enter /dades/curu/g16A03_MST/g16/l601.exe)
 Copying SCF densities to generalized density rwf, IOpCl= 0 IROHF=0.

 **********************************************************************

            Population analysis using the SCF density.

 **********************************************************************

 Orbital symmetries:
       Occupied  (A) (A) (A) (A) (A) (A) (A) (A) (A) (A) (A) (A)
                 (A) (A) (A) (A) (A) (A) (A) (A) (A) (A) (A) (A)
                 (A) (A) (A) (A) (A) (A) (A) (A) (A) (A) (A) (A)
                 (A) (A) (A) (A) (A) (A) (A) (A) (A) (A) (A) (A)
                 (A) (A) (A) (A) (A) (A) (A) (A) (A) (A) (A) (A)
                 (A) (A) (A) (A) (A) (A) (A) (A)
       Virtual   (A) (A) (A) (A) (A) (A) (A) (A) (A) (A) (A) (A)
                 (A) (A) (A) (A) (A) (A) (A) (A) (A) (A) (A) (A)
                 (A) (A) (A) (A) (A) (A) (A) (A) (A) (A) (A) (A)
                 (A) (A) (A) (A) (A) (A) (A) (A) (A) (A) (A) (A)
                 (A) (A) (A) (A) (A) (A) (A) (A) (A) (A) (A) (A)
                 (A) (A) (A) (A) (A) (A) (A) (A) (A) (A) (A) (A)
                 (A) (A) (A) (A) (A) (A) (A) (A) (A) (A) (A) (A)
                 (A) (A) (A) (A) (A) (A) (A) (A) (A) (A) (A) (A)
                 (A) (A) (A) (A) (A) (A) (A) (A) (A) (A) (A) (A)
                 (A) (A) (A) (A) (A) (A) (A) (A) (A) (A) (A) (A)
                 (A) (A) (A) (A) (A) (A) (A) (A) (A) (A) (A) (A)
                 (A) (A) (A) (A) (A) (A) (A) (A) (A) (A) (A) (A)
                 (A) (A) (A) (A) (A) (A) (A) (A) (A) (A) (A) (A)
                 (A) (A) (A) (A) (A) (A) (A) (A) (A) (A) (A) (A)
                 (A) (A) (A) (A) (A) (A) (A) (A) (A) (A) (A) (A)
                 (A) (A) (A) (A) (A) (A) (A) (A) (A) (A) (A) (A)
                 (A) (A) (A) (A) (A) (A) (A) (A) (A) (A) (A) (A)
                 (A) (A) (A) (A) (A) (A) (A) (A) (A) (A) (A) (A)
                 (A) (A) (A) (A) (A) (A) (A) (A) (A) (A) (A) (A)
                 (A) (A) (A) (A) (A) (A) (A) (A) (A) (A) (A) (A)
                 (A) (A) (A) (A) (A) (A) (A) (A) (A) (A) (A) (A)
                 (A) (A) (A) (A) (A) (A) (A)
 The electronic state is 1-A.
 Alpha  occ. eigenvalues --  -14.46294 -14.35832 -10.27273 -10.23791 -10.23335
 Alpha  occ. eigenvalues --  -10.22603 -10.22110 -10.20935 -10.19755 -10.19665
 Alpha  occ. eigenvalues --  -10.19405 -10.19380 -10.19201 -10.18932 -10.18896
 Alpha  occ. eigenvalues --  -10.18861 -10.18655 -10.18642 -10.18431  -1.03531
 Alpha  occ. eigenvalues --   -0.99235  -0.86867  -0.85735  -0.81893  -0.80394
 Alpha  occ. eigenvalues --   -0.77292  -0.75917  -0.74261  -0.72712  -0.69551
 Alpha  occ. eigenvalues --   -0.66233  -0.65343  -0.61753  -0.61352  -0.61241
 Alpha  occ. eigenvalues --   -0.59481  -0.58787  -0.57328  -0.53759  -0.52836
 Alpha  occ. eigenvalues --   -0.50866  -0.49715  -0.48965  -0.48161  -0.47905
 Alpha  occ. eigenvalues --   -0.46264  -0.45698  -0.44368  -0.43367  -0.42768
 Alpha  occ. eigenvalues --   -0.42037  -0.41750  -0.40434  -0.39838  -0.38871
 Alpha  occ. eigenvalues --   -0.38330  -0.37630  -0.36743  -0.36279  -0.35434
 Alpha  occ. eigenvalues --   -0.34467  -0.33201  -0.32801  -0.29475  -0.25833
 Alpha  occ. eigenvalues --   -0.25193  -0.24382  -0.20199
 Alpha virt. eigenvalues --   -0.01531  -0.00971  -0.00542   0.00242   0.03421
 Alpha virt. eigenvalues --    0.07025   0.07692   0.08612   0.09335   0.09973
 Alpha virt. eigenvalues --    0.10493   0.11293   0.12292   0.13175   0.13414
 Alpha virt. eigenvalues --    0.13506   0.14054   0.14732   0.15532   0.16091
 Alpha virt. eigenvalues --    0.16571   0.17062   0.17598   0.18061   0.18390
 Alpha virt. eigenvalues --    0.18910   0.19730   0.20571   0.21540   0.22061
 Alpha virt. eigenvalues --    0.22878   0.23910   0.24902   0.26060   0.27844
 Alpha virt. eigenvalues --    0.29417   0.30642   0.32371   0.32757   0.33148
 Alpha virt. eigenvalues --    0.34985   0.36793   0.37733   0.41752   0.45798
 Alpha virt. eigenvalues --    0.46854   0.48863   0.49556   0.49852   0.50638
 Alpha virt. eigenvalues --    0.51051   0.51249   0.52258   0.53040   0.53623
 Alpha virt. eigenvalues --    0.54039   0.54405   0.55811   0.56164   0.57478
 Alpha virt. eigenvalues --    0.58465   0.59211   0.59237   0.59666   0.60391
 Alpha virt. eigenvalues --    0.60650   0.60850   0.61927   0.62067   0.62399
 Alpha virt. eigenvalues --    0.63004   0.63460   0.64001   0.66209   0.66621
 Alpha virt. eigenvalues --    0.66717   0.67854   0.69228   0.70332   0.72124
 Alpha virt. eigenvalues --    0.72839   0.73920   0.74596   0.77256   0.77296
 Alpha virt. eigenvalues --    0.78202   0.80046   0.82156   0.82308   0.82474
 Alpha virt. eigenvalues --    0.82922   0.83110   0.83692   0.84204   0.84646
 Alpha virt. eigenvalues --    0.85004   0.85346   0.85847   0.87209   0.87839
 Alpha virt. eigenvalues --    0.89326   0.89871   0.90209   0.91044   0.91301
 Alpha virt. eigenvalues --    0.91983   0.92889   0.93784   0.94693   0.95588
 Alpha virt. eigenvalues --    0.96211   0.97923   0.98324   1.00250   1.01691
 Alpha virt. eigenvalues --    1.04302   1.04504   1.05590   1.05831   1.07534
 Alpha virt. eigenvalues --    1.08946   1.11250   1.11687   1.13133   1.16083
 Alpha virt. eigenvalues --    1.18145   1.18244   1.18803   1.22480   1.23893
 Alpha virt. eigenvalues --    1.25040   1.25385   1.27478   1.29164   1.32775
 Alpha virt. eigenvalues --    1.34731   1.37103   1.37642   1.39910   1.40557
 Alpha virt. eigenvalues --    1.40991   1.42756   1.45359   1.47285   1.48362
 Alpha virt. eigenvalues --    1.48646   1.51703   1.53763   1.54125   1.55860
 Alpha virt. eigenvalues --    1.56232   1.59948   1.60337   1.62703   1.68599
 Alpha virt. eigenvalues --    1.69392   1.72882   1.74948   1.76412   1.78560
 Alpha virt. eigenvalues --    1.79553   1.80841   1.81558   1.82449   1.84055
 Alpha virt. eigenvalues --    1.84488   1.86409   1.87678   1.88432   1.90294
 Alpha virt. eigenvalues --    1.91978   1.92312   1.93252   1.93872   1.95358
 Alpha virt. eigenvalues --    1.96934   1.97476   1.99830   2.00565   2.01440
 Alpha virt. eigenvalues --    2.03453   2.05208   2.07112   2.07934   2.09454
 Alpha virt. eigenvalues --    2.10456   2.12431   2.13414   2.15963   2.17383
 Alpha virt. eigenvalues --    2.18154   2.18279   2.20199   2.21960   2.23140
 Alpha virt. eigenvalues --    2.24352   2.25396   2.27571   2.28754   2.29172
 Alpha virt. eigenvalues --    2.31271   2.32145   2.33709   2.34913   2.35367
 Alpha virt. eigenvalues --    2.37235   2.39091   2.39972   2.40847   2.42451
 Alpha virt. eigenvalues --    2.45806   2.48165   2.51535   2.53761   2.56583
 Alpha virt. eigenvalues --    2.59111   2.61315   2.61623   2.63325   2.64376
 Alpha virt. eigenvalues --    2.64583   2.65648   2.70284   2.70647   2.71851
 Alpha virt. eigenvalues --    2.75594   2.77705   2.79564   2.81814   2.82991
 Alpha virt. eigenvalues --    2.84930   2.85706   2.86769   2.88371   2.96211
 Alpha virt. eigenvalues --    3.02307   3.15185   3.29543   3.40818   3.46997
 Alpha virt. eigenvalues --    3.76334   4.09351   4.09839   4.12165   4.12558
 Alpha virt. eigenvalues --    4.13846   4.17426   4.20534   4.24069   4.30539
 Alpha virt. eigenvalues --    4.33759   4.35699   4.41592   4.42038   4.42872
 Alpha virt. eigenvalues --    4.49741   4.55167   4.75056   4.78442
          Condensed to atoms (all electrons):
               1          2          3          4          5          6
     1  N    6.657186   0.304070   0.305127   0.243970  -0.038809  -0.035772
     2  H    0.304070   0.279491  -0.010178  -0.024083   0.004749  -0.003020
     3  H    0.305127  -0.010178   0.266837  -0.017502  -0.001603  -0.002745
     4  C    0.243970  -0.024083  -0.017502   5.041846   0.380829   0.387035
     5  H   -0.038809   0.004749  -0.001603   0.380829   0.520244  -0.039588
     6  H   -0.035772  -0.003020  -0.002745   0.387035  -0.039588   0.498797
     7  C   -0.054378  -0.001384   0.003667   0.335126  -0.031942  -0.024123
     8  H   -0.003640   0.006937  -0.000107  -0.044242   0.005343  -0.006078
     9  H   -0.000156  -0.000551  -0.000009  -0.032012  -0.003038   0.002929
    10  C    0.002162  -0.000079  -0.000069  -0.026246  -0.001843  -0.000560
    11  H   -0.000124   0.000028   0.000009  -0.001763   0.004782  -0.000453
[...]
    15  C    1.307096  -8.229082  16.411120  -1.631477  -2.141139   0.300213
    16  H   -0.285252   1.109223  -1.631477   2.445201   0.183848  -0.086450
    17  C   -0.192782  -1.557996  -2.141139   0.183848  11.133476  -0.876496
    18  H   -0.004922   0.397274   0.300213  -0.086450  -0.876496   1.714501
    19  C    0.409482  -0.374723   1.607977  -0.259116  -2.908184   0.387466
    20  H   -0.014728  -0.308269   0.023090  -0.010077   0.568351  -0.056635
    21  C   -0.386611  -4.750514  -2.042214   0.068476   1.463540  -0.035969
    22  H   -0.001206   0.584083   0.051107   0.002654  -0.249012  -0.012026
    23  C   -1.071560   0.475130  -2.615399   0.347962  -0.139125  -0.266530
    24  C   -0.539186   1.300973  -1.670784   0.066972   1.479816  -0.014309
    25  H   -0.022300  -0.116016  -0.074030   0.000012   0.002606   0.000485
    26  H   -0.090801  -0.042608   0.051885   0.000121   0.056614  -0.002065
    27  C   -0.337271  -1.127936   0.194650  -0.004972  -0.143102  -0.001415
    28  H    0.007677  -0.122066   0.072929  -0.001749  -0.020020   0.000048
    29  H    0.055729   0.057709  -0.016649  -0.000781  -0.003242  -0.000123
    30  C   -0.072632   0.333581  -0.097322  -0.095715   0.088232   0.001277
    31  C   -0.389660  -0.060148   0.003077   0.009874   0.000026   0.001355
    32  H    0.010112   0.011080  -0.005138   0.000980   0.001788   0.000030
    33  C    0.404933   0.366993  -0.124653  -0.004736  -0.016587  -0.000272
    34  H   -0.002632  -0.005812  -0.001042   0.000130  -0.000447  -0.000024
    35  C   -0.482624  -0.785997   0.209561   0.019786   0.069442   0.000920
    36  H    0.011584  -0.015328   0.000505  -0.001088   0.001023   0.000061
    37  C    0.851436   1.344688  -0.357249  -0.008159  -0.002668  -0.008562
    38  H   -0.259719   0.316731  -0.058939   0.004868   0.003701  -0.000852
    39  C   -0.888373  -8.660065   2.969719  -0.126298  -0.568910   0.013810
    40  H    0.002014   0.006345  -0.000954  -0.000371   0.000341   0.000024
              19         20         21         22         23         24
     1  N    0.000148   0.000008  -0.000969  -0.000060   0.001403  -0.000342
     2  H   -0.000008   0.000002   0.000410  -0.000001   0.001087  -0.001431
     3  H    0.000106   0.000002  -0.000124  -0.000000  -0.000050  -0.000130
     4  C    0.002124   0.000007  -0.001065   0.000009  -0.015690   0.006282
     5  H   -0.000721  -0.000006   0.001968   0.000033  -0.001675  -0.000909
     6  H   -0.002046  -0.000010  -0.000562   0.000026   0.002381   0.006843
     7  C    0.024832   0.001492  -0.130857  -0.002824   0.067999  -0.144153
     8  H    0.011755   0.000204  -0.028196  -0.000135  -0.005912  -0.012585
     9  H    0.009702   0.000138  -0.017106  -0.000361   0.046121  -0.055065
    10  C    0.335640  -0.004220  -0.201096   0.006970  -0.114964  -0.223982
    11  H    0.022121  -0.000456  -0.054953  -0.001271  -0.092844   0.032491
    12  H    0.015480  -0.001812   0.029592   0.000868   0.081044   0.009839
    13  N    0.409482  -0.014728  -0.386611  -0.001206  -1.071560  -0.539186
    14  C   -0.374723  -0.308269  -4.750514   0.584083   0.475130   1.300973
    15  C    1.607977   0.023090  -2.042214   0.051107  -2.615399  -1.670784
    16  H   -0.259116  -0.010077   0.068476   0.002654   0.347962   0.066972
    17  C   -2.908184   0.568351   1.463540  -0.249012  -0.139125   1.479816
    18  H    0.387466  -0.056635  -0.035969  -0.012026  -0.266530  -0.014309
    19  C    9.975122  -0.749038  -1.254505  -0.001853  -1.284566  -1.430655
    20  H   -0.749038   1.678761   0.103350  -0.071397   0.226145   0.076731
    21  C   -1.254505   0.103350  16.818218  -1.305469  -4.010679   1.068419
    22  H   -0.001853  -0.071397  -1.305469   1.955764   0.923604  -0.232784
    23  C   -1.284566   0.226145  -4.010679   0.923604  15.038334  -2.165371
    24  C   -1.430655   0.076731   1.068419  -0.232784  -2.165371   9.683390
    25  H    0.118115   0.002942   0.231648  -0.038312   0.069796  -0.560039
    26  H   -0.100381   0.002946  -0.027924  -0.000992  -0.102952   0.563291
    27  C    0.312390   0.001591   0.055084   0.003812   0.309666  -0.563413
    28  H    0.006230  -0.001387  -0.118962  -0.007560   0.042458  -0.168894
    29  H    0.012298   0.000130   0.023893   0.005296   0.064249  -0.128127
    30  C   -0.121507   0.004051   0.227405  -0.017592  -0.590741   0.062745
    31  C    0.007407   0.000279   0.104074  -0.003153  -0.018492   0.035882
    32  H   -0.002126   0.000027   0.005358  -0.000492  -0.020950   0.020512
    33  C    0.017023   0.000414   0.014705  -0.000903   0.070357  -0.356268
    34  H    0.000386   0.000009   0.000518   0.000043   0.002743  -0.000163
    35  C   -0.020573  -0.000469  -0.013834  -0.000327  -0.106654   0.211760
    36  H   -0.000276  -0.000012  -0.000516  -0.000085   0.000522   0.004007
    37  C   -0.041310  -0.000433   0.101894   0.009656   0.091332  -0.420797
    38  H   -0.004401   0.000086   0.013414   0.001317  -0.013453   0.018231
    39  C    0.610967  -0.010510  -0.604179   0.015336   0.241637  -0.873254
    40  H   -0.000229  -0.000006   0.000288   0.000010  -0.000727   0.001747
              25         26         27         28         29         30
     1  N    0.000232  -0.001376  -0.000711   0.000016  -0.000280  -0.001216
     2  H   -0.000111   0.000475   0.000474   0.000068  -0.000002   0.001843
     3  H    0.000022  -0.000125  -0.000147  -0.000016  -0.000015  -0.000497
     4  C    0.000529   0.001413  -0.019564  -0.000240  -0.000605  -0.045068
     5  H    0.000012  -0.001042  -0.001248   0.000031  -0.000065  -0.009123
     6  H   -0.000285   0.003469  -0.001120   0.000079   0.000079  -0.000756
     7  C    0.002236   0.016085  -0.077552   0.012958  -0.011261   0.359532
     8  H    0.010307  -0.035651   0.005603  -0.000815  -0.003310  -0.101464
     9  H    0.001825   0.006074   0.016393   0.004733  -0.006088   0.066009
    10  C    0.015168  -0.081936  -0.016335  -0.021555   0.029964  -0.475072
    11  H    0.001373  -0.013574  -0.004231  -0.000481   0.000472  -0.120960
    12  H    0.000981   0.013534   0.007590  -0.000732   0.002013   0.086010
    13  N   -0.022300  -0.090801  -0.337271   0.007677   0.055729  -0.072632
    14  C   -0.116016  -0.042608  -1.127936  -0.122066   0.057709   0.333581
    15  C   -0.074030   0.051885   0.194650   0.072929  -0.016649  -0.097322
    16  H    0.000012   0.000121  -0.004972  -0.001749  -0.000781  -0.095715
    17  C    0.002606   0.056614  -0.143102  -0.020020  -0.003242   0.088232
    18  H    0.000485  -0.002065  -0.001415   0.000048  -0.000123   0.001277
    19  C    0.118115  -0.100381   0.312390   0.006230   0.012298  -0.121507
    20  H    0.002942   0.002946   0.001591  -0.001387   0.000130   0.004051
    21  C    0.231648  -0.027924   0.055084  -0.118962   0.023893   0.227405
    22  H   -0.038312  -0.000992   0.003812  -0.007560   0.005296  -0.017592
    23  C    0.069796  -0.102952   0.309666   0.042458   0.064249  -0.590741
    24  C   -0.560039   0.563291  -0.563413  -0.168894  -0.128127   0.062745
    25  H    1.599443  -0.320561   0.269695  -0.043893  -0.021684  -0.027790
    26  H   -0.320561   1.320244  -0.355337   0.047398  -0.026112   0.222422
    27  C    0.269695  -0.355337  10.915283   0.264194  -0.318121  -0.471936
    28  H   -0.043893   0.047398   0.264194   1.083523  -0.222236   0.174935
    29  H   -0.021684  -0.026112  -0.318121  -0.222236   1.229382   0.265171
    30  C   -0.027790   0.222422  -0.471936   0.174935   0.265171  23.617583
    31  C    0.076527  -0.064632  -1.663309  -0.042626   0.018618 -12.129324
    32  H    0.002486   0.000357  -0.164608  -0.037396  -0.009598   1.327655
    33  C   -0.003659  -0.023815  -0.379190   0.017264   0.026408   3.600028
    34  H   -0.000163   0.000938   0.083554   0.000445  -0.000459   0.015742
    35  C    0.010751  -0.003096   0.344257   0.012325  -0.013857  -4.950269
    36  H    0.000305  -0.000703  -0.019107   0.000887  -0.000581  -0.116793
    37  C   -0.046194   0.046788   0.775333  -0.022657   0.015201   6.968510
    38  H    0.001079   0.002273  -0.022745  -0.007059  -0.000662  -0.826289
    39  C    0.038005  -0.020120  -2.130979   0.031228  -0.000257 -10.826063
    40  H   -0.000047   0.000839   0.000075  -0.000044   0.000157  -0.000389
              31         32         33         34         35         36
     1  N    0.002262   0.000090  -0.001619  -0.000050   0.000913  -0.000008
     2  H    0.000100  -0.000027   0.000205   0.000017  -0.000869  -0.000021
     3  H    0.000292   0.000016  -0.000205  -0.000006  -0.000176   0.000033
     4  C    0.009915   0.000440  -0.004777  -0.000363   0.036449   0.008585
     5  H    0.002995   0.000096  -0.001246  -0.000076   0.010252   0.000397
     6  H    0.000030  -0.000024   0.000517   0.000026   0.001161  -0.000078
     7  C   -0.147627  -0.002780   0.041109  -0.001932   0.107245   0.004255
     8  H   -0.019547   0.000382  -0.003773  -0.000449   0.031645  -0.000186
     9  H    0.007442   0.000859   0.029372  -0.002904  -0.056582   0.000984
    10  C    0.251579   0.008469  -0.027655   0.002731  -0.336489   0.014546
    11  H   -0.001570  -0.000619  -0.021432  -0.000023   0.112496   0.008033
    12  H   -0.003954   0.000024   0.012653   0.000327  -0.058557  -0.000718
    13  N   -0.389660   0.010112   0.404933  -0.002632  -0.482624   0.011584
    14  C   -0.060148   0.011080   0.366993  -0.005812  -0.785997  -0.015328
    15  C    0.003077  -0.005138  -0.124653  -0.001042   0.209561   0.000505
    16  H    0.009874   0.000980  -0.004736   0.000130   0.019786  -0.001088
    17  C    0.000026   0.001788  -0.016587  -0.000447   0.069442   0.001023
    18  H    0.001355   0.000030  -0.000272  -0.000024   0.000920   0.000061
    19  C    0.007407  -0.002126   0.017023   0.000386  -0.020573  -0.000276
    20  H    0.000279   0.000027   0.000414   0.000009  -0.000469  -0.000012
    21  C    0.104074   0.005358   0.014705   0.000518  -0.013834  -0.000516
    22  H   -0.003153  -0.000492  -0.000903   0.000043  -0.000327  -0.000085
    23  C   -0.018492  -0.020950   0.070357   0.002743  -0.106654   0.000522
    24  C    0.035882   0.020512  -0.356268  -0.000163   0.211760   0.004007
    25  H    0.076527   0.002486  -0.003659  -0.000163   0.010751   0.000305
    26  H   -0.064632   0.000357  -0.023815   0.000938  -0.003096  -0.000703
    27  C   -1.663309  -0.164608  -0.379190   0.083554   0.344257  -0.019107
    28  H   -0.042626  -0.037396   0.017264   0.000445   0.012325   0.000887
    29  H    0.018618  -0.009598   0.026408  -0.000459  -0.013857  -0.000581
    30  C  -12.129324   1.327655   3.600028   0.015742  -4.950269  -0.116793
    31  C   25.169877  -1.776095  -7.136213   0.656444   6.202902  -0.217221
    32  H   -1.776095   2.074467   0.585908  -0.066308  -0.310384  -0.022055
    33  C   -7.136213   0.585908  14.240709  -1.019403  -6.055909   0.366156
    34  H    0.656444  -0.066308  -1.019403   1.695463   0.493087  -0.041301
    35  C    6.202902  -0.310384  -6.055909   0.493087  15.782140  -1.095255
    36  H   -0.217221  -0.022055   0.366156  -0.041301  -1.095255   1.829101
    37  C   -8.815673   0.199078   6.560388  -0.151447  -9.208684   0.542316
    38  H    0.255836   0.019373  -0.208608  -0.023280   0.799078  -0.106379
    39  C    5.022271  -0.108969  -5.124624  -0.165141   4.832082   0.402253
    40  H   -0.001017  -0.000041  -0.000079   0.000050   0.000789  -0.000185
              37         38         39         40
     1  N    0.005347  -0.001680  -0.001913   0.414710
     2  H    0.001758  -0.000057  -0.002131  -0.058947
     3  H   -0.001495   0.000098   0.001770  -0.055098
     4  C   -0.279568  -0.002301   0.204127  -0.046516
     5  H   -0.016248   0.012623   0.017155  -0.036543
     6  H    0.002870   0.006463  -0.015056   0.023140
     7  C    0.112822   0.091826   0.011295  -0.031483
     8  H   -0.063208  -0.004146   0.372356  -0.008811
     9  H    0.070702  -0.008967   0.217995   0.009653
    10  C   -0.412481  -0.152790   0.165397   0.030550
    11  H   -0.014704  -0.161330   0.307346   0.005014
    12  H    0.089238   0.045314  -0.482053  -0.001981
    13  N    0.851436  -0.259719  -0.888373   0.002014
    14  C    1.344688   0.316731  -8.660065   0.006345
    15  C   -0.357249  -0.058939   2.969719  -0.000954
    16  H   -0.008159   0.004868  -0.126298  -0.000371
    17  C   -0.002668   0.003701  -0.568910   0.000341
    18  H   -0.008562  -0.000852   0.013810   0.000024
    19  C   -0.041310  -0.004401   0.610967  -0.000229
    20  H   -0.000433   0.000086  -0.010510  -0.000006
    21  C    0.101894   0.013414  -0.604179   0.000288
    22  H    0.009656   0.001317   0.015336   0.000010
    23  C    0.091332  -0.013453   0.241637  -0.000727
    24  C   -0.420797   0.018231  -0.873254   0.001747
    25  H   -0.046194   0.001079   0.038005  -0.000047
    26  H    0.046788   0.002273  -0.020120   0.000839
    27  C    0.775333  -0.022745  -2.130979   0.000075
    28  H   -0.022657  -0.007059   0.031228  -0.000044
    29  H    0.015201  -0.000662  -0.000257   0.000157
    30  C    6.968510  -0.826289 -10.826063  -0.000389
    31  C   -8.815673   0.255836   5.022271  -0.001017
    32  H    0.199078   0.019373  -0.108969  -0.000041
    33  C    6.560388  -0.208608  -5.124624  -0.000079
    34  H   -0.151447  -0.023280  -0.165141   0.000050
    35  C   -9.208684   0.799078   4.832082   0.000789
    36  H    0.542316  -0.106379   0.402253  -0.000185
    37  C   27.559905  -2.634723 -17.870139   0.002097
    38  H   -2.634723   3.111084   1.690520  -0.001214
    39  C  -17.870139   1.690520  36.749279  -0.008652
    40  H    0.002097  -0.001214  -0.008652   0.520854
 Mulliken charges:
               1
     1  N   -0.526716
     2  H    0.241611
     3  H    0.166723
     4  C    1.309790
     5  H   -0.117394
     6  H   -0.139758
     7  C    0.385409
     8  H   -0.211971
     9  H   -0.202742
    10  C    0.782009
    11  H   -0.275460
    12  H   -0.509082
    13  N   -0.348181
    14  C   -1.404737
    15  C    1.085683
    16  H   -0.715724
    17  C    0.324896
    18  H   -0.489702
    19  C    0.669449
    20  H   -0.461290
    21  C    0.654052
    22  H   -0.612772
    23  C    0.534368
    24  C    0.912708
    25  H   -0.181493
    26  H   -0.041365
    27  C    0.264707
    28  H    0.060963
    29  H   -0.022652
    30  C   -0.324213
    31  C    0.651200
    32  H   -0.741974
    33  C    0.160485
    34  H   -0.469228
    35  C    0.211565
    36  H   -0.557656
    37  C    1.025039
    38  H   -0.894320
    39  C    0.573139
    40  H    0.234635
 Sum of Mulliken charges =   1.00000
 Mulliken charges with hydrogens summed into heavy atoms:
               1
     1  N    0.116253
     4  C    1.052638
     7  C   -0.029304
    10  C   -0.002533
    13  N   -0.348181
    14  C   -1.404737
    15  C    0.369959
    17  C   -0.164806
    19  C    0.208159
    21  C    0.041280
    23  C    0.534368
    24  C    0.689850
    27  C    0.303018
    30  C   -0.324213
    31  C   -0.090774
    33  C   -0.308744
    35  C   -0.346091
    37  C    0.130719
    39  C    0.573139
 Electronic spatial extent (au):  <R**2>=           5382.6565
 Charge=              1.0000 electrons
 Dipole moment (field-independent basis, Debye):
    X=            -17.6055    Y=             -9.3483    Z=              4.0086  Tot=             20.3326
 Quadrupole moment (field-independent basis, Debye-Ang):
   XX=            -15.9809   YY=            -80.8078   ZZ=           -102.8698
   XY=             41.7263   XZ=            -12.8199   YZ=             -3.9355
 Traceless Quadrupole moment (field-independent basis, Debye-Ang):
   XX=             50.5719   YY=            -14.2550   ZZ=            -36.3169
   XY=             41.7263   XZ=            -12.8199   YZ=             -3.9355
 Octapole moment (field-independent basis, Debye-Ang**2):
  XXX=           -409.7079  YYY=            -42.8972  ZZZ=             23.0786  XYY=           -124.0183
  XXY=           -220.6313  XXZ=             89.0630  XZZ=            -40.3494  YZZ=            -28.9630
  YYZ=             17.3401  XYZ=             63.3252
 Hexadecapole moment (field-independent basis, Debye-Ang**3):
 XXXX=          -1489.0151 YYYY=          -2332.7314 ZZZZ=           -796.2073 XXXY=            934.4324
 XXXZ=           -399.1874 YYYX=            359.7316 YYYZ=            -51.7607 ZZZX=            -61.6787
 ZZZY=            -10.3185 XXYY=           -542.9635 XXZZ=           -593.3836 YYZZ=           -537.5756
 XXYZ=           -179.5216 YYXZ=           -103.0897 ZZXY=             78.6604
 N-N= 1.413159270303D+03 E-N=-4.591948039700D+03  KE= 7.639521447764D+02
 Leave Link  601 at Sun Jul 18 19:47:47 2021, MaxMem=   262144000 cpu:               0.6 elap:               0.5
 (Enter /dades/curu/g16A03_MST/g16/l9999.exe)
 1\1\GINC-PIRINEUS29\SP\RMP2-FC\Aug-CC-pVDZ\C17H21N2(1+)\UBATOR02\18-Ju
 l-2021\0\\#p mp2/aug-cc-pVDZ scf=tight maxdisk=180GB geom=allcheck\\SE
 T_328_BBB20_conf1.geo_120_180_180 geometry\\1,1\N,0,3.2682197659,-2.28
 11446641,2.9538921693\H,0,3.3866773996,-1.4114577933,3.4922587718\H,0,
 4.1339896725,-2.8232778264,3.0740623834\C,0,2.9742586913,-2.0108087417
 ,1.504166278\H,0,2.8799263945,-2.9835500699,1.0198904284\H,0,3.8534533
 876,-1.5095602363,1.0997984214\C,0,1.714674644,-1.1674165616,1.3492326
 746\H,0,1.8351333337,-0.2114900323,1.8701287082\H,0,0.8648502749,-1.68
 5355049,1.8034134119\C,0,1.4017861043,-0.8809621271,-0.1279704254\H,0,
 1.3427924204,-1.8238743478,-0.6914286716\H,0,2.2219589288,-0.311379482
 2,-0.5672632185\N,0,0.2033808571,-0.05304178,-0.266114906\C,0,0.246348
 5549,0.9466766444,-1.2864251879\C,0,0.8254509693,0.6854865,-2.53466551
 65\H,0,1.2148784512,-0.3039366048,-2.7468368785\C,0,0.8955961335,1.688
 5209223,-3.5028733817\H,0,1.3442970139,1.4744750786,-4.4674393034\C,0,
 0.3766092847,2.9550688119,-3.2323166518\H,0,0.4236498082,3.7381241088,
 -3.9816750395\C,0,-0.1969223282,3.212944731,-1.9868473554\H,0,-0.58778
 27599,4.2008296033,-1.7625813714\C,0,-0.257068137,2.2257818417,-1.0002
 72514\C,0,-0.8515798491,2.4750893606,0.3539397845\H,0,-1.0209653051,3.
 547605774,0.4945395331\H,0,-0.1477839679,2.1504546623,1.127510086\C,0,
 -2.1813185282,1.7419951932,0.5391579052\H,0,-2.8736775972,2.0934190311
 ,-0.236364031\H,0,-2.6251388625,2.050913426,1.4926202941\C,0,-2.151859
 7693,0.2229424978,0.5155554204\C,0,-3.3379793497,-0.4079008308,0.91583
 16886\H,0,-4.1723203436,0.2271010425,1.204051417\C,0,-3.4801078772,-1.
 7904186899,0.9766599201\H,0,-4.4153939697,-2.2331776554,1.3034557758\C
 ,0,-2.3950713928,-2.5878181242,0.6166753964\H,0,-2.4674828276,-3.66993
 97625,0.6451314196\C,0,-1.2084691619,-1.9907357172,0.2023150189\H,0,-0
 .3875233475,-2.6287360535,-0.1006683165\C,0,-1.055149376,-0.5910819584
 ,0.1420387492\H,0,2.5156626599,-2.8143651209,3.4094171129\\Version=ES6
 4L-G16RevA.03\State=1-A\HF=-764.7469775\MP2=-767.4591992\RMSD=8.015e-0
 9\PG=C01 [X(C17H21N2)]\\@


 10 WHATSOEVER THY HAND FINDETH TO DO, DO IT WITH THY  
 MIGHT. FOR THERE IS NO WORK, NOR DEVICE, NOR KNOWLEDGE, NOR  
 WISDOM, IN THE GRAVE, WHITHER THOU GOEST.                    
 11 I RETURNED AND SAW UNDER THE SUN, THAT THE RACE IS NOT TO 
 THE SWIFT, NOR THE BATTLE TO THE STRONG, NEITHER YET BREAD TO
 THE WISE, NOR YET RICHES TO MEN OF UNDERSTANDING, NOR YET    
 FAVOR TO MEN OF SKILL. BUT TIME AND CHANCE HAPPEN TO THEM ALL.
 12 FOR MAN ALSO KNOWETH NOT HIS TIME. AS THE FISHES   
 THAT ARE TAKEN IN AN EVIL NET, AND AS THE BIRDS THAT ARE     
 CAUGHT IN THE SNARE. SO ARE THE SONS OF MEN SNARED IN AN EVIL
 TIME, WHEN IT FALLETH SUDDENLY UPON THEM.
                                         ECCLESIASTES 9
 Job cpu time:       0 days  4 hours 48 minutes 44.7 seconds.
 Elapsed time:       0 days  1 hours 30 minutes  1.6 seconds.
 File lengths (MBytes):  RWF= 128470 Int=      0 D2E=      0 Chk=     32 Scr=      1
 Normal termination of Gaussian 16 at Sun Jul 18 19:47:50 2021.
