 Entering Gaussian System, Link 0=g16
 Input=SET_328_BBB321_conf1.geo_195_330_315_OCTANOL.dat
 Output=SET_328_BBB321_conf1.geo_195_330_315_OCTANOL.log
 Initial command:
 /dades/curu/g16A03_MST/g16/l1.exe "/tmp/ubator02/1839698/Gau-205645.inp" -scrdir="/tmp/ubator02/1839698/"
 Entering Link 1 = /dades/curu/g16A03_MST/g16/l1.exe PID=    205646.
  
 Copyright (c) 1988,1990,1992,1993,1995,1998,2003,2009,2016,
            Gaussian, Inc.  All Rights Reserved.
  
 This is part of the Gaussian(R) 16 program.  It is based on
 the Gaussian(R) 09 system (copyright 2009, Gaussian, Inc.),
 the Gaussian(R) 03 system (copyright 2003, Gaussian, Inc.),
 the Gaussian(R) 98 system (copyright 1998, Gaussian, Inc.),
 the Gaussian(R) 94 system (copyright 1995, Gaussian, Inc.),
 the Gaussian 92(TM) system (copyright 1992, Gaussian, Inc.),
 the Gaussian 90(TM) system (copyright 1990, Gaussian, Inc.),
 the Gaussian 88(TM) system (copyright 1988, Gaussian, Inc.),
 the Gaussian 86(TM) system (copyright 1986, Carnegie Mellon
 University), and the Gaussian 82(TM) system (copyright 1983,
 Carnegie Mellon University). Gaussian is a federally registered
 trademark of Gaussian, Inc.
  
 This software contains proprietary and confidential information,
 including trade secrets, belonging to Gaussian, Inc.
  
 This software is provided under written license and may be
 used, copied, transmitted, or stored only in accord with that
 written license.
  
 The following legend is applicable only to US Government
 contracts under FAR:
  
                    RESTRICTED RIGHTS LEGEND
  
 Use, reproduction and disclosure by the US Government is
 subject to restrictions as set forth in subparagraphs (a)
 and (c) of the Commercial Computer Software - Restricted
 Rights clause in FAR 52.227-19.
  
 Gaussian, Inc.
 340 Quinnipiac St., Bldg. 40, Wallingford CT 06492
  
  
 ---------------------------------------------------------------
 Warning -- This program may not be used in any manner that
 competes with the business of Gaussian, Inc. or will provide
 assistance to any competitor of Gaussian, Inc.  The licensee
 of this program is prohibited from giving any competitor of
 Gaussian, Inc. access to this program.  By using this program,
 the user acknowledges that Gaussian, Inc. is engaged in the
 business of creating and licensing software in the field of
 computational chemistry and represents and warrants to the
 licensee that it is not a competitor of Gaussian, Inc. and that
 it will not use this program in any manner prohibited above.
 ---------------------------------------------------------------
  

 Cite this work as:
 Gaussian 16, Revision A.03,
 M. J. Frisch, G. W. Trucks, H. B. Schlegel, G. E. Scuseria, 
 M. A. Robb, J. R. Cheeseman, G. Scalmani, V. Barone, 
 G. A. Petersson, H. Nakatsuji, X. Li, M. Caricato, A. V. Marenich, 
 J. Bloino, B. G. Janesko, R. Gomperts, B. Mennucci, H. P. Hratchian, 
 J. V. Ortiz, A. F. Izmaylov, J. L. Sonnenberg, D. Williams-Young, 
 F. Ding, F. Lipparini, F. Egidi, J. Goings, B. Peng, A. Petrone, 
 T. Henderson, D. Ranasinghe, V. G. Zakrzewski, J. Gao, N. Rega, 
 G. Zheng, W. Liang, M. Hada, M. Ehara, K. Toyota, R. Fukuda, 
 J. Hasegawa, M. Ishida, T. Nakajima, Y. Honda, O. Kitao, H. Nakai, 
 T. Vreven, K. Throssell, J. A. Montgomery, Jr., J. E. Peralta, 
 F. Ogliaro, M. J. Bearpark, J. J. Heyd, E. N. Brothers, K. N. Kudin, 
 V. N. Staroverov, T. A. Keith, R. Kobayashi, J. Normand, 
 K. Raghavachari, A. P. Rendell, J. C. Burant, S. S. Iyengar, 
 J. Tomasi, M. Cossi, J. M. Millam, M. Klene, C. Adamo, R. Cammi, 
 J. W. Ochterski, R. L. Martin, K. Morokuma, O. Farkas, 
 J. B. Foresman, and D. J. Fox, Gaussian, Inc., Wallingford CT, 2016.
 
 ******************************************
 Gaussian 16:  ES64L-G16RevA.03 25-Dec-2016
                18-Jul-2021 
 ******************************************
 %mem=800MB
 %nproc=4
 Will use up to    4 processors via shared memory.
 %chk=SET_328_BBB321_conf1.geo_195_330_315.chk
 ---------------------------------------------------------------
 #p b3lyp/6-31G(d) opt freq scrf=(iefpcm,read,solvent=n-octanol)
 ---------------------------------------------------------------
 1/18=20,19=15,26=3,38=1,40=2/1,3;
 2/9=110,12=2,17=6,18=5,40=1/2;
 3/5=1,6=6,7=1,11=2,25=1,30=1,70=2203,71=1,72=25,74=-5/1,2,3;
 4//1;
 5/5=2,38=5,53=25/2;
 6/7=2,8=2,9=2,10=2,28=1/1;
 7//1,2,3,16;
 1/18=20,19=15,26=3/3(2);
 2/9=110/2;
 99//99;
 2/9=110/2;
 3/5=1,6=6,7=1,11=2,25=1,30=1,70=2205,71=1,72=25,74=-5/1,2,3;
 4/5=5,16=3,69=1/1;
 5/5=2,38=5,53=25/2;
 7//1,2,3,16;
 1/18=20,19=15,26=3/3(-5);
 2/9=110/2;
 6/7=2,8=2,9=2,10=2,19=2,28=1/1;
 99/9=1/99;
 Leave Link    1 at Sun Jul 18 16:18:54 2021, MaxMem=   104857600 cpu:               0.0 elap:               0.0
 (Enter /dades/curu/g16A03_MST/g16/l101.exe)
 ---------------------------------------------
 SET_328_BBB321_conf1.geo_195_330_315 geometry
 ---------------------------------------------
 Symbolic Z-matrix:
 Charge =  1 Multiplicity = 1
 C                    -1.235    -2.806    -4.094 
 H                    -2.062    -3.318    -3.597 
 H                    -0.544    -3.551    -4.495 
 H                    -1.637    -2.271    -4.957 
 C                    -0.549    -1.956    -3.07 
 O                    -0.101    -2.514    -2.09 
 N                    -0.288    -0.649    -3.322 
 H                    -0.431    -0.282    -4.251 
 C                     0.482     0.205    -2.564 
 C                     1.363     1.137    -3.199 
 C                     2.16      1.89     -2.405 
 C                     2.045     1.917    -1. 
 H                     2.547     2.646    -0.369 
 H                     2.897     2.522    -2.894 
 H                     1.48      1.132    -4.28 
 C                     0.381     0.206    -1.183 
 H                    -0.203    -0.595    -0.738 
 C                     1.159     1.07     -0.409 
 C                     0.991     1.094     1.048 
 N                    -0.188     0.826     1.688 
 C                     2.187     1.027     1.716 
 H                     3.212     1.107     1.377 
 S                     1.85      1.076     3.426 
 C                     0.16      0.713     2.996 
 N                    -0.681     0.544     4.124 
 C                    -1.797     0.016     3.947 
 N                    -2.65      0.525     4.802 
 H                    -2.076     1.155     5.351 
 H                    -3.254     1.056     4.185 
 N                    -1.934    -1.175     4.423 
 H                    -1.056    -1.681     4.446 
 H                    -2.226    -1.069     5.388 
 H                    -0.389     0.839     5.034 
 
 ITRead=  0  0  0  0  0  0  0  0  0  0  0  0  0  0  0  0  0  0  0  0
 ITRead=  0  0  0  0  0  0  0  0  0  0  0  0  0
 MicOpt= -1 -1 -1 -1 -1 -1 -1 -1 -1 -1 -1 -1 -1 -1 -1 -1 -1 -1 -1 -1
 MicOpt= -1 -1 -1 -1 -1 -1 -1 -1 -1 -1 -1 -1 -1
 NAtoms=     33 NQM=       33 NQMF=       0 NMMI=      0 NMMIF=      0
                NMic=       0 NMicF=      0.
                    Isotopes and Nuclear Properties:
 (Nuclear quadrupole moments (NQMom) in fm**2, nuclear magnetic moments (NMagM)
  in nuclear magnetons)

  Atom         1           2           3           4           5           6           7           8           9          10
 IAtWgt=          12           1           1           1          12          16          14           1          12          12
 AtmWgt=  12.0000000   1.0078250   1.0078250   1.0078250  12.0000000  15.9949146  14.0030740   1.0078250  12.0000000  12.0000000
 NucSpn=           0           1           1           1           0           0           2           1           0           0
 AtZEff=  -0.0000000  -0.0000000  -0.0000000  -0.0000000  -0.0000000  -0.0000000  -0.0000000  -0.0000000  -0.0000000  -0.0000000
 NQMom=    0.0000000   0.0000000   0.0000000   0.0000000   0.0000000   0.0000000   2.0440000   0.0000000   0.0000000   0.0000000
 NMagM=    0.0000000   2.7928460   2.7928460   2.7928460   0.0000000   0.0000000   0.4037610   2.7928460   0.0000000   0.0000000
 AtZNuc=   6.0000000   1.0000000   1.0000000   1.0000000   6.0000000   8.0000000   7.0000000   1.0000000   6.0000000   6.0000000

  Atom        11          12          13          14          15          16          17          18          19          20
 IAtWgt=          12          12           1           1           1          12           1          12          12          14
 AtmWgt=  12.0000000  12.0000000   1.0078250   1.0078250   1.0078250  12.0000000   1.0078250  12.0000000  12.0000000  14.0030740
 NucSpn=           0           0           1           1           1           0           1           0           0           2
 AtZEff=  -0.0000000  -0.0000000  -0.0000000  -0.0000000  -0.0000000  -0.0000000  -0.0000000  -0.0000000  -0.0000000  -0.0000000
 NQMom=    0.0000000   0.0000000   0.0000000   0.0000000   0.0000000   0.0000000   0.0000000   0.0000000   0.0000000   2.0440000
 NMagM=    0.0000000   0.0000000   2.7928460   2.7928460   2.7928460   0.0000000   2.7928460   0.0000000   0.0000000   0.4037610
 AtZNuc=   6.0000000   6.0000000   1.0000000   1.0000000   1.0000000   6.0000000   1.0000000   6.0000000   6.0000000   7.0000000

  Atom        21          22          23          24          25          26          27          28          29          30
 IAtWgt=          12           1          32          12          14          12          14           1           1          14
 AtmWgt=  12.0000000   1.0078250  31.9720718  12.0000000  14.0030740  12.0000000  14.0030740   1.0078250   1.0078250  14.0030740
 NucSpn=           0           1           0           0           2           0           2           1           1           2
 AtZEff=  -0.0000000  -0.0000000  -0.0000000  -0.0000000  -0.0000000  -0.0000000  -0.0000000  -0.0000000  -0.0000000  -0.0000000
 NQMom=    0.0000000   0.0000000   0.0000000   0.0000000   2.0440000   0.0000000   2.0440000   0.0000000   0.0000000   2.0440000
 NMagM=    0.0000000   2.7928460   0.0000000   0.0000000   0.4037610   0.0000000   0.4037610   2.7928460   2.7928460   0.4037610
 AtZNuc=   6.0000000   1.0000000  16.0000000   6.0000000   7.0000000   6.0000000   7.0000000   1.0000000   1.0000000   7.0000000

  Atom        31          32          33
 IAtWgt=           1           1           1
 AtmWgt=   1.0078250   1.0078250   1.0078250
 NucSpn=           1           1           1
 AtZEff=  -0.0000000  -0.0000000  -0.0000000
 NQMom=    0.0000000   0.0000000   0.0000000
 NMagM=    2.7928460   2.7928460   2.7928460
 AtZNuc=   1.0000000   1.0000000   1.0000000
 Leave Link  101 at Sun Jul 18 16:18:55 2021, MaxMem=   104857600 cpu:               0.1 elap:               0.1
 (Enter /dades/curu/g16A03_MST/g16/l103.exe)

 GradGradGradGradGradGradGradGradGradGradGradGradGradGradGradGradGradGrad
 Berny optimization.
 Initialization pass.
                           ----------------------------
                           !    Initial Parameters    !
                           ! (Angstroms and Degrees)  !
 --------------------------                            --------------------------
 ! Name  Definition              Value          Derivative Info.                !
 --------------------------------------------------------------------------------
 ! R1    R(1,2)                  1.0923         estimate D2E/DX2                !
 ! R2    R(1,3)                  1.0924         estimate D2E/DX2                !
 ! R3    R(1,4)                  1.0921         estimate D2E/DX2                !
 ! R4    R(1,5)                  1.4972         estimate D2E/DX2                !
 ! R5    R(5,6)                  1.2135         estimate D2E/DX2                !
 ! R6    R(5,7)                  1.3564         estimate D2E/DX2                !
 ! R7    R(7,8)                  1.009          estimate D2E/DX2                !
 ! R8    R(7,9)                  1.3772         estimate D2E/DX2                !
 ! R9    R(9,10)                 1.4311         estimate D2E/DX2                !
 ! R10   R(9,16)                 1.3847         estimate D2E/DX2                !
 ! R11   R(10,11)                1.3538         estimate D2E/DX2                !
 ! R12   R(10,15)                1.0873         estimate D2E/DX2                !
 ! R13   R(11,12)                1.41           estimate D2E/DX2                !
 ! R14   R(11,14)                1.0871         estimate D2E/DX2                !
 ! R15   R(12,13)                1.087          estimate D2E/DX2                !
 ! R16   R(12,18)                1.3608         estimate D2E/DX2                !
 ! R17   R(16,17)                1.0866         estimate D2E/DX2                !
 ! R18   R(16,18)                1.3967         estimate D2E/DX2                !
 ! R19   R(18,19)                1.4669         estimate D2E/DX2                !
 ! R20   R(19,20)                1.368          estimate D2E/DX2                !
 ! R21   R(19,21)                1.3715         estimate D2E/DX2                !
 ! R22   R(20,24)                1.3582         estimate D2E/DX2                !
 ! R23   R(21,22)                1.0826         estimate D2E/DX2                !
 ! R24   R(21,23)                1.7436         estimate D2E/DX2                !
 ! R25   R(23,24)                1.7812         estimate D2E/DX2                !
 ! R26   R(24,25)                1.4171         estimate D2E/DX2                !
 ! R27   R(25,26)                1.2472         estimate D2E/DX2                !
 ! R28   R(25,33)                1.0002         estimate D2E/DX2                !
 ! R29   R(26,27)                1.3106         estimate D2E/DX2                !
 ! R30   R(26,30)                1.2899         estimate D2E/DX2                !
 ! R31   R(27,28)                1.0138         estimate D2E/DX2                !
 ! R32   R(27,29)                1.0136         estimate D2E/DX2                !
 ! R33   R(30,31)                1.0136         estimate D2E/DX2                !
 ! R34   R(30,32)                1.0138         estimate D2E/DX2                !
 ! A1    A(2,1,3)              109.0431         estimate D2E/DX2                !
 ! A2    A(2,1,4)              108.0894         estimate D2E/DX2                !
 ! A3    A(2,1,5)              107.567          estimate D2E/DX2                !
 ! A4    A(3,1,4)              106.0735         estimate D2E/DX2                !
 ! A5    A(3,1,5)              110.3904         estimate D2E/DX2                !
 ! A6    A(4,1,5)              115.532          estimate D2E/DX2                !
 ! A7    A(1,5,6)              117.4161         estimate D2E/DX2                !
 ! A8    A(1,5,7)              120.5396         estimate D2E/DX2                !
 ! A9    A(6,5,7)              121.4727         estimate D2E/DX2                !
 ! A10   A(5,7,8)              119.6192         estimate D2E/DX2                !
 ! A11   A(5,7,9)              127.072          estimate D2E/DX2                !
 ! A12   A(8,7,9)              111.1259         estimate D2E/DX2                !
 ! A13   A(7,9,10)             120.2519         estimate D2E/DX2                !
 ! A14   A(7,9,16)             120.5692         estimate D2E/DX2                !
 ! A15   A(10,9,16)            119.1416         estimate D2E/DX2                !
 ! A16   A(9,10,11)            117.6734         estimate D2E/DX2                !
 ! A17   A(9,10,15)            120.2906         estimate D2E/DX2                !
 ! A18   A(11,10,15)           121.4875         estimate D2E/DX2                !
 ! A19   A(10,11,12)           123.1674         estimate D2E/DX2                !
 ! A20   A(10,11,14)           117.3026         estimate D2E/DX2                !
 ! A21   A(12,11,14)           119.4996         estimate D2E/DX2                !
 ! A22   A(11,12,13)           123.6159         estimate D2E/DX2                !
 ! A23   A(11,12,18)           118.2925         estimate D2E/DX2                !
 ! A24   A(13,12,18)           117.7757         estimate D2E/DX2                !
 ! A25   A(9,16,17)            116.5588         estimate D2E/DX2                !
 ! A26   A(9,16,18)            120.83           estimate D2E/DX2                !
 ! A27   A(17,16,18)           121.8995         estimate D2E/DX2                !
 ! A28   A(12,18,16)           120.4665         estimate D2E/DX2                !
 ! A29   A(12,18,19)           119.7215         estimate D2E/DX2                !
 ! A30   A(16,18,19)           119.7856         estimate D2E/DX2                !
 ! A31   A(18,19,20)           124.069          estimate D2E/DX2                !
 ! A32   A(18,19,21)           112.5259         estimate D2E/DX2                !
 ! A33   A(20,19,21)           120.9376         estimate D2E/DX2                !
 ! A34   A(19,20,24)           104.2419         estimate D2E/DX2                !
 ! A35   A(19,21,22)           132.0298         estimate D2E/DX2                !
 ! A36   A(19,21,23)           107.9235         estimate D2E/DX2                !
 ! A37   A(22,21,23)           119.2119         estimate D2E/DX2                !
 ! A38   A(21,23,24)            86.6117         estimate D2E/DX2                !
 ! A39   A(20,24,23)           117.2984         estimate D2E/DX2                !
 ! A40   A(20,24,25)           128.6397         estimate D2E/DX2                !
 ! A41   A(23,24,25)           113.2792         estimate D2E/DX2                !
 ! A42   A(24,25,26)           117.9397         estimate D2E/DX2                !
 ! A43   A(24,25,33)           121.0491         estimate D2E/DX2                !
 ! A44   A(26,25,33)           121.0112         estimate D2E/DX2                !
 ! A45   A(25,26,27)           108.988          estimate D2E/DX2                !
 ! A46   A(25,26,30)           115.693          estimate D2E/DX2                !
 ! A47   A(27,26,30)            92.793          estimate D2E/DX2                !
 ! A48   A(26,27,28)           103.0687         estimate D2E/DX2                !
 ! A49   A(26,27,29)           101.1964         estimate D2E/DX2                !
 ! A50   A(28,27,29)           109.9663         estimate D2E/DX2                !
 ! A51   A(26,30,31)           112.1664         estimate D2E/DX2                !
 ! A52   A(26,30,32)           106.5779         estimate D2E/DX2                !
 ! A53   A(31,30,32)           106.2656         estimate D2E/DX2                !
 ! D1    D(2,1,5,6)             58.4776         estimate D2E/DX2                !
 ! D2    D(2,1,5,7)           -130.0654         estimate D2E/DX2                !
 ! D3    D(3,1,5,6)            -60.3904         estimate D2E/DX2                !
 ! D4    D(3,1,5,7)            111.0666         estimate D2E/DX2                !
 ! D5    D(4,1,5,6)            179.2852         estimate D2E/DX2                !
 ! D6    D(4,1,5,7)             -9.2579         estimate D2E/DX2                !
 ! D7    D(1,5,7,8)             -9.1238         estimate D2E/DX2                !
 ! D8    D(1,5,7,9)           -170.7747         estimate D2E/DX2                !
 ! D9    D(6,5,7,8)            161.9818         estimate D2E/DX2                !
 ! D10   D(6,5,7,9)              0.3309         estimate D2E/DX2                !
 ! D11   D(5,7,9,10)           139.5803         estimate D2E/DX2                !
 ! D12   D(5,7,9,16)           -42.6591         estimate D2E/DX2                !
 ! D13   D(8,7,9,10)           -23.3588         estimate D2E/DX2                !
 ! D14   D(8,7,9,16)           154.4019         estimate D2E/DX2                !
 ! D15   D(7,9,10,11)         -175.7351         estimate D2E/DX2                !
 ! D16   D(7,9,10,15)           -4.1019         estimate D2E/DX2                !
 ! D17   D(16,9,10,11)           6.4724         estimate D2E/DX2                !
 ! D18   D(16,9,10,15)         178.1056         estimate D2E/DX2                !
 ! D19   D(7,9,16,17)            9.5035         estimate D2E/DX2                !
 ! D20   D(7,9,16,18)         -179.9832         estimate D2E/DX2                !
 ! D21   D(10,9,16,17)        -172.7112         estimate D2E/DX2                !
 ! D22   D(10,9,16,18)          -2.1979         estimate D2E/DX2                !
 ! D23   D(9,10,11,12)          -8.0683         estimate D2E/DX2                !
 ! D24   D(9,10,11,14)         173.9501         estimate D2E/DX2                !
 ! D25   D(15,10,11,12)       -179.5955         estimate D2E/DX2                !
 ! D26   D(15,10,11,14)          2.4229         estimate D2E/DX2                !
 ! D27   D(10,11,12,13)       -168.2582         estimate D2E/DX2                !
 ! D28   D(10,11,12,18)          5.1345         estimate D2E/DX2                !
 ! D29   D(14,11,12,13)          9.681          estimate D2E/DX2                !
 ! D30   D(14,11,12,18)       -176.9263         estimate D2E/DX2                !
 ! D31   D(11,12,18,16)         -0.4326         estimate D2E/DX2                !
 ! D32   D(11,12,18,19)       -178.5601         estimate D2E/DX2                !
 ! D33   D(13,12,18,16)        173.35           estimate D2E/DX2                !
 ! D34   D(13,12,18,19)         -4.7774         estimate D2E/DX2                !
 ! D35   D(9,16,18,12)          -0.8294         estimate D2E/DX2                !
 ! D36   D(9,16,18,19)         177.2969         estimate D2E/DX2                !
 ! D37   D(17,16,18,12)        169.1704         estimate D2E/DX2                !
 ! D38   D(17,16,18,19)        -12.7033         estimate D2E/DX2                !
 ! D39   D(12,18,19,20)        147.7688         estimate D2E/DX2                !
 ! D40   D(12,18,19,21)        -49.9877         estimate D2E/DX2                !
 ! D41   D(16,18,19,20)        -30.3715         estimate D2E/DX2                !
 ! D42   D(16,18,19,21)        131.8719         estimate D2E/DX2                !
 ! D43   D(18,19,20,24)        168.9587         estimate D2E/DX2                !
 ! D44   D(21,19,20,24)          8.1323         estimate D2E/DX2                !
 ! D45   D(18,19,21,22)         10.4402         estimate D2E/DX2                !
 ! D46   D(18,19,21,23)        179.5772         estimate D2E/DX2                !
 ! D47   D(20,19,21,22)        173.3108         estimate D2E/DX2                !
 ! D48   D(20,19,21,23)        -17.5522         estimate D2E/DX2                !
 ! D49   D(19,20,24,23)          5.3912         estimate D2E/DX2                !
 ! D50   D(19,20,24,25)        174.4958         estimate D2E/DX2                !
 ! D51   D(19,21,23,24)         15.153          estimate D2E/DX2                !
 ! D52   D(22,21,23,24)       -174.0764         estimate D2E/DX2                !
 ! D53   D(21,23,24,20)        -12.6577         estimate D2E/DX2                !
 ! D54   D(21,23,24,25)        176.5912         estimate D2E/DX2                !
 ! D55   D(20,24,25,26)         25.4125         estimate D2E/DX2                !
 ! D56   D(20,24,25,33)       -154.58           estimate D2E/DX2                !
 ! D57   D(23,24,25,26)       -165.1234         estimate D2E/DX2                !
 ! D58   D(23,24,25,33)         14.8841         estimate D2E/DX2                !
 ! D59   D(24,25,26,27)       -147.7828         estimate D2E/DX2                !
 ! D60   D(24,25,26,30)        109.3475         estimate D2E/DX2                !
 ! D61   D(33,25,26,27)         32.2098         estimate D2E/DX2                !
 ! D62   D(33,25,26,30)        -70.66           estimate D2E/DX2                !
 ! D63   D(25,26,27,28)         -2.6389         estimate D2E/DX2                !
 ! D64   D(25,26,27,29)        111.1454         estimate D2E/DX2                !
 ! D65   D(30,26,27,28)        115.7745         estimate D2E/DX2                !
 ! D66   D(30,26,27,29)       -130.4412         estimate D2E/DX2                !
 ! D67   D(25,26,30,31)        -28.9107         estimate D2E/DX2                !
 ! D68   D(25,26,30,32)         86.9919         estimate D2E/DX2                !
 ! D69   D(27,26,30,31)       -141.5526         estimate D2E/DX2                !
 ! D70   D(27,26,30,32)        -25.65           estimate D2E/DX2                !
 --------------------------------------------------------------------------------
 Trust Radius=3.00D-01 FncErr=1.00D-07 GrdErr=1.00D-06 EigMax=2.50D+02 EigMin=1.00D-04
 Number of steps in this run=    167 maximum allowed number of steps=    198.
 GradGradGradGradGradGradGradGradGradGradGradGradGradGradGradGradGradGrad

 Leave Link  103 at Sun Jul 18 16:18:55 2021, MaxMem=   104857600 cpu:               0.0 elap:               0.0
 (Enter /dades/curu/g16A03_MST/g16/l202.exe)
                          Input orientation:                          
 ---------------------------------------------------------------------
 Center     Atomic      Atomic             Coordinates (Angstroms)
 Number     Number       Type             X           Y           Z
 ---------------------------------------------------------------------
      1          6           0       -1.235000   -2.806000   -4.094000
      2          1           0       -2.062000   -3.318000   -3.597000
      3          1           0       -0.544000   -3.551000   -4.495000
      4          1           0       -1.637000   -2.271000   -4.957000
      5          6           0       -0.549000   -1.956000   -3.070000
      6          8           0       -0.101000   -2.514000   -2.090000
      7          7           0       -0.288000   -0.649000   -3.322000
      8          1           0       -0.431000   -0.282000   -4.251000
      9          6           0        0.482000    0.205000   -2.564000
     10          6           0        1.363000    1.137000   -3.199000
     11          6           0        2.160000    1.890000   -2.405000
     12          6           0        2.045000    1.917000   -1.000000
     13          1           0        2.547000    2.646000   -0.369000
     14          1           0        2.897000    2.522000   -2.894000
     15          1           0        1.480000    1.132000   -4.280000
     16          6           0        0.381000    0.206000   -1.183000
     17          1           0       -0.203000   -0.595000   -0.738000
     18          6           0        1.159000    1.070000   -0.409000
     19          6           0        0.991000    1.094000    1.048000
     20          7           0       -0.188000    0.826000    1.688000
     21          6           0        2.187000    1.027000    1.716000
     22          1           0        3.212000    1.107000    1.377000
     23         16           0        1.850000    1.076000    3.426000
     24          6           0        0.160000    0.713000    2.996000
     25          7           0       -0.681000    0.544000    4.124000
     26          6           0       -1.797000    0.016000    3.947000
     27          7           0       -2.650000    0.525000    4.802000
     28          1           0       -2.076000    1.155000    5.351000
     29          1           0       -3.254000    1.056000    4.185000
     30          7           0       -1.934000   -1.175000    4.423000
     31          1           0       -1.056000   -1.681000    4.446000
     32          1           0       -2.226000   -1.069000    5.388000
     33          1           0       -0.389000    0.839000    5.034000
 ---------------------------------------------------------------------
                    Distance matrix (angstroms):
                    1          2          3          4          5
     1  C    0.000000
     2  H    1.092283   0.000000
     3  H    1.092386   1.779049   0.000000
     4  H    1.092061   1.768173   1.745421   0.000000
     5  C    1.497221   2.102841   2.138849   2.200849   0.000000
     6  O    2.321042   2.600574   2.656246   3.261600   1.213453
     7  N    2.479000   3.216561   3.140552   2.669065   1.356420
     8  H    2.653609   3.507873   3.280041   2.430842   2.052063
     9  C    3.788814   4.466604   4.346145   4.043165   2.447227
    10  C    4.806025   5.633476   5.224329   4.868781   3.638548
    11  C    6.035823   6.809509   6.425278   6.184160   4.751065
    12  C    6.529775   7.142624   6.986914   6.837713   5.100379
    13  H    7.609432   8.199522   8.061077   7.920384   6.169199
    14  H    6.848431   7.693601   7.161355   6.912740   5.653174
    15  H    4.786822   5.728416   5.106201   4.664164   3.888018
    16  C    4.489713   4.920795   5.093134   4.944788   3.016606
    17  H    4.149251   4.363999   4.792626   4.760808   2.722179
    18  C    5.859508   6.308148   6.399160   6.297952   4.376627
    19  C    6.826803   7.096660   7.393044   7.368150   5.350890
    20  N    6.907905   6.972506   7.583822   7.473087   5.523442
    21  C    7.756164   8.072236   8.184923   8.368316   6.268156
    22  H    8.063450   8.493314   8.383608   8.662750   6.580494
    23  S    9.007638   9.161523   9.480644   9.676583   7.559513
    24  C    8.037256   8.040765   8.648260   8.682377   6.665028
    25  N    8.891847   8.742771   9.543320   9.555246   7.617156
    26  C    8.540328   8.252134   9.249911   9.194411   7.394902
    27  N    9.603989   9.255139  10.367411  10.202052   8.516921
    28  H   10.276421  10.003731  11.019854  10.871295   9.106223
    29  H    9.355920   9.006235  10.193672   9.862037   8.308080
    30  N    8.699888   8.302363   9.333177   9.448483   7.659846
    31  H    8.615641   8.269320   9.148799   9.439389   7.538099
    32  H    9.690592   9.263645  10.327785  10.431239   8.668152
    33  H    9.865198   9.724903  10.492758  10.538011   8.573940
                    6          7          8          9         10
     6  O    0.000000
     7  N    2.242993   0.000000
     8  H    3.124203   1.009049   0.000000
     9  C    2.820909   1.377236   1.979067   0.000000
    10  C    4.086928   2.435308   2.517678   1.431087   0.000000
    11  C    4.960500   3.644189   3.852088   2.383315   1.353756
    12  C    5.042537   4.173599   4.640601   2.796428   2.430869
    13  H    6.049739   5.254946   5.701894   3.878238   3.418748
    14  H    5.915718   4.514715   4.558448   3.362977   2.089116
    15  H    4.537508   2.686177   2.377427   2.190888   1.087325
    16  C    2.907468   2.398730   3.210936   1.384689   2.428032
    17  H    2.349653   2.585962   3.534278   2.107961   3.392448
    18  C    4.154325   3.678905   4.372296   2.418797   2.798250
    19  C    4.904811   4.875530   5.656400   3.754457   4.263478
    20  N    5.043456   5.223574   6.046357   4.349028   5.136642
    21  C    5.679724   5.857990   6.646239   4.679862   4.984807
    22  H    6.008968   6.116710   6.846543   4.878318   4.935532
    23  S    6.864456   7.285751   8.123020   6.205656   6.643156
    24  C    6.029017   6.478647   7.338822   5.592437   6.324951
    25  N    6.949932   7.551200   8.419347   6.796825   7.626002
    26  C    6.761855   7.453702   8.316367   6.900919   7.893514
    27  N    7.951892   8.541469   9.355855   8.010604   8.971885
    28  H    8.528228   9.037272   9.847304   8.372162   9.215723
    29  H    7.877940   8.249802   8.995870   7.760857   8.709001
    30  N    6.897244   7.935428   8.848431   7.520613   8.620350
    31  H    6.657718   7.873797   8.830948   7.420414   8.499336
    32  H    7.907220   8.932880   9.836245   8.496508   9.564723
    33  H    7.878891   8.488055   9.352520   7.673995   8.422624
                   11         12         13         14         15
    11  C    0.000000
    12  C    1.409957   0.000000
    13  H    2.206037   1.087017   0.000000
    14  H    1.087067   2.163138   2.552156   0.000000
    15  H    2.133680   3.419627   4.327425   2.420947   0.000000
    16  C    2.737514   2.393722   3.362700   3.823824   3.414189
    17  H    3.812858   3.381167   4.266467   4.896328   4.284948
    18  C    2.378743   1.360767   2.100457   3.362168   3.884781
    19  C    3.731405   2.445925   2.614905   4.605582   5.350528
    20  N    4.837132   3.660862   3.876064   5.778267   6.204263
    21  C    4.210480   2.861629   2.664205   4.898084   6.038451
    22  H    4.002914   2.769137   2.420591   4.510309   5.916257
    23  S    5.895698   4.509410   4.165661   6.567307   7.715081
    24  C    5.878446   4.579395   4.556038   6.742088   7.406628
    25  N    7.246436   5.964192   5.918229   8.122000   8.697292
    26  C    7.714767   6.545806   6.664465   8.666773   8.925677
    27  N    8.771555   7.592358   7.631952   9.694619   9.995403
    28  H    8.867889   7.609105   7.504239   9.725196  10.266539
    29  H    8.569425   7.463575   7.544443   9.491902   9.699111
    30  N    8.530923   7.402826   7.592277   9.515506   9.629115
    31  H    8.368447   7.226391   7.408695   9.336328   9.512483
    32  H    9.419317   8.244039   8.350198  10.379400  10.585323
    33  H    7.933519   6.595119   6.409193   8.745483   9.504189
                   16         17         18         19         20
    16  C    0.000000
    17  H    1.086592   0.000000
    18  C    1.396730   2.176123   0.000000
    19  C    2.477500   2.732792   1.466850   0.000000
    20  N    2.991789   2.811573   2.504267   1.368015   0.000000
    21  C    3.512816   3.790132   2.360987   1.371543   2.383655
    22  H    3.921729   4.362597   2.721392   2.245273   3.425738
    23  S    4.915053   4.934161   3.896760   2.528456   2.690091
    24  C    4.215440   3.973083   3.566437   2.151842   1.358211
    25  N    5.422761   5.016458   4.920403   3.543989   2.501333
    26  C    5.576440   4.986319   5.368760   4.164040   2.889301
    27  N    6.716319   6.159043   6.477656   5.260528   3.981085
    28  H    7.044899   6.606554   6.606818   5.284507   4.134048
    29  H    6.538436   6.022485   6.370212   5.278469   3.960841
    30  N    6.220420   5.474366   6.160755   5.009452   3.812183
    31  H    6.108304   5.364780   6.003770   4.841202   3.826883
    32  H    7.183322   6.468777   7.045478   5.819215   4.629737
    33  H    6.296402   5.950373   5.663560   4.225828   3.352057
                   21         22         23         24         25
    21  C    0.000000
    22  H    1.082565   0.000000
    23  S    1.743580   2.460570   0.000000
    24  C    2.417793   3.477226   1.781227   0.000000
    25  N    3.775868   4.797752   2.678841   1.417119   0.000000
    26  C    4.676723   5.734567   3.833491   2.284745   1.247225
    27  N    5.759511   6.814132   4.737824   3.345606   2.082548
    28  H    5.603818   6.614977   4.373253   3.277359   1.955729
    29  H    5.975055   7.049583   5.160164   3.631359   2.624156
    30  N    5.399935   6.400543   4.514384   3.160017   2.148109
    31  H    5.030230   5.950423   4.133556   3.051621   2.279240
    32  H    6.111577   7.098939   5.006420   3.819710   2.566416
    33  H    4.204788   5.139326   2.766759   2.114408   1.000194
                   26         27         28         29         30
    26  C    0.000000
    27  N    1.310616   0.000000
    28  H    1.829311   1.013793   0.000000
    29  H    1.805850   1.013640   1.660434   0.000000
    30  N    1.289894   1.883161   2.512021   2.603153   0.000000
    31  H    1.917783   2.744815   3.146795   3.520013   1.013632
    32  H    1.854116   1.750431   2.229360   2.649456   1.013768
    33  H    1.959939   2.294459   1.745369   2.996017   2.610851
                   31         32         33
    31  H    0.000000
    32  H    1.621977   0.000000
    33  H    2.672271   2.672143   0.000000
 Stoichiometry    C12H14N5OS(1+)
 Framework group  C1[X(C12H14N5OS)]
 Deg. of freedom    93
 Full point group                 C1      NOp   1
 Largest Abelian subgroup         C1      NOp   1
 Largest concise Abelian subgroup C1      NOp   1
                         Standard orientation:                         
 ---------------------------------------------------------------------
 Center     Atomic      Atomic             Coordinates (Angstroms)
 Number     Number       Type             X           Y           Z
 ---------------------------------------------------------------------
      1          6           0       -4.796153    2.949555    0.358058
      2          1           0       -4.293795    3.917554    0.297260
      3          1           0       -5.387233    2.911771    1.275938
      4          1           0       -5.511252    2.886358   -0.464885
      5          6           0       -3.737251    1.891210    0.375554
      6          8           0       -2.916390    1.936827    1.268064
      7          7           0       -3.808097    0.831325   -0.467949
      8          1           0       -4.644499    0.682272   -1.012369
      9          6           0       -3.019145   -0.297412   -0.450988
     10          6           0       -3.596719   -1.584452   -0.691713
     11          6           0       -2.791556   -2.666550   -0.575818
     12          6           0       -1.396207   -2.574040   -0.395757
     13          1           0       -0.720465   -3.420816   -0.484909
     14          1           0       -3.256669   -3.645465   -0.660132
     15          1           0       -4.671108   -1.687485   -0.823419
     16          6           0       -1.653062   -0.198767   -0.247394
     17          1           0       -1.275544    0.775192    0.051883
     18          6           0       -0.847768   -1.339836   -0.229501
     19          6           0        0.604244   -1.204544   -0.071372
     20          7           0        1.326205   -0.129268   -0.511848
     21          6           0        1.110003   -2.050490    0.882417
     22          1           0        0.671354   -2.881112    1.420562
     23         16           0        2.833657   -1.800036    0.962165
     24          6           0        2.550620   -0.295253    0.052062
     25          7           0        3.727563    0.468469   -0.147343
     26          6           0        3.599980    1.653427   -0.514992
     27          7           0        4.617748    1.976010   -1.275127
     28          1           0        5.189087    1.138668   -1.260741
     29          1           0        4.166669    2.071783   -2.177802
     30          7           0        3.894431    2.547402    0.367012
     31          1           0        3.735207    2.218758    1.312576
     32          1           0        4.891325    2.713972    0.288387
     33          1           0        4.632665    0.069850    0.001929
 ---------------------------------------------------------------------
 Rotational constants (GHZ):           0.5005058           0.1793433           0.1418794
 Leave Link  202 at Sun Jul 18 16:18:55 2021, MaxMem=   104857600 cpu:               0.1 elap:               0.0
 (Enter /dades/curu/g16A03_MST/g16/l301.exe)
 Standard basis: 6-31G(d) (6D, 7F)
 Ernie: Thresh=  0.10000D-02 Tol=  0.10000D-05 Strict=F.
 There are   317 symmetry adapted cartesian basis functions of A   symmetry.
 There are   317 symmetry adapted basis functions of A   symmetry.
   317 basis functions,   612 primitive gaussians,   317 cartesian basis functions
    72 alpha electrons       72 beta electrons
       nuclear repulsion energy      1477.6615859623 Hartrees.
 IExCor=  402 DFT=T Ex+Corr=B3LYP ExCW=0 ScaHFX=  0.200000
 ScaDFX=  0.800000  0.720000  1.000000  0.810000 ScalE2=  1.000000  1.000000
 IRadAn=      5 IRanWt=     -1 IRanGd=            0 ICorTp=0 IEmpDi=  4
 NAtoms=   33 NActive=   33 NUniq=   33 SFac= 1.00D+00 NAtFMM=   60 NAOKFM=F Big=F
 Integral buffers will be    131072 words long.
 Raffenetti 2 integral format.
 Two-electron integral symmetry is turned on.
 Using the following non-standard input for PCM:
 MSTModel=DFT cav MSTCharged
 --- end of non-standard input.
 MST model for solvation energy: B3LYP parametrization.
 MST cavity parameters:
 ISph   IAn     Re0     Alpha   Atom Type   QCorr
 ------------------------------------------------
   1      6     1.50     1.50      CH3        F
   2      1     1.20     1.50      CH3        F
   3      1     1.20     1.50      CH3        F
   4      1     1.20     1.50      CH3        F
   5      6     1.50     1.50      C          F
   6      8     1.40     1.50      O          F
   7      7     1.50     1.50      NH         F
   8      1     0.90     1.50      NH         F
   9      6     1.50     1.50      C          F
  10      6     1.50     1.50      CH         F
  11      6     1.50     1.50      CH         F
  12      6     1.50     1.50      CH         F
  13      1     1.20     1.50      CH         F
  14      1     1.20     1.50      CH         F
  15      1     1.20     1.50      CH         F
  16      6     1.50     1.50      CH         F
  17      1     1.20     1.50      CH         F
  18      6     1.50     1.50      C          F
  19      6     1.50     1.50      C          F
  20      7     1.50     1.50      Nc         F
  21      6     1.50     1.50      CH         F
  22      1     1.20     1.50      CH         F
  23     16     1.75     1.50      S          F
  24      6     1.50     1.50      C          F
  25      7     1.50     1.15      NH         T
  26      6     1.50     1.15      CN+        T
  27      7     1.50     1.15      NH+        T
  28      1     0.90     1.15      NH+        T
  29      1     0.90     1.15      NH+        T
  30      7     1.50     1.15      NH+        T
  31      1     0.90     1.15      NH+        T
  32      1     0.90     1.15      NH+        T
  33      1     0.90     1.15      NH         T
 ------------------------------------------------------------------------------
 Polarizable Continuum Model (PCM)
 =================================
 Model                : PCM.
 Atomic radii         : MST.
 Polarization charges : Total charges.
 Charge compensation  : None.
 Solution method      : On-the-fly selection.
 Cavity type          : Scaled VdW (van der Waals Surface) (Alpha=1.500).
 Cavity algorithm     : GePol (No added spheres)
                        Default sphere list used, NSphG=   33.
                        Lebedev-Laikov grids with approx.  5.0 points / Ang**2.
                        Smoothing algorithm: York/Karplus (Gamma=1.0000).
                        Polarization charges: spherical gaussians, with
                                              point-specific exponents (IZeta= 3).
                        Self-potential: point-specific (ISelfS= 7).
                        Self-field    : sphere-specific E.n sum rule (ISelfD= 2).
 1st derivatives      : Analytical E(r).r(x)/FMM algorithm (CHGder, D1EAlg=3).
                        Cavity 1st derivative terms included.
 Solvent              : n-Octanol, Eps=   9.862900 Eps(inf)=   2.043470
 ------------------------------------------------------------------------------
 GePol: Number of generator spheres                  =      33
 GePol: Total number of spheres                      =      33
 GePol: Number of exposed spheres                    =      33 (100.00%)
 GePol: Number of points                             =    3000
 GePol: Average weight of points                     =       0.12
 GePol: Minimum weight of points                     =   0.17D-10
 GePol: Maximum weight of points                     =    0.22065
 GePol: Number of points with low weight             =     168
 GePol: Fraction of low-weight points (<1% of avg)   =       5.60%
 GePol: Cavity surface area                          =    351.394 Ang**2
 GePol: Cavity volume                                =    388.926 Ang**3
 Surface areas from nonelectrostatic (unscaled) cavity and vdw tensions:
 Sphere =    1 Type =  CH3 Surf =        5.299 Tension =       -0.183
 Sphere =    2 Type =  CH3 Surf =       10.067 Tension =       -0.183
 Sphere =    3 Type =  CH3 Surf =       10.104 Tension =       -0.183
 Sphere =    4 Type =  CH3 Surf =       10.139 Tension =       -0.183
 Sphere =    5 Type =  C   Surf =        6.372 Tension =       -0.205
 Sphere =    6 Type =  O   Surf =       15.202 Tension =       -0.185
 Sphere =    7 Type =  NH  Surf =        9.678 Tension =       -0.234
 Sphere =    8 Type =  NH  Surf =        3.909 Tension =       -0.234
 Sphere =    9 Type =  C   Surf =        5.987 Tension =       -0.205
 Sphere =   10 Type =  CH  Surf =        7.735 Tension =       -0.195
 Sphere =   11 Type =  CH  Surf =        7.619 Tension =       -0.195
 Sphere =   12 Type =  CH  Surf =        7.546 Tension =       -0.195
 Sphere =   13 Type =  CH  Surf =        9.963 Tension =       -0.195
 Sphere =   14 Type =  CH  Surf =       10.202 Tension =       -0.195
 Sphere =   15 Type =  CH  Surf =       10.235 Tension =       -0.195
 Sphere =   16 Type =  CH  Surf =        7.465 Tension =       -0.195
 Sphere =   17 Type =  CH  Surf =        9.150 Tension =       -0.195
 Sphere =   18 Type =  C   Surf =        5.834 Tension =       -0.205
 Sphere =   19 Type =  C   Surf =        5.782 Tension =       -0.205
 Sphere =   20 Type =  Nc  Surf =       13.445 Tension =       -0.161
 Sphere =   21 Type =  CH  Surf =        7.262 Tension =       -0.195
 Sphere =   22 Type =  CH  Surf =       10.131 Tension =       -0.195
 Sphere =   23 Type =  S   Surf =       24.348 Tension =       -0.186
 Sphere =   24 Type =  C   Surf =        5.673 Tension =       -0.205
 Sphere =   25 Type =  NH  Surf =        8.327 Tension =       -0.234
 Sphere =   26 Type =  CN+ Surf =        6.679 Tension =       -0.227
 Sphere =   27 Type =  NH+ Surf =       12.639 Tension =       -0.274
 Sphere =   28 Type =  NH+ Surf =        3.513 Tension =       -0.274
 Sphere =   29 Type =  NH+ Surf =        3.875 Tension =       -0.274
 Sphere =   30 Type =  NH+ Surf =       13.368 Tension =       -0.274
 Sphere =   31 Type =  NH+ Surf =        3.916 Tension =       -0.274
 Sphere =   32 Type =  NH+ Surf =        3.288 Tension =       -0.274
 Sphere =   33 Type =  NH  Surf =        3.804 Tension =       -0.234
 PCM non-electrostatic energy =        -0.0204782209 Hartrees.
 Nuclear repulsion after PCM non-electrostatic terms =     1477.6411077414 Hartrees.
 Leave Link  301 at Sun Jul 18 16:18:55 2021, MaxMem=   104857600 cpu:               0.1 elap:               0.1
 (Enter /dades/curu/g16A03_MST/g16/l302.exe)
 NPDir=0 NMtPBC=     1 NCelOv=     1 NCel=       1 NClECP=     1 NCelD=      1
         NCelK=      1 NCelE2=     1 NClLst=     1 CellRange=     0.0.
 One-electron integrals computed using PRISM.
 One-electron integral symmetry used in STVInt
 NBasis=   317 RedAO= T EigKep=  4.90D-04  NBF=   317
 NBsUse=   317 1.00D-06 EigRej= -1.00D+00 NBFU=   317
 Precomputing XC quadrature grid using
 IXCGrd= 4 IRadAn=           5 IRanWt=          -1 IRanGd=           0 AccXCQ= 0.00D+00.
 Generated NRdTot=       0 NPtTot=           0 NUsed=           0 NTot=          32
 NSgBfM=   313   313   313   313   313 MxSgAt=    33 MxSgA2=    33.
 Leave Link  302 at Sun Jul 18 16:18:56 2021, MaxMem=   104857600 cpu:               3.9 elap:               1.1
 (Enter /dades/curu/g16A03_MST/g16/l303.exe)
 DipDrv:  MaxL=1.
 Leave Link  303 at Sun Jul 18 16:18:56 2021, MaxMem=   104857600 cpu:               0.1 elap:               0.1
 (Enter /dades/curu/g16A03_MST/g16/l401.exe)
 ExpMin= 1.17D-01 ExpMax= 2.19D+04 ExpMxC= 3.30D+03 IAcc=3 IRadAn=         5 AccDes= 0.00D+00
 Harris functional with IExCor=  402 and IRadAn=       5 diagonalized for initial guess.
 HarFok:  IExCor=  402 AccDes= 0.00D+00 IRadAn=         5 IDoV= 1 UseB2=F ITyADJ=14
 ICtDFT=  3500011 ScaDFX=  1.000000  1.000000  1.000000  1.000000
 FoFCou: FMM=F IPFlag=           0 FMFlag=      100000 FMFlg1=           0
         NFxFlg=           0 DoJE=T BraDBF=F KetDBF=T FulRan=T
         wScrn=  0.000000 ICntrl=       500 IOpCl=  0 I1Cent=   200000004 NGrid=           0
         NMat0=    1 NMatS0=      1 NMatT0=    0 NMatD0=    1 NMtDS0=    0 NMtDT0=    0
 Petite list used in FoFCou.
 Harris En= -1212.39311989638    
 JPrj=0 DoOrth=F DoCkMO=F.
 Leave Link  401 at Sun Jul 18 16:19:03 2021, MaxMem=   104857600 cpu:              27.7 elap:               7.1
 (Enter /dades/curu/g16A03_MST/g16/l502.exe)
 Integral symmetry usage will be decided dynamically.
 Closed shell SCF:
 Using DIIS extrapolation, IDIIS=  1040.
 NGot=   104857600 LenX=   104651201 LenY=   104550271
 Requested convergence on RMS density matrix=1.00D-08 within 128 cycles.
 Requested convergence on MAX density matrix=1.00D-06.
 Requested convergence on             energy=1.00D-06.
 No special actions if energy rises.
 Fock matrices will be formed incrementally for  20 cycles.

 Cycle   1  Pass 1  IDiag  1:
 FoFJK:  IHMeth= 1 ICntrl=       0 DoSepK=F KAlg= 0 I1Cent=           0 FoldK=F
 IRaf= 740000000 NMat=       1 IRICut=       1 DoRegI=T DoRafI=F ISym2E= 0 IDoP0=0 IntGTp=1.
 FoFCou: FMM=F IPFlag=           0 FMFlag=      100000 FMFlg1=           0
         NFxFlg=           0 DoJE=F BraDBF=F KetDBF=F FulRan=T
         wScrn=  0.000000 ICntrl=         0 IOpCl=  0 I1Cent=           0 NGrid=           0
         NMat0=    1 NMatS0=      1 NMatT0=    0 NMatD0=    1 NMtDS0=    0 NMtDT0=    0
 Symmetry not used in FoFCou.
 Inv3:  Mode=1 IEnd=    27000000.
 Iteration    1 A*A^-1 deviation from unit magnitude is 4.88D-15 for   2996.
 Iteration    1 A*A^-1 deviation from orthogonality  is 2.24D-15 for   1507   1174.
 Iteration    1 A^-1*A deviation from unit magnitude is 4.88D-15 for   2996.
 Iteration    1 A^-1*A deviation from orthogonality  is 1.97D-15 for   2279   1749.
 E= -1211.95200329398    
 DIIS: error= 2.08D-02 at cycle   1 NSaved=   1.
 NSaved= 1 IEnMin= 1 EnMin= -1211.95200329398     IErMin= 1 ErrMin= 2.08D-02
 ErrMax= 2.08D-02  0.00D+00 EMaxC= 1.00D-01 BMatC= 5.67D-01 BMatP= 5.67D-01
 IDIUse=3 WtCom= 7.92D-01 WtEn= 2.08D-01
 Coeff-Com:  0.100D+01
 Coeff-En:   0.100D+01
 Coeff:      0.100D+01
 Gap=     0.031 Goal=   None    Shift=    0.000
 GapD=    0.031 DampG=0.250 DampE=0.500 DampFc=0.2500 IDamp=-1.
 Damping current iteration by 2.50D-01
 RMSDP=7.33D-03 MaxDP=3.63D-01              OVMax= 8.19D-01

 Cycle   2  Pass 1  IDiag  1:
 RMSU=  1.82D-03    CP:  9.88D-01
 E= -1212.08688533578     Delta-E=       -0.134882041798 Rises=F Damp=T
 DIIS: error= 1.24D-02 at cycle   2 NSaved=   2.
 NSaved= 2 IEnMin= 2 EnMin= -1212.08688533578     IErMin= 2 ErrMin= 1.24D-02
 ErrMax= 1.24D-02  0.00D+00 EMaxC= 1.00D-01 BMatC= 1.23D-01 BMatP= 5.67D-01
 IDIUse=3 WtCom= 8.76D-01 WtEn= 1.24D-01
 Coeff-Com: -0.328D+00 0.133D+01
 Coeff-En:   0.177D+00 0.823D+00
 Coeff:     -0.265D+00 0.127D+01
 Gap=    -0.160 Goal=   None    Shift=    0.000
 RMSDP=2.82D-03 MaxDP=1.18D-01 DE=-1.35D-01 OVMax= 6.98D-01

 Cycle   3  Pass 1  IDiag  1:
 RMSU=  2.80D-03    CP:  9.70D-01  1.01D+00
 E= -1212.15711721528     Delta-E=       -0.070231879503 Rises=F Damp=F
 DIIS: error= 2.83D-02 at cycle   3 NSaved=   3.
 NSaved= 3 IEnMin= 3 EnMin= -1212.15711721528     IErMin= 2 ErrMin= 1.24D-02
 ErrMax= 2.83D-02  0.00D+00 EMaxC= 1.00D-01 BMatC= 3.55D-01 BMatP= 1.23D-01
 IDIUse=2 WtCom= 0.00D+00 WtEn= 1.00D+00
 Coeff-En:   0.000D+00 0.427D+00 0.573D+00
 Coeff:      0.000D+00 0.427D+00 0.573D+00
 Gap=     0.035 Goal=   None    Shift=    0.000
 RMSDP=5.11D-03 MaxDP=4.01D-01 DE=-7.02D-02 OVMax= 7.17D-01

 Cycle   4  Pass 1  IDiag  1:
 RMSU=  2.30D-03    CP:  9.64D-01  2.45D+00 -3.35D-01
 E= -1210.78927770705     Delta-E=        1.367839508229 Rises=F Damp=F
 DIIS: error= 4.91D-02 at cycle   4 NSaved=   4.
 NSaved= 4 IEnMin= 3 EnMin= -1212.15711721528     IErMin= 2 ErrMin= 1.24D-02
 ErrMax= 4.91D-02  0.00D+00 EMaxC= 1.00D-01 BMatC= 1.11D+00 BMatP= 1.23D-01
 IDIUse=2 WtCom= 0.00D+00 WtEn= 1.00D+00
 EnCoef did     1 forward-backward iterations
 Coeff-En:   0.625D-01 0.000D+00 0.704D+00 0.234D+00
 Coeff:      0.625D-01 0.000D+00 0.704D+00 0.234D+00
 Gap=    -0.003 Goal=   None    Shift=    0.000
 RMSDP=4.52D-03 MaxDP=2.92D-01 DE= 1.37D+00 OVMax= 8.17D-01

 Cycle   5  Pass 1  IDiag  1:
 RMSU=  1.67D-03    CP:  9.80D-01  7.89D-01  3.39D-01  3.98D-02
 E= -1212.43442086210     Delta-E=       -1.645143155051 Rises=F Damp=F
 DIIS: error= 7.11D-03 at cycle   5 NSaved=   5.
 NSaved= 5 IEnMin= 5 EnMin= -1212.43442086210     IErMin= 5 ErrMin= 7.11D-03
 ErrMax= 7.11D-03  0.00D+00 EMaxC= 1.00D-01 BMatC= 5.71D-02 BMatP= 1.23D-01
 IDIUse=3 WtCom= 9.29D-01 WtEn= 7.11D-02
 Coeff-Com: -0.200D+00 0.497D+00 0.297D+00 0.273D-01 0.379D+00
 Coeff-En:   0.000D+00 0.000D+00 0.738D-01 0.000D+00 0.926D+00
 Coeff:     -0.186D+00 0.461D+00 0.281D+00 0.254D-01 0.418D+00
 Gap=     0.048 Goal=   None    Shift=    0.000
 RMSDP=1.06D-03 MaxDP=3.82D-02 DE=-1.65D+00 OVMax= 8.38D-02

 Cycle   6  Pass 1  IDiag  1:
 RMSU=  6.78D-04    CP:  9.77D-01  7.86D-01  5.32D-01  5.28D-02  6.33D-01
 E= -1212.46220014410     Delta-E=       -0.027779281994 Rises=F Damp=F
 DIIS: error= 7.36D-03 at cycle   6 NSaved=   6.
 NSaved= 6 IEnMin= 6 EnMin= -1212.46220014410     IErMin= 5 ErrMin= 7.11D-03
 ErrMax= 7.36D-03  0.00D+00 EMaxC= 1.00D-01 BMatC= 2.43D-02 BMatP= 5.71D-02
 IDIUse=3 WtCom= 9.29D-01 WtEn= 7.11D-02
 Coeff-Com: -0.181D+00 0.278D+00 0.308D-01-0.108D-01 0.302D+00 0.581D+00
 Coeff-En:   0.000D+00 0.000D+00 0.000D+00 0.000D+00 0.312D+00 0.688D+00
 Coeff:     -0.168D+00 0.258D+00 0.286D-01-0.100D-01 0.303D+00 0.589D+00
 Gap=     0.044 Goal=   None    Shift=    0.000
 RMSDP=5.84D-04 MaxDP=2.32D-02 DE=-2.78D-02 OVMax= 6.20D-02

 Cycle   7  Pass 1  IDiag  1:
 RMSU=  2.72D-04    CP:  9.78D-01  8.96D-01  4.53D-01 -1.33D-02  8.55D-01
                    CP:  8.05D-01
 E= -1212.48502226289     Delta-E=       -0.022822118796 Rises=F Damp=F
 DIIS: error= 2.02D-03 at cycle   7 NSaved=   7.
 NSaved= 7 IEnMin= 7 EnMin= -1212.48502226289     IErMin= 7 ErrMin= 2.02D-03
 ErrMax= 2.02D-03  0.00D+00 EMaxC= 1.00D-01 BMatC= 1.41D-03 BMatP= 2.43D-02
 IDIUse=3 WtCom= 9.80D-01 WtEn= 2.02D-02
 Coeff-Com: -0.901D-01 0.129D+00-0.244D-01-0.443D-02 0.119D+00 0.339D+00
 Coeff-Com:  0.531D+00
 Coeff-En:   0.000D+00 0.000D+00 0.000D+00 0.000D+00 0.000D+00 0.000D+00
 Coeff-En:   0.100D+01
 Coeff:     -0.883D-01 0.126D+00-0.239D-01-0.434D-02 0.117D+00 0.333D+00
 Coeff:      0.541D+00
 Gap=     0.047 Goal=   None    Shift=    0.000
 RMSDP=1.39D-04 MaxDP=5.02D-03 DE=-2.28D-02 OVMax= 1.06D-02

 Cycle   8  Pass 1  IDiag  1:
 RMSU=  1.00D-04    CP:  9.78D-01  8.81D-01  4.44D-01 -6.62D-03  8.69D-01
                    CP:  9.07D-01  8.23D-01
 E= -1212.48610848894     Delta-E=       -0.001086226053 Rises=F Damp=F
 DIIS: error= 5.38D-04 at cycle   8 NSaved=   8.
 NSaved= 8 IEnMin= 8 EnMin= -1212.48610848894     IErMin= 8 ErrMin= 5.38D-04
 ErrMax= 5.38D-04  0.00D+00 EMaxC= 1.00D-01 BMatC= 2.72D-04 BMatP= 1.41D-03
 IDIUse=3 WtCom= 9.95D-01 WtEn= 5.38D-03
 Coeff-Com: -0.138D-01 0.180D-01-0.311D-01 0.981D-03-0.189D-01 0.460D-01
 Coeff-Com:  0.315D+00 0.684D+00
 Coeff-En:   0.000D+00 0.000D+00 0.000D+00 0.000D+00 0.000D+00 0.000D+00
 Coeff-En:   0.000D+00 0.100D+01
 Coeff:     -0.137D-01 0.179D-01-0.309D-01 0.976D-03-0.188D-01 0.458D-01
 Coeff:      0.313D+00 0.686D+00
 Gap=     0.045 Goal=   None    Shift=    0.000
 RMSDP=1.17D-04 MaxDP=3.98D-03 DE=-1.09D-03 OVMax= 1.74D-02

 Cycle   9  Pass 1  IDiag  1:
 RMSU=  5.78D-05    CP:  9.78D-01  8.90D-01  4.29D-01 -1.12D-02  8.94D-01
                    CP:  9.54D-01  1.08D+00  8.21D-01
 E= -1212.48645061726     Delta-E=       -0.000342128320 Rises=F Damp=F
 DIIS: error= 2.47D-04 at cycle   9 NSaved=   9.
 NSaved= 9 IEnMin= 9 EnMin= -1212.48645061726     IErMin= 9 ErrMin= 2.47D-04
 ErrMax= 2.47D-04  0.00D+00 EMaxC= 1.00D-01 BMatC= 2.98D-05 BMatP= 2.72D-04
 IDIUse=3 WtCom= 9.98D-01 WtEn= 2.47D-03
 Coeff-Com: -0.875D-03 0.284D-02-0.101D-01 0.210D-03-0.193D-01-0.163D-01
 Coeff-Com:  0.425D-01 0.358D+00 0.643D+00
 Coeff-En:   0.000D+00 0.000D+00 0.000D+00 0.000D+00 0.000D+00 0.000D+00
 Coeff-En:   0.000D+00 0.000D+00 0.100D+01
 Coeff:     -0.873D-03 0.283D-02-0.101D-01 0.210D-03-0.193D-01-0.163D-01
 Coeff:      0.424D-01 0.357D+00 0.644D+00
 Gap=     0.046 Goal=   None    Shift=    0.000
 RMSDP=2.89D-05 MaxDP=1.11D-03 DE=-3.42D-04 OVMax= 1.66D-03

 Cycle  10  Pass 1  IDiag  1:
 RMSU=  2.18D-05    CP:  9.78D-01  8.90D-01  4.28D-01 -1.25D-02  8.95D-01
                    CP:  9.68D-01  1.09D+00  9.75D-01  9.35D-01
 E= -1212.48647898558     Delta-E=       -0.000028368317 Rises=F Damp=F
 DIIS: error= 6.00D-05 at cycle  10 NSaved=  10.
 NSaved=10 IEnMin=10 EnMin= -1212.48647898558     IErMin=10 ErrMin= 6.00D-05
 ErrMax= 6.00D-05  0.00D+00 EMaxC= 1.00D-01 BMatC= 4.84D-06 BMatP= 2.98D-05
 IDIUse=1 WtCom= 1.00D+00 WtEn= 0.00D+00
 Coeff-Com:  0.223D-03 0.715D-03 0.435D-03-0.475D-05-0.332D-02-0.123D-01
 Coeff-Com: -0.394D-01 0.969D-01 0.338D+00 0.619D+00
 Coeff:      0.223D-03 0.715D-03 0.435D-03-0.475D-05-0.332D-02-0.123D-01
 Coeff:     -0.394D-01 0.969D-01 0.338D+00 0.619D+00
 Gap=     0.045 Goal=   None    Shift=    0.000
 RMSDP=1.91D-05 MaxDP=5.71D-04 DE=-2.84D-05 OVMax= 3.14D-03

 Cycle  11  Pass 1  IDiag  1:
 RMSU=  1.05D-05    CP:  9.78D-01  8.91D-01  4.27D-01 -1.30D-02  8.96D-01
                    CP:  9.70D-01  1.12D+00  9.89D-01  1.13D+00  8.13D-01
 E= -1212.48648454733     Delta-E=       -0.000005561752 Rises=F Damp=F
 DIIS: error= 4.14D-05 at cycle  11 NSaved=  11.
 NSaved=11 IEnMin=11 EnMin= -1212.48648454733     IErMin=11 ErrMin= 4.14D-05
 ErrMax= 4.14D-05  0.00D+00 EMaxC= 1.00D-01 BMatC= 1.59D-06 BMatP= 4.84D-06
 IDIUse=1 WtCom= 1.00D+00 WtEn= 0.00D+00
 Coeff-Com:  0.259D-03-0.121D-03 0.188D-02-0.693D-04 0.161D-02-0.428D-02
 Coeff-Com: -0.304D-01 0.147D-01 0.523D-01 0.382D+00 0.582D+00
 Coeff:      0.259D-03-0.121D-03 0.188D-02-0.693D-04 0.161D-02-0.428D-02
 Coeff:     -0.304D-01 0.147D-01 0.523D-01 0.382D+00 0.582D+00
 Gap=     0.046 Goal=   None    Shift=    0.000
 RMSDP=5.73D-06 MaxDP=2.10D-04 DE=-5.56D-06 OVMax= 4.69D-04

 Cycle  12  Pass 1  IDiag  1:
 RMSU=  3.62D-06    CP:  9.78D-01  8.91D-01  4.27D-01 -1.31D-02  8.96D-01
                    CP:  9.71D-01  1.12D+00  1.01D+00  1.17D+00  9.50D-01
                    CP:  9.11D-01
 E= -1212.48648614618     Delta-E=       -0.000001598851 Rises=F Damp=F
 DIIS: error= 1.93D-05 at cycle  12 NSaved=  12.
 NSaved=12 IEnMin=12 EnMin= -1212.48648614618     IErMin=12 ErrMin= 1.93D-05
 ErrMax= 1.93D-05  0.00D+00 EMaxC= 1.00D-01 BMatC= 3.38D-07 BMatP= 1.59D-06
 IDIUse=1 WtCom= 1.00D+00 WtEn= 0.00D+00
 Coeff-Com:  0.165D-03-0.280D-03 0.110D-02-0.342D-04 0.164D-02-0.857D-04
 Coeff-Com: -0.926D-02-0.107D-02-0.624D-01 0.127D+00 0.314D+00 0.629D+00
 Coeff:      0.165D-03-0.280D-03 0.110D-02-0.342D-04 0.164D-02-0.857D-04
 Coeff:     -0.926D-02-0.107D-02-0.624D-01 0.127D+00 0.314D+00 0.629D+00
 Gap=     0.046 Goal=   None    Shift=    0.000
 RMSDP=4.03D-06 MaxDP=1.11D-04 DE=-1.60D-06 OVMax= 5.83D-04

 Cycle  13  Pass 1  IDiag  1:
 RMSU=  1.95D-06    CP:  9.78D-01  8.91D-01  4.26D-01 -1.31D-02  8.96D-01
                    CP:  9.71D-01  1.13D+00  1.02D+00  1.21D+00  1.01D+00
                    CP:  1.07D+00  8.32D-01
 E= -1212.48648649126     Delta-E=       -0.000000345082 Rises=F Damp=F
 DIIS: error= 1.10D-05 at cycle  13 NSaved=  13.
 NSaved=13 IEnMin=13 EnMin= -1212.48648649126     IErMin=13 ErrMin= 1.10D-05
 ErrMax= 1.10D-05  0.00D+00 EMaxC= 1.00D-01 BMatC= 1.09D-07 BMatP= 3.38D-07
 IDIUse=1 WtCom= 1.00D+00 WtEn= 0.00D+00
 Coeff-Com:  0.234D-04-0.907D-04 0.292D-03-0.194D-04 0.659D-03 0.126D-02
 Coeff-Com:  0.320D-02-0.226D-02-0.679D-01-0.271D-01-0.103D-01 0.412D+00
 Coeff-Com:  0.691D+00
 Coeff:      0.234D-04-0.907D-04 0.292D-03-0.194D-04 0.659D-03 0.126D-02
 Coeff:      0.320D-02-0.226D-02-0.679D-01-0.271D-01-0.103D-01 0.412D+00
 Coeff:      0.691D+00
 Gap=     0.046 Goal=   None    Shift=    0.000
 RMSDP=2.11D-06 MaxDP=7.70D-05 DE=-3.45D-07 OVMax= 1.53D-04

 Cycle  14  Pass 1  IDiag  1:
 RMSU=  7.37D-07    CP:  9.78D-01  8.91D-01  4.27D-01 -1.32D-02  8.96D-01
                    CP:  9.71D-01  1.13D+00  1.02D+00  1.22D+00  1.07D+00
                    CP:  1.14D+00  1.07D+00  8.85D-01
 E= -1212.48648663007     Delta-E=       -0.000000138808 Rises=F Damp=F
 DIIS: error= 1.76D-06 at cycle  14 NSaved=  14.
 NSaved=14 IEnMin=14 EnMin= -1212.48648663007     IErMin=14 ErrMin= 1.76D-06
 ErrMax= 1.76D-06  0.00D+00 EMaxC= 1.00D-01 BMatC= 5.24D-09 BMatP= 1.09D-07
 IDIUse=1 WtCom= 1.00D+00 WtEn= 0.00D+00
 Coeff-Com:  0.204D-05-0.109D-04-0.330D-04-0.185D-05-0.161D-04 0.494D-03
 Coeff-Com:  0.286D-02 0.126D-02-0.213D-01-0.264D-01-0.498D-01 0.106D+00
 Coeff-Com:  0.296D+00 0.692D+00
 Coeff:      0.204D-05-0.109D-04-0.330D-04-0.185D-05-0.161D-04 0.494D-03
 Coeff:      0.286D-02 0.126D-02-0.213D-01-0.264D-01-0.498D-01 0.106D+00
 Coeff:      0.296D+00 0.692D+00
 Gap=     0.046 Goal=   None    Shift=    0.000
 RMSDP=6.04D-07 MaxDP=2.27D-05 DE=-1.39D-07 OVMax= 6.52D-05

 Cycle  15  Pass 1  IDiag  1:
 RMSU=  2.76D-07    CP:  9.78D-01  8.91D-01  4.27D-01 -1.32D-02  8.96D-01
                    CP:  9.71D-01  1.13D+00  1.02D+00  1.23D+00  1.07D+00
                    CP:  1.16D+00  1.12D+00  1.02D+00  9.72D-01
 E= -1212.48648663713     Delta-E=       -0.000000007059 Rises=F Damp=F
 DIIS: error= 9.97D-07 at cycle  15 NSaved=  15.
 NSaved=15 IEnMin=15 EnMin= -1212.48648663713     IErMin=15 ErrMin= 9.97D-07
 ErrMax= 9.97D-07  0.00D+00 EMaxC= 1.00D-01 BMatC= 8.45D-10 BMatP= 5.24D-09
 IDIUse=1 WtCom= 1.00D+00 WtEn= 0.00D+00
 Coeff-Com:  0.577D-05-0.121D-04-0.475D-04 0.849D-06-0.769D-04 0.136D-03
 Coeff-Com:  0.121D-02 0.854D-03-0.539D-02-0.126D-01-0.250D-01 0.192D-01
 Coeff-Com:  0.829D-01 0.368D+00 0.571D+00
 Coeff:      0.577D-05-0.121D-04-0.475D-04 0.849D-06-0.769D-04 0.136D-03
 Coeff:      0.121D-02 0.854D-03-0.539D-02-0.126D-01-0.250D-01 0.192D-01
 Coeff:      0.829D-01 0.368D+00 0.571D+00
 Gap=     0.046 Goal=   None    Shift=    0.000
 RMSDP=1.98D-07 MaxDP=8.36D-06 DE=-7.06D-09 OVMax= 2.31D-05

 Cycle  16  Pass 1  IDiag  1:
 RMSU=  1.20D-07    CP:  9.78D-01  8.91D-01  4.27D-01 -1.32D-02  8.96D-01
                    CP:  9.71D-01  1.13D+00  1.02D+00  1.23D+00  1.08D+00
                    CP:  1.16D+00  1.14D+00  1.04D+00  1.10D+00  9.83D-01
 E= -1212.48648663831     Delta-E=       -0.000000001182 Rises=F Damp=F
 DIIS: error= 3.66D-07 at cycle  16 NSaved=  16.
 NSaved=16 IEnMin=16 EnMin= -1212.48648663831     IErMin=16 ErrMin= 3.66D-07
 ErrMax= 3.66D-07  0.00D+00 EMaxC= 1.00D-01 BMatC= 1.12D-10 BMatP= 8.45D-10
 IDIUse=1 WtCom= 1.00D+00 WtEn= 0.00D+00
 Coeff-Com: -0.639D-05 0.978D-05-0.163D-04-0.424D-06-0.263D-04 0.332D-05
 Coeff-Com:  0.119D-03 0.200D-03 0.473D-03-0.234D-02-0.327D-02-0.506D-02
 Coeff-Com: -0.834D-02 0.660D-01 0.272D+00 0.680D+00
 Coeff:     -0.639D-05 0.978D-05-0.163D-04-0.424D-06-0.263D-04 0.332D-05
 Coeff:      0.119D-03 0.200D-03 0.473D-03-0.234D-02-0.327D-02-0.506D-02
 Coeff:     -0.834D-02 0.660D-01 0.272D+00 0.680D+00
 Gap=     0.046 Goal=   None    Shift=    0.000
 RMSDP=1.01D-07 MaxDP=4.36D-06 DE=-1.18D-09 OVMax= 1.69D-05

 Cycle  17  Pass 1  IDiag  1:
 RMSU=  4.53D-08    CP:  9.78D-01  8.91D-01  4.27D-01 -1.33D-02  8.96D-01
                    CP:  9.71D-01  1.13D+00  1.02D+00  1.23D+00  1.08D+00
                    CP:  1.16D+00  1.15D+00  1.06D+00  1.16D+00  1.17D+00
                    CP:  1.07D+00
 E= -1212.48648663848     Delta-E=       -0.000000000168 Rises=F Damp=F
 DIIS: error= 2.13D-07 at cycle  17 NSaved=  17.
 NSaved=17 IEnMin=17 EnMin= -1212.48648663848     IErMin=17 ErrMin= 2.13D-07
 ErrMax= 2.13D-07  0.00D+00 EMaxC= 1.00D-01 BMatC= 3.59D-11 BMatP= 1.12D-10
 IDIUse=1 WtCom= 1.00D+00 WtEn= 0.00D+00
 Coeff-Com: -0.771D-05 0.119D-04-0.106D-05-0.338D-06 0.112D-05-0.254D-04
 Coeff-Com: -0.201D-03-0.605D-04 0.142D-02 0.128D-02 0.410D-02-0.673D-02
 Coeff-Com: -0.238D-01-0.456D-01 0.352D-01 0.393D+00 0.642D+00
 Coeff:     -0.771D-05 0.119D-04-0.106D-05-0.338D-06 0.112D-05-0.254D-04
 Coeff:     -0.201D-03-0.605D-04 0.142D-02 0.128D-02 0.410D-02-0.673D-02
 Coeff:     -0.238D-01-0.456D-01 0.352D-01 0.393D+00 0.642D+00
 Gap=     0.046 Goal=   None    Shift=    0.000
 RMSDP=5.66D-08 MaxDP=2.44D-06 DE=-1.68D-10 OVMax= 1.02D-05

 Cycle  18  Pass 1  IDiag  1:
 RMSU=  2.07D-08    CP:  9.78D-01  8.91D-01  4.27D-01 -1.33D-02  8.96D-01
                    CP:  9.71D-01  1.13D+00  1.02D+00  1.23D+00  1.08D+00
                    CP:  1.16D+00  1.15D+00  1.06D+00  1.20D+00  1.27D+00
                    CP:  1.27D+00  1.03D+00
 E= -1212.48648663858     Delta-E=       -0.000000000099 Rises=F Damp=F
 DIIS: error= 1.22D-07 at cycle  18 NSaved=  18.
 NSaved=18 IEnMin=18 EnMin= -1212.48648663858     IErMin=18 ErrMin= 1.22D-07
 ErrMax= 1.22D-07  0.00D+00 EMaxC= 1.00D-01 BMatC= 7.80D-12 BMatP= 3.59D-11
 IDIUse=1 WtCom= 1.00D+00 WtEn= 0.00D+00
 Coeff-Com: -0.174D-05 0.204D-05 0.338D-05-0.741D-09 0.764D-05-0.105D-04
 Coeff-Com: -0.118D-03-0.102D-03 0.227D-03 0.103D-02 0.265D-02-0.250D-03
 Coeff-Com: -0.545D-02-0.327D-01-0.542D-01-0.242D-01 0.235D+00 0.878D+00
 Coeff:     -0.174D-05 0.204D-05 0.338D-05-0.741D-09 0.764D-05-0.105D-04
 Coeff:     -0.118D-03-0.102D-03 0.227D-03 0.103D-02 0.265D-02-0.250D-03
 Coeff:     -0.545D-02-0.327D-01-0.542D-01-0.242D-01 0.235D+00 0.878D+00
 Gap=     0.046 Goal=   None    Shift=    0.000
 RMSDP=3.58D-08 MaxDP=1.49D-06 DE=-9.89D-11 OVMax= 6.23D-06

 Cycle  19  Pass 1  IDiag  1:
 RMSU=  7.00D-09    CP:  9.78D-01  8.91D-01  4.27D-01 -1.33D-02  8.96D-01
                    CP:  9.71D-01  1.13D+00  1.02D+00  1.23D+00  1.08D+00
                    CP:  1.17D+00  1.15D+00  1.07D+00  1.22D+00  1.33D+00
                    CP:  1.38D+00  1.29D+00  1.17D+00
 E= -1212.48648663858     Delta-E=        0.000000000006 Rises=F Damp=F
 DIIS: error= 3.41D-08 at cycle  19 NSaved=  19.
 NSaved=19 IEnMin=18 EnMin= -1212.48648663858     IErMin=19 ErrMin= 3.41D-08
 ErrMax= 3.41D-08  0.00D+00 EMaxC= 1.00D-01 BMatC= 7.54D-13 BMatP= 7.80D-12
 IDIUse=1 WtCom= 1.00D+00 WtEn= 0.00D+00
 Coeff-Com: -0.515D-06 0.715D-06 0.155D-05-0.540D-07 0.324D-05-0.263D-05
 Coeff-Com: -0.364D-04-0.636D-04-0.993D-05 0.281D-03 0.715D-03 0.157D-04
 Coeff-Com: -0.979D-03-0.129D-01-0.315D-01-0.446D-01 0.549D-01 0.416D+00
 Coeff-Com:  0.618D+00
 Coeff:     -0.515D-06 0.715D-06 0.155D-05-0.540D-07 0.324D-05-0.263D-05
 Coeff:     -0.364D-04-0.636D-04-0.993D-05 0.281D-03 0.715D-03 0.157D-04
 Coeff:     -0.979D-03-0.129D-01-0.315D-01-0.446D-01 0.549D-01 0.416D+00
 Coeff:      0.618D+00
 Gap=     0.046 Goal=   None    Shift=    0.000
 RMSDP=1.06D-08 MaxDP=4.94D-07 DE= 6.14D-12 OVMax= 1.75D-06

 Cycle  20  Pass 1  IDiag  1:
 RMSU=  3.44D-09    CP:  9.78D-01  8.91D-01  4.27D-01 -1.33D-02  8.96D-01
                    CP:  9.71D-01  1.13D+00  1.02D+00  1.23D+00  1.08D+00
                    CP:  1.17D+00  1.15D+00  1.07D+00  1.22D+00  1.34D+00
                    CP:  1.41D+00  1.35D+00  1.32D+00  9.66D-01
 E= -1212.48648663859     Delta-E=       -0.000000000014 Rises=F Damp=F
 DIIS: error= 2.10D-08 at cycle  20 NSaved=  20.
 NSaved=20 IEnMin=20 EnMin= -1212.48648663859     IErMin=20 ErrMin= 2.10D-08
 ErrMax= 2.10D-08  0.00D+00 EMaxC= 1.00D-01 BMatC= 2.82D-13 BMatP= 7.54D-13
 IDIUse=1 WtCom= 1.00D+00 WtEn= 0.00D+00
 Coeff-Com:  0.522D-06-0.757D-06 0.242D-06 0.235D-07 0.760D-07 0.613D-06
 Coeff-Com:  0.882D-05-0.942D-06-0.983D-04-0.309D-04-0.180D-03 0.426D-03
 Coeff-Com:  0.142D-02 0.172D-02-0.508D-02-0.210D-01-0.317D-01 0.289D-01
 Coeff-Com:  0.414D+00 0.611D+00
 Coeff:      0.522D-06-0.757D-06 0.242D-06 0.235D-07 0.760D-07 0.613D-06
 Coeff:      0.882D-05-0.942D-06-0.983D-04-0.309D-04-0.180D-03 0.426D-03
 Coeff:      0.142D-02 0.172D-02-0.508D-02-0.210D-01-0.317D-01 0.289D-01
 Coeff:      0.414D+00 0.611D+00
 Gap=     0.046 Goal=   None    Shift=    0.000
 RMSDP=3.11D-09 MaxDP=1.14D-07 DE=-1.41D-11 OVMax= 4.30D-07

 Error on total polarization charges =  0.01570
 SCF Done:  E(RB3LYP) =  -1212.48648664     A.U. after   20 cycles
            NFock= 20  Conv=0.31D-08     -V/T= 2.0060
 KE= 1.205287729215D+03 PE=-5.777262641680D+03 EE= 1.881847318086D+03
 Leave Link  502 at Sun Jul 18 16:24:06 2021, MaxMem=   104857600 cpu:            1177.5 elap:             303.4
 (Enter /dades/curu/g16A03_MST/g16/l601.exe)
 Copying SCF densities to generalized density rwf, IOpCl= 0 IROHF=0.

 **********************************************************************

            Population analysis using the SCF density.

 **********************************************************************

 Orbital symmetries:
       Occupied  (A) (A) (A) (A) (A) (A) (A) (A) (A) (A) (A) (A)
                 (A) (A) (A) (A) (A) (A) (A) (A) (A) (A) (A) (A)
                 (A) (A) (A) (A) (A) (A) (A) (A) (A) (A) (A) (A)
                 (A) (A) (A) (A) (A) (A) (A) (A) (A) (A) (A) (A)
                 (A) (A) (A) (A) (A) (A) (A) (A) (A) (A) (A) (A)
                 (A) (A) (A) (A) (A) (A) (A) (A) (A) (A) (A) (A)
       Virtual   (A) (A) (A) (A) (A) (A) (A) (A) (A) (A) (A) (A)
                 (A) (A) (A) (A) (A) (A) (A) (A) (A) (A) (A) (A)
                 (A) (A) (A) (A) (A) (A) (A) (A) (A) (A) (A) (A)
                 (A) (A) (A) (A) (A) (A) (A) (A) (A) (A) (A) (A)
                 (A) (A) (A) (A) (A) (A) (A) (A) (A) (A) (A) (A)
                 (A) (A) (A) (A) (A) (A) (A) (A) (A) (A) (A) (A)
                 (A) (A) (A) (A) (A) (A) (A) (A) (A) (A) (A) (A)
                 (A) (A) (A) (A) (A) (A) (A) (A) (A) (A) (A) (A)
                 (A) (A) (A) (A) (A) (A) (A) (A) (A) (A) (A) (A)
                 (A) (A) (A) (A) (A) (A) (A) (A) (A) (A) (A) (A)
                 (A) (A) (A) (A) (A) (A) (A) (A) (A) (A) (A) (A)
                 (A) (A) (A) (A) (A) (A) (A) (A) (A) (A) (A) (A)
                 (A) (A) (A) (A) (A) (A) (A) (A) (A) (A) (A) (A)
                 (A) (A) (A) (A) (A) (A) (A) (A) (A) (A) (A) (A)
                 (A) (A) (A) (A) (A) (A) (A) (A) (A) (A) (A) (A)
                 (A) (A) (A) (A) (A) (A) (A) (A) (A) (A) (A) (A)
                 (A) (A) (A) (A) (A) (A) (A) (A) (A) (A) (A) (A)
                 (A) (A) (A) (A) (A) (A) (A) (A) (A) (A) (A) (A)
                 (A) (A) (A) (A) (A) (A) (A) (A) (A) (A) (A) (A)
                 (A) (A) (A) (A) (A) (A) (A) (A) (A) (A) (A) (A)
                 (A) (A) (A) (A) (A)
 The electronic state is 1-A.
 Alpha  occ. eigenvalues --  -88.94554 -19.12105 -14.42756 -14.39301 -14.38387
 Alpha  occ. eigenvalues --  -14.38100 -14.34811 -10.36438 -10.33879 -10.30113
 Alpha  occ. eigenvalues --  -10.25648 -10.24774 -10.24451 -10.21090 -10.20470
 Alpha  occ. eigenvalues --  -10.20275 -10.19878 -10.19569 -10.19446  -8.00750
 Alpha  occ. eigenvalues --   -5.97130  -5.96802  -5.96432  -1.13974  -1.05554
 Alpha  occ. eigenvalues --   -1.01550  -0.97038  -0.95742  -0.91716  -0.87204
 Alpha  occ. eigenvalues --   -0.83693  -0.80337  -0.76982  -0.74905  -0.73282
 Alpha  occ. eigenvalues --   -0.69800  -0.67255  -0.64826  -0.63944  -0.62536
 Alpha  occ. eigenvalues --   -0.59787  -0.58141  -0.57101  -0.55378  -0.54477
 Alpha  occ. eigenvalues --   -0.52682  -0.50660  -0.49150  -0.48288  -0.47378
 Alpha  occ. eigenvalues --   -0.46777  -0.46086  -0.45243  -0.43645  -0.42938
 Alpha  occ. eigenvalues --   -0.41683  -0.41307  -0.40808  -0.40578  -0.39877
 Alpha  occ. eigenvalues --   -0.37506  -0.37002  -0.35340  -0.33379  -0.33186
 Alpha  occ. eigenvalues --   -0.31734  -0.30702  -0.29503  -0.27421  -0.25991
 Alpha  occ. eigenvalues --   -0.23721  -0.23037
 Alpha virt. eigenvalues --   -0.18454  -0.06241  -0.03672  -0.02461  -0.00946
 Alpha virt. eigenvalues --    0.02473   0.04038   0.06696   0.07591   0.08212
 Alpha virt. eigenvalues --    0.09977   0.10937   0.11420   0.12109   0.12485
 Alpha virt. eigenvalues --    0.12871   0.14670   0.14953   0.15712   0.16572
 Alpha virt. eigenvalues --    0.16789   0.17766   0.18068   0.19159   0.20270
 Alpha virt. eigenvalues --    0.21884   0.23516   0.24971   0.26116   0.28448
 Alpha virt. eigenvalues --    0.28724   0.29615   0.30908   0.31674   0.32495
 Alpha virt. eigenvalues --    0.33349   0.33969   0.34700   0.36455   0.38159
 Alpha virt. eigenvalues --    0.38993   0.40641   0.42631   0.43973   0.48103
 Alpha virt. eigenvalues --    0.49398   0.49640   0.50807   0.51923   0.52425
 Alpha virt. eigenvalues --    0.52793   0.53332   0.53722   0.54933   0.56412
 Alpha virt. eigenvalues --    0.56622   0.57419   0.58262   0.59176   0.59866
 Alpha virt. eigenvalues --    0.60326   0.61577   0.61965   0.62549   0.63949
 Alpha virt. eigenvalues --    0.64304   0.65146   0.66180   0.66893   0.66961
 Alpha virt. eigenvalues --    0.68754   0.69749   0.69963   0.72585   0.73586
 Alpha virt. eigenvalues --    0.73797   0.74003   0.74777   0.77420   0.78067
 Alpha virt. eigenvalues --    0.79074   0.79704   0.80105   0.81063   0.81747
 Alpha virt. eigenvalues --    0.82131   0.82658   0.83061   0.84199   0.84504
 Alpha virt. eigenvalues --    0.85808   0.86228   0.86520   0.87080   0.88299
 Alpha virt. eigenvalues --    0.88354   0.89747   0.90525   0.91155   0.92275
 Alpha virt. eigenvalues --    0.92425   0.94336   0.94638   0.94920   0.95095
 Alpha virt. eigenvalues --    0.95489   0.96073   0.97232   0.99068   1.01030
 Alpha virt. eigenvalues --    1.01899   1.03748   1.04631   1.05970   1.07144
 Alpha virt. eigenvalues --    1.09684   1.12064   1.14334   1.14983   1.17182
 Alpha virt. eigenvalues --    1.18410   1.20089   1.22735   1.24340   1.26071
 Alpha virt. eigenvalues --    1.26740   1.29344   1.30233   1.32061   1.33263
 Alpha virt. eigenvalues --    1.35603   1.38006   1.39300   1.41650   1.43856
 Alpha virt. eigenvalues --    1.45661   1.46323   1.48375   1.50152   1.50997
 Alpha virt. eigenvalues --    1.53325   1.54457   1.56304   1.57591   1.61200
 Alpha virt. eigenvalues --    1.64581   1.68123   1.69102   1.72002   1.74778
 Alpha virt. eigenvalues --    1.76093   1.77751   1.77943   1.78821   1.80071
 Alpha virt. eigenvalues --    1.81642   1.83017   1.84996   1.85538   1.86341
 Alpha virt. eigenvalues --    1.88283   1.90401   1.91787   1.92071   1.92447
 Alpha virt. eigenvalues --    1.95485   1.96429   1.97640   2.00985   2.02320
 Alpha virt. eigenvalues --    2.04484   2.07211   2.09136   2.10936   2.11815
 Alpha virt. eigenvalues --    2.13562   2.16653   2.17560   2.18153   2.20009
 Alpha virt. eigenvalues --    2.20611   2.20978   2.21739   2.23068   2.26130
 Alpha virt. eigenvalues --    2.27254   2.27690   2.30813   2.31908   2.32852
 Alpha virt. eigenvalues --    2.33969   2.35760   2.37347   2.38271   2.40713
 Alpha virt. eigenvalues --    2.42025   2.42982   2.45109   2.48613   2.50205
 Alpha virt. eigenvalues --    2.52525   2.55432   2.58341   2.60945   2.62627
 Alpha virt. eigenvalues --    2.63549   2.65255   2.67734   2.70092   2.71443
 Alpha virt. eigenvalues --    2.73034   2.74362   2.76409   2.78684   2.79668
 Alpha virt. eigenvalues --    2.82171   2.83847   2.91801   2.93236   2.98071
 Alpha virt. eigenvalues --    2.98388   3.02052   3.12372   3.16767   3.26456
 Alpha virt. eigenvalues --    3.43657   3.77020   3.85683   3.90303   3.98817
 Alpha virt. eigenvalues --    4.04112   4.06524   4.07791   4.09788   4.13226
 Alpha virt. eigenvalues --    4.14152   4.16010   4.18115   4.28007   4.31021
 Alpha virt. eigenvalues --    4.35085   4.42641   4.51110   4.51627   4.74264
          Condensed to atoms (all electrons):
               1          2          3          4          5          6
     1  C    5.285045   0.362809   0.369913   0.335046   0.366202  -0.090763
     2  H    0.362809   0.512322  -0.021091  -0.025226  -0.020620   0.000149
     3  H    0.369913  -0.021091   0.504713  -0.028238  -0.020380  -0.001346
     4  H    0.335046  -0.025226  -0.028238   0.568250  -0.023046   0.004245
     5  C    0.366202  -0.020620  -0.020380  -0.023046   4.299890   0.583024
     6  O   -0.090763   0.000149  -0.001346   0.004245   0.583024   8.106341
     7  N   -0.104080   0.002246   0.000306   0.006549   0.266785  -0.101889
     8  H    0.001170  -0.000019  -0.000027   0.001180  -0.016402   0.003187
     9  C    0.006626  -0.000097  -0.000133  -0.000042  -0.020527   0.002395
    10  C   -0.000307   0.000002   0.000013  -0.000004   0.003888   0.000348
    11  C   -0.000000   0.000000  -0.000000   0.000000  -0.000128  -0.000032
    12  C    0.000001  -0.000000  -0.000000  -0.000000   0.000054   0.000040
    13  H    0.000000  -0.000000   0.000000  -0.000000   0.000000   0.000000
    14  H   -0.000000  -0.000000   0.000000   0.000000   0.000001  -0.000000
    15  H    0.000013   0.000000  -0.000000  -0.000008   0.000000   0.000009
    16  C    0.000273  -0.000005   0.000010  -0.000018  -0.004701  -0.005821
    17  H    0.000312  -0.000002   0.000006  -0.000022   0.005434   0.018316
    18  C   -0.000007  -0.000000   0.000000   0.000000   0.000042  -0.000041
    19  C   -0.000000   0.000000   0.000000   0.000000  -0.000019  -0.000054
    20  N   -0.000000   0.000000  -0.000000  -0.000000  -0.000002   0.000001
    21  C   -0.000000   0.000000  -0.000000  -0.000000  -0.000000   0.000000
    22  H   -0.000000   0.000000  -0.000000  -0.000000   0.000000  -0.000000
    23  S   -0.000000   0.000000  -0.000000  -0.000000  -0.000000   0.000000
    24  C   -0.000000   0.000000  -0.000000   0.000000  -0.000000  -0.000000
    25  N   -0.000000   0.000000  -0.000000   0.000000  -0.000000  -0.000000
    26  C   -0.000000  -0.000000  -0.000000  -0.000000  -0.000000  -0.000000
    27  N   -0.000000   0.000000  -0.000000  -0.000000  -0.000000   0.000000
    28  H   -0.000000  -0.000000  -0.000000   0.000000  -0.000000  -0.000000
    29  H    0.000000  -0.000000   0.000000  -0.000000   0.000000  -0.000000
    30  N    0.000000   0.000000  -0.000000  -0.000000  -0.000000   0.000000
    31  H   -0.000000  -0.000000  -0.000000   0.000000  -0.000000  -0.000000
    32  H    0.000000  -0.000000  -0.000000   0.000000  -0.000000  -0.000000
    33  H    0.000000  -0.000000   0.000000   0.000000   0.000000  -0.000000
               7          8          9         10         11         12
     1  C   -0.104080   0.001170   0.006626  -0.000307  -0.000000   0.000001
     2  H    0.002246  -0.000019  -0.000097   0.000002   0.000000  -0.000000
     3  H    0.000306  -0.000027  -0.000133   0.000013  -0.000000  -0.000000
     4  H    0.006549   0.001180  -0.000042  -0.000004   0.000000  -0.000000
     5  C    0.266785  -0.016402  -0.020527   0.003888  -0.000128   0.000054
     6  O   -0.101889   0.003187   0.002395   0.000348  -0.000032   0.000040
     7  N    7.236528   0.301994   0.205940  -0.060934   0.005536   0.000997
     8  H    0.301994   0.370401  -0.030527  -0.005124   0.000059  -0.000008
     9  C    0.205940  -0.030527   4.617914   0.500139  -0.001356  -0.046960
    10  C   -0.060934  -0.005124   0.500139   4.992275   0.553858  -0.044022
    11  C    0.005536   0.000059  -0.001356   0.553858   4.873902   0.493102
    12  C    0.000997  -0.000008  -0.046960  -0.044022   0.493102   5.027011
    13  H    0.000006  -0.000000   0.000212   0.004252  -0.035509   0.353944
    14  H   -0.000155  -0.000012   0.004091  -0.040619   0.356303  -0.037821
    15  H   -0.005624   0.005629  -0.043646   0.353524  -0.036670   0.004696
    16  C   -0.053259   0.005293   0.519279  -0.063037  -0.054664  -0.059147
    17  H   -0.014349  -0.000122  -0.037276   0.006335  -0.000179   0.005978
    18  C    0.003909   0.000011   0.006483  -0.036184  -0.007980   0.539375
    19  C   -0.000194   0.000004   0.006506   0.001133   0.006342  -0.044705
    20  N   -0.000004   0.000000   0.000342  -0.000003  -0.000112   0.003335
    21  C    0.000001  -0.000000  -0.000241  -0.000000   0.000461  -0.014118
    22  H    0.000000  -0.000000  -0.000005  -0.000005   0.000138   0.003594
    23  S   -0.000000   0.000000   0.000020  -0.000002   0.000006   0.000385
    24  C   -0.000000   0.000000  -0.000006   0.000001  -0.000001   0.000146
    25  N    0.000000  -0.000000  -0.000000   0.000000  -0.000000   0.000002
    26  C    0.000000  -0.000000  -0.000000  -0.000000   0.000000   0.000000
    27  N   -0.000000   0.000000   0.000000   0.000000  -0.000000  -0.000000
    28  H    0.000000   0.000000  -0.000000  -0.000000   0.000000   0.000000
    29  H   -0.000000   0.000000   0.000000  -0.000000   0.000000   0.000000
    30  N   -0.000000   0.000000   0.000000   0.000000   0.000000   0.000000
    31  H    0.000000  -0.000000  -0.000000  -0.000000   0.000000   0.000000
    32  H    0.000000  -0.000000  -0.000000  -0.000000   0.000000   0.000000
[...]
     5  C   -0.215023  -0.103091  -0.061899   0.323236   6.207370   0.084418
     6  O   -0.082862   0.020330   0.001921   0.002548   0.084418   8.883512
     7  N    0.018638   0.072671   0.053400  -0.208864  -0.044195  -0.090060
     8  H   -0.088850  -0.004319  -0.001075  -0.010864  -0.060461  -0.017149
     9  C    0.189265  -0.001663  -0.011615  -0.068568  -0.930882   0.221330
    10  C   -0.114951   0.008833   0.003023  -0.052966  -0.753405   0.111545
    11  C    0.028744   0.001219   0.001008  -0.001187  -0.026637   0.003825
    12  C   -0.028232   0.000244  -0.000097  -0.011064   0.115710  -0.019962
    13  H   -0.000266  -0.000013  -0.000024   0.000058   0.002163   0.000097
    14  H   -0.000005  -0.000017   0.000028  -0.000062   0.004065  -0.000676
    15  H   -0.000857   0.000520  -0.000337  -0.000480   0.002725   0.004715
    16  C   -0.120944  -0.003344  -0.003318   0.074222   0.543902  -0.031427
    17  H    0.022843   0.000437   0.000548   0.003132   0.133490  -0.079902
    18  C    0.035840  -0.003827  -0.001174   0.014440   0.365598  -0.098558
    19  C   -0.004796  -0.000401  -0.000020   0.001075   0.057554   0.004412
    20  N    0.003156   0.000366   0.000218  -0.000199  -0.001681  -0.000963
    21  C    0.002455   0.000031   0.000152   0.000230  -0.000819  -0.000863
    22  H    0.000269   0.000016   0.000014   0.000036   0.001888  -0.000247
    23  S    0.000052   0.000007  -0.000003   0.000006   0.001356   0.000046
    24  C   -0.001468   0.000452   0.000079  -0.000535  -0.005513  -0.006714
    25  N    0.000324  -0.000025   0.000003   0.000046   0.000853   0.000738
    26  C   -0.001728   0.000009  -0.000043  -0.000122  -0.006965  -0.002067
    27  N    0.000032   0.000014  -0.000006   0.000004   0.000362  -0.000094
    28  H    0.000008   0.000001  -0.000001   0.000001   0.000033  -0.000036
    29  H   -0.000056  -0.000003  -0.000000  -0.000006  -0.000189   0.000073
    30  N   -0.000973   0.000134  -0.000133   0.000051   0.001435  -0.001035
    31  H   -0.001675  -0.000583   0.000070  -0.000231  -0.000250   0.006328
    32  H   -0.000874  -0.000207  -0.000178   0.000128   0.001541  -0.000384
    33  H   -0.000010   0.000004   0.000001  -0.000005  -0.000056  -0.000009
               7          8          9         10         11         12
     1  C    0.018638  -0.088850   0.189265  -0.114951   0.028744  -0.028232
     2  H    0.072671  -0.004319  -0.001663   0.008833   0.001219   0.000244
     3  H    0.053400  -0.001075  -0.011615   0.003023   0.001008  -0.000097
     4  H   -0.208864  -0.010864  -0.068568  -0.052966  -0.001187  -0.011064
     5  C   -0.044195  -0.060461  -0.930882  -0.753405  -0.026637   0.115710
     6  O   -0.090060  -0.017149   0.221330   0.111545   0.003825  -0.019962
     7  N    8.307007   0.250701  -1.431079   1.115500  -0.609787   0.414140
     8  H    0.250701   1.000571   0.141841  -0.118446   0.035126   0.057316
     9  C   -1.431079   0.141841  22.537210 -10.155485   5.563065  -5.326394
    10  C    1.115500  -0.118446 -10.155485  21.197758  -6.295701   4.329695
    11  C   -0.609787   0.035126   5.563065  -6.295701  17.327521  -7.307791
    12  C    0.414140   0.057316  -5.326394   4.329695  -7.307791  26.576945
    13  H    0.012070  -0.004063  -0.128487  -0.077279   0.277574  -1.769776
    14  H    0.002483   0.007701  -0.470992   0.558179  -1.293499   1.148434
    15  H   -0.243443   0.015133   1.830538  -2.186304   0.618583  -0.469261
    16  C    0.813686  -0.159484  -8.039605   3.383182  -4.358833  -1.239697
    17  H   -0.213393   0.002900   0.519222  -0.454863   0.207173  -0.361372
    18  C   -0.629752   0.004390   2.116747  -5.752301   2.439581  -9.366825
    19  C    0.079888  -0.008874  -1.073344   0.357110  -1.124696   0.776716
    20  N   -0.009908   0.001340   0.209395  -0.061155   0.116425  -0.018889
    21  C   -0.037977   0.000912   0.394493  -0.247776   0.369082  -2.158031
    22  H   -0.003412  -0.000047   0.030492  -0.034521   0.155547   0.250587
    23  S    0.000015   0.000024  -0.011302   0.021732  -0.091779  -0.067834
    24  C   -0.002362   0.002373   0.305924  -0.068830   0.028508  -0.056231
    25  N    0.000193  -0.000189  -0.019661   0.006343  -0.009052  -0.004351
    26  C   -0.000742   0.000498   0.033430  -0.001189  -0.004964  -0.048484
    27  N    0.000015  -0.000021  -0.000770   0.000225  -0.000103   0.001010
    28  H   -0.000001  -0.000004  -0.000653  -0.000106   0.000179   0.000612
    29  H    0.000019   0.000008   0.001215   0.000230  -0.000186  -0.000578
    30  N   -0.000385  -0.000203  -0.016395  -0.001379   0.003922   0.009735
    31  H    0.001987   0.000543   0.003746   0.028337  -0.024146   0.028964
    32  H   -0.001193   0.000040  -0.004384  -0.003321   0.001568   0.000445
    33  H   -0.000032   0.000028   0.002748   0.000676  -0.001902  -0.003166
              13         14         15         16         17         18
     1  C   -0.000266  -0.000005  -0.000857  -0.120944   0.022843   0.035840
     2  H   -0.000013  -0.000017   0.000520  -0.003344   0.000437  -0.003827
     3  H   -0.000024   0.000028  -0.000337  -0.003318   0.000548  -0.001174
     4  H    0.000058  -0.000062  -0.000480   0.074222   0.003132   0.014440
     5  C    0.002163   0.004065   0.002725   0.543902   0.133490   0.365598
     6  O    0.000097  -0.000676   0.004715  -0.031427  -0.079902  -0.098558
     7  N    0.012070   0.002483  -0.243443   0.813686  -0.213393  -0.629752
     8  H   -0.004063   0.007701   0.015133  -0.159484   0.002900   0.004390
     9  C   -0.128487  -0.470992   1.830538  -8.039605   0.519222   2.116747
    10  C   -0.077279   0.558179  -2.186304   3.383182  -0.454863  -5.752301
    11  C    0.277574  -1.293499   0.618583  -4.358833   0.207173   2.439581
    12  C   -1.769776   1.148434  -0.469261  -1.239697  -0.361372  -9.366825
    13  H    2.128961  -0.094371  -0.009117   0.177699  -0.012081   1.074072
    14  H   -0.094371   1.755488  -0.088440   0.104043   0.006713  -0.120564
    15  H   -0.009117  -0.088440   2.200621  -0.018382  -0.019250   0.052686
    16  C    0.177699   0.104043  -0.018382  23.664582  -1.918192  -7.070673
    17  H   -0.012081   0.006713  -0.019250  -1.918192   2.831180   1.133910
    18  C    1.074072  -0.120564   0.052686  -7.070673   1.133910  25.908969
    19  C    0.032470  -0.096199   0.025325   0.799642   0.013306 -10.783193
    20  N   -0.007918   0.004317   0.000558  -0.303224  -0.105585   0.797158
    21  C    0.098245   0.061764  -0.004556  -1.508438   0.124555   4.717825
    22  H   -0.063989  -0.000218   0.000655   0.000206   0.013224  -0.600983
    23  S    0.001901  -0.000792   0.000348   0.135333   0.002146  -0.224631
    24  C    0.007556   0.002670  -0.001425  -0.018107  -0.098177  -0.011797
    25  N    0.002718  -0.000334   0.000215   0.023406   0.002986  -0.127519
    26  C    0.000352  -0.000005  -0.000270  -0.037417   0.015801   0.004649
    27  N    0.000105  -0.000005   0.000011   0.002793   0.000926  -0.004156
    28  H   -0.000017   0.000002  -0.000000  -0.000691   0.000122   0.001295
    29  H    0.000030  -0.000003   0.000001   0.000793  -0.000265  -0.001987
    30  N   -0.000595   0.000086   0.000058  -0.011271   0.006589   0.043306
    31  H    0.001643  -0.000170   0.000386   0.027179  -0.038467  -0.049795
    32  H   -0.000071   0.000024  -0.000044  -0.000005   0.003052   0.005153
    33  H   -0.000050  -0.000004   0.000001   0.004169  -0.002186  -0.002642
              19         20         21         22         23         24
     1  C   -0.004796   0.003156   0.002455   0.000269   0.000052  -0.001468
     2  H   -0.000401   0.000366   0.000031   0.000016   0.000007   0.000452
     3  H   -0.000020   0.000218   0.000152   0.000014  -0.000003   0.000079
     4  H    0.001075  -0.000199   0.000230   0.000036   0.000006  -0.000535
     5  C    0.057554  -0.001681  -0.000819   0.001888   0.001356  -0.005513
     6  O    0.004412  -0.000963  -0.000863  -0.000247   0.000046  -0.006714
     7  N    0.079888  -0.009908  -0.037977  -0.003412   0.000015  -0.002362
     8  H   -0.008874   0.001340   0.000912  -0.000047   0.000024   0.002373
     9  C   -1.073344   0.209395   0.394493   0.030492  -0.011302   0.305924
    10  C    0.357110  -0.061155  -0.247776  -0.034521   0.021732  -0.068830
    11  C   -1.124696   0.116425   0.369082   0.155547  -0.091779   0.028508
    12  C    0.776716  -0.018889  -2.158031   0.250587  -0.067834  -0.056231
    13  H    0.032470  -0.007918   0.098245  -0.063989   0.001901   0.007556
    14  H   -0.096199   0.004317   0.061764  -0.000218  -0.000792   0.002670
    15  H    0.025325   0.000558  -0.004556   0.000655   0.000348  -0.001425
    16  C    0.799642  -0.303224  -1.508438   0.000206   0.135333  -0.018107
    17  H    0.013306  -0.105585   0.124555   0.013224   0.002146  -0.098177
    18  C  -10.783193   0.797158   4.717825  -0.600983  -0.224631  -0.011797
    19  C   30.906503  -2.017849 -11.199547   1.069311   0.187437  -1.311828
    20  N   -2.017849   8.103480   0.921440  -0.010165  -0.196703   0.319153
    21  C  -11.199547   0.921440  15.332504  -0.529684   0.096525  -0.905346
    22  H    1.069311  -0.010165  -0.529684   1.605312  -0.222646  -0.051763
    23  S    0.187437  -0.196703   0.096525  -0.222646  15.875529   0.251386
    24  C   -1.311828   0.319153  -0.905346  -0.051763   0.251386   8.013110
    25  N    0.519721  -0.149485  -0.044429  -0.016709  -0.146996  -0.271799
    26  C    0.092931   0.050971  -0.099423  -0.008809  -0.081900  -0.554296
    27  N    0.021387   0.001662  -0.005881  -0.000265   0.007801   0.044018
    28  H   -0.001127   0.000986   0.001679   0.000143  -0.001847  -0.033226
    29  H    0.003098   0.002016  -0.003719  -0.000200  -0.000222  -0.014586
    30  N   -0.114495  -0.021515   0.070757   0.002727  -0.010403   0.027491
    31  H    0.003649  -0.041972  -0.075736  -0.004741   0.000479   0.018284
    32  H    0.008139   0.000956   0.003108   0.000152  -0.001116  -0.005213
    33  H   -0.064461  -0.017951  -0.002784   0.000155   0.020679  -0.107950
              25         26         27         28         29         30
     1  C    0.000324  -0.001728   0.000032   0.000008  -0.000056  -0.000973
     2  H   -0.000025   0.000009   0.000014   0.000001  -0.000003   0.000134
     3  H    0.000003  -0.000043  -0.000006  -0.000001  -0.000000  -0.000133
     4  H    0.000046  -0.000122   0.000004   0.000001  -0.000006   0.000051
     5  C    0.000853  -0.006965   0.000362   0.000033  -0.000189   0.001435
     6  O    0.000738  -0.002067  -0.000094  -0.000036   0.000073  -0.001035
     7  N    0.000193  -0.000742   0.000015  -0.000001   0.000019  -0.000385
     8  H   -0.000189   0.000498  -0.000021  -0.000004   0.000008  -0.000203
     9  C   -0.019661   0.033430  -0.000770  -0.000653   0.001215  -0.016395
    10  C    0.006343  -0.001189   0.000225  -0.000106   0.000230  -0.001379
    11  C   -0.009052  -0.004964  -0.000103   0.000179  -0.000186   0.003922
    12  C   -0.004351  -0.048484   0.001010   0.000612  -0.000578   0.009735
    13  H    0.002718   0.000352   0.000105  -0.000017   0.000030  -0.000595
    14  H   -0.000334  -0.000005  -0.000005   0.000002  -0.000003   0.000086
    15  H    0.000215  -0.000270   0.000011  -0.000000   0.000001   0.000058
    16  C    0.023406  -0.037417   0.002793  -0.000691   0.000793  -0.011271
    17  H    0.002986   0.015801   0.000926   0.000122  -0.000265   0.006589
    18  C   -0.127519   0.004649  -0.004156   0.001295  -0.001987   0.043306
    19  C    0.519721   0.092931   0.021387  -0.001127   0.003098  -0.114495
    20  N   -0.149485   0.050971   0.001662   0.000986   0.002016  -0.021515
    21  C   -0.044429  -0.099423  -0.005881   0.001679  -0.003719   0.070757
    22  H   -0.016709  -0.008809  -0.000265   0.000143  -0.000200   0.002727
    23  S   -0.146996  -0.081900   0.007801  -0.001847  -0.000222  -0.010403
    24  C   -0.271799  -0.554296   0.044018  -0.033226  -0.014586   0.027491
    25  N    7.418850   0.223731  -0.101168   0.016718  -0.021465  -0.036826
    26  C    0.223731   5.343702   0.108329  -0.071621  -0.068010   0.119471
    27  N   -0.101168   0.108329   6.380156   0.450002   0.458969  -0.105148
    28  H    0.016718  -0.071621   0.450002   0.787157  -0.145319   0.004673
    29  H   -0.021465  -0.068010   0.458969  -0.145319   0.783630  -0.016643
    30  N   -0.036826   0.119471  -0.105148   0.004673  -0.016643   6.307909
    31  H   -0.032509  -0.121599   0.010941  -0.000516   0.002554   0.420155
    32  H    0.014264  -0.132123  -0.002626   0.003450  -0.009099   0.445331
    33  H    0.445630  -0.116118  -0.004394  -0.005612   0.002419   0.015187
              31         32         33
     1  C   -0.001675  -0.000874  -0.000010
     2  H   -0.000583  -0.000207   0.000004
     3  H    0.000070  -0.000178   0.000001
     4  H   -0.000231   0.000128  -0.000005
     5  C   -0.000250   0.001541  -0.000056
     6  O    0.006328  -0.000384  -0.000009
     7  N    0.001987  -0.001193  -0.000032
     8  H    0.000543   0.000040   0.000028
     9  C    0.003746  -0.004384   0.002748
    10  C    0.028337  -0.003321   0.000676
    11  C   -0.024146   0.001568  -0.001902
    12  C    0.028964   0.000445  -0.003166
    13  H    0.001643  -0.000071  -0.000050
    14  H   -0.000170   0.000024  -0.000004
    15  H    0.000386  -0.000044   0.000001
    16  C    0.027179  -0.000005   0.004169
    17  H   -0.038467   0.003052  -0.002186
    18  C   -0.049795   0.005153  -0.002642
    19  C    0.003649   0.008139  -0.064461
    20  N   -0.041972   0.000956  -0.017951
    21  C   -0.075736   0.003108  -0.002784
    22  H   -0.004741   0.000152   0.000155
    23  S    0.000479  -0.001116   0.020679
    24  C    0.018284  -0.005213  -0.107950
    25  N   -0.032509   0.014264   0.445630
    26  C   -0.121599  -0.132123  -0.116118
    27  N    0.010941  -0.002626  -0.004394
    28  H   -0.000516   0.003450  -0.005612
    29  H    0.002554  -0.009099   0.002419
    30  N    0.420155   0.445331   0.015187
    31  H    0.899227  -0.197434   0.003430
    32  H   -0.197434   0.861983  -0.001547
    33  H    0.003430  -0.001547   0.853120
 Mulliken charges:
               1
     1  C    0.615512
     2  H    0.043287
     3  H    0.058502
     4  H   -0.195701
     5  C    0.363368
     6  O   -0.912828
     7  N   -0.615827
     8  H   -0.047396
     9  C   -0.409384
    10  C    1.257608
    11  C   -0.028389
    12  C    0.547484
    13  H   -0.649599
    14  H   -0.489641
    15  H   -0.710911
    16  C    1.088216
    17  H   -0.740522
    18  C    2.134760
    19  C   -1.158843
    20  N   -0.568432
    21  C    0.629254
    22  H   -0.582337
    23  S    0.455371
    24  C    0.506162
    25  N   -0.694224
    26  C    1.364019
    27  N   -0.264125
    28  H   -0.006284
    29  H    0.027479
    30  N   -0.141618
    31  H    0.131918
    32  H    0.010482
    33  H   -0.017364
 Sum of Mulliken charges =   1.00000
 Mulliken charges with hydrogens summed into heavy atoms:
               1
     1  C    0.521601
     5  C    0.363368
     6  O   -0.912828
     7  N   -0.663223
     9  C   -0.409384
    10  C    0.546697
    11  C   -0.518030
    12  C   -0.102114
    16  C    0.347694
    18  C    2.134760
    19  C   -1.158843
    20  N   -0.568432
    21  C    0.046917
    23  S    0.455371
    24  C    0.506162
    25  N   -0.711588
    26  C    1.364019
    27  N   -0.242930
    30  N    0.000782
 Electronic spatial extent (au):  <R**2>=           6840.4552
 Charge=              1.0000 electrons
 Dipole moment (field-independent basis, Debye):
    X=              9.1949    Y=              6.2002    Z=             -0.7329  Tot=             11.1142
 Quadrupole moment (field-independent basis, Debye-Ang):
   XX=            -14.7841   YY=            -68.1119   ZZ=           -123.8811
   XY=             26.8644   XZ=             -0.3200   YZ=             -3.3384
 Traceless Quadrupole moment (field-independent basis, Debye-Ang):
   XX=             54.1416   YY=              0.8138   ZZ=            -54.9554
   XY=             26.8644   XZ=             -0.3200   YZ=             -3.3384
 Octapole moment (field-independent basis, Debye-Ang**2):
  XXX=            121.0035  YYY=             96.7632  ZZZ=              2.3606  XYY=             95.3986
  XXY=            172.0173  XXZ=             -0.8342  XZZ=              4.8528  YZZ=             20.6767
  YYZ=            -14.9505  XYZ=            -15.2072
 Hexadecapole moment (field-independent basis, Debye-Ang**3):
 XXXX=          -3581.9489 YYYY=          -2233.0871 ZZZZ=           -169.0032 XXXY=            461.7343
 XXXZ=              1.2365 YYYX=            364.9919 YYYZ=            -55.4819 ZZZX=            -13.0763
 ZZZY=             -1.1382 XXYY=           -850.8893 XXZZ=          -1081.5053 YYZZ=           -556.7466
 XXYZ=             -5.2405 YYXZ=            -19.3907 ZZXY=            -22.3590
 N-N= 1.484492038688D+03 E-N=-5.789683492238D+03  KE= 1.206040078952D+03
 Leave Link  601 at Sun Jul 18 19:59:25 2021, MaxMem=   262144000 cpu:               0.5 elap:               0.4
 (Enter /dades/curu/g16A03_MST/g16/l9999.exe)
 1\1\GINC-PIRINEUS17\SP\RMP2-FC\Aug-CC-pVDZ\C12H14N5O1S1(1+)\UBATOR02\1
 8-Jul-2021\0\\#p mp2/aug-cc-pVDZ scf=tight maxdisk=180GB geom=allcheck
 \\SET_328_BBB321_conf1.geo_195_330_315 geometry\\1,1\C,0,-1.777377851,
 -2.6798259169,-3.4576616961\H,0,-2.8558444768,-2.5135235233,-3.4082236
 25\H,0,-1.5931499602,-3.7199014254,-3.1762305319\H,0,-1.4408549341,-2.
 5286257683,-4.4847944004\C,0,-1.0986560787,-1.774893672,-2.4476466965\
 O,0,-1.4186772407,-1.7839096965,-1.2620592252\N,0,-0.1144748586,-0.972
 7649927,-2.9703784022\H,0,0.0479972967,-1.0554252099,-3.9641747583\C,0
 ,0.7033968825,-0.0383734646,-2.3071814544\C,0,1.6147773584,0.697677383
 ,-3.0789633672\C,0,2.4449621207,1.6332333717,-2.4660071592\C,0,2.38074
 29265,1.8493745415,-1.0925580761\H,0,3.0200486942,2.5940348032,-0.6322
 659858\H,0,3.143232291,2.2028951239,-3.0696234374\H,0,1.6697452468,0.5
 408471397,-4.1517926049\C,0,0.6388591398,0.1715544385,-0.9260143041\H,
 0,-0.057129214,-0.4037716489,-0.3415750484\C,0,1.4748449771,1.11347538
 47,-0.3152228008\C,0,1.3851160103,1.3109222236,1.141369001\N,0,0.33142
 3741,0.7378884249,1.8427913614\C,0,2.2598332354,2.0190571798,1.9177667
 896\H,0,3.1608871841,2.5348875879,1.623155684\S,0,1.7751419294,1.99786
 96741,3.5849565487\C,0,0.4015048162,1.0098608606,3.1116802502\N,0,-0.5
 131254751,0.5875934198,4.0658399954\C,0,-1.6508547,-0.1382117633,3.841
 2061405\N,0,-2.3867358396,-0.4651627929,4.8997066047\H,0,-2.1303582385
 ,-0.1593714266,5.8313118704\H,0,-3.2529820266,-0.9783993769,4.78110332
 97\N,0,-1.9943198166,-0.493883464,2.6143824731\H,0,-1.3854699878,-0.24
 713489,1.8366376519\H,0,-2.8208689472,-1.0606775165,2.4606540966\H,0,-
 0.3486342045,0.848684992,5.0338117766\\Version=ES64L-G16RevA.03\State=
 1-A\HF=-1207.1665153\MP2=-1209.9822987\RMSD=2.482e-09\PG=C01 [X(C12H14
 N5O1S1)]\\@


 I MET A TRAVELLER FROM AN ANTIQUE LAND
 WHO SAID... TWO VAST AND TRUNKLESS LEGS OF STONE
 STAND IN THE DESERT..... NEAR THEM,  ON THE SAND,
 HALF SUNK,  A SHATTERED VISAGE LIES,  WHOSE FROWN,
 AND WRINKLED LIP,  AND SNEER OF COLD COMMAND
 TELL THAT ITS SCULPTOR WELL THOSE PASSIONS READ
 WHICH YET SURVIVE,  STAMPED ON THESE LIFELESS THINGS
 THE HAND THAT MOCKED THEM,  AND THE HEART THAT FED-
 AND ON THE PEDESTAL THESE WORDS APPEAR 
 MY NAME IS OZYMANDIAS, KING OF KINGS--   
 LOOK ON MY WORKS YE MIGHTY AND DESPAIR. 
 NOTHING BESIDE REMAINS,  ROUND THE DECAY 
 OF THAT COLOSSAL WRECK,  BOUNDLESS AND BARE
 THE LONE AND LEVEL SANDS STRETCH FAR AWAY.
                                    SHELLEY
 Job cpu time:       0 days  3 hours 46 minutes 21.2 seconds.
 Elapsed time:       0 days  1 hours  7 minutes 22.8 seconds.
 File lengths (MBytes):  RWF=  91190 Int=      0 D2E=      0 Chk=     27 Scr=      1
 Normal termination of Gaussian 16 at Sun Jul 18 19:59:27 2021.
