 Entering Gaussian System, Link 0=g16
 Input=SET_328_BBB6_conf1.geo_330_225_075_OCTANOL.dat
 Output=SET_328_BBB6_conf1.geo_330_225_075_OCTANOL.log
 Initial command:
 /dades/curu/g16A03_MST/g16/l1.exe "/tmp/ubator02/1839713/Gau-5622.inp" -scrdir="/tmp/ubator02/1839713/"
 Entering Link 1 = /dades/curu/g16A03_MST/g16/l1.exe PID=      5623.
  
 Copyright (c) 1988,1990,1992,1993,1995,1998,2003,2009,2016,
            Gaussian, Inc.  All Rights Reserved.
  
 This is part of the Gaussian(R) 16 program.  It is based on
 the Gaussian(R) 09 system (copyright 2009, Gaussian, Inc.),
 the Gaussian(R) 03 system (copyright 2003, Gaussian, Inc.),
 the Gaussian(R) 98 system (copyright 1998, Gaussian, Inc.),
 the Gaussian(R) 94 system (copyright 1995, Gaussian, Inc.),
 the Gaussian 92(TM) system (copyright 1992, Gaussian, Inc.),
 the Gaussian 90(TM) system (copyright 1990, Gaussian, Inc.),
 the Gaussian 88(TM) system (copyright 1988, Gaussian, Inc.),
 the Gaussian 86(TM) system (copyright 1986, Carnegie Mellon
 University), and the Gaussian 82(TM) system (copyright 1983,
 Carnegie Mellon University). Gaussian is a federally registered
 trademark of Gaussian, Inc.
  
 This software contains proprietary and confidential information,
 including trade secrets, belonging to Gaussian, Inc.
  
 This software is provided under written license and may be
 used, copied, transmitted, or stored only in accord with that
 written license.
  
 The following legend is applicable only to US Government
 contracts under FAR:
  
                    RESTRICTED RIGHTS LEGEND
  
 Use, reproduction and disclosure by the US Government is
 subject to restrictions as set forth in subparagraphs (a)
 and (c) of the Commercial Computer Software - Restricted
 Rights clause in FAR 52.227-19.
  
 Gaussian, Inc.
 340 Quinnipiac St., Bldg. 40, Wallingford CT 06492
  
  
 ---------------------------------------------------------------
 Warning -- This program may not be used in any manner that
 competes with the business of Gaussian, Inc. or will provide
 assistance to any competitor of Gaussian, Inc.  The licensee
 of this program is prohibited from giving any competitor of
 Gaussian, Inc. access to this program.  By using this program,
 the user acknowledges that Gaussian, Inc. is engaged in the
 business of creating and licensing software in the field of
 computational chemistry and represents and warrants to the
 licensee that it is not a competitor of Gaussian, Inc. and that
 it will not use this program in any manner prohibited above.
 ---------------------------------------------------------------
  

 Cite this work as:
 Gaussian 16, Revision A.03,
 M. J. Frisch, G. W. Trucks, H. B. Schlegel, G. E. Scuseria, 
 M. A. Robb, J. R. Cheeseman, G. Scalmani, V. Barone, 
 G. A. Petersson, H. Nakatsuji, X. Li, M. Caricato, A. V. Marenich, 
 J. Bloino, B. G. Janesko, R. Gomperts, B. Mennucci, H. P. Hratchian, 
 J. V. Ortiz, A. F. Izmaylov, J. L. Sonnenberg, D. Williams-Young, 
 F. Ding, F. Lipparini, F. Egidi, J. Goings, B. Peng, A. Petrone, 
 T. Henderson, D. Ranasinghe, V. G. Zakrzewski, J. Gao, N. Rega, 
 G. Zheng, W. Liang, M. Hada, M. Ehara, K. Toyota, R. Fukuda, 
 J. Hasegawa, M. Ishida, T. Nakajima, Y. Honda, O. Kitao, H. Nakai, 
 T. Vreven, K. Throssell, J. A. Montgomery, Jr., J. E. Peralta, 
 F. Ogliaro, M. J. Bearpark, J. J. Heyd, E. N. Brothers, K. N. Kudin, 
 V. N. Staroverov, T. A. Keith, R. Kobayashi, J. Normand, 
 K. Raghavachari, A. P. Rendell, J. C. Burant, S. S. Iyengar, 
 J. Tomasi, M. Cossi, J. M. Millam, M. Klene, C. Adamo, R. Cammi, 
 J. W. Ochterski, R. L. Martin, K. Morokuma, O. Farkas, 
 J. B. Foresman, and D. J. Fox, Gaussian, Inc., Wallingford CT, 2016.
 
 ******************************************
 Gaussian 16:  ES64L-G16RevA.03 25-Dec-2016
                18-Jul-2021 
 ******************************************
 %mem=800MB
 %nproc=4
 Will use up to    4 processors via shared memory.
 %chk=SET_328_BBB6_conf1.geo_330_225_075.chk
 ---------------------------------------------------------------
 #p b3lyp/6-31G(d) opt freq scrf=(iefpcm,read,solvent=n-octanol)
 ---------------------------------------------------------------
 1/18=20,19=15,26=3,38=1,40=2/1,3;
 2/9=110,12=2,17=6,18=5,40=1/2;
 3/5=1,6=6,7=1,11=2,25=1,30=1,70=2203,71=1,72=25,74=-5/1,2,3;
 4//1;
 5/5=2,38=5,53=25/2;
 6/7=2,8=2,9=2,10=2,28=1/1;
 7//1,2,3,16;
 1/18=20,19=15,26=3/3(2);
 2/9=110/2;
 99//99;
 2/9=110/2;
 3/5=1,6=6,7=1,11=2,25=1,30=1,70=2205,71=1,72=25,74=-5/1,2,3;
 4/5=5,16=3,69=1/1;
 5/5=2,38=5,53=25/2;
 7//1,2,3,16;
 1/18=20,19=15,26=3/3(-5);
 2/9=110/2;
 6/7=2,8=2,9=2,10=2,19=2,28=1/1;
 99/9=1/99;
 Leave Link    1 at Sun Jul 18 16:31:13 2021, MaxMem=   104857600 cpu:               0.0 elap:               0.0
 (Enter /dades/curu/g16A03_MST/g16/l101.exe)
 -------------------------------------------
 SET_328_BBB6_conf1.geo_330_225_075 geometry
 -------------------------------------------
 Symbolic Z-matrix:
 Charge =  1 Multiplicity = 1
 C                    -0.6      -1.184     2.498 
 H                    -0.643    -0.453     3.308 
 H                    -0.12     -2.124     2.779 
 H                    -1.625    -1.55      2.403 
 C                    -0.047    -0.597     1.189 
 N                     1.38     -0.392     1.487 
 C                     2.164     0.65      0.659 
 C                     2.004     0.383    -0.876 
 H                     0.99      0.367    -1.281 
 H                     2.436    -0.605    -1.047 
 H                     2.681     1.044    -1.421 
 C                     1.588     1.999     1.01 
 H                     0.55      2.117     0.692 
 H                     2.151     2.843     0.606 
 H                     1.63      2.028     2.101 
 C                     3.675     0.535     1.049 
 H                     4.138    -0.447     0.932 
 H                     3.814     0.914     2.064 
 H                     4.146     1.216     0.338 
 H                     1.84     -1.273     1.376 
 H                    -0.382     0.418     0.957 
 C                    -0.482    -1.409    -0.126 
 O                     0.132    -2.46     -0.443 
 C                    -1.593    -0.82     -0.939 
 C                    -2.623    -0.046    -0.376 
 H                    -2.651     0.179     0.687 
 C                    -3.675     0.433    -1.091 
 Cl                   -4.88      1.412    -0.422 
 C                    -3.696     0.133    -2.483 
 H                    -4.471     0.565    -3.111 
 C                    -2.613    -0.482    -3.13 
 H                    -2.72     -0.795    -4.166 
 C                    -1.592    -0.995    -2.319 
 H                    -0.775    -1.553    -2.77 
 H                     1.452    -0.128     2.449 
 
 ITRead=  0  0  0  0  0  0  0  0  0  0  0  0  0  0  0  0  0  0  0  0
 ITRead=  0  0  0  0  0  0  0  0  0  0  0  0  0  0  0
 MicOpt= -1 -1 -1 -1 -1 -1 -1 -1 -1 -1 -1 -1 -1 -1 -1 -1 -1 -1 -1 -1
 MicOpt= -1 -1 -1 -1 -1 -1 -1 -1 -1 -1 -1 -1 -1 -1 -1
 NAtoms=     35 NQM=       35 NQMF=       0 NMMI=      0 NMMIF=      0
                NMic=       0 NMicF=      0.
                    Isotopes and Nuclear Properties:
 (Nuclear quadrupole moments (NQMom) in fm**2, nuclear magnetic moments (NMagM)
  in nuclear magnetons)

  Atom         1           2           3           4           5           6           7           8           9          10
 IAtWgt=          12           1           1           1          12          14          12          12           1           1
 AtmWgt=  12.0000000   1.0078250   1.0078250   1.0078250  12.0000000  14.0030740  12.0000000  12.0000000   1.0078250   1.0078250
 NucSpn=           0           1           1           1           0           2           0           0           1           1
 AtZEff=  -0.0000000  -0.0000000  -0.0000000  -0.0000000  -0.0000000  -0.0000000  -0.0000000  -0.0000000  -0.0000000  -0.0000000
 NQMom=    0.0000000   0.0000000   0.0000000   0.0000000   0.0000000   2.0440000   0.0000000   0.0000000   0.0000000   0.0000000
 NMagM=    0.0000000   2.7928460   2.7928460   2.7928460   0.0000000   0.4037610   0.0000000   0.0000000   2.7928460   2.7928460
 AtZNuc=   6.0000000   1.0000000   1.0000000   1.0000000   6.0000000   7.0000000   6.0000000   6.0000000   1.0000000   1.0000000

  Atom        11          12          13          14          15          16          17          18          19          20
 IAtWgt=           1          12           1           1           1          12           1           1           1           1
 AtmWgt=   1.0078250  12.0000000   1.0078250   1.0078250   1.0078250  12.0000000   1.0078250   1.0078250   1.0078250   1.0078250
 NucSpn=           1           0           1           1           1           0           1           1           1           1
 AtZEff=  -0.0000000  -0.0000000  -0.0000000  -0.0000000  -0.0000000  -0.0000000  -0.0000000  -0.0000000  -0.0000000  -0.0000000
 NQMom=    0.0000000   0.0000000   0.0000000   0.0000000   0.0000000   0.0000000   0.0000000   0.0000000   0.0000000   0.0000000
 NMagM=    2.7928460   0.0000000   2.7928460   2.7928460   2.7928460   0.0000000   2.7928460   2.7928460   2.7928460   2.7928460
 AtZNuc=   1.0000000   6.0000000   1.0000000   1.0000000   1.0000000   6.0000000   1.0000000   1.0000000   1.0000000   1.0000000

  Atom        21          22          23          24          25          26          27          28          29          30
 IAtWgt=           1          12          16          12          12           1          12          35          12           1
 AtmWgt=   1.0078250  12.0000000  15.9949146  12.0000000  12.0000000   1.0078250  12.0000000  34.9688527  12.0000000   1.0078250
 NucSpn=           1           0           0           0           0           1           0           3           0           1
 AtZEff=  -0.0000000  -0.0000000  -0.0000000  -0.0000000  -0.0000000  -0.0000000  -0.0000000  -0.0000000  -0.0000000  -0.0000000
 NQMom=    0.0000000   0.0000000   0.0000000   0.0000000   0.0000000   0.0000000   0.0000000  -8.1650000   0.0000000   0.0000000
 NMagM=    2.7928460   0.0000000   0.0000000   0.0000000   0.0000000   2.7928460   0.0000000   0.8218740   0.0000000   2.7928460
 AtZNuc=   1.0000000   6.0000000   8.0000000   6.0000000   6.0000000   1.0000000   6.0000000  17.0000000   6.0000000   1.0000000

  Atom        31          32          33          34          35
 IAtWgt=          12           1          12           1           1
 AtmWgt=  12.0000000   1.0078250  12.0000000   1.0078250   1.0078250
 NucSpn=           0           1           0           1           1
 AtZEff=  -0.0000000  -0.0000000  -0.0000000  -0.0000000  -0.0000000
 NQMom=    0.0000000   0.0000000   0.0000000   0.0000000   0.0000000
 NMagM=    0.0000000   2.7928460   0.0000000   2.7928460   2.7928460
 AtZNuc=   6.0000000   1.0000000   6.0000000   1.0000000   1.0000000
 Leave Link  101 at Sun Jul 18 16:31:13 2021, MaxMem=   104857600 cpu:               0.1 elap:               0.1
 (Enter /dades/curu/g16A03_MST/g16/l103.exe)

 GradGradGradGradGradGradGradGradGradGradGradGradGradGradGradGradGradGrad
 Berny optimization.
 Initialization pass.
                           ----------------------------
                           !    Initial Parameters    !
                           ! (Angstroms and Degrees)  !
 --------------------------                            --------------------------
 ! Name  Definition              Value          Derivative Info.                !
 --------------------------------------------------------------------------------
 ! R1    R(1,2)                  1.0919         estimate D2E/DX2                !
 ! R2    R(1,3)                  1.0922         estimate D2E/DX2                !
 ! R3    R(1,4)                  1.0925         estimate D2E/DX2                !
 ! R4    R(1,5)                  1.5375         estimate D2E/DX2                !
 ! R5    R(5,6)                  1.4721         estimate D2E/DX2                !
 ! R6    R(5,21)                 1.0937         estimate D2E/DX2                !
 ! R7    R(5,22)                 1.6056         estimate D2E/DX2                !
 ! R8    R(6,7)                  1.5447         estimate D2E/DX2                !
 ! R9    R(6,20)                 1.0            estimate D2E/DX2                !
 ! R10   R(6,35)                 1.0002         estimate D2E/DX2                !
 ! R11   R(7,8)                  1.5662         estimate D2E/DX2                !
 ! R12   R(7,12)                 1.5082         estimate D2E/DX2                !
 ! R13   R(7,16)                 1.5648         estimate D2E/DX2                !
 ! R14   R(8,9)                  1.092          estimate D2E/DX2                !
 ! R15   R(8,10)                 1.0918         estimate D2E/DX2                !
 ! R16   R(8,11)                 1.0919         estimate D2E/DX2                !
 ! R17   R(12,13)                1.092          estimate D2E/DX2                !
 ! R18   R(12,14)                1.092          estimate D2E/DX2                !
 ! R19   R(12,15)                1.0922         estimate D2E/DX2                !
 ! R20   R(16,17)                1.092          estimate D2E/DX2                !
 ! R21   R(16,18)                1.0923         estimate D2E/DX2                !
 ! R22   R(16,19)                1.0914         estimate D2E/DX2                !
 ! R23   R(22,23)                1.2578         estimate D2E/DX2                !
 ! R24   R(22,24)                1.4974         estimate D2E/DX2                !
 ! R25   R(24,25)                1.406          estimate D2E/DX2                !
 ! R26   R(24,33)                1.3911         estimate D2E/DX2                !
 ! R27   R(25,26)                1.0869         estimate D2E/DX2                !
 ! R28   R(25,27)                1.3592         estimate D2E/DX2                !
 ! R29   R(27,28)                1.6906         estimate D2E/DX2                !
 ! R30   R(27,29)                1.4241         estimate D2E/DX2                !
 ! R31   R(29,30)                1.087          estimate D2E/DX2                !
 ! R32   R(29,31)                1.4035         estimate D2E/DX2                !
 ! R33   R(31,32)                1.0875         estimate D2E/DX2                !
 ! R34   R(31,33)                1.4012         estimate D2E/DX2                !
 ! R35   R(33,34)                1.0873         estimate D2E/DX2                !
 ! A1    A(2,1,3)              113.7416         estimate D2E/DX2                !
 ! A2    A(2,1,4)              104.5858         estimate D2E/DX2                !
 ! A3    A(2,1,5)              112.963          estimate D2E/DX2                !
 ! A4    A(3,1,4)               98.4163         estimate D2E/DX2                !
 ! A5    A(3,1,5)              112.9267         estimate D2E/DX2                !
 ! A6    A(4,1,5)              113.0366         estimate D2E/DX2                !
 ! A7    A(1,5,6)              103.2661         estimate D2E/DX2                !
 ! A8    A(1,5,21)             115.1338         estimate D2E/DX2                !
 ! A9    A(1,5,22)             114.0026         estimate D2E/DX2                !
 ! A10   A(6,5,21)             102.158          estimate D2E/DX2                !
 ! A11   A(6,5,22)             119.9241         estimate D2E/DX2                !
 ! A12   A(21,5,22)            102.276          estimate D2E/DX2                !
 ! A13   A(5,6,7)              118.5172         estimate D2E/DX2                !
 ! A14   A(5,6,20)             107.5017         estimate D2E/DX2                !
 ! A15   A(5,6,35)             107.5323         estimate D2E/DX2                !
 ! A16   A(7,6,20)             107.5367         estimate D2E/DX2                !
 ! A17   A(7,6,35)             107.5169         estimate D2E/DX2                !
 ! A18   A(20,6,35)            107.8294         estimate D2E/DX2                !
 ! A19   A(6,7,8)              111.008          estimate D2E/DX2                !
 ! A20   A(6,7,12)             106.5453         estimate D2E/DX2                !
 ! A21   A(6,7,16)             107.8747         estimate D2E/DX2                !
 ! A22   A(8,7,12)             109.9707         estimate D2E/DX2                !
 ! A23   A(8,7,16)             109.2923         estimate D2E/DX2                !
 ! A24   A(12,7,16)            112.118          estimate D2E/DX2                !
 ! A25   A(7,8,9)              117.441          estimate D2E/DX2                !
 ! A26   A(7,8,10)             105.5063         estimate D2E/DX2                !
 ! A27   A(7,8,11)             108.8223         estimate D2E/DX2                !
 ! A28   A(9,8,10)             107.2216         estimate D2E/DX2                !
 ! A29   A(9,8,11)             113.5456         estimate D2E/DX2                !
 ! A30   A(10,8,11)            102.9623         estimate D2E/DX2                !
 ! A31   A(7,12,13)            113.0723         estimate D2E/DX2                !
 ! A32   A(7,12,14)            114.0973         estimate D2E/DX2                !
 ! A33   A(7,12,15)            103.9769         estimate D2E/DX2                !
 ! A34   A(13,12,14)           107.386          estimate D2E/DX2                !
 ! A35   A(13,12,15)           108.9396         estimate D2E/DX2                !
 ! A36   A(14,12,15)           109.2204         estimate D2E/DX2                !
 ! A37   A(7,16,17)            116.6686         estimate D2E/DX2                !
 ! A38   A(7,16,18)            109.2066         estimate D2E/DX2                !
 ! A39   A(7,16,19)            102.0348         estimate D2E/DX2                !
 ! A40   A(17,16,18)           110.9547         estimate D2E/DX2                !
 ! A41   A(17,16,19)           107.9601         estimate D2E/DX2                !
 ! A42   A(18,16,19)           109.5075         estimate D2E/DX2                !
 ! A43   A(5,22,23)            119.7853         estimate D2E/DX2                !
 ! A44   A(5,22,24)            116.5369         estimate D2E/DX2                !
 ! A45   A(23,22,24)           123.6434         estimate D2E/DX2                !
 ! A46   A(22,24,25)           122.8642         estimate D2E/DX2                !
 ! A47   A(22,24,33)           119.2492         estimate D2E/DX2                !
 ! A48   A(25,24,33)           117.8406         estimate D2E/DX2                !
 ! A49   A(24,25,26)           121.63           estimate D2E/DX2                !
 ! A50   A(24,25,27)           123.3914         estimate D2E/DX2                !
 ! A51   A(26,25,27)           114.9348         estimate D2E/DX2                !
 ! A52   A(25,27,28)           123.2024         estimate D2E/DX2                !
 ! A53   A(25,27,29)           116.8312         estimate D2E/DX2                !
 ! A54   A(28,27,29)           119.8863         estimate D2E/DX2                !
 ! A55   A(27,29,30)           119.4384         estimate D2E/DX2                !
 ! A56   A(27,29,31)           122.1093         estimate D2E/DX2                !
 ! A57   A(30,29,31)           117.2564         estimate D2E/DX2                !
 ! A58   A(29,31,32)           119.2982         estimate D2E/DX2                !
 ! A59   A(29,31,33)           117.1223         estimate D2E/DX2                !
 ! A60   A(32,31,33)           121.1775         estimate D2E/DX2                !
 ! A61   A(24,33,31)           121.8443         estimate D2E/DX2                !
 ! A62   A(24,33,34)           118.4629         estimate D2E/DX2                !
 ! A63   A(31,33,34)           119.6914         estimate D2E/DX2                !
 ! D1    D(2,1,5,6)             70.799          estimate D2E/DX2                !
 ! D2    D(2,1,5,21)           -39.6652         estimate D2E/DX2                !
 ! D3    D(2,1,5,22)          -157.4399         estimate D2E/DX2                !
 ! D4    D(3,1,5,6)            -60.0436         estimate D2E/DX2                !
 ! D5    D(3,1,5,21)          -170.5078         estimate D2E/DX2                !
 ! D6    D(3,1,5,22)            71.7175         estimate D2E/DX2                !
 ! D7    D(4,1,5,6)           -170.6868         estimate D2E/DX2                !
 ! D8    D(4,1,5,21)            78.849          estimate D2E/DX2                !
 ! D9    D(4,1,5,22)           -38.9256         estimate D2E/DX2                !
 ! D10   D(1,5,6,7)           -156.9461         estimate D2E/DX2                !
 ! D11   D(1,5,6,20)            80.9876         estimate D2E/DX2                !
 ! D12   D(1,5,6,35)           -34.8807         estimate D2E/DX2                !
 ! D13   D(21,5,6,7)           -37.1322         estimate D2E/DX2                !
 ! D14   D(21,5,6,20)         -159.1985         estimate D2E/DX2                !
 ! D15   D(21,5,6,35)           84.9331         estimate D2E/DX2                !
 ! D16   D(22,5,6,7)            74.8896         estimate D2E/DX2                !
 ! D17   D(22,5,6,20)          -47.1768         estimate D2E/DX2                !
 ! D18   D(22,5,6,35)         -163.0451         estimate D2E/DX2                !
 ! D19   D(1,5,22,23)          -80.4942         estimate D2E/DX2                !
 ! D20   D(1,5,22,24)          101.5637         estimate D2E/DX2                !
 ! D21   D(6,5,22,23)           42.6079         estimate D2E/DX2                !
 ! D22   D(6,5,22,24)         -135.3343         estimate D2E/DX2                !
 ! D23   D(21,5,22,23)         154.5664         estimate D2E/DX2                !
 ! D24   D(21,5,22,24)         -23.3758         estimate D2E/DX2                !
 ! D25   D(5,6,7,8)            -53.1172         estimate D2E/DX2                !
 ! D26   D(5,6,7,12)            66.6017         estimate D2E/DX2                !
 ! D27   D(5,6,7,16)          -172.8339         estimate D2E/DX2                !
 ! D28   D(20,6,7,8)            68.9314         estimate D2E/DX2                !
 ! D29   D(20,6,7,12)         -171.3496         estimate D2E/DX2                !
 ! D30   D(20,6,7,16)          -50.7852         estimate D2E/DX2                !
 ! D31   D(35,6,7,8)          -175.1903         estimate D2E/DX2                !
 ! D32   D(35,6,7,12)          -55.4714         estimate D2E/DX2                !
 ! D33   D(35,6,7,16)           65.093          estimate D2E/DX2                !
 ! D34   D(6,7,8,9)             57.3001         estimate D2E/DX2                !
 ! D35   D(6,7,8,10)           -62.0581         estimate D2E/DX2                !
 ! D36   D(6,7,8,11)          -171.9657         estimate D2E/DX2                !
 ! D37   D(12,7,8,9)           -60.3531         estimate D2E/DX2                !
 ! D38   D(12,7,8,10)         -179.7114         estimate D2E/DX2                !
 ! D39   D(12,7,8,11)           70.381          estimate D2E/DX2                !
 ! D40   D(16,7,8,9)           176.1672         estimate D2E/DX2                !
 ! D41   D(16,7,8,10)           56.8089         estimate D2E/DX2                !
 ! D42   D(16,7,8,11)          -53.0987         estimate D2E/DX2                !
 ! D43   D(6,7,12,13)          -65.5476         estimate D2E/DX2                !
 ! D44   D(6,7,12,14)          171.338          estimate D2E/DX2                !
 ! D45   D(6,7,12,15)           52.4592         estimate D2E/DX2                !
 ! D46   D(8,7,12,13)           54.8412         estimate D2E/DX2                !
 ! D47   D(8,7,12,14)          -68.2732         estimate D2E/DX2                !
 ! D48   D(8,7,12,15)          172.848          estimate D2E/DX2                !
 ! D49   D(16,7,12,13)         176.6536         estimate D2E/DX2                !
 ! D50   D(16,7,12,14)          53.5392         estimate D2E/DX2                !
 ! D51   D(16,7,12,15)         -65.3396         estimate D2E/DX2                !
 ! D52   D(6,7,16,17)           56.3094         estimate D2E/DX2                !
 ! D53   D(6,7,16,18)          -70.4721         estimate D2E/DX2                !
 ! D54   D(6,7,16,19)          173.6898         estimate D2E/DX2                !
 ! D55   D(8,7,16,17)          -64.4866         estimate D2E/DX2                !
 ! D56   D(8,7,16,18)          168.7319         estimate D2E/DX2                !
 ! D57   D(8,7,16,19)           52.8938         estimate D2E/DX2                !
 ! D58   D(12,7,16,17)         173.3138         estimate D2E/DX2                !
 ! D59   D(12,7,16,18)          46.5323         estimate D2E/DX2                !
 ! D60   D(12,7,16,19)         -69.3058         estimate D2E/DX2                !
 ! D61   D(5,22,24,25)         -30.0708         estimate D2E/DX2                !
 ! D62   D(5,22,24,33)         147.4075         estimate D2E/DX2                !
 ! D63   D(23,22,24,25)        152.0746         estimate D2E/DX2                !
 ! D64   D(23,22,24,33)        -30.4471         estimate D2E/DX2                !
 ! D65   D(22,24,25,26)          1.157          estimate D2E/DX2                !
 ! D66   D(22,24,25,27)       -176.3133         estimate D2E/DX2                !
 ! D67   D(33,24,25,26)       -176.3549         estimate D2E/DX2                !
 ! D68   D(33,24,25,27)          6.1748         estimate D2E/DX2                !
 ! D69   D(22,24,33,31)        179.1786         estimate D2E/DX2                !
 ! D70   D(22,24,33,34)         -0.388          estimate D2E/DX2                !
 ! D71   D(25,24,33,31)         -3.2167         estimate D2E/DX2                !
 ! D72   D(25,24,33,34)        177.2167         estimate D2E/DX2                !
 ! D73   D(24,25,27,28)       -177.6046         estimate D2E/DX2                !
 ! D74   D(24,25,27,29)         -0.8692         estimate D2E/DX2                !
 ! D75   D(26,25,27,28)          4.7707         estimate D2E/DX2                !
 ! D76   D(26,25,27,29)       -178.4939         estimate D2E/DX2                !
 ! D77   D(25,27,29,30)       -174.8189         estimate D2E/DX2                !
 ! D78   D(25,27,29,31)         -7.6616         estimate D2E/DX2                !
 ! D79   D(28,27,29,30)          2.0306         estimate D2E/DX2                !
 ! D80   D(28,27,29,31)        169.1879         estimate D2E/DX2                !
 ! D81   D(27,29,31,32)        172.9537         estimate D2E/DX2                !
 ! D82   D(27,29,31,33)         10.3252         estimate D2E/DX2                !
 ! D83   D(30,29,31,32)        -19.6234         estimate D2E/DX2                !
 ! D84   D(30,29,31,33)        177.7481         estimate D2E/DX2                !
 ! D85   D(29,31,33,24)         -4.6773         estimate D2E/DX2                !
 ! D86   D(29,31,33,34)        174.8841         estimate D2E/DX2                !
 ! D87   D(32,31,33,24)       -166.9594         estimate D2E/DX2                !
 ! D88   D(32,31,33,34)         12.602          estimate D2E/DX2                !
 --------------------------------------------------------------------------------
 Trust Radius=3.00D-01 FncErr=1.00D-07 GrdErr=1.00D-06 EigMax=2.50D+02 EigMin=1.00D-04
 Number of steps in this run=    196 maximum allowed number of steps=    210.
 GradGradGradGradGradGradGradGradGradGradGradGradGradGradGradGradGradGrad

 Leave Link  103 at Sun Jul 18 16:31:13 2021, MaxMem=   104857600 cpu:               0.0 elap:               0.0
 (Enter /dades/curu/g16A03_MST/g16/l202.exe)
                          Input orientation:                          
 ---------------------------------------------------------------------
 Center     Atomic      Atomic             Coordinates (Angstroms)
 Number     Number       Type             X           Y           Z
 ---------------------------------------------------------------------
      1          6           0       -0.600000   -1.184000    2.498000
      2          1           0       -0.643000   -0.453000    3.308000
      3          1           0       -0.120000   -2.124000    2.779000
      4          1           0       -1.625000   -1.550000    2.403000
      5          6           0       -0.047000   -0.597000    1.189000
      6          7           0        1.380000   -0.392000    1.487000
      7          6           0        2.164000    0.650000    0.659000
      8          6           0        2.004000    0.383000   -0.876000
      9          1           0        0.990000    0.367000   -1.281000
     10          1           0        2.436000   -0.605000   -1.047000
     11          1           0        2.681000    1.044000   -1.421000
     12          6           0        1.588000    1.999000    1.010000
     13          1           0        0.550000    2.117000    0.692000
     14          1           0        2.151000    2.843000    0.606000
     15          1           0        1.630000    2.028000    2.101000
     16          6           0        3.675000    0.535000    1.049000
     17          1           0        4.138000   -0.447000    0.932000
     18          1           0        3.814000    0.914000    2.064000
     19          1           0        4.146000    1.216000    0.338000
     20          1           0        1.840000   -1.273000    1.376000
     21          1           0       -0.382000    0.418000    0.957000
     22          6           0       -0.482000   -1.409000   -0.126000
     23          8           0        0.132000   -2.460000   -0.443000
     24          6           0       -1.593000   -0.820000   -0.939000
     25          6           0       -2.623000   -0.046000   -0.376000
     26          1           0       -2.651000    0.179000    0.687000
     27          6           0       -3.675000    0.433000   -1.091000
     28         17           0       -4.880000    1.412000   -0.422000
     29          6           0       -3.696000    0.133000   -2.483000
     30          1           0       -4.471000    0.565000   -3.111000
     31          6           0       -2.613000   -0.482000   -3.130000
     32          1           0       -2.720000   -0.795000   -4.166000
     33          6           0       -1.592000   -0.995000   -2.319000
     34          1           0       -0.775000   -1.553000   -2.770000
     35          1           0        1.452000   -0.128000    2.449000
 ---------------------------------------------------------------------
                    Distance matrix (angstroms):
                    1          2          3          4          5
     1  C    0.000000
     2  H    1.091929   0.000000
     3  H    1.092228   1.829101   0.000000
     4  H    1.092523   1.728224   1.654049   0.000000
     5  C    1.537485   2.205927   2.205710   2.207281   0.000000
     6  N    2.360039   2.722552   2.630416   3.348141   1.472127
     7  C    3.792779   4.014107   4.172066   4.715724   2.593151
     8  C    4.540945   5.021092   4.914819   5.259085   3.071030
     9  H    4.383440   4.939434   4.890888   4.907644   2.847027
    10  H    4.703144   5.335670   4.845490   5.411769   3.341414
    11  H    5.575617   5.971049   5.960019   6.316126   4.116669
    12  C    4.139200   4.033667   4.800599   4.985902   3.073188
    13  H    3.934557   3.856372   4.773945   4.594022   2.822980
    14  H    5.231099   5.096161   5.877964   6.065133   4.123675
    15  H    3.930325   3.574736   4.556456   4.846474   3.245720
    16  C    4.830133   4.972358   4.946231   5.854105   3.892853
    17  H    5.044221   5.338855   4.935008   6.049183   4.195566
    18  H    4.906461   4.825047   5.021656   5.980714   4.237460
    19  H    5.740219   5.877158   5.942461   6.724539   4.646764
    20  H    2.687081   3.251202   2.556210   3.624594   2.013135
    21  H    2.233519   2.520707   3.138486   2.740253   1.093743
    22  C    2.636271   3.568223   3.013519   2.778879   1.605551
    23  O    3.288386   4.324196   3.249259   3.466247   2.483190
    24  C    3.596041   4.367402   4.206384   3.420948   2.639740
    25  C    3.694245   4.202131   4.531790   3.313738   3.064083
    26  H    3.056811   3.361715   4.010765   2.643250   2.763150
    27  C    4.995121   5.415646   5.844072   4.510302   4.407004
    28  Cl   5.795172   5.945023   6.738494   5.229636   5.476248
    29  C    6.010829   6.572662   6.750590   5.567273   5.227971
    30  H    7.035945   7.542776   7.800899   6.555695   6.277899
    31  C    6.018252   6.732725   6.620234   5.721089   5.025071
    32  H    7.003900   7.764765   7.533875   6.702299   5.988335
    33  C    4.921715   5.732146   5.425037   4.754619   3.853763
    34  H    5.283806   6.178148   5.616624   5.242370   4.137342
    35  H    2.308298   2.287473   2.562050   3.390004   2.013594
                    6          7          8          9         10
     6  N    0.000000
     7  C    1.544670   0.000000
     8  C    2.563936   1.566242   0.000000
     9  H    2.896551   2.285162   1.092006   0.000000
    10  H    2.753482   2.135286   1.091792   1.757969   0.000000
    11  H    3.494447   2.179203   1.091913   1.826858   1.708538
    12  C    2.446972   1.508237   2.518235   2.875710   3.425079
    13  H    2.759711   2.181324   2.753088   2.673729   3.740374
    14  H    3.440324   2.193679   2.875680   3.322539   3.834363
    15  H    2.509162   2.064801   3.421758   3.821838   4.182371
    16  C    2.513603   1.564751   2.553619   3.558981   2.688482
    17  H    2.813826   2.274778   2.917485   3.933175   2.614997
    18  H    2.821865   2.183168   3.493088   4.411713   3.726200
    19  H    3.399503   2.086078   2.599202   3.647232   2.856285
    20  H    1.000041   2.077738   2.800131   3.236008   2.583093
    21  H    2.010384   2.573858   3.009005   2.625572   3.606060
    22  C    2.665165   3.443403   3.154990   2.579726   3.163761
    23  O    3.091768   3.874987   3.431402   3.070885   3.018983
    24  C    3.861009   4.339303   3.793361   2.863184   4.036178
    25  C    4.428825   4.946818   4.673668   3.747448   5.133829
    26  H    4.149097   4.838063   4.914632   4.143097   5.431296
    27  C    5.734085   6.099468   5.683288   4.669334   6.198685
    28  Cl   6.788689   7.167087   6.975272   6.023853   7.614642
    29  C    6.465470   6.669262   5.927474   4.843362   6.340991
    30  H    7.502776   7.631733   6.852297   5.762866   7.303126
    31  C    6.104821   6.201425   5.210128   4.137779   5.463188
    32  H    6.994914   7.015847   5.876050   4.841236   6.028980
    33  C    4.866418   5.067746   4.112463   3.098260   4.242036
    34  H    4.910600   5.024835   3.880486   3.003123   3.765362
    35  H    1.000162   2.077577   3.409025   3.790959   3.663032
                   11         12         13         14         15
    11  H    0.000000
    12  C    2.831331   0.000000
    13  H    3.187045   1.092013   0.000000
    14  H    2.761527   1.092026   1.760021   0.000000
    15  H    3.804910   1.092193   1.777527   1.780643   0.000000
    16  C    2.710723   2.549585   3.520767   2.801016   2.741857
    17  H    3.143651   3.534332   4.416496   3.857272   3.712445
    18  H    3.666853   2.691323   3.739424   2.934685   2.451983
    19  H    2.295624   2.758267   3.724021   2.588238   3.177699
    20  H    3.728133   3.302036   3.691078   4.198938   3.386196
    21  H    3.927942   2.526513   1.955876   3.524190   2.819394
    22  C    4.206995   4.146066   3.763884   5.054505   4.607933
    23  O    4.442060   4.910583   4.734119   5.770491   5.371972
    24  C    4.687632   4.675909   3.984793   5.460964   5.266919
    25  C    5.514757   4.882166   3.985865   5.665838   5.340881
    26  H    5.798458   4.624484   3.741961   5.492054   4.872900
    27  C    6.393822   5.879262   4.885240   6.529180   6.393427
    28  Cl   7.635584   6.650580   5.587747   7.248414   7.008929
    29  C    6.528698   6.603307   5.660865   7.146568   7.278074
    30  H    7.364553   7.466624   6.487061   7.928194   8.156440
    31  C    5.768517   6.398700   5.600630   6.907171   7.187942
    32  H    6.331489   7.290835   6.540092   7.728756   8.134317
    33  C    4.818968   5.491692   4.831028   6.107038   6.249497
    34  H    4.528592   5.699901   5.216318   6.267668   6.506476
    35  H    4.226219   2.571643   2.990097   3.565402   2.191147
                   16         17         18         19         20
    16  C    0.000000
    17  H    1.091962   0.000000
    18  H    1.092331   1.799645   0.000000
    19  H    1.091386   1.765919   1.783397   0.000000
    20  H    2.596732   2.481978   3.025391   3.548267   0.000000
    21  H    4.059729   4.602092   4.367823   4.639262   2.823531
    22  C    4.737131   4.836239   5.352387   5.340815   2.768787
    23  O    4.873288   4.689438   5.588027   5.498648   2.763149
    24  C    5.791372   6.040210   6.423427   6.221909   4.165324
    25  C    6.483285   6.898028   6.950552   6.922557   4.949081
    26  H    6.346342   6.822201   6.650758   6.884503   4.769917
    27  C    7.655880   8.118491   8.140670   7.988941   6.277878
    28  Cl   8.724735   9.306639   9.056149   9.060060   7.456570
    29  C    8.183414   8.565640   8.813925   8.404040   6.893186
    30  H    9.146793   9.564773   9.774643   9.304412   7.958652
    31  C    7.618220   7.878900   8.380500   7.784235   6.384272
    32  H    8.358298   8.552361   9.188402   8.454117   7.192764
    33  C    6.436273   6.610764   7.216634   6.698717   5.050637
    34  H    6.224709   6.250249   7.107219   6.445407   4.909780
    35  H    2.709483   3.101233   2.610179   3.676995   1.616446
                   21         22         23         24         25
    21  H    0.000000
    22  C    2.126222   0.000000
    23  O    3.241463   1.257810   0.000000
    24  C    2.567875   1.497401   2.431304   0.000000
    25  C    2.648446   2.550324   3.663592   1.406039   0.000000
    26  H    2.297473   2.808429   3.998288   2.182027   1.086912
    27  C    3.877935   3.810438   4.825205   2.434715   1.359180
    28  Cl   4.808501   5.233360   6.333480   4.006680   2.687365
    29  C    4.785125   4.273524   5.053596   2.777545   2.371248
    30  H    5.769762   5.359013   6.120168   3.862472   3.356881
    31  C    4.742460   3.797961   4.320588   2.440312   2.788317
    32  H    5.760446   4.659103   4.976631   3.418228   3.864519
    33  C    3.767339   2.492538   2.939010   1.391052   2.395582
    34  H    4.234362   2.664080   2.657109   2.135175   3.378963
    35  H    2.426466   3.465825   3.942625   4.607541   4.959130
                   26         27         28         29         30
    26  H    0.000000
    27  C    2.067456   0.000000
    28  Cl   2.778239   1.690570   0.000000
    29  C    3.338119   1.424116   2.699151   0.000000
    30  H    4.229208   2.175187   2.848756   1.087029   0.000000
    31  C    3.873997   2.474387   4.007467   1.403468   2.132776
    32  H    4.950257   3.446104   4.853245   2.155516   2.455326
    33  C    3.396438   2.808212   4.494797   2.392926   3.368903
    34  H    4.297679   3.895284   5.581698   3.384849   4.273479
    35  H    4.475880   6.255593   7.120988   7.134049   8.153268
                   31         32         33         34         35
    31  C    0.000000
    32  H    1.087527   0.000000
    33  C    1.401189   2.173429   0.000000
    34  H    2.157518   2.511256   1.087315   0.000000
    35  H    6.911930   7.849121   5.722888   5.850480   0.000000
 Stoichiometry    C13H19ClNO(1+)
 Framework group  C1[X(C13H19ClNO)]
 Deg. of freedom    99
 Full point group                 C1      NOp   1
 Largest Abelian subgroup         C1      NOp   1
 Largest concise Abelian subgroup C1      NOp   1
                         Standard orientation:                         
 ---------------------------------------------------------------------
 Center     Atomic      Atomic             Coordinates (Angstroms)
 Number     Number       Type             X           Y           Z
 ---------------------------------------------------------------------
      1          6           0       -1.195029   -1.562648    2.160288
      2          1           0       -1.409816   -2.601039    1.899673
      3          1           0       -1.783635   -1.189557    3.001304
      4          1           0       -0.219608   -1.598279    2.651095
      5          6           0       -1.223079   -0.621113    0.945141
      6          7           0       -2.652892   -0.556595    0.600713
      7          6           0       -3.047264   -0.168272   -0.841397
      8          6           0       -2.366175    1.176382   -1.267002
      9          1           0       -1.276179    1.224762   -1.221768
     10          1           0       -2.752072    1.930005   -0.577695
     11          1           0       -2.777218    1.490573   -2.228564
     12          6           0       -2.574887   -1.289624   -1.732581
     13          1           0       -1.487450   -1.385821   -1.759401
     14          1           0       -2.921387   -1.214423   -2.765442
     15          1           0       -2.998925   -2.186353   -1.275465
     16          6           0       -4.601971    0.003423   -0.884438
     17          1           0       -5.035679    0.718718   -0.182561
     18          1           0       -5.074585   -0.976409   -0.785679
     19          1           0       -4.760942    0.384570   -1.894674
     20          1           0       -3.081547    0.102909    1.218282
     21          1           0       -0.784037   -1.029817    0.030550
     22          6           0       -0.386510    0.733956    1.149431
     23          8           0       -0.893515    1.690806    1.789330
     24          6           0        0.964686    0.789374    0.506462
     25          6           0        1.761315   -0.351622    0.305322
     26          1           0        1.421074   -1.342574    0.594509
     27          6           0        3.017946   -0.305117   -0.210512
     28         17           0        3.949447   -1.684843   -0.504943
     29          6           0        3.517137    0.978609   -0.572398
     30          1           0        4.482147    1.056712   -1.066654
     31          6           0        2.707601    2.124983   -0.558208
     32          1           0        3.160606    3.098553   -0.730433
     33          6           0        1.444490    2.007694    0.036877
     34          1           0        0.816590    2.888666    0.145889
     35          1           0       -3.049135   -1.455298    0.789519
 ---------------------------------------------------------------------
 Rotational constants (GHZ):           0.7399270           0.2442105           0.2302413
 Leave Link  202 at Sun Jul 18 16:31:13 2021, MaxMem=   104857600 cpu:               0.0 elap:               0.0
 (Enter /dades/curu/g16A03_MST/g16/l301.exe)
 Standard basis: 6-31G(d) (6D, 7F)
 Ernie: Thresh=  0.10000D-02 Tol=  0.10000D-05 Strict=F.
 There are   282 symmetry adapted cartesian basis functions of A   symmetry.
 There are   282 symmetry adapted basis functions of A   symmetry.
   282 basis functions,   548 primitive gaussians,   282 cartesian basis functions
    64 alpha electrons       64 beta electrons
       nuclear repulsion energy      1225.1206947329 Hartrees.
 IExCor=  402 DFT=T Ex+Corr=B3LYP ExCW=0 ScaHFX=  0.200000
 ScaDFX=  0.800000  0.720000  1.000000  0.810000 ScalE2=  1.000000  1.000000
 IRadAn=      5 IRanWt=     -1 IRanGd=            0 ICorTp=0 IEmpDi=  4
 NAtoms=   35 NActive=   35 NUniq=   35 SFac= 1.00D+00 NAtFMM=   60 NAOKFM=F Big=F
 Integral buffers will be    131072 words long.
 Raffenetti 2 integral format.
 Two-electron integral symmetry is turned on.
 Using the following non-standard input for PCM:
 MSTModel=DFT cav MSTCharged
 --- end of non-standard input.
 MST model for solvation energy: B3LYP parametrization.
 MST cavity parameters:
 ISph   IAn     Re0     Alpha   Atom Type   QCorr
 ------------------------------------------------
   1      6     1.50     1.50      CH3        F
   2      1     1.20     1.50      CH3        F
   3      1     1.20     1.50      CH3        F
   4      1     1.20     1.50      CH3        F
   5      6     1.50     1.50      CN+        F
   6      7     1.50     1.15      NH+        T
   7      6     1.50     1.50      CN+        F
   8      6     1.50     1.50      CH3        F
   9      1     1.20     1.50      CH3        F
  10      1     1.20     1.50      CH3        F
  11      1     1.20     1.50      CH3        F
  12      6     1.50     1.50      CH3        F
  13      1     1.20     1.50      CH3        F
  14      1     1.20     1.50      CH3        F
  15      1     1.20     1.50      CH3        F
  16      6     1.50     1.50      CH3        F
  17      1     1.20     1.50      CH3        F
  18      1     1.20     1.50      CH3        F
  19      1     1.20     1.50      CH3        F
  20      1     0.90     1.15      NH+        T
  21      1     1.20     1.50      CN+        F
  22      6     1.50     1.50      C          F
  23      8     1.40     1.50      O          F
  24      6     1.50     1.50      C          F
  25      6     1.50     1.50      CH         F
  26      1     1.20     1.50      CH         F
  27      6     1.50     1.50      C          F
  28     17     1.80     1.50      Cl         F
  29      6     1.50     1.50      CH         F
  30      1     1.20     1.50      CH         F
  31      6     1.50     1.50      CH         F
  32      1     1.20     1.50      CH         F
  33      6     1.50     1.50      CH         F
  34      1     1.20     1.50      CH         F
  35      1     0.90     1.15      NH+        T
 ------------------------------------------------------------------------------
 Polarizable Continuum Model (PCM)
 =================================
 Model                : PCM.
 Atomic radii         : MST.
 Polarization charges : Total charges.
 Charge compensation  : None.
 Solution method      : On-the-fly selection.
 Cavity type          : Scaled VdW (van der Waals Surface) (Alpha=1.500).
 Cavity algorithm     : GePol (No added spheres)
                        Default sphere list used, NSphG=   35.
                        Lebedev-Laikov grids with approx.  5.0 points / Ang**2.
                        Smoothing algorithm: York/Karplus (Gamma=1.0000).
                        Polarization charges: spherical gaussians, with
                                              point-specific exponents (IZeta= 3).
                        Self-potential: point-specific (ISelfS= 7).
                        Self-field    : sphere-specific E.n sum rule (ISelfD= 2).
 1st derivatives      : Analytical E(r).r(x)/FMM algorithm (CHGder, D1EAlg=3).
                        Cavity 1st derivative terms included.
 Solvent              : n-Octanol, Eps=   9.862900 Eps(inf)=   2.043470
 ------------------------------------------------------------------------------
 GePol: Number of generator spheres                  =      35
 GePol: Total number of spheres                      =      35
 GePol: Number of exposed spheres                    =      35 (100.00%)
 GePol: Number of points                             =    3276
 GePol: Average weight of points                     =       0.11
 GePol: Minimum weight of points                     =   0.82D-10
 GePol: Maximum weight of points                     =    0.21373
 GePol: Number of points with low weight             =     190
 GePol: Fraction of low-weight points (<1% of avg)   =       5.80%
 GePol: Cavity surface area                          =    363.929 Ang**2
 GePol: Cavity volume                                =    429.056 Ang**3
 Surface areas from nonelectrostatic (unscaled) cavity and vdw tensions:
 Sphere =    1 Type =  CH3 Surf =        4.961 Tension =       -0.183
 Sphere =    2 Type =  CH3 Surf =       10.148 Tension =       -0.183
 Sphere =    3 Type =  CH3 Surf =       10.051 Tension =       -0.183
 Sphere =    4 Type =  CH3 Surf =       10.004 Tension =       -0.183
 Sphere =    5 Type =  CN+ Surf =        3.254 Tension =       -0.227
 Sphere =    6 Type =  NH+ Surf =        7.088 Tension =       -0.274
 Sphere =    7 Type =  CN+ Surf =        1.693 Tension =       -0.227
 Sphere =    8 Type =  CH3 Surf =        5.019 Tension =       -0.183
 Sphere =    9 Type =  CH3 Surf =        9.735 Tension =       -0.183
 Sphere =   10 Type =  CH3 Surf =        9.949 Tension =       -0.183
 Sphere =   11 Type =  CH3 Surf =        9.786 Tension =       -0.183
 Sphere =   12 Type =  CH3 Surf =        4.544 Tension =       -0.183
 Sphere =   13 Type =  CH3 Surf =        8.661 Tension =       -0.183
 Sphere =   14 Type =  CH3 Surf =       10.160 Tension =       -0.183
 Sphere =   15 Type =  CH3 Surf =        9.744 Tension =       -0.183
 Sphere =   16 Type =  CH3 Surf =        5.047 Tension =       -0.183
 Sphere =   17 Type =  CH3 Surf =       10.215 Tension =       -0.183
 Sphere =   18 Type =  CH3 Surf =       10.088 Tension =       -0.183
 Sphere =   19 Type =  CH3 Surf =        9.565 Tension =       -0.183
 Sphere =   20 Type =  NH+ Surf =        3.844 Tension =       -0.274
 Sphere =   21 Type =  CN+ Surf =        7.140 Tension =       -0.227
 Sphere =   22 Type =  C   Surf =        6.769 Tension =       -0.205
 Sphere =   23 Type =  O   Surf =       16.652 Tension =       -0.185
 Sphere =   24 Type =  C   Surf =        6.272 Tension =       -0.205
 Sphere =   25 Type =  CH  Surf =        7.206 Tension =       -0.195
 Sphere =   26 Type =  CH  Surf =        9.554 Tension =       -0.195
 Sphere =   27 Type =  C   Surf =        5.124 Tension =       -0.205
 Sphere =   28 Type =  Cl  Surf =       32.151 Tension =       -0.163
 Sphere =   29 Type =  CH  Surf =        7.585 Tension =       -0.195
 Sphere =   30 Type =  CH  Surf =       10.072 Tension =       -0.195
 Sphere =   31 Type =  CH  Surf =        7.949 Tension =       -0.195
 Sphere =   32 Type =  CH  Surf =       10.249 Tension =       -0.195
 Sphere =   33 Type =  CH  Surf =        7.638 Tension =       -0.195
 Sphere =   34 Type =  CH  Surf =       10.168 Tension =       -0.195
 Sphere =   35 Type =  NH+ Surf =        3.783 Tension =       -0.274
 PCM non-electrostatic energy =        -0.0134681047 Hartrees.
 Nuclear repulsion after PCM non-electrostatic terms =     1225.1072266283 Hartrees.
 Leave Link  301 at Sun Jul 18 16:31:13 2021, MaxMem=   104857600 cpu:               0.2 elap:               0.1
 (Enter /dades/curu/g16A03_MST/g16/l302.exe)
 NPDir=0 NMtPBC=     1 NCelOv=     1 NCel=       1 NClECP=     1 NCelD=      1
         NCelK=      1 NCelE2=     1 NClLst=     1 CellRange=     0.0.
 One-electron integrals computed using PRISM.
 One-electron integral symmetry used in STVInt
 NBasis=   282 RedAO= T EigKep=  5.30D-04  NBF=   282
 NBsUse=   282 1.00D-06 EigRej= -1.00D+00 NBFU=   282
 Precomputing XC quadrature grid using
 IXCGrd= 4 IRadAn=           5 IRanWt=          -1 IRanGd=           0 AccXCQ= 0.00D+00.
 Generated NRdTot=       0 NPtTot=           0 NUsed=           0 NTot=          32
 NSgBfM=   281   281   281   281   281 MxSgAt=    35 MxSgA2=    35.
 Leave Link  302 at Sun Jul 18 16:31:14 2021, MaxMem=   104857600 cpu:               4.4 elap:               1.2
 (Enter /dades/curu/g16A03_MST/g16/l303.exe)
 DipDrv:  MaxL=1.
 Leave Link  303 at Sun Jul 18 16:31:14 2021, MaxMem=   104857600 cpu:               0.1 elap:               0.1
 (Enter /dades/curu/g16A03_MST/g16/l401.exe)
 ExpMin= 1.43D-01 ExpMax= 2.52D+04 ExpMxC= 3.78D+03 IAcc=3 IRadAn=         5 AccDes= 0.00D+00
 Harris functional with IExCor=  402 and IRadAn=       5 diagonalized for initial guess.
 HarFok:  IExCor=  402 AccDes= 0.00D+00 IRadAn=         5 IDoV= 1 UseB2=F ITyADJ=14
 ICtDFT=  3500011 ScaDFX=  1.000000  1.000000  1.000000  1.000000
 FoFCou: FMM=F IPFlag=           0 FMFlag=      100000 FMFlg1=           0
         NFxFlg=           0 DoJE=T BraDBF=F KetDBF=T FulRan=T
         wScrn=  0.000000 ICntrl=       500 IOpCl=  0 I1Cent=   200000004 NGrid=           0
         NMat0=    1 NMatS0=      1 NMatT0=    0 NMatD0=    1 NMtDS0=    0 NMtDT0=    0
 Petite list used in FoFCou.
 Harris En= -1096.74805194280    
 JPrj=0 DoOrth=F DoCkMO=F.
 Leave Link  401 at Sun Jul 18 16:31:22 2021, MaxMem=   104857600 cpu:              30.3 elap:               7.6
 (Enter /dades/curu/g16A03_MST/g16/l502.exe)
 Integral symmetry usage will be decided dynamically.
 Closed shell SCF:
 Using DIIS extrapolation, IDIIS=  1040.
 NGot=   104857600 LenX=   104693526 LenY=   104613561
 Requested convergence on RMS density matrix=1.00D-08 within 128 cycles.
 Requested convergence on MAX density matrix=1.00D-06.
 Requested convergence on             energy=1.00D-06.
 No special actions if energy rises.
 Fock matrices will be formed incrementally for  20 cycles.

 Cycle   1  Pass 1  IDiag  1:
 FoFJK:  IHMeth= 1 ICntrl=       0 DoSepK=F KAlg= 0 I1Cent=           0 FoldK=F
 IRaf= 860000000 NMat=       1 IRICut=       1 DoRegI=T DoRafI=F ISym2E= 0 IDoP0=0 IntGTp=1.
 FoFCou: FMM=F IPFlag=           0 FMFlag=      100000 FMFlg1=           0
         NFxFlg=           0 DoJE=F BraDBF=F KetDBF=F FulRan=T
         wScrn=  0.000000 ICntrl=         0 IOpCl=  0 I1Cent=           0 NGrid=           0
         NMat0=    1 NMatS0=      1 NMatT0=    0 NMatD0=    1 NMtDS0=    0 NMtDT0=    0
 Symmetry not used in FoFCou.
 Inv3:  Mode=1 IEnd=    32196528.
 Iteration    1 A*A^-1 deviation from unit magnitude is 6.11D-15 for   1625.
 Iteration    1 A*A^-1 deviation from orthogonality  is 1.99D-15 for   2545    781.
 Iteration    1 A^-1*A deviation from unit magnitude is 6.00D-15 for   1620.
 Iteration    1 A^-1*A deviation from orthogonality  is 2.12D-15 for   2258   2109.
 E= -1096.39059126000    
 DIIS: error= 3.41D-02 at cycle   1 NSaved=   1.
 NSaved= 1 IEnMin= 1 EnMin= -1096.39059126000     IErMin= 1 ErrMin= 3.41D-02
 ErrMax= 3.41D-02  0.00D+00 EMaxC= 1.00D-01 BMatC= 4.44D-01 BMatP= 4.44D-01
 IDIUse=3 WtCom= 6.59D-01 WtEn= 3.41D-01
 Coeff-Com:  0.100D+01
 Coeff-En:   0.100D+01
 Coeff:      0.100D+01
 Gap=     0.273 Goal=   None    Shift=    0.000
 GapD=    0.273 DampG=1.000 DampE=0.500 DampFc=0.5000 IDamp=-1.
 Damping current iteration by 5.00D-01
 RMSDP=5.18D-03 MaxDP=1.66D-01              OVMax= 2.30D-01

 Cycle   2  Pass 1  IDiag  1:
 RMSU=  2.56D-03    CP:  9.84D-01
 E= -1096.55998779065     Delta-E=       -0.169396530648 Rises=F Damp=T
 DIIS: error= 1.04D-02 at cycle   2 NSaved=   2.
 NSaved= 2 IEnMin= 2 EnMin= -1096.55998779065     IErMin= 2 ErrMin= 1.04D-02
 ErrMax= 1.04D-02  0.00D+00 EMaxC= 1.00D-01 BMatC= 4.58D-02 BMatP= 4.44D-01
 IDIUse=3 WtCom= 8.96D-01 WtEn= 1.04D-01
 Coeff-Com:  0.143D+00 0.857D+00
 Coeff-En:   0.220D+00 0.780D+00
 Coeff:      0.151D+00 0.849D+00
 Gap=     0.180 Goal=   None    Shift=    0.000
 RMSDP=1.46D-03 MaxDP=6.47D-02 DE=-1.69D-01 OVMax= 1.50D-01

 Cycle   3  Pass 1  IDiag  1:
 RMSU=  1.40D-03    CP:  9.76D-01  8.42D-01
 E= -1096.78393262473     Delta-E=       -0.223944834079 Rises=F Damp=F
 DIIS: error= 1.35D-02 at cycle   3 NSaved=   3.
 NSaved= 3 IEnMin= 3 EnMin= -1096.78393262473     IErMin= 2 ErrMin= 1.04D-02
 ErrMax= 1.35D-02  0.00D+00 EMaxC= 1.00D-01 BMatC= 5.33D-02 BMatP= 4.58D-02
 IDIUse=2 WtCom= 0.00D+00 WtEn= 1.00D+00
 Coeff-En:   0.000D+00 0.000D+00 0.100D+01
 Coeff:      0.000D+00 0.000D+00 0.100D+01
 Gap=     0.163 Goal=   None    Shift=    0.000
 RMSDP=2.44D-03 MaxDP=1.51D-01 DE=-2.24D-01 OVMax= 2.06D-01

 Cycle   4  Pass 1  IDiag  1:
 RMSU=  1.73D-03    CP:  9.81D-01  1.10D+00 -1.32D-01
 E= -1096.55376439488     Delta-E=        0.230168229857 Rises=F Damp=F
 DIIS: error= 3.51D-02 at cycle   4 NSaved=   4.
 NSaved= 4 IEnMin= 3 EnMin= -1096.78393262473     IErMin= 2 ErrMin= 1.04D-02
 ErrMax= 3.51D-02  0.00D+00 EMaxC= 1.00D-01 BMatC= 3.38D-01 BMatP= 4.58D-02
 IDIUse=2 WtCom= 0.00D+00 WtEn= 1.00D+00
 Coeff-En:   0.000D+00 0.000D+00 0.803D+00 0.197D+00
 Coeff:      0.000D+00 0.000D+00 0.803D+00 0.197D+00
 Gap=     0.174 Goal=   None    Shift=    0.000
 RMSDP=1.34D-03 MaxDP=7.66D-02 DE= 2.30D-01 OVMax= 8.48D-02

 Cycle   5  Pass 1  IDiag  1:
 RMSU=  2.39D-04    CP:  9.79D-01  9.23D-01  4.57D-01  4.64D-01
 E= -1096.80747234028     Delta-E=       -0.253707945407 Rises=F Damp=F
 DIIS: error= 9.57D-03 at cycle   5 NSaved=   5.
 NSaved= 5 IEnMin= 5 EnMin= -1096.80747234028     IErMin= 5 ErrMin= 9.57D-03
 ErrMax= 9.57D-03  0.00D+00 EMaxC= 1.00D-01 BMatC= 2.63D-02 BMatP= 4.58D-02
 IDIUse=3 WtCom= 9.04D-01 WtEn= 9.57D-02
 Coeff-Com: -0.706D-03 0.139D-01 0.327D+00-0.827D-01 0.743D+00
 Coeff-En:   0.000D+00 0.000D+00 0.366D+00 0.000D+00 0.634D+00
 Coeff:     -0.638D-03 0.125D-01 0.330D+00-0.748D-01 0.733D+00
 Gap=     0.172 Goal=   None    Shift=    0.000
 RMSDP=4.79D-04 MaxDP=2.99D-02 DE=-2.54D-01 OVMax= 2.51D-02

 Cycle   6  Pass 1  IDiag  1:
 RMSU=  6.38D-05    CP:  9.78D-01  8.80D-01  6.77D-01  2.69D-01  7.41D-01
 E= -1096.82883007793     Delta-E=       -0.021357737648 Rises=F Damp=F
 DIIS: error= 3.19D-04 at cycle   6 NSaved=   6.
 NSaved= 6 IEnMin= 6 EnMin= -1096.82883007793     IErMin= 6 ErrMin= 3.19D-04
 ErrMax= 3.19D-04  0.00D+00 EMaxC= 1.00D-01 BMatC= 5.31D-05 BMatP= 2.63D-02
 IDIUse=3 WtCom= 9.97D-01 WtEn= 3.19D-03
 Coeff-Com: -0.158D-02 0.660D-02 0.132D+00-0.533D-01 0.372D+00 0.544D+00
 Coeff-En:   0.000D+00 0.000D+00 0.000D+00 0.000D+00 0.000D+00 0.100D+01
 Coeff:     -0.157D-02 0.658D-02 0.132D+00-0.532D-01 0.371D+00 0.546D+00
 Gap=     0.171 Goal=   None    Shift=    0.000
 RMSDP=3.37D-05 MaxDP=1.54D-03 DE=-2.14D-02 OVMax= 4.29D-03

 Cycle   7  Pass 1  IDiag  1:
 RMSU=  1.95D-05    CP:  9.78D-01  8.83D-01  6.76D-01  2.72D-01  7.86D-01
                    CP:  6.36D-01
 E= -1096.82887759739     Delta-E=       -0.000047519457 Rises=F Damp=F
 DIIS: error= 1.50D-04 at cycle   7 NSaved=   7.
 NSaved= 7 IEnMin= 7 EnMin= -1096.82887759739     IErMin= 7 ErrMin= 1.50D-04
 ErrMax= 1.50D-04  0.00D+00 EMaxC= 1.00D-01 BMatC= 8.28D-06 BMatP= 5.31D-05
 IDIUse=3 WtCom= 9.98D-01 WtEn= 1.50D-03
 Coeff-Com: -0.284D-03 0.919D-03 0.441D-01-0.191D-01 0.124D+00 0.275D+00
 Coeff-Com:  0.575D+00
 Coeff-En:   0.000D+00 0.000D+00 0.000D+00 0.000D+00 0.000D+00 0.679D-01
 Coeff-En:   0.932D+00
 Coeff:     -0.284D-03 0.917D-03 0.441D-01-0.191D-01 0.124D+00 0.275D+00
 Coeff:      0.575D+00
 Gap=     0.171 Goal=   None    Shift=    0.000
 RMSDP=1.24D-05 MaxDP=4.43D-04 DE=-4.75D-05 OVMax= 1.25D-03

 Cycle   8  Pass 1  IDiag  1:
 RMSU=  7.44D-06    CP:  9.78D-01  8.82D-01  6.78D-01  2.70D-01  7.84D-01
                    CP:  6.85D-01  5.89D-01
 E= -1096.82888470421     Delta-E=       -0.000007106821 Rises=F Damp=F
 DIIS: error= 4.04D-05 at cycle   8 NSaved=   8.
 NSaved= 8 IEnMin= 8 EnMin= -1096.82888470421     IErMin= 8 ErrMin= 4.04D-05
 ErrMax= 4.04D-05  0.00D+00 EMaxC= 1.00D-01 BMatC= 1.23D-06 BMatP= 8.28D-06
 IDIUse=1 WtCom= 1.00D+00 WtEn= 0.00D+00
 Coeff-Com:  0.234D-03-0.985D-03 0.818D-02-0.289D-02 0.175D-01 0.842D-01
 Coeff-Com:  0.340D+00 0.554D+00
 Coeff:      0.234D-03-0.985D-03 0.818D-02-0.289D-02 0.175D-01 0.842D-01
 Coeff:      0.340D+00 0.554D+00
 Gap=     0.171 Goal=   None    Shift=    0.000
 RMSDP=4.32D-06 MaxDP=1.73D-04 DE=-7.11D-06 OVMax= 4.34D-04

 Cycle   9  Pass 1  IDiag  1:
 RMSU=  1.67D-06    CP:  9.78D-01  8.82D-01  6.79D-01  2.71D-01  7.83D-01
                    CP:  6.80D-01  7.02D-01  6.17D-01
 E= -1096.82888589479     Delta-E=       -0.000001190586 Rises=F Damp=F
 DIIS: error= 6.91D-06 at cycle   9 NSaved=   9.
 NSaved= 9 IEnMin= 9 EnMin= -1096.82888589479     IErMin= 9 ErrMin= 6.91D-06
 ErrMax= 6.91D-06  0.00D+00 EMaxC= 1.00D-01 BMatC= 3.02D-08 BMatP= 1.23D-06
 IDIUse=1 WtCom= 1.00D+00 WtEn= 0.00D+00
 Coeff-Com:  0.131D-03-0.460D-03 0.126D-02-0.266D-03 0.104D-02 0.224D-01
 Coeff-Com:  0.107D+00 0.226D+00 0.643D+00
 Coeff:      0.131D-03-0.460D-03 0.126D-02-0.266D-03 0.104D-02 0.224D-01
 Coeff:      0.107D+00 0.226D+00 0.643D+00
 Gap=     0.171 Goal=   None    Shift=    0.000
 RMSDP=7.84D-07 MaxDP=3.33D-05 DE=-1.19D-06 OVMax= 9.95D-05

 Cycle  10  Pass 1  IDiag  1:
 RMSU=  5.71D-07    CP:  9.78D-01  8.82D-01  6.79D-01  2.70D-01  7.82D-01
                    CP:  6.85D-01  7.01D-01  6.49D-01  7.84D-01
 E= -1096.82888592084     Delta-E=       -0.000000026050 Rises=F Damp=F
 DIIS: error= 2.20D-06 at cycle  10 NSaved=  10.
 NSaved=10 IEnMin=10 EnMin= -1096.82888592084     IErMin=10 ErrMin= 2.20D-06
 ErrMax= 2.20D-06  0.00D+00 EMaxC= 1.00D-01 BMatC= 4.82D-09 BMatP= 3.02D-08
 IDIUse=1 WtCom= 1.00D+00 WtEn= 0.00D+00
 Coeff-Com:  0.410D-04-0.116D-03-0.355D-03 0.151D-03-0.143D-02 0.293D-02
 Coeff-Com:  0.162D-01 0.522D-01 0.346D+00 0.585D+00
 Coeff:      0.410D-04-0.116D-03-0.355D-03 0.151D-03-0.143D-02 0.293D-02
 Coeff:      0.162D-01 0.522D-01 0.346D+00 0.585D+00
 Gap=     0.171 Goal=   None    Shift=    0.000
 RMSDP=2.76D-07 MaxDP=1.40D-05 DE=-2.60D-08 OVMax= 2.92D-05

 Cycle  11  Pass 1  IDiag  1:
 RMSU=  1.63D-07    CP:  9.78D-01  8.82D-01  6.79D-01  2.70D-01  7.82D-01
                    CP:  6.85D-01  7.04D-01  6.55D-01  8.38D-01  6.81D-01
 E= -1096.82888592508     Delta-E=       -0.000000004239 Rises=F Damp=F
 DIIS: error= 9.14D-07 at cycle  11 NSaved=  11.
 NSaved=11 IEnMin=11 EnMin= -1096.82888592508     IErMin=11 ErrMin= 9.14D-07
 ErrMax= 9.14D-07  0.00D+00 EMaxC= 1.00D-01 BMatC= 4.76D-10 BMatP= 4.82D-09
 IDIUse=1 WtCom= 1.00D+00 WtEn= 0.00D+00
 Coeff-Com:  0.119D-04-0.281D-04-0.343D-03 0.134D-03-0.987D-03-0.247D-04
 Coeff-Com: -0.708D-03 0.834D-02 0.137D+00 0.293D+00 0.564D+00
 Coeff:      0.119D-04-0.281D-04-0.343D-03 0.134D-03-0.987D-03-0.247D-04
 Coeff:     -0.708D-03 0.834D-02 0.137D+00 0.293D+00 0.564D+00
 Gap=     0.171 Goal=   None    Shift=    0.000
 RMSDP=1.06D-07 MaxDP=4.52D-06 DE=-4.24D-09 OVMax= 1.17D-05

 Cycle  12  Pass 1  IDiag  1:
 RMSU=  6.20D-08    CP:  9.78D-01  8.82D-01  6.79D-01  2.70D-01  7.82D-01
                    CP:  6.85D-01  7.04D-01  6.55D-01  8.53D-01  7.49D-01
                    CP:  6.13D-01
 E= -1096.82888592550     Delta-E=       -0.000000000416 Rises=F Damp=F
 DIIS: error= 6.13D-07 at cycle  12 NSaved=  12.
 NSaved=12 IEnMin=12 EnMin= -1096.82888592550     IErMin=12 ErrMin= 6.13D-07
 ErrMax= 6.13D-07  0.00D+00 EMaxC= 1.00D-01 BMatC= 9.83D-11 BMatP= 4.76D-10
 IDIUse=1 WtCom= 1.00D+00 WtEn= 0.00D+00
 Coeff-Com: -0.174D-05 0.521D-05-0.881D-04 0.303D-04-0.156D-03-0.917D-04
 Coeff-Com: -0.333D-02-0.525D-02 0.186D-01 0.540D-01 0.317D+00 0.620D+00
 Coeff:     -0.174D-05 0.521D-05-0.881D-04 0.303D-04-0.156D-03-0.917D-04
 Coeff:     -0.333D-02-0.525D-02 0.186D-01 0.540D-01 0.317D+00 0.620D+00
 Gap=     0.171 Goal=   None    Shift=    0.000
 RMSDP=4.23D-08 MaxDP=1.45D-06 DE=-4.16D-10 OVMax= 3.77D-06

 Cycle  13  Pass 1  IDiag  1:
 RMSU=  2.08D-08    CP:  9.78D-01  8.82D-01  6.79D-01  2.70D-01  7.82D-01
                    CP:  6.85D-01  7.04D-01  6.54D-01  8.59D-01  7.42D-01
                    CP:  7.30D-01  6.58D-01
 E= -1096.82888592558     Delta-E=       -0.000000000080 Rises=F Damp=F
 DIIS: error= 7.52D-08 at cycle  13 NSaved=  13.
 NSaved=13 IEnMin=13 EnMin= -1096.82888592558     IErMin=13 ErrMin= 7.52D-08
 ErrMax= 7.52D-08  0.00D+00 EMaxC= 1.00D-01 BMatC= 4.68D-12 BMatP= 9.83D-11
 IDIUse=1 WtCom= 1.00D+00 WtEn= 0.00D+00
 Coeff-Com: -0.221D-05 0.522D-05-0.101D-04 0.302D-05 0.198D-04-0.340D-04
 Coeff-Com: -0.164D-02-0.368D-02-0.585D-02-0.972D-02 0.866D-01 0.272D+00
 Coeff-Com:  0.662D+00
 Coeff:     -0.221D-05 0.522D-05-0.101D-04 0.302D-05 0.198D-04-0.340D-04
 Coeff:     -0.164D-02-0.368D-02-0.585D-02-0.972D-02 0.866D-01 0.272D+00
 Coeff:      0.662D+00
 Gap=     0.171 Goal=   None    Shift=    0.000
 RMSDP=9.65D-09 MaxDP=3.65D-07 DE=-7.96D-11 OVMax= 4.47D-07

 Error on total polarization charges =  0.00754
 SCF Done:  E(RB3LYP) =  -1096.82888593     A.U. after   13 cycles
            NFock= 13  Conv=0.97D-08     -V/T= 2.0070
 KE= 1.089173153709D+03 PE=-5.000623651273D+03 EE= 1.589514385010D+03
 Leave Link  502 at Sun Jul 18 16:35:06 2021, MaxMem=   104857600 cpu:             864.6 elap:             223.7
 (Enter /dades/curu/g16A03_MST/g16/l601.exe)
 Copying SCF densities to generalized density rwf, IOpCl= 0 IROHF=0.

 **********************************************************************

            Population analysis using the SCF density.

 **********************************************************************

 Orbital symmetries:
       Occupied  (A) (A) (A) (A) (A) (A) (A) (A) (A) (A) (A) (A)
                 (A) (A) (A) (A) (A) (A) (A) (A) (A) (A) (A) (A)
                 (A) (A) (A) (A) (A) (A) (A) (A) (A) (A) (A) (A)
                 (A) (A) (A) (A) (A) (A) (A) (A) (A) (A) (A) (A)
                 (A) (A) (A) (A) (A) (A) (A) (A) (A) (A) (A) (A)
                 (A) (A) (A) (A)
       Virtual   (A) (A) (A) (A) (A) (A) (A) (A) (A) (A) (A) (A)
                 (A) (A) (A) (A) (A) (A) (A) (A) (A) (A) (A) (A)
                 (A) (A) (A) (A) (A) (A) (A) (A) (A) (A) (A) (A)
                 (A) (A) (A) (A) (A) (A) (A) (A) (A) (A) (A) (A)
                 (A) (A) (A) (A) (A) (A) (A) (A) (A) (A) (A) (A)
                 (A) (A) (A) (A) (A) (A) (A) (A) (A) (A) (A) (A)
                 (A) (A) (A) (A) (A) (A) (A) (A) (A) (A) (A) (A)
                 (A) (A) (A) (A) (A) (A) (A) (A) (A) (A) (A) (A)
                 (A) (A) (A) (A) (A) (A) (A) (A) (A) (A) (A) (A)
                 (A) (A) (A) (A) (A) (A) (A) (A) (A) (A) (A) (A)
                 (A) (A) (A) (A) (A) (A) (A) (A) (A) (A) (A) (A)
                 (A) (A) (A) (A) (A) (A) (A) (A) (A) (A) (A) (A)
                 (A) (A) (A) (A) (A) (A) (A) (A) (A) (A) (A) (A)
                 (A) (A) (A) (A) (A) (A) (A) (A) (A) (A) (A) (A)
                 (A) (A) (A) (A) (A) (A) (A) (A) (A) (A) (A) (A)
                 (A) (A) (A) (A) (A) (A) (A) (A) (A) (A) (A) (A)
                 (A) (A) (A) (A) (A) (A) (A) (A) (A) (A) (A) (A)
                 (A) (A) (A) (A) (A) (A) (A) (A) (A) (A) (A) (A)
                 (A) (A)
 The electronic state is 1-A.
 Alpha  occ. eigenvalues -- -101.57743 -19.19134 -14.47960 -10.33785 -10.29673
 Alpha  occ. eigenvalues --  -10.29630 -10.27888 -10.24636 -10.23674 -10.23515
 Alpha  occ. eigenvalues --  -10.23247 -10.22913 -10.22852 -10.21868 -10.21665
 Alpha  occ. eigenvalues --  -10.21650  -9.49458  -7.25860  -7.24876  -7.24831
 Alpha  occ. eigenvalues --   -1.07010  -1.04770  -0.93101  -0.87654  -0.85821
 Alpha  occ. eigenvalues --   -0.81427  -0.78876  -0.76952  -0.74040  -0.73353
 Alpha  occ. eigenvalues --   -0.71011  -0.66940  -0.64002  -0.62877  -0.62652
 Alpha  occ. eigenvalues --   -0.59294  -0.55012  -0.53655  -0.52720  -0.50269
 Alpha  occ. eigenvalues --   -0.50094  -0.48272  -0.47515  -0.47274  -0.46664
 Alpha  occ. eigenvalues --   -0.46010  -0.45942  -0.44518  -0.43246  -0.42531
 Alpha  occ. eigenvalues --   -0.42058  -0.41990  -0.41105  -0.40464  -0.39901
 Alpha  occ. eigenvalues --   -0.39288  -0.38730  -0.37914  -0.36825  -0.36110
 Alpha  occ. eigenvalues --   -0.34016  -0.29832  -0.29232  -0.27389
 Alpha virt. eigenvalues --   -0.10266  -0.04159  -0.02264   0.02105   0.02301
 Alpha virt. eigenvalues --    0.06096   0.06466   0.07749   0.08036   0.09061
 Alpha virt. eigenvalues --    0.10124   0.11408   0.11763   0.12166   0.12413
 Alpha virt. eigenvalues --    0.13154   0.13473   0.13911   0.14783   0.15012
 Alpha virt. eigenvalues --    0.15519   0.16425   0.17181   0.18080   0.18469
 Alpha virt. eigenvalues --    0.18896   0.19397   0.19697   0.20045   0.21764
 Alpha virt. eigenvalues --    0.21843   0.23167   0.25389   0.25690   0.28906
 Alpha virt. eigenvalues --    0.31278   0.32610   0.37435   0.38860   0.40242
 Alpha virt. eigenvalues --    0.41912   0.44358   0.44661   0.45784   0.46525
 Alpha virt. eigenvalues --    0.47424   0.49076   0.49482   0.51169   0.51325
 Alpha virt. eigenvalues --    0.52246   0.52689   0.53720   0.54451   0.55674
 Alpha virt. eigenvalues --    0.56836   0.57289   0.58199   0.58410   0.58942
 Alpha virt. eigenvalues --    0.59856   0.61412   0.62974   0.64086   0.64907
 Alpha virt. eigenvalues --    0.65402   0.67016   0.68641   0.69964   0.71303
 Alpha virt. eigenvalues --    0.73348   0.73915   0.75193   0.78004   0.78548
 Alpha virt. eigenvalues --    0.79871   0.80123   0.80547   0.81843   0.82813
 Alpha virt. eigenvalues --    0.83634   0.84013   0.84291   0.84614   0.85667
 Alpha virt. eigenvalues --    0.85907   0.86507   0.87345   0.87725   0.88325
 Alpha virt. eigenvalues --    0.88889   0.89696   0.90136   0.90236   0.92229
 Alpha virt. eigenvalues --    0.92373   0.93770   0.94843   0.95322   0.96478
 Alpha virt. eigenvalues --    0.96971   0.97216   0.99100   1.00433   1.01803
 Alpha virt. eigenvalues --    1.03919   1.05468   1.05972   1.06942   1.09383
 Alpha virt. eigenvalues --    1.10231   1.11669   1.13894   1.15815   1.17046
 Alpha virt. eigenvalues --    1.21801   1.24703   1.26779   1.31286   1.32044
 Alpha virt. eigenvalues --    1.33332   1.35395   1.38059   1.40914   1.42209
 Alpha virt. eigenvalues --    1.44137   1.45674   1.46817   1.49563   1.51318
 Alpha virt. eigenvalues --    1.53058   1.54108   1.55840   1.60701   1.63540
 Alpha virt. eigenvalues --    1.66767   1.68453   1.70045   1.72575   1.73243
 Alpha virt. eigenvalues --    1.75021   1.76003   1.77045   1.78086   1.80497
 Alpha virt. eigenvalues --    1.83542   1.83898   1.85458   1.88286   1.89461
 Alpha virt. eigenvalues --    1.89771   1.92268   1.94781   1.95600   1.97984
 Alpha virt. eigenvalues --    1.99594   2.01377   2.02613   2.04841   2.05685
 Alpha virt. eigenvalues --    2.08978   2.10400   2.10764   2.11856   2.13419
 Alpha virt. eigenvalues --    2.13671   2.16765   2.19311   2.20862   2.22111
 Alpha virt. eigenvalues --    2.22313   2.24078   2.25208   2.26392   2.26766
 Alpha virt. eigenvalues --    2.27906   2.29085   2.31638   2.35630   2.37698
 Alpha virt. eigenvalues --    2.39803   2.43938   2.46833   2.52414   2.54225
 Alpha virt. eigenvalues --    2.55327   2.56983   2.58019   2.62186   2.63042
 Alpha virt. eigenvalues --    2.65417   2.66254   2.67993   2.71089   2.73100
 Alpha virt. eigenvalues --    2.76498   2.80026   2.81283   2.90480   2.93721
 Alpha virt. eigenvalues --    3.08606   3.32265   3.88249   4.02611   4.06366
 Alpha virt. eigenvalues --    4.07178   4.09386   4.16395   4.17349   4.22207
 Alpha virt. eigenvalues --    4.26702   4.27026   4.28788   4.34158   4.40149
 Alpha virt. eigenvalues --    4.56933   4.60814   4.66099
          Condensed to atoms (all electrons):
               1          2          3          4          5          6
     1  C    5.152452   0.375523   0.374276   0.370487   0.348121  -0.057831
     2  H    0.375523   0.493208  -0.021459  -0.024018  -0.027241  -0.003173
     3  H    0.374276  -0.021459   0.504718  -0.031921  -0.028969  -0.005972
     4  H    0.370487  -0.024018  -0.031921   0.504763  -0.027013   0.004243
     5  C    0.348121  -0.027241  -0.028969  -0.027013   5.229183   0.202033
     6  N   -0.057831  -0.003173  -0.005972   0.004243   0.202033   6.933770
     7  C    0.004075  -0.000078   0.000137  -0.000107  -0.023161   0.211383
     8  C    0.000208  -0.000003  -0.000016   0.000009  -0.004132  -0.050024
     9  H    0.000090  -0.000002  -0.000001   0.000003   0.001590  -0.002616
    10  H   -0.000023  -0.000001  -0.000000   0.000000  -0.001451  -0.002633
    11  H   -0.000001   0.000000   0.000000  -0.000000  -0.000073   0.003444
    12  C   -0.000273   0.000104  -0.000003   0.000003  -0.009308  -0.069260
    13  H   -0.000060   0.000032  -0.000006   0.000007  -0.002355  -0.002874
    14  H    0.000004  -0.000002   0.000000  -0.000000   0.000260   0.003737
    15  H   -0.000120   0.000071  -0.000000   0.000002  -0.000284  -0.005641
    16  C   -0.000259  -0.000002  -0.000008   0.000002   0.004515  -0.053785
    17  H   -0.000005   0.000000   0.000000   0.000000  -0.000010  -0.002939
    18  H   -0.000003  -0.000002   0.000001  -0.000000  -0.000087  -0.002044
    19  H    0.000004   0.000000   0.000000  -0.000000  -0.000120   0.004156
    20  H   -0.000675  -0.000362   0.003242  -0.000102  -0.026749   0.284356
    21  H   -0.027387  -0.004693   0.003704  -0.001214   0.362893  -0.058740
    22  C   -0.022305   0.002627  -0.003881  -0.000563   0.263371  -0.018705
    23  O    0.000050  -0.000024   0.001724  -0.000102  -0.083045  -0.001138
    24  C   -0.001096  -0.000040   0.000203   0.000239  -0.098057   0.002014
    25  C   -0.000249  -0.000060  -0.000013   0.000634  -0.004037   0.000107
    26  H    0.000149   0.000231  -0.000045   0.001653   0.003846   0.000063
    27  C    0.000093  -0.000004  -0.000001   0.000030  -0.000169  -0.000002
    28  Cl  -0.000003   0.000000  -0.000000  -0.000006   0.000007  -0.000000
    29  C   -0.000001   0.000000   0.000000   0.000001  -0.000011   0.000000
    30  H    0.000000  -0.000000  -0.000000  -0.000000  -0.000000  -0.000000
    31  C    0.000003  -0.000000  -0.000000  -0.000001  -0.000072   0.000001
    32  H   -0.000000   0.000000  -0.000000  -0.000000   0.000001  -0.000000
    33  C   -0.000090   0.000002  -0.000001  -0.000008   0.007240  -0.000066
    34  H   -0.000006   0.000000  -0.000000  -0.000000   0.000619  -0.000005
    35  H   -0.000092   0.004812  -0.000289   0.000050  -0.027709   0.299066
               7          8          9         10         11         12
     1  C    0.004075   0.000208   0.000090  -0.000023  -0.000001  -0.000273
     2  H   -0.000078  -0.000003  -0.000002  -0.000001   0.000000   0.000104
     3  H    0.000137  -0.000016  -0.000001  -0.000000   0.000000  -0.000003
     4  H   -0.000107   0.000009   0.000003   0.000000  -0.000000   0.000003
     5  C   -0.023161  -0.004132   0.001590  -0.001451  -0.000073  -0.009308
     6  N    0.211383  -0.050024  -0.002616  -0.002633   0.003444  -0.069260
     7  C    4.830506   0.378964  -0.021750  -0.033088  -0.024088   0.382318
     8  C    0.378964   5.177442   0.361471   0.364182   0.374412  -0.071234
     9  H   -0.021750   0.361471   0.529656  -0.031276  -0.018262  -0.003880
    10  H   -0.033088   0.364182  -0.031276   0.545554  -0.028412   0.006042
    11  H   -0.024088   0.374412  -0.018262  -0.028412   0.500895  -0.003803
    12  C    0.382318  -0.071234  -0.003880   0.006042  -0.003803   5.171736
    13  H   -0.027871  -0.005715   0.002483  -0.000005  -0.000057   0.368675
    14  H   -0.024365  -0.002188  -0.000118   0.000000   0.001380   0.378360
    15  H   -0.037669   0.006806  -0.000012  -0.000281   0.000028   0.362276
    16  C    0.385137  -0.058486   0.003936  -0.004609  -0.004251  -0.058993
    17  H   -0.021662  -0.002947  -0.000047   0.002809  -0.000105   0.004008
    18  H   -0.029882   0.004673  -0.000133  -0.000051   0.000029  -0.004777
    19  H   -0.030163  -0.005624   0.000062  -0.000166   0.004332  -0.002950
    20  H   -0.016277  -0.001672  -0.000289   0.003047  -0.000047   0.004758
    21  H   -0.002421  -0.002477   0.000509   0.000101  -0.000048   0.008380
    22  C   -0.003362   0.004611   0.000901   0.001360   0.000151  -0.000106
    23  O   -0.000972   0.000340  -0.001784   0.001590   0.000071   0.000001
    24  C    0.000116  -0.003361   0.005321   0.000029   0.000001  -0.000100
    25  C    0.000011  -0.000028  -0.000013  -0.000008   0.000000  -0.000074
    26  H   -0.000008   0.000006  -0.000015  -0.000000   0.000000  -0.000011
    27  C   -0.000000   0.000007  -0.000041   0.000000  -0.000000  -0.000002
    28  Cl   0.000000  -0.000000   0.000001  -0.000000   0.000000   0.000000
    29  C   -0.000000   0.000005  -0.000032   0.000000   0.000000   0.000000
    30  H   -0.000000   0.000000  -0.000000   0.000000  -0.000000   0.000000
    31  C    0.000000  -0.000014   0.000024   0.000001   0.000000   0.000000
    32  H    0.000000  -0.000000   0.000000  -0.000000  -0.000000  -0.000000
    33  C    0.000017  -0.001132   0.003037   0.000020   0.000002   0.000004
    34  H   -0.000004   0.000117   0.000084   0.000071   0.000001   0.000001
    35  H   -0.017452   0.004092  -0.000158  -0.000112  -0.000076  -0.002327
              13         14         15         16         17         18
     1  C   -0.000060   0.000004  -0.000120  -0.000259  -0.000005  -0.000003
     2  H    0.000032  -0.000002   0.000071  -0.000002   0.000000  -0.000002
     3  H   -0.000006   0.000000  -0.000000  -0.000008   0.000000   0.000001
     4  H    0.000007  -0.000000   0.000002   0.000002   0.000000  -0.000000
     5  C   -0.002355   0.000260  -0.000284   0.004515  -0.000010  -0.000087
     6  N   -0.002874   0.003737  -0.005641  -0.053785  -0.002939  -0.002044
     7  C   -0.027871  -0.024365  -0.037669   0.385137  -0.021662  -0.029882
     8  C   -0.005715  -0.002188   0.006806  -0.058486  -0.002947   0.004673
     9  H    0.002483  -0.000118  -0.000012   0.003936  -0.000047  -0.000133
    10  H   -0.000005   0.000000  -0.000281  -0.004609   0.002809  -0.000051
    11  H   -0.000057   0.001380   0.000028  -0.004251  -0.000105   0.000029
    12  C    0.368675   0.378360   0.362276  -0.058993   0.004008  -0.004777
    13  H    0.520841  -0.022876  -0.028444   0.004705  -0.000124  -0.000010
    14  H   -0.022876   0.485794  -0.019811  -0.003077   0.000052  -0.000011
    15  H   -0.028444  -0.019811   0.551846  -0.006509  -0.000120   0.004668
    16  C    0.004705  -0.003077  -0.006509   5.149890   0.370378   0.368788
    17  H   -0.000124   0.000052  -0.000120   0.370378   0.508666  -0.025560
    18  H   -0.000010  -0.000011   0.004668   0.368788  -0.025560   0.524415
    19  H   -0.000095   0.002409  -0.000046   0.371620  -0.023793  -0.021192
    20  H   -0.000208  -0.000069  -0.000037  -0.003257   0.003440  -0.000307
    21  H    0.007052  -0.000247  -0.000381   0.000211  -0.000001  -0.000008
    22  C    0.000260  -0.000004   0.000043  -0.000041  -0.000011  -0.000000
    23  O   -0.000005   0.000000  -0.000000  -0.000018  -0.000008   0.000000
    24  C   -0.000028  -0.000001   0.000000  -0.000004  -0.000000   0.000000
    25  C    0.000144  -0.000000   0.000001  -0.000000   0.000000   0.000000
    26  H   -0.000009   0.000000   0.000001  -0.000000  -0.000000   0.000000
    27  C    0.000003   0.000000  -0.000000  -0.000000   0.000000   0.000000
    28  Cl  -0.000001  -0.000000  -0.000000   0.000000   0.000000   0.000000
    29  C   -0.000000   0.000000  -0.000000   0.000000  -0.000000  -0.000000
    30  H   -0.000000   0.000000  -0.000000   0.000000   0.000000  -0.000000
    31  C    0.000000  -0.000000   0.000000  -0.000000   0.000000   0.000000
    32  H    0.000000  -0.000000   0.000000  -0.000000   0.000000   0.000000
    33  C   -0.000007  -0.000000  -0.000000  -0.000000   0.000000  -0.000000
    34  H   -0.000000  -0.000000  -0.000000   0.000000  -0.000000  -0.000000
    35  H   -0.000248  -0.000094   0.007504  -0.001738  -0.000216   0.002621
              19         20         21         22         23         24
     1  C    0.000004  -0.000675  -0.027387  -0.022305   0.000050  -0.001096
     2  H    0.000000  -0.000362  -0.004693   0.002627  -0.000024  -0.000040
     3  H    0.000000   0.003242   0.003704  -0.003881   0.001724   0.000203
     4  H   -0.000000  -0.000102  -0.001214  -0.000563  -0.000102   0.000239
     5  C   -0.000120  -0.026749   0.362893   0.263371  -0.083045  -0.098057
     6  N    0.004156   0.284356  -0.058740  -0.018705  -0.001138   0.002014
     7  C   -0.030163  -0.016277  -0.002421  -0.003362  -0.000972   0.000116
     8  C   -0.005624  -0.001672  -0.002477   0.004611   0.000340  -0.003361
     9  H    0.000062  -0.000289   0.000509   0.000901  -0.001784   0.005321
    10  H   -0.000166   0.003047   0.000101   0.001360   0.001590   0.000029
    11  H    0.004332  -0.000047  -0.000048   0.000151   0.000071   0.000001
    12  C   -0.002950   0.004758   0.008380  -0.000106   0.000001  -0.000100
    13  H   -0.000095  -0.000208   0.007052   0.000260  -0.000005  -0.000028
    14  H    0.002409  -0.000069  -0.000247  -0.000004   0.000000  -0.000001
    15  H   -0.000046  -0.000037  -0.000381   0.000043  -0.000000   0.000000
    16  C    0.371620  -0.003257   0.000211  -0.000041  -0.000018  -0.000004
    17  H   -0.023793   0.003440  -0.000001  -0.000011  -0.000008  -0.000000
    18  H   -0.021192  -0.000307  -0.000008  -0.000000   0.000000   0.000000
    19  H    0.511424  -0.000013   0.000002   0.000000   0.000000  -0.000000
[...]
    20  H   -0.004986   0.011043  -0.000814   0.002365  -0.094201   0.156281
    21  H   -0.413649  -0.111399   0.077627  -0.028481   0.632869   0.004336
    22  C    1.180740   0.248394  -0.346830   0.214032 -10.221752   1.599073
    23  O   -0.073392  -0.005206   0.029242  -0.016037   0.930267  -0.179661
    24  C   -0.034807  -0.004313   0.056936  -0.103415   2.318701  -0.116535
    25  C   -0.162921  -0.016238   0.005505   0.111154  -1.659406   0.150368
    26  H    0.094455   0.007113   0.003240  -0.050444  -0.008441   0.005956
    27  C    0.017157  -0.000334   0.013249  -0.058994   0.228921  -0.012259
    28  Cl  -0.005665   0.000167  -0.000424   0.002011  -0.002405   0.000732
    29  C   -0.102819  -0.009768   0.001073  -0.013764  -0.023499   0.012577
    30  H    0.001063   0.000285   0.000263  -0.000097  -0.005951  -0.000263
    31  C    0.103569   0.007443  -0.003745   0.018179  -0.082841  -0.035894
    32  H    0.000824  -0.000084  -0.000177  -0.000337   0.007044   0.000043
    33  C   -0.119005   0.011819  -0.022631   0.000812  -1.227046  -0.026832
    34  H   -0.003790   0.000607  -0.001502   0.004727  -0.030314  -0.010320
    35  H   -0.009878   0.014969  -0.024958   0.008953  -0.274213   0.453771
               7          8          9         10         11         12
     1  C   -0.113743  -0.011674  -0.005283   0.004481  -0.000089   0.029190
     2  H    0.028148  -0.002721   0.002463   0.002118  -0.000532   0.034037
     3  H   -0.027646  -0.001378  -0.001346  -0.001332   0.000723  -0.001244
     4  H   -0.008248   0.007246   0.000344  -0.000914   0.000214  -0.015069
     5  C   -0.475221   0.022522  -0.210654   0.147909   0.045870   0.119351
     6  N   -1.439350   0.005495   0.020055  -0.166740   0.096755  -0.189320
     7  C   12.500529  -0.159176   0.106918   0.231809  -0.244772  -0.396901
     8  C   -0.159176   4.540865   0.202609   0.085478   0.252605  -0.104088
     9  H    0.106918   0.202609   1.492099  -0.212899  -0.433563  -0.014069
    10  H    0.231809   0.085478  -0.212899   1.389494  -0.369476   0.014491
    11  H   -0.244772   0.252605  -0.433563  -0.369476   1.668747  -0.003864
    12  C   -0.396901  -0.104088  -0.014069   0.014491  -0.003864   4.645133
    13  H    0.081516   0.024602   0.002921   0.008381  -0.002685   0.281408
    14  H   -0.102216  -0.061075  -0.014048   0.008761  -0.028018   0.300391
    15  H    0.217294   0.002871   0.013074  -0.008515   0.008294   0.118009
    16  C   -0.593052  -0.107545  -0.037504  -0.053908   0.049389  -0.050866
    17  H    0.225892  -0.047916   0.013473  -0.023771  -0.009939  -0.020340
    18  H    0.183569  -0.001685  -0.020104   0.015153   0.014946  -0.021758
    19  H   -0.135015   0.020084   0.018551  -0.008126  -0.024119   0.025562
    20  H   -0.068233   0.038232   0.000705   0.014411   0.006754   0.034751
    21  H    0.203727  -0.027677  -0.053418  -0.011390   0.016860  -0.150765
    22  C   -0.512089   0.018337   0.104191  -0.125646   0.033210  -0.000527
    23  O    0.046672  -0.002054   0.008471   0.030562  -0.007963   0.014129
    24  C    0.169283  -0.027624  -0.078018   0.032073   0.012182  -0.007350
    25  C    0.129021  -0.059313   0.087966  -0.004453  -0.016892  -0.028009
    26  H   -0.008667   0.012271   0.002137   0.007138  -0.004289   0.005200
    27  C    0.025450   0.012059  -0.032320   0.013074   0.002180  -0.000643
    28  Cl  -0.000118  -0.001179   0.002318  -0.000240  -0.000176   0.000168
    29  C    0.023878  -0.014724  -0.004372  -0.000617  -0.001559  -0.000151
    30  H    0.000024   0.000173   0.000031   0.000033   0.000036   0.000013
    31  C   -0.057260   0.014522   0.015940  -0.001823   0.000590   0.000410
    32  H   -0.000325   0.000006  -0.001093   0.000378  -0.000006  -0.000115
    33  C   -0.088076   0.013630  -0.005245  -0.035883   0.007816   0.020218
    34  H   -0.004443   0.000528   0.006283  -0.003519   0.000402   0.000708
    35  H   -0.058909  -0.001646   0.007528  -0.001063  -0.006930   0.000433
              13         14         15         16         17         18
     1  C    0.039053   0.016453  -0.048694   0.025572  -0.006231  -0.002277
     2  H    0.017727  -0.000369  -0.002056   0.001876  -0.000567   0.001255
     3  H    0.000997  -0.000080   0.000477   0.008540   0.001806  -0.001059
     4  H    0.002057  -0.000068  -0.003028   0.004512  -0.000786   0.000318
     5  C   -0.261473   0.007418   0.120918  -0.400324  -0.050118   0.020106
     6  N   -0.077254   0.128650  -0.156370   0.277338  -0.069989  -0.019354
     7  C    0.081516  -0.102216   0.217294  -0.593052   0.225892   0.183569
     8  C    0.024602  -0.061075   0.002871  -0.107545  -0.047916  -0.001685
     9  H    0.002921  -0.014048   0.013074  -0.037504   0.013473  -0.020104
    10  H    0.008381   0.008761  -0.008515  -0.053908  -0.023771   0.015153
    11  H   -0.002685  -0.028018   0.008294   0.049389  -0.009939   0.014946
    12  C    0.281408   0.300391   0.118009  -0.050866  -0.020340  -0.021758
    13  H    1.340307  -0.329359  -0.218140   0.011598  -0.016357   0.017342
    14  H   -0.329359   1.357701  -0.311473   0.033128   0.010618  -0.014604
    15  H   -0.218140  -0.311473   1.314261  -0.065861   0.015990  -0.032023
    16  C    0.011598   0.033128  -0.065861   4.749224   0.218286   0.177455
    17  H   -0.016357   0.010618   0.015990   0.218286   1.258797  -0.308056
    18  H    0.017342  -0.014604  -0.032023   0.177455  -0.308056   1.263893
    19  H    0.013970  -0.016469  -0.006405   0.202284  -0.222738  -0.239438
    20  H    0.024536  -0.011047   0.006352  -0.002660   0.002985  -0.011661
    21  H   -0.189595   0.062779   0.015490   0.007747   0.006886  -0.005507
    22  C    0.267684  -0.044796  -0.021511   0.257752   0.045721   0.005689
    23  O   -0.005626   0.000707   0.001614  -0.021473  -0.003208  -0.002777
    24  C   -0.066468   0.007521   0.005923  -0.029293  -0.001593  -0.003355
    25  C    0.056157  -0.011321   0.002918   0.001697  -0.001421   0.001684
    26  H    0.003325  -0.004293   0.002537  -0.000360   0.000050   0.000165
    27  C   -0.024174   0.002047   0.001871  -0.004795  -0.000938   0.000807
    28  Cl   0.001912  -0.000094  -0.000014   0.000022   0.000003  -0.000011
    29  C   -0.003512  -0.000232   0.000680  -0.000797   0.000073  -0.000090
    30  H    0.000254  -0.000028   0.000000  -0.000014  -0.000006   0.000005
    31  C    0.000716   0.000043  -0.000585   0.002114   0.000107  -0.000097
    32  H   -0.000151   0.000013  -0.000007  -0.000036   0.000001  -0.000004
    33  C    0.030094  -0.003760  -0.000521   0.002412   0.002273  -0.001344
    34  H    0.001039  -0.000273   0.000103   0.000330   0.000412  -0.000050
    35  H   -0.015757   0.008976   0.017854   0.004251  -0.003061  -0.016891
              19         20         21         22         23         24
     1  C    0.002876  -0.004986  -0.413649   1.180740  -0.073392  -0.034807
     2  H    0.000536   0.011043  -0.111399   0.248394  -0.005206  -0.004313
     3  H    0.000182  -0.000814   0.077627  -0.346830   0.029242   0.056936
     4  H    0.000443   0.002365  -0.028481   0.214032  -0.016037  -0.103415
     5  C    0.043369  -0.094201   0.632869 -10.221752   0.930267   2.318701
     6  N   -0.000694   0.156281   0.004336   1.599073  -0.179661  -0.116535
     7  C   -0.135015  -0.068233   0.203727  -0.512089   0.046672   0.169283
     8  C    0.020084   0.038232  -0.027677   0.018337  -0.002054  -0.027624
     9  H    0.018551   0.000705  -0.053418   0.104191   0.008471  -0.078018
    10  H   -0.008126   0.014411  -0.011390  -0.125646   0.030562   0.032073
    11  H   -0.024119   0.006754   0.016860   0.033210  -0.007963   0.012182
    12  C    0.025562   0.034751  -0.150765  -0.000527   0.014129  -0.007350
    13  H    0.013970   0.024536  -0.189595   0.267684  -0.005626  -0.066468
    14  H   -0.016469  -0.011047   0.062779  -0.044796   0.000707   0.007521
    15  H   -0.006405   0.006352   0.015490  -0.021511   0.001614   0.005923
    16  C    0.202284  -0.002660   0.007747   0.257752  -0.021473  -0.029293
    17  H   -0.222738   0.002985   0.006886   0.045721  -0.003208  -0.001593
    18  H   -0.239438  -0.011661  -0.005507   0.005689  -0.002777  -0.003355
    19  H    1.260514   0.008654  -0.002939  -0.014051   0.001150   0.001100
    20  H    0.008654   0.683908  -0.034813  -0.024510   0.059425   0.001747
    21  H   -0.002939  -0.034813   2.534201  -0.785084   0.019742   0.162323
    22  C   -0.014051  -0.024510  -0.785084  19.959467  -0.616425  -4.140390
    23  O    0.001150   0.059425   0.019742  -0.616425   9.268601   0.120899
    24  C    0.001100   0.001747   0.162323  -4.140390   0.120899  20.979995
    25  C    0.000466   0.016452  -0.195862  -0.230375  -0.139234  -6.592013
    26  H   -0.000132   0.002843  -0.082436  -0.160372   0.016940   0.258600
    27  C   -0.000634  -0.000280   0.122455   0.120911   0.012678   1.138088
    28  Cl   0.000011   0.000080  -0.032136  -0.024094   0.000000  -0.362823
    29  C    0.000067  -0.003640   0.044442  -0.267694   0.003281  -4.350143
    30  H    0.000002   0.000026  -0.004500   0.010539   0.000267   0.169330
    31  C    0.000154   0.012542  -0.024436   0.395047  -0.131642   1.158928
    32  H   -0.000005  -0.000325   0.004059   0.016505   0.001793  -0.044722
    33  C    0.000868  -0.000349  -0.261922  -1.780692  -0.238834  -6.885803
    34  H    0.000026   0.001151  -0.004167   0.327020  -0.096987   0.295131
    35  H    0.005520  -0.085859  -0.018250   0.167263  -0.010649  -0.028207
              25         26         27         28         29         30
     1  C   -0.162921   0.094455   0.017157  -0.005665  -0.102819   0.001063
     2  H   -0.016238   0.007113  -0.000334   0.000167  -0.009768   0.000285
     3  H    0.005505   0.003240   0.013249  -0.000424   0.001073   0.000263
     4  H    0.111154  -0.050444  -0.058994   0.002011  -0.013764  -0.000097
     5  C   -1.659406  -0.008441   0.228921  -0.002405  -0.023499  -0.005951
     6  N    0.150368   0.005956  -0.012259   0.000732   0.012577  -0.000263
     7  C    0.129021  -0.008667   0.025450  -0.000118   0.023878   0.000024
     8  C   -0.059313   0.012271   0.012059  -0.001179  -0.014724   0.000173
     9  H    0.087966   0.002137  -0.032320   0.002318  -0.004372   0.000031
    10  H   -0.004453   0.007138   0.013074  -0.000240  -0.000617   0.000033
    11  H   -0.016892  -0.004289   0.002180  -0.000176  -0.001559   0.000036
    12  C   -0.028009   0.005200  -0.000643   0.000168  -0.000151   0.000013
    13  H    0.056157   0.003325  -0.024174   0.001912  -0.003512   0.000254
    14  H   -0.011321  -0.004293   0.002047  -0.000094  -0.000232  -0.000028
    15  H    0.002918   0.002537   0.001871  -0.000014   0.000680   0.000000
    16  C    0.001697  -0.000360  -0.004795   0.000022  -0.000797  -0.000014
    17  H   -0.001421   0.000050  -0.000938   0.000003   0.000073  -0.000006
    18  H    0.001684   0.000165   0.000807  -0.000011  -0.000090   0.000005
    19  H    0.000466  -0.000132  -0.000634   0.000011   0.000067   0.000002
    20  H    0.016452   0.002843  -0.000280   0.000080  -0.003640   0.000026
    21  H   -0.195862  -0.082436   0.122455  -0.032136   0.044442  -0.004500
    22  C   -0.230375  -0.160372   0.120911  -0.024094  -0.267694   0.010539
    23  O   -0.139234   0.016940   0.012678   0.000000   0.003281   0.000267
    24  C   -6.592013   0.258600   1.138088  -0.362823  -4.350143   0.169330
    25  C   19.957984  -1.564565  -3.620514   0.323269   0.784500   0.069984
    26  H   -1.564565   2.844830   0.509411  -0.068832   0.264311  -0.014935
    27  C   -3.620514   0.509411  12.555732  -0.155065  -2.893851   0.896933
    28  Cl   0.323269  -0.068832  -0.155065  17.575683   0.166190  -0.077892
    29  C    0.784500   0.264311  -2.893851   0.166190  12.278495  -1.087831
    30  H    0.069984  -0.014935   0.896933  -0.077892  -1.087831   1.718622
    31  C   -2.657898  -0.026445   1.573998  -0.256434  -2.865682   0.213206
    32  H    0.102161   0.004866  -0.496373   0.002114   0.282923  -0.099588
    33  C   -0.001288  -0.244310  -3.012948   0.249770   3.131873  -0.364893
    34  H   -0.182910  -0.031547   0.063000   0.004116  -0.071609  -0.014970
    35  H    0.005786  -0.004021  -0.010088   0.000158   0.001979  -0.000091
              31         32         33         34         35
     1  C    0.103569   0.000824  -0.119005  -0.003790  -0.009878
     2  H    0.007443  -0.000084   0.011819   0.000607   0.014969
     3  H   -0.003745  -0.000177  -0.022631  -0.001502  -0.024958
     4  H    0.018179  -0.000337   0.000812   0.004727   0.008953
     5  C   -0.082841   0.007044  -1.227046  -0.030314  -0.274213
     6  N   -0.035894   0.000043  -0.026832  -0.010320   0.453771
     7  C   -0.057260  -0.000325  -0.088076  -0.004443  -0.058909
     8  C    0.014522   0.000006   0.013630   0.000528  -0.001646
     9  H    0.015940  -0.001093  -0.005245   0.006283   0.007528
    10  H   -0.001823   0.000378  -0.035883  -0.003519  -0.001063
    11  H    0.000590  -0.000006   0.007816   0.000402  -0.006930
    12  C    0.000410  -0.000115   0.020218   0.000708   0.000433
    13  H    0.000716  -0.000151   0.030094   0.001039  -0.015757
    14  H    0.000043   0.000013  -0.003760  -0.000273   0.008976
    15  H   -0.000585  -0.000007  -0.000521   0.000103   0.017854
    16  C    0.002114  -0.000036   0.002412   0.000330   0.004251
    17  H    0.000107   0.000001   0.002273   0.000412  -0.003061
    18  H   -0.000097  -0.000004  -0.001344  -0.000050  -0.016891
    19  H    0.000154  -0.000005   0.000868   0.000026   0.005520
    20  H    0.012542  -0.000325  -0.000349   0.001151  -0.085859
    21  H   -0.024436   0.004059  -0.261922  -0.004167  -0.018250
    22  C    0.395047   0.016505  -1.780692   0.327020   0.167263
    23  O   -0.131642   0.001793  -0.238834  -0.096987  -0.010649
    24  C    1.158928  -0.044722  -6.885803   0.295131  -0.028207
    25  C   -2.657898   0.102161  -0.001288  -0.182910   0.005786
    26  H   -0.026445   0.004866  -0.244310  -0.031547  -0.004021
    27  C    1.573998  -0.496373  -3.012948   0.063000  -0.010088
    28  Cl  -0.256434   0.002114   0.249770   0.004116   0.000158
    29  C   -2.865682   0.282923   3.131873  -0.071609   0.001979
    30  H    0.213206  -0.099588  -0.364893  -0.014970  -0.000091
    31  C   13.049262  -1.083453  -4.680175   0.793643  -0.003314
    32  H   -1.083453   1.711102   1.122186  -0.092118   0.000051
    33  C   -4.680175   1.122186  21.791559  -1.354334   0.008411
    34  H    0.793643  -0.092118  -1.354334   2.059897   0.000390
    35  H   -0.003314   0.000051   0.008411   0.000390   0.693896
 Mulliken charges:
               1
     1  C    1.012976
     2  H   -0.076437
     3  H    0.029317
     4  H   -0.030137
     5  C   -0.190904
     6  N   -0.383553
     7  C   -3.680270
     8  C    1.357341
     9  H    0.015858
    10  H    0.024568
    11  H   -0.062702
    12  C    1.361478
    13  H   -0.017044
    14  H    0.008418
    15  H    0.008671
    16  C    1.332962
    17  H   -0.016339
    18  H   -0.000243
    19  H    0.064377
    20  H    0.258136
    21  H   -0.477118
    22  C    0.345263
    23  O   -1.015276
    24  C    1.988114
    25  C    1.337559
    26  H   -0.771298
    27  C   -0.985812
    28  Cl  -0.341123
    29  C    0.720009
    30  H   -0.410031
    31  C    0.551309
    32  H   -0.437151
    33  C   -0.037850
    34  H   -0.656661
    35  H    0.173594
 Sum of Mulliken charges =   1.00000
 Mulliken charges with hydrogens summed into heavy atoms:
               1
     1  C    0.935719
     5  C   -0.668022
     6  N    0.048177
     7  C   -3.680270
     8  C    1.335065
    12  C    1.361523
    16  C    1.380757
    22  C    0.345263
    23  O   -1.015276
    24  C    1.988114
    25  C    0.566261
    27  C   -0.985812
    28  Cl  -0.341123
    29  C    0.309978
    31  C    0.114158
    33  C   -0.694511
 Electronic spatial extent (au):  <R**2>=           5235.4484
 Charge=              1.0000 electrons
 Dipole moment (field-independent basis, Debye):
    X=             -8.1421    Y=             -0.6770    Z=              1.6011  Tot=              8.3256
 Quadrupole moment (field-independent basis, Debye-Ang):
   XX=            -50.1968   YY=            -98.2500   ZZ=            -93.3278
   XY=             13.4469   XZ=             -4.6978   YZ=             -1.8159
 Traceless Quadrupole moment (field-independent basis, Debye-Ang):
   XX=             30.3947   YY=            -17.6585   ZZ=            -12.7363
   XY=             13.4469   XZ=             -4.6978   YZ=             -1.8159
 Octapole moment (field-independent basis, Debye-Ang**2):
  XXX=            -97.8821  YYY=             -4.0072  ZZZ=             16.6668  XYY=              4.6279
  XXY=             18.3661  XXZ=            -19.5219  XZZ=            -37.2613  YZZ=             -5.2406
  YYZ=             -5.2735  XYZ=            -10.8719
 Hexadecapole moment (field-independent basis, Debye-Ang**3):
 XXXX=          -4174.7143 YYYY=          -1140.6165 ZZZZ=           -625.3740 XXXY=            122.1667
 XXXZ=            -58.9701 YYYX=             33.4221 YYYZ=            -14.3448 ZZZX=             -0.4012
 ZZZY=              8.2463 XXYY=           -943.8363 XXZZ=           -888.5029 YYZZ=           -310.2347
 XXYZ=            -12.8070 YYXZ=            -10.8114 ZZXY=             -0.0733
 N-N= 1.223647192735D+03 E-N=-4.997956904994D+03  KE= 1.091252699665D+03
 Leave Link  601 at Sun Jul 18 20:23:50 2021, MaxMem=   262144000 cpu:               0.5 elap:               0.4
 (Enter /dades/curu/g16A03_MST/g16/l9999.exe)
 1\1\GINC-PIRINEUS11\SP\RMP2-FC\Aug-CC-pVDZ\C13H19Cl1N1O1(1+)\UBATOR02\
 18-Jul-2021\0\\#p mp2/aug-cc-pVDZ scf=tight maxdisk=180GB geom=allchec
 k\\SET_328_BBB6_conf1.geo_330_225_075 geometry\\1,1\C,0,-0.8153344394,
 -0.992599374,2.1697763319\H,0,-0.6164384323,-0.4559665099,3.1000698633
 \H,0,-0.5298670083,-2.0400960224,2.2924422114\H,0,-1.8893083421,-0.953
 2066255,1.9799358276\C,0,-0.0498133919,-0.3510716793,1.0041708585\N,0,
 1.4375832993,-0.4365870535,1.2331038582\C,0,2.2952937889,0.7755362984,
 0.8066180786\C,0,1.998019844,1.0942824514,-0.6574999086\H,0,0.96275534
 07,1.4072143249,-0.8098035716\H,0,2.209399922,0.2446075496,-1.30807836
 83\H,0,2.6345843778,1.9237501468,-0.9715325425\C,0,1.9478415238,1.9498
 104126,1.7228776369\H,0,0.9045593808,2.2611553128,1.6245092311\H,0,2.5
 692686321,2.8046720365,1.4499015612\H,0,2.1443693217,1.7160612667,2.77
 19964631\C,0,3.7532878104,0.3468945028,0.9835566323\H,0,4.0023099527,-
 0.4933654213,0.3313171024\H,0,3.9767130338,0.0692877413,2.0167513661\H
 ,0,4.4051936423,1.1808451594,0.7155375985\H,0,1.7498705027,-1.27913649
 15,0.7146155595\H,0,-0.3028168723,0.7035472911,0.9150755246\C,0,-0.344
 5761388,-1.1044684678,-0.3097267865\O,0,0.4716311735,-1.9322051069,-0.
 6948095437\C,0,-1.6047575801,-0.8398210712,-1.0383878651\C,0,-2.471780
 3228,0.2049416943,-0.6824982303\H,0,-2.2639695289,0.8619591311,0.15236
 83288\C,0,-3.6253363563,0.4117244289,-1.4306813921\Cl,0,-4.7050648187,
 1.7222378699,-0.9944521088\C,0,-3.9359248097,-0.3994260345,-2.52132112
 \H,0,-4.8403710192,-0.2167137017,-3.0883249768\C,0,-3.0704929971,-1.43
 82691522,-2.8696166213\H,0,-3.3099039156,-2.069841363,-3.7175544138\C,
 0,-1.9097190129,-1.65964281,-2.13769982\H,0,-1.2226211242,-2.456200036
 9,-2.3945286281\H,0,1.6284145637,-0.6369106972,2.2248918635\\Version=E
 S64L-G16RevA.03\State=1-A\HF=-1092.0488541\MP2=-1094.4099281\RMSD=5.57
 4e-09\PG=C01 [X(C13H19Cl1N1O1)]\\@


    THE DOUGHNUT CREED
 AS YOU RAMBLE ON THROUGH LIFE, BROTHER
 WHATEVER BE YOUR GOAL
 KEEP YOUR EYE UPON THE DOUGHNUT
 AND NOT UPON THE HOLE.
 Job cpu time:       0 days  2 hours 58 minutes 26.7 seconds.
 Elapsed time:       0 days  0 hours 53 minutes  7.2 seconds.
 File lengths (MBytes):  RWF=  75322 Int=      0 D2E=      0 Chk=     24 Scr=      1
 Normal termination of Gaussian 16 at Sun Jul 18 20:23:52 2021.
