 Entering Gaussian System, Link 0=g16
 Input=SET_328_BBB268_conf1.geo_060_225_255_OCTANOL.dat
 Output=SET_328_BBB268_conf1.geo_060_225_255_OCTANOL.log
 Initial command:
 /dades/curu/g16A03_MST/g16/l1.exe "/tmp/ubator02/1839553/Gau-81635.inp" -scrdir="/tmp/ubator02/1839553/"
 Entering Link 1 = /dades/curu/g16A03_MST/g16/l1.exe PID=     81639.
  
 Copyright (c) 1988,1990,1992,1993,1995,1998,2003,2009,2016,
            Gaussian, Inc.  All Rights Reserved.
  
 This is part of the Gaussian(R) 16 program.  It is based on
 the Gaussian(R) 09 system (copyright 2009, Gaussian, Inc.),
 the Gaussian(R) 03 system (copyright 2003, Gaussian, Inc.),
 the Gaussian(R) 98 system (copyright 1998, Gaussian, Inc.),
 the Gaussian(R) 94 system (copyright 1995, Gaussian, Inc.),
 the Gaussian 92(TM) system (copyright 1992, Gaussian, Inc.),
 the Gaussian 90(TM) system (copyright 1990, Gaussian, Inc.),
 the Gaussian 88(TM) system (copyright 1988, Gaussian, Inc.),
 the Gaussian 86(TM) system (copyright 1986, Carnegie Mellon
 University), and the Gaussian 82(TM) system (copyright 1983,
 Carnegie Mellon University). Gaussian is a federally registered
 trademark of Gaussian, Inc.
  
 This software contains proprietary and confidential information,
 including trade secrets, belonging to Gaussian, Inc.
  
 This software is provided under written license and may be
 used, copied, transmitted, or stored only in accord with that
 written license.
  
 The following legend is applicable only to US Government
 contracts under FAR:
  
                    RESTRICTED RIGHTS LEGEND
  
 Use, reproduction and disclosure by the US Government is
 subject to restrictions as set forth in subparagraphs (a)
 and (c) of the Commercial Computer Software - Restricted
 Rights clause in FAR 52.227-19.
  
 Gaussian, Inc.
 340 Quinnipiac St., Bldg. 40, Wallingford CT 06492
  
  
 ---------------------------------------------------------------
 Warning -- This program may not be used in any manner that
 competes with the business of Gaussian, Inc. or will provide
 assistance to any competitor of Gaussian, Inc.  The licensee
 of this program is prohibited from giving any competitor of
 Gaussian, Inc. access to this program.  By using this program,
 the user acknowledges that Gaussian, Inc. is engaged in the
 business of creating and licensing software in the field of
 computational chemistry and represents and warrants to the
 licensee that it is not a competitor of Gaussian, Inc. and that
 it will not use this program in any manner prohibited above.
 ---------------------------------------------------------------
  

 Cite this work as:
 Gaussian 16, Revision A.03,
 M. J. Frisch, G. W. Trucks, H. B. Schlegel, G. E. Scuseria, 
 M. A. Robb, J. R. Cheeseman, G. Scalmani, V. Barone, 
 G. A. Petersson, H. Nakatsuji, X. Li, M. Caricato, A. V. Marenich, 
 J. Bloino, B. G. Janesko, R. Gomperts, B. Mennucci, H. P. Hratchian, 
 J. V. Ortiz, A. F. Izmaylov, J. L. Sonnenberg, D. Williams-Young, 
 F. Ding, F. Lipparini, F. Egidi, J. Goings, B. Peng, A. Petrone, 
 T. Henderson, D. Ranasinghe, V. G. Zakrzewski, J. Gao, N. Rega, 
 G. Zheng, W. Liang, M. Hada, M. Ehara, K. Toyota, R. Fukuda, 
 J. Hasegawa, M. Ishida, T. Nakajima, Y. Honda, O. Kitao, H. Nakai, 
 T. Vreven, K. Throssell, J. A. Montgomery, Jr., J. E. Peralta, 
 F. Ogliaro, M. J. Bearpark, J. J. Heyd, E. N. Brothers, K. N. Kudin, 
 V. N. Staroverov, T. A. Keith, R. Kobayashi, J. Normand, 
 K. Raghavachari, A. P. Rendell, J. C. Burant, S. S. Iyengar, 
 J. Tomasi, M. Cossi, J. M. Millam, M. Klene, C. Adamo, R. Cammi, 
 J. W. Ochterski, R. L. Martin, K. Morokuma, O. Farkas, 
 J. B. Foresman, and D. J. Fox, Gaussian, Inc., Wallingford CT, 2016.
 
 ******************************************
 Gaussian 16:  ES64L-G16RevA.03 25-Dec-2016
                18-Jul-2021 
 ******************************************
 %mem=800MB
 %nproc=4
 Will use up to    4 processors via shared memory.
 %chk=SET_328_BBB268_conf1.geo_060_225_255.chk
 ---------------------------------------------------------------
 #p b3lyp/6-31G(d) opt freq scrf=(iefpcm,read,solvent=n-octanol)
 ---------------------------------------------------------------
 1/18=20,19=15,26=3,38=1,40=2/1,3;
 2/9=110,12=2,17=6,18=5,40=1/2;
 3/5=1,6=6,7=1,11=2,25=1,30=1,70=2203,71=1,72=25,74=-5/1,2,3;
 4//1;
 5/5=2,38=5,53=25/2;
 6/7=2,8=2,9=2,10=2,28=1/1;
 7//1,2,3,16;
 1/18=20,19=15,26=3/3(2);
 2/9=110/2;
 99//99;
 2/9=110/2;
 3/5=1,6=6,7=1,11=2,25=1,30=1,70=2205,71=1,72=25,74=-5/1,2,3;
 4/5=5,16=3,69=1/1;
 5/5=2,38=5,53=25/2;
 7//1,2,3,16;
 1/18=20,19=15,26=3/3(-5);
 2/9=110/2;
 6/7=2,8=2,9=2,10=2,19=2,28=1/1;
 99/9=1/99;
 Leave Link    1 at Sun Jul 18 13:40:51 2021, MaxMem=   104857600 cpu:               0.0 elap:               0.0
 (Enter /dades/curu/g16A03_MST/g16/l101.exe)
 ---------------------------------------------
 SET_328_BBB268_conf1.geo_060_225_255 geometry
 ---------------------------------------------
 Symbolic Z-matrix:
 Charge =  1 Multiplicity = 1
 C                    -2.816    -2.359     0.16 
 H                    -3.238    -3.161     0.772 
 H                    -2.607    -2.799    -0.818 
 H                    -3.407    -1.446     0.054 
 N                    -1.494    -1.984     0.658 
 C                    -0.458    -2.722     0.01 
 H                    -0.078    -2.205    -0.875 
 H                    -0.811    -3.704    -0.316 
 H                     0.332    -2.907     0.742 
 C                    -1.311    -0.872     1.4 
 O                    -2.252    -0.32      1.924 
 C                     0.09     -0.358     1.661 
 H                     0.626    -1.138     2.206 
 H                     0.124     0.493     2.344 
 C                     0.835    -0.044     0.353 
 C                     0.503     0.807    -0.653 
 C                    -0.829     1.454    -0.631 
 C                    -1.046     2.62      0.13 
 C                    -2.31      3.225     0.272 
 C                    -3.378     2.703    -0.472 
 C                    -4.737     3.457    -0.387 
 H                    -5.503     2.748    -0.066 
 H                    -5.029     3.846    -1.365 
 H                    -4.627     4.3       0.299 
 C                    -3.163     1.622    -1.311 
 C                    -1.911     1.001    -1.42 
 H                    -1.702     0.14     -2.051 
 H                    -3.996     1.241    -1.896 
 H                    -2.483     4.04      0.971 
 H                    -0.174     2.966     0.678 
 N                     1.361     0.855    -1.742 
 C                     2.402     0.178    -1.216 
 C                     3.662     0.014    -1.802 
 H                     3.768     0.459    -2.785 
 C                     4.652    -0.702    -1.087 
 H                     5.631    -0.985    -1.46 
 C                     4.336    -1.13      0.26 
 C                     5.537    -1.638     1.028 
 H                     5.535    -1.326     2.074 
 H                     6.482    -1.242     0.65 
 H                     5.489    -2.729     1.013 
 C                     3.045    -0.891     0.836 
 H                     2.786    -1.122     1.861 
 N                     2.164    -0.383    -0.004 
 H                     1.243     1.268    -2.645 
 
 ITRead=  0  0  0  0  0  0  0  0  0  0  0  0  0  0  0  0  0  0  0  0
 ITRead=  0  0  0  0  0  0  0  0  0  0  0  0  0  0  0  0  0  0  0  0
 ITRead=  0  0  0  0  0
 MicOpt= -1 -1 -1 -1 -1 -1 -1 -1 -1 -1 -1 -1 -1 -1 -1 -1 -1 -1 -1 -1
 MicOpt= -1 -1 -1 -1 -1 -1 -1 -1 -1 -1 -1 -1 -1 -1 -1 -1 -1 -1 -1 -1
 MicOpt= -1 -1 -1 -1 -1
 NAtoms=     45 NQM=       45 NQMF=       0 NMMI=      0 NMMIF=      0
                NMic=       0 NMicF=      0.
                    Isotopes and Nuclear Properties:
 (Nuclear quadrupole moments (NQMom) in fm**2, nuclear magnetic moments (NMagM)
  in nuclear magnetons)

  Atom         1           2           3           4           5           6           7           8           9          10
 IAtWgt=          12           1           1           1          14          12           1           1           1          12
 AtmWgt=  12.0000000   1.0078250   1.0078250   1.0078250  14.0030740  12.0000000   1.0078250   1.0078250   1.0078250  12.0000000
 NucSpn=           0           1           1           1           2           0           1           1           1           0
 AtZEff=  -0.0000000  -0.0000000  -0.0000000  -0.0000000  -0.0000000  -0.0000000  -0.0000000  -0.0000000  -0.0000000  -0.0000000
 NQMom=    0.0000000   0.0000000   0.0000000   0.0000000   2.0440000   0.0000000   0.0000000   0.0000000   0.0000000   0.0000000
 NMagM=    0.0000000   2.7928460   2.7928460   2.7928460   0.4037610   0.0000000   2.7928460   2.7928460   2.7928460   0.0000000
 AtZNuc=   6.0000000   1.0000000   1.0000000   1.0000000   7.0000000   6.0000000   1.0000000   1.0000000   1.0000000   6.0000000

  Atom        11          12          13          14          15          16          17          18          19          20
 IAtWgt=          16          12           1           1          12          12          12          12          12          12
 AtmWgt=  15.9949146  12.0000000   1.0078250   1.0078250  12.0000000  12.0000000  12.0000000  12.0000000  12.0000000  12.0000000
 NucSpn=           0           0           1           1           0           0           0           0           0           0
 AtZEff=  -0.0000000  -0.0000000  -0.0000000  -0.0000000  -0.0000000  -0.0000000  -0.0000000  -0.0000000  -0.0000000  -0.0000000
 NQMom=    0.0000000   0.0000000   0.0000000   0.0000000   0.0000000   0.0000000   0.0000000   0.0000000   0.0000000   0.0000000
 NMagM=    0.0000000   0.0000000   2.7928460   2.7928460   0.0000000   0.0000000   0.0000000   0.0000000   0.0000000   0.0000000
 AtZNuc=   8.0000000   6.0000000   1.0000000   1.0000000   6.0000000   6.0000000   6.0000000   6.0000000   6.0000000   6.0000000

  Atom        21          22          23          24          25          26          27          28          29          30
 IAtWgt=          12           1           1           1          12          12           1           1           1           1
 AtmWgt=  12.0000000   1.0078250   1.0078250   1.0078250  12.0000000  12.0000000   1.0078250   1.0078250   1.0078250   1.0078250
 NucSpn=           0           1           1           1           0           0           1           1           1           1
 AtZEff=  -0.0000000  -0.0000000  -0.0000000  -0.0000000  -0.0000000  -0.0000000  -0.0000000  -0.0000000  -0.0000000  -0.0000000
 NQMom=    0.0000000   0.0000000   0.0000000   0.0000000   0.0000000   0.0000000   0.0000000   0.0000000   0.0000000   0.0000000
 NMagM=    0.0000000   2.7928460   2.7928460   2.7928460   0.0000000   0.0000000   2.7928460   2.7928460   2.7928460   2.7928460
 AtZNuc=   6.0000000   1.0000000   1.0000000   1.0000000   6.0000000   6.0000000   1.0000000   1.0000000   1.0000000   1.0000000

  Atom        31          32          33          34          35          36          37          38          39          40
 IAtWgt=          14          12          12           1          12           1          12          12           1           1
 AtmWgt=  14.0030740  12.0000000  12.0000000   1.0078250  12.0000000   1.0078250  12.0000000  12.0000000   1.0078250   1.0078250
 NucSpn=           2           0           0           1           0           1           0           0           1           1
 AtZEff=  -0.0000000  -0.0000000  -0.0000000  -0.0000000  -0.0000000  -0.0000000  -0.0000000  -0.0000000  -0.0000000  -0.0000000
 NQMom=    2.0440000   0.0000000   0.0000000   0.0000000   0.0000000   0.0000000   0.0000000   0.0000000   0.0000000   0.0000000
 NMagM=    0.4037610   0.0000000   0.0000000   2.7928460   0.0000000   2.7928460   0.0000000   0.0000000   2.7928460   2.7928460
 AtZNuc=   7.0000000   6.0000000   6.0000000   1.0000000   6.0000000   1.0000000   6.0000000   6.0000000   1.0000000   1.0000000

  Atom        41          42          43          44          45
 IAtWgt=           1          12           1          14           1
 AtmWgt=   1.0078250  12.0000000   1.0078250  14.0030740   1.0078250
 NucSpn=           1           0           1           2           1
 AtZEff=  -0.0000000  -0.0000000  -0.0000000  -0.0000000  -0.0000000
 NQMom=    0.0000000   0.0000000   0.0000000   2.0440000   0.0000000
 NMagM=    2.7928460   0.0000000   2.7928460   0.4037610   2.7928460
 AtZNuc=   1.0000000   6.0000000   1.0000000   7.0000000   1.0000000
 Leave Link  101 at Sun Jul 18 13:40:52 2021, MaxMem=   104857600 cpu:               0.1 elap:               0.2
 (Enter /dades/curu/g16A03_MST/g16/l103.exe)

 GradGradGradGradGradGradGradGradGradGradGradGradGradGradGradGradGradGrad
 Berny optimization.
 Initialization pass.
                           ----------------------------
                           !    Initial Parameters    !
                           ! (Angstroms and Degrees)  !
 --------------------------                            --------------------------
 ! Name  Definition              Value          Derivative Info.                !
 --------------------------------------------------------------------------------
 ! R1    R(1,2)                  1.0935         estimate D2E/DX2                !
 ! R2    R(1,3)                  1.0926         estimate D2E/DX2                !
 ! R3    R(1,4)                  1.0927         estimate D2E/DX2                !
 ! R4    R(1,5)                  1.4616         estimate D2E/DX2                !
 ! R5    R(5,6)                  1.4275         estimate D2E/DX2                !
 ! R6    R(5,10)                 1.3493         estimate D2E/DX2                !
 ! R7    R(6,7)                  1.0931         estimate D2E/DX2                !
 ! R8    R(6,8)                  1.0933         estimate D2E/DX2                !
 ! R9    R(6,9)                  1.0928         estimate D2E/DX2                !
 ! R10   R(10,11)                1.2103         estimate D2E/DX2                !
 ! R11   R(10,12)                1.515          estimate D2E/DX2                !
 ! R12   R(12,13)                1.0921         estimate D2E/DX2                !
 ! R13   R(12,14)                1.0917         estimate D2E/DX2                !
 ! R14   R(12,15)                1.5377         estimate D2E/DX2                !
 ! R15   R(15,16)                1.3588         estimate D2E/DX2                !
 ! R16   R(15,44)                1.4173         estimate D2E/DX2                !
 ! R17   R(16,17)                1.481          estimate D2E/DX2                !
 ! R18   R(16,31)                1.3872         estimate D2E/DX2                !
 ! R19   R(17,18)                1.4092         estimate D2E/DX2                !
 ! R20   R(17,26)                1.4137         estimate D2E/DX2                !
 ! R21   R(18,19)                1.4085         estimate D2E/DX2                !
 ! R22   R(18,30)                1.0865         estimate D2E/DX2                !
 ! R23   R(19,20)                1.4024         estimate D2E/DX2                !
 ! R24   R(19,29)                1.0875         estimate D2E/DX2                !
 ! R25   R(20,21)                1.5565         estimate D2E/DX2                !
 ! R26   R(20,25)                1.3852         estimate D2E/DX2                !
 ! R27   R(21,22)                1.092          estimate D2E/DX2                !
 ! R28   R(21,23)                1.0923         estimate D2E/DX2                !
 ! R29   R(21,24)                1.0924         estimate D2E/DX2                !
 ! R30   R(25,26)                1.4018         estimate D2E/DX2                !
 ! R31   R(25,28)                1.0869         estimate D2E/DX2                !
 ! R32   R(26,27)                1.0877         estimate D2E/DX2                !
 ! R33   R(31,32)                1.3486         estimate D2E/DX2                !
 ! R34   R(31,45)                1.0            estimate D2E/DX2                !
 ! R35   R(32,33)                1.3992         estimate D2E/DX2                !
 ! R36   R(32,44)                1.3566         estimate D2E/DX2                !
 ! R37   R(33,34)                1.0842         estimate D2E/DX2                !
 ! R38   R(33,35)                1.4156         estimate D2E/DX2                !
 ! R39   R(35,36)                1.0852         estimate D2E/DX2                !
 ! R40   R(35,37)                1.4483         estimate D2E/DX2                !
 ! R41   R(37,38)                1.5134         estimate D2E/DX2                !
 ! R42   R(37,42)                1.4337         estimate D2E/DX2                !
 ! R43   R(38,39)                1.0915         estimate D2E/DX2                !
 ! R44   R(38,40)                1.0921         estimate D2E/DX2                !
 ! R45   R(38,41)                1.0922         estimate D2E/DX2                !
 ! R46   R(42,43)                1.0822         estimate D2E/DX2                !
 ! R47   R(42,44)                1.319          estimate D2E/DX2                !
 ! A1    A(2,1,3)              106.2258         estimate D2E/DX2                !
 ! A2    A(2,1,4)              117.28           estimate D2E/DX2                !
 ! A3    A(2,1,5)              110.2747         estimate D2E/DX2                !
 ! A4    A(3,1,4)              110.6768         estimate D2E/DX2                !
 ! A5    A(3,1,5)              103.6087         estimate D2E/DX2                !
 ! A6    A(4,1,5)              107.9307         estimate D2E/DX2                !
 ! A7    A(1,5,6)              111.6605         estimate D2E/DX2                !
 ! A8    A(1,5,10)             121.4318         estimate D2E/DX2                !
 ! A9    A(6,5,10)             125.2576         estimate D2E/DX2                !
 ! A10   A(5,6,7)              112.0417         estimate D2E/DX2                !
 ! A11   A(5,6,8)              111.4319         estimate D2E/DX2                !
 ! A12   A(5,6,9)              107.9451         estimate D2E/DX2                !
 ! A13   A(7,6,8)              107.1967         estimate D2E/DX2                !
 ! A14   A(7,6,9)              111.7821         estimate D2E/DX2                !
 ! A15   A(8,6,9)              106.3263         estimate D2E/DX2                !
 ! A16   A(5,10,11)            120.5656         estimate D2E/DX2                !
 ! A17   A(5,10,12)            119.9853         estimate D2E/DX2                !
 ! A18   A(11,10,12)           119.3199         estimate D2E/DX2                !
 ! A19   A(10,12,13)           107.309          estimate D2E/DX2                !
 ! A20   A(10,12,14)           113.6442         estimate D2E/DX2                !
 ! A21   A(10,12,15)           111.7639         estimate D2E/DX2                !
 ! A22   A(13,12,14)           103.2524         estimate D2E/DX2                !
 ! A23   A(13,12,15)           109.4235         estimate D2E/DX2                !
 ! A24   A(14,12,15)           110.9715         estimate D2E/DX2                !
 ! A25   A(12,15,16)           129.7367         estimate D2E/DX2                !
 ! A26   A(12,15,44)           128.2978         estimate D2E/DX2                !
 ! A27   A(16,15,44)           101.0943         estimate D2E/DX2                !
 ! A28   A(15,16,17)           118.8388         estimate D2E/DX2                !
 ! A29   A(15,16,31)           116.8549         estimate D2E/DX2                !
 ! A30   A(17,16,31)           123.5611         estimate D2E/DX2                !
 ! A31   A(16,17,18)           120.531          estimate D2E/DX2                !
 ! A32   A(16,17,26)           122.6908         estimate D2E/DX2                !
 ! A33   A(18,17,26)           116.6596         estimate D2E/DX2                !
 ! A34   A(17,18,19)           123.2332         estimate D2E/DX2                !
 ! A35   A(17,18,30)           114.3495         estimate D2E/DX2                !
 ! A36   A(19,18,30)           122.1826         estimate D2E/DX2                !
 ! A37   A(18,19,20)           118.0385         estimate D2E/DX2                !
 ! A38   A(18,19,29)           121.9677         estimate D2E/DX2                !
 ! A39   A(20,19,29)           119.9198         estimate D2E/DX2                !
 ! A40   A(19,20,21)           117.1071         estimate D2E/DX2                !
 ! A41   A(19,20,25)           119.579          estimate D2E/DX2                !
 ! A42   A(21,20,25)           123.1375         estimate D2E/DX2                !
 ! A43   A(20,21,22)           108.3002         estimate D2E/DX2                !
 ! A44   A(20,21,23)           110.9185         estimate D2E/DX2                !
 ! A45   A(20,21,24)           108.6752         estimate D2E/DX2                !
 ! A46   A(22,21,23)           107.8728         estimate D2E/DX2                !
 ! A47   A(22,21,24)           112.7723         estimate D2E/DX2                !
 ! A48   A(23,21,24)           108.3224         estimate D2E/DX2                !
 ! A49   A(20,25,26)           122.1035         estimate D2E/DX2                !
 ! A50   A(20,25,28)           118.7263         estimate D2E/DX2                !
 ! A51   A(26,25,28)           119.1684         estimate D2E/DX2                !
 ! A52   A(17,26,25)           119.8837         estimate D2E/DX2                !
 ! A53   A(17,26,27)           115.4901         estimate D2E/DX2                !
 ! A54   A(25,26,27)           124.5677         estimate D2E/DX2                !
 ! A55   A(16,31,32)            98.8516         estimate D2E/DX2                !
 ! A56   A(16,31,45)           130.5577         estimate D2E/DX2                !
 ! A57   A(32,31,45)           130.5907         estimate D2E/DX2                !
 ! A58   A(31,32,33)           126.1991         estimate D2E/DX2                !
 ! A59   A(31,32,44)           114.8752         estimate D2E/DX2                !
 ! A60   A(33,32,44)           118.9257         estimate D2E/DX2                !
 ! A61   A(32,33,34)           114.8111         estimate D2E/DX2                !
 ! A62   A(32,33,35)           118.5223         estimate D2E/DX2                !
 ! A63   A(34,33,35)           126.6654         estimate D2E/DX2                !
 ! A64   A(33,35,36)           126.1001         estimate D2E/DX2                !
 ! A65   A(33,35,37)           117.8169         estimate D2E/DX2                !
 ! A66   A(36,35,37)           116.0692         estimate D2E/DX2                !
 ! A67   A(35,37,38)           113.4557         estimate D2E/DX2                !
 ! A68   A(35,37,42)           121.3905         estimate D2E/DX2                !
 ! A69   A(38,37,42)           124.5182         estimate D2E/DX2                !
 ! A70   A(37,38,39)           112.8862         estimate D2E/DX2                !
 ! A71   A(37,38,40)           112.9127         estimate D2E/DX2                !
 ! A72   A(37,38,41)           107.0659         estimate D2E/DX2                !
 ! A73   A(39,38,40)           103.2746         estimate D2E/DX2                !
 ! A74   A(39,38,41)           107.3742         estimate D2E/DX2                !
 ! A75   A(40,38,41)           113.2965         estimate D2E/DX2                !
 ! A76   A(37,42,43)           124.0874         estimate D2E/DX2                !
 ! A77   A(37,42,44)           114.191          estimate D2E/DX2                !
 ! A78   A(43,42,44)           121.7054         estimate D2E/DX2                !
 ! A79   A(15,44,32)           106.8968         estimate D2E/DX2                !
 ! A80   A(15,44,42)           123.9198         estimate D2E/DX2                !
 ! A81   A(32,44,42)           127.6655         estimate D2E/DX2                !
 ! D1    D(2,1,5,6)             91.778          estimate D2E/DX2                !
 ! D2    D(2,1,5,10)          -102.1375         estimate D2E/DX2                !
 ! D3    D(3,1,5,6)            -21.5448         estimate D2E/DX2                !
 ! D4    D(3,1,5,10)           144.5396         estimate D2E/DX2                !
 ! D5    D(4,1,5,6)           -138.9434         estimate D2E/DX2                !
 ! D6    D(4,1,5,10)            27.1411         estimate D2E/DX2                !
 ! D7    D(1,5,6,7)             91.4235         estimate D2E/DX2                !
 ! D8    D(1,5,6,8)            -28.6817         estimate D2E/DX2                !
 ! D9    D(1,5,6,9)           -145.0768         estimate D2E/DX2                !
 ! D10   D(10,5,6,7)           -74.0221         estimate D2E/DX2                !
 ! D11   D(10,5,6,8)           165.8727         estimate D2E/DX2                !
 ! D12   D(10,5,6,9)            49.4776         estimate D2E/DX2                !
 ! D13   D(1,5,10,11)           16.6503         estimate D2E/DX2                !
 ! D14   D(1,5,10,12)         -167.5088         estimate D2E/DX2                !
 ! D15   D(6,5,10,11)         -179.2354         estimate D2E/DX2                !
 ! D16   D(6,5,10,12)           -3.3946         estimate D2E/DX2                !
 ! D17   D(5,10,12,13)         -61.3632         estimate D2E/DX2                !
 ! D18   D(5,10,12,14)        -174.8512         estimate D2E/DX2                !
 ! D19   D(5,10,12,15)          58.6021         estimate D2E/DX2                !
 ! D20   D(11,10,12,13)        114.5296         estimate D2E/DX2                !
 ! D21   D(11,10,12,14)          1.0416         estimate D2E/DX2                !
 ! D22   D(11,10,12,15)       -125.5052         estimate D2E/DX2                !
 ! D23   D(10,12,15,16)         58.0397         estimate D2E/DX2                !
 ! D24   D(10,12,15,44)       -134.7186         estimate D2E/DX2                !
 ! D25   D(13,12,15,16)        176.7559         estimate D2E/DX2                !
 ! D26   D(13,12,15,44)        -16.0023         estimate D2E/DX2                !
 ! D27   D(14,12,15,16)        -69.9484         estimate D2E/DX2                !
 ! D28   D(14,12,15,44)         97.2933         estimate D2E/DX2                !
 ! D29   D(12,15,16,17)         -7.7137         estimate D2E/DX2                !
 ! D30   D(12,15,16,31)       -178.1814         estimate D2E/DX2                !
 ! D31   D(44,15,16,17)       -177.5411         estimate D2E/DX2                !
 ! D32   D(44,15,16,31)         11.9912         estimate D2E/DX2                !
 ! D33   D(12,15,44,32)       -176.2205         estimate D2E/DX2                !
 ! D34   D(12,15,44,42)         -9.3496         estimate D2E/DX2                !
 ! D35   D(16,15,44,32)         -6.186          estimate D2E/DX2                !
 ! D36   D(16,15,44,42)        160.6849         estimate D2E/DX2                !
 ! D37   D(15,16,17,18)         83.2244         estimate D2E/DX2                !
 ! D38   D(15,16,17,26)       -100.8679         estimate D2E/DX2                !
 ! D39   D(31,16,17,18)       -106.9882         estimate D2E/DX2                !
 ! D40   D(31,16,17,26)         68.9195         estimate D2E/DX2                !
 ! D41   D(15,16,31,32)        -12.3106         estimate D2E/DX2                !
 ! D42   D(15,16,31,45)        167.7273         estimate D2E/DX2                !
 ! D43   D(17,16,31,32)        177.715          estimate D2E/DX2                !
 ! D44   D(17,16,31,45)         -2.2472         estimate D2E/DX2                !
 ! D45   D(16,17,18,19)       -175.12           estimate D2E/DX2                !
 ! D46   D(16,17,18,30)         -0.5835         estimate D2E/DX2                !
 ! D47   D(26,17,18,19)          8.7333         estimate D2E/DX2                !
 ! D48   D(26,17,18,30)       -176.7301         estimate D2E/DX2                !
 ! D49   D(16,17,26,25)        177.2887         estimate D2E/DX2                !
 ! D50   D(16,17,26,27)         -0.0571         estimate D2E/DX2                !
 ! D51   D(18,17,26,25)         -6.6553         estimate D2E/DX2                !
 ! D52   D(18,17,26,27)        175.9989         estimate D2E/DX2                !
 ! D53   D(17,18,19,20)         -5.5274         estimate D2E/DX2                !
 ! D54   D(17,18,19,29)        171.3412         estimate D2E/DX2                !
 ! D55   D(30,18,19,20)       -179.645          estimate D2E/DX2                !
 ! D56   D(30,18,19,29)         -2.7764         estimate D2E/DX2                !
 ! D57   D(18,19,20,21)       -175.2164         estimate D2E/DX2                !
 ! D58   D(18,19,20,25)          0.1091         estimate D2E/DX2                !
 ! D59   D(29,19,20,21)          7.8486         estimate D2E/DX2                !
 ! D60   D(29,19,20,25)       -176.8259         estimate D2E/DX2                !
 ! D61   D(19,20,21,22)       -124.3494         estimate D2E/DX2                !
 ! D62   D(19,20,21,23)        117.4556         estimate D2E/DX2                !
 ! D63   D(19,20,21,24)         -1.5205         estimate D2E/DX2                !
 ! D64   D(25,20,21,22)         60.5059         estimate D2E/DX2                !
 ! D65   D(25,20,21,23)        -57.6891         estimate D2E/DX2                !
 ! D66   D(25,20,21,24)       -176.6652         estimate D2E/DX2                !
 ! D67   D(19,20,25,26)          1.6881         estimate D2E/DX2                !
 ! D68   D(19,20,25,28)       -178.8054         estimate D2E/DX2                !
 ! D69   D(21,20,25,26)        176.7181         estimate D2E/DX2                !
 ! D70   D(21,20,25,28)         -3.7754         estimate D2E/DX2                !
 ! D71   D(20,25,26,17)          1.7344         estimate D2E/DX2                !
 ! D72   D(20,25,26,27)        178.8247         estimate D2E/DX2                !
 ! D73   D(28,25,26,17)       -177.77           estimate D2E/DX2                !
 ! D74   D(28,25,26,27)         -0.6797         estimate D2E/DX2                !
 ! D75   D(16,31,32,33)       -172.6361         estimate D2E/DX2                !
 ! D76   D(16,31,32,44)          7.4263         estimate D2E/DX2                !
 ! D77   D(45,31,32,33)          7.3261         estimate D2E/DX2                !
 ! D78   D(45,31,32,44)       -172.6115         estimate D2E/DX2                !
 ! D79   D(31,32,33,34)         -2.031          estimate D2E/DX2                !
 ! D80   D(31,32,33,35)        178.3456         estimate D2E/DX2                !
 ! D81   D(44,32,33,34)        177.9044         estimate D2E/DX2                !
 ! D82   D(44,32,33,35)         -1.7191         estimate D2E/DX2                !
 ! D83   D(31,32,44,15)         -0.9637         estimate D2E/DX2                !
 ! D84   D(31,32,44,42)       -167.1884         estimate D2E/DX2                !
 ! D85   D(33,32,44,15)        179.0938         estimate D2E/DX2                !
 ! D86   D(33,32,44,42)         12.8692         estimate D2E/DX2                !
 ! D87   D(32,33,35,36)        173.6222         estimate D2E/DX2                !
 ! D88   D(32,33,35,37)         -4.9662         estimate D2E/DX2                !
 ! D89   D(34,33,35,36)         -5.9517         estimate D2E/DX2                !
 ! D90   D(34,33,35,37)        175.4598         estimate D2E/DX2                !
 ! D91   D(33,35,37,38)       -168.5961         estimate D2E/DX2                !
 ! D92   D(33,35,37,42)          2.6585         estimate D2E/DX2                !
 ! D93   D(36,35,37,38)         12.6735         estimate D2E/DX2                !
 ! D94   D(36,35,37,42)       -176.0718         estimate D2E/DX2                !
 ! D95   D(35,37,38,39)        140.5285         estimate D2E/DX2                !
 ! D96   D(35,37,38,40)         23.8481         estimate D2E/DX2                !
 ! D97   D(35,37,38,41)       -101.5251         estimate D2E/DX2                !
 ! D98   D(42,37,38,39)        -30.4085         estimate D2E/DX2                !
 ! D99   D(42,37,38,40)       -147.0889         estimate D2E/DX2                !
 ! D100  D(42,37,38,41)         87.538          estimate D2E/DX2                !
 ! D101  D(35,37,42,43)       -175.0568         estimate D2E/DX2                !
 ! D102  D(35,37,42,44)          6.3928         estimate D2E/DX2                !
 ! D103  D(38,37,42,43)         -4.8028         estimate D2E/DX2                !
 ! D104  D(38,37,42,44)        176.6467         estimate D2E/DX2                !
 ! D105  D(37,42,44,15)       -178.7876         estimate D2E/DX2                !
 ! D106  D(37,42,44,32)        -14.7234         estimate D2E/DX2                !
 ! D107  D(43,42,44,15)          2.6235         estimate D2E/DX2                !
 ! D108  D(43,42,44,32)        166.6876         estimate D2E/DX2                !
 --------------------------------------------------------------------------------
 Trust Radius=3.00D-01 FncErr=1.00D-07 GrdErr=1.00D-06 EigMax=2.50D+02 EigMin=1.00D-04
 Number of steps in this run=    246 maximum allowed number of steps=    270.
 GradGradGradGradGradGradGradGradGradGradGradGradGradGradGradGradGradGrad

 Leave Link  103 at Sun Jul 18 13:40:52 2021, MaxMem=   104857600 cpu:               0.0 elap:               0.1
 (Enter /dades/curu/g16A03_MST/g16/l202.exe)
                          Input orientation:                          
 ---------------------------------------------------------------------
 Center     Atomic      Atomic             Coordinates (Angstroms)
 Number     Number       Type             X           Y           Z
 ---------------------------------------------------------------------
      1          6           0       -2.816000   -2.359000    0.160000
      2          1           0       -3.238000   -3.161000    0.772000
      3          1           0       -2.607000   -2.799000   -0.818000
      4          1           0       -3.407000   -1.446000    0.054000
      5          7           0       -1.494000   -1.984000    0.658000
      6          6           0       -0.458000   -2.722000    0.010000
      7          1           0       -0.078000   -2.205000   -0.875000
      8          1           0       -0.811000   -3.704000   -0.316000
      9          1           0        0.332000   -2.907000    0.742000
     10          6           0       -1.311000   -0.872000    1.400000
     11          8           0       -2.252000   -0.320000    1.924000
     12          6           0        0.090000   -0.358000    1.661000
     13          1           0        0.626000   -1.138000    2.206000
     14          1           0        0.124000    0.493000    2.344000
     15          6           0        0.835000   -0.044000    0.353000
     16          6           0        0.503000    0.807000   -0.653000
     17          6           0       -0.829000    1.454000   -0.631000
     18          6           0       -1.046000    2.620000    0.130000
     19          6           0       -2.310000    3.225000    0.272000
     20          6           0       -3.378000    2.703000   -0.472000
     21          6           0       -4.737000    3.457000   -0.387000
     22          1           0       -5.503000    2.748000   -0.066000
     23          1           0       -5.029000    3.846000   -1.365000
     24          1           0       -4.627000    4.300000    0.299000
     25          6           0       -3.163000    1.622000   -1.311000
     26          6           0       -1.911000    1.001000   -1.420000
     27          1           0       -1.702000    0.140000   -2.051000
     28          1           0       -3.996000    1.241000   -1.896000
     29          1           0       -2.483000    4.040000    0.971000
     30          1           0       -0.174000    2.966000    0.678000
     31          7           0        1.361000    0.855000   -1.742000
     32          6           0        2.402000    0.178000   -1.216000
     33          6           0        3.662000    0.014000   -1.802000
     34          1           0        3.768000    0.459000   -2.785000
     35          6           0        4.652000   -0.702000   -1.087000
     36          1           0        5.631000   -0.985000   -1.460000
     37          6           0        4.336000   -1.130000    0.260000
     38          6           0        5.537000   -1.638000    1.028000
     39          1           0        5.535000   -1.326000    2.074000
     40          1           0        6.482000   -1.242000    0.650000
     41          1           0        5.489000   -2.729000    1.013000
     42          6           0        3.045000   -0.891000    0.836000
     43          1           0        2.786000   -1.122000    1.861000
     44          7           0        2.164000   -0.383000   -0.004000
     45          1           0        1.243000    1.268000   -2.645000
 ---------------------------------------------------------------------
                    Distance matrix (angstroms):
                    1          2          3          4          5
     1  C    0.000000
     2  H    1.093541   0.000000
     3  H    1.092596   1.748515   0.000000
     4  H    1.092742   1.866898   1.797496   0.000000
     5  N    1.461613   2.107098   2.020290   2.076976   0.000000
     6  C    2.390488   2.915779   2.304282   3.213520   1.427531
     7  H    2.931141   3.689464   2.598447   3.538554   2.098568
     8  H    2.460818   2.714576   2.072835   3.460445   2.091307
     9  H    3.247912   3.579150   3.329112   4.072835   2.047745
    10  C    2.452304   3.057325   3.211303   2.556249   1.349295
    11  O    2.754508   3.220339   3.713493   2.469575   2.224009
    12  C    3.834298   4.441026   4.402014   3.999400   2.481721
    13  H    4.186206   4.591229   4.728191   4.581600   2.757974
    14  H    4.641913   5.208257   5.319198   4.633765   3.405297
    15  C    4.327387   5.145928   4.561648   4.477675   3.046451
    16  C    4.658357   5.636553   4.764720   4.567708   3.673746
    17  C    4.371821   5.391652   4.613487   3.940217   3.731433
    18  C    5.284339   6.215866   5.718478   4.702388   4.655782
    19  C    5.607998   6.472417   6.129020   4.803038   5.286637
    20  C    5.132164   5.996135   5.566521   4.182310   5.176324
    21  C    6.149415   6.883909   6.622703   5.099293   6.419778
    22  H    5.775162   6.383475   6.302502   4.690123   6.244044
    23  H    6.762028   7.541386   7.093752   5.713992   7.111797
    24  H    6.902269   7.603918   7.464844   5.879196   7.030877
    25  C    4.258240   5.217433   4.483015   3.366806   4.434609
    26  C    3.821652   4.887539   3.909836   3.224671   3.660901
    27  H    3.517743   4.607084   3.313161   3.139020   3.448669
    28  H    4.310399   5.202921   4.406019   3.371853   4.814929
    29  H    6.458778   7.243206   7.070206   5.638338   6.112664
    30  H    5.966918   6.851063   6.433718   5.505217   5.123017
    31  N    5.603100   6.602973   5.472706   5.590531   4.687318
    32  C    5.962992   6.849136   5.840464   6.163989   4.833729
    33  C    7.172521   8.019732   6.941296   7.452992   6.052102
    34  H    7.743591   8.651051   7.424573   7.947929   6.746195
    35  C    7.750592   8.470812   7.560612   8.173304   6.516277
    36  H    8.709999   9.400849   8.459752   9.175520   7.499970
    37  C    7.257516   7.858281   7.221696   7.752183   5.905643
    38  C    8.428871   8.909865   8.430918   8.998926   7.049225
    39  H    8.629582   9.056929   8.765019   9.168106   7.200338
    40  H    9.377665   9.908372   9.337515   9.909044   8.010443
    41  H    8.356885   8.741009   8.300764   9.039059   7.031596
    42  C    6.079747   6.680800   6.190419   6.522872   4.672136
    43  H    5.983809   6.452288   6.250905   6.459371   4.528648
    44  N    5.360212   6.123811   5.409445   5.671805   4.047519
    45  H    6.123613   7.167377   5.890749   6.022698   5.382981
                    6          7          8          9         10
     6  C    0.000000
     7  H    1.093121   0.000000
     8  H    1.093256   1.759764   0.000000
     9  H    1.092771   1.809860   1.749578   0.000000
    10  C    2.466213   2.910808   3.348862   2.696968   0.000000
    11  O    3.556886   4.014213   4.306453   3.842753   1.210273
    12  C    2.935064   3.141803   3.989492   2.720391   1.514965
    13  H    2.916595   3.335666   3.874249   2.314971   2.114796
    14  H    4.015284   4.204993   5.056148   3.764262   2.193989
    15  C    2.993523   2.647919   4.068474   2.932763   2.527273
    16  C    3.717113   3.075547   4.710550   3.971028   3.213168
    17  C    4.241167   3.743236   5.167641   4.717136   3.125310
    18  C    5.375603   5.022716   6.344062   5.728975   3.725210
    19  C    6.234209   5.981834   7.113634   6.693466   4.365294
    20  C    6.179753   5.927974   6.903874   6.834471   4.534038
    21  C    7.526453   7.348651   8.166911   8.214006   5.802679
    22  H    7.441687   7.390353   7.981583   8.165728   5.729435
    23  H    8.119316   7.833716   8.711741   8.875966   6.612736
    24  H    8.171448   8.024132   8.888425   8.759497   6.241606
    25  C    5.285111   4.934901   5.906624   6.077966   4.123040
    26  C    4.244625   3.733008   4.956394   4.997775   3.438100
    27  H    3.739826   3.085349   4.310504   4.606757   3.617517
    28  H    5.644081   5.316774   6.090456   6.549544   4.747379
    29  H    7.123818   6.942029   8.026300   7.499165   5.068073
    30  H    5.734128   5.400025   6.773677   5.895105   4.067468
    31  N    4.378721   3.490847   5.247432   4.624039   4.471496
    32  C    4.253549   3.456207   5.118915   4.199511   4.661794
    33  C    5.267204   4.446447   6.003287   5.108138   5.980680
    34  H    5.982463   5.053386   6.662865   5.964544   6.714315
    35  C    5.603205   4.967580   6.280988   5.183596   6.463083
    36  H    6.500307   5.867138   7.085271   6.051635   7.508910
    37  C    5.057608   4.682654   5.783499   4.407048   5.766695
    38  C    6.176682   5.955764   6.809684   5.365089   6.900742
    39  H    6.490374   6.401173   7.186007   5.598660   6.894063
    40  H    7.124858   6.803425   7.757735   6.372063   7.837745
    41  H    6.030992   5.901746   6.512055   5.167182   7.059619
    42  C    4.038050   3.795688   4.910072   3.381340   4.392402
    43  H    4.063218   4.106225   4.934011   3.234270   4.130427
    44  N    3.513688   3.017431   4.469565   3.206761   3.779677
    45  H    5.085521   4.115783   5.862077   5.452735   5.240662
                   11         12         13         14         15
    11  O    0.000000
    12  C    2.357027   0.000000
    13  H    3.005251   1.092118   0.000000
    14  H    2.546124   1.091717   1.712077   0.000000
    15  C    3.474735   1.537688   2.161973   2.181277   0.000000
    16  C    3.937141   2.623431   3.460063   3.037144   1.358845
    17  C    3.420531   3.062869   4.109022   3.268387   2.445640
    18  C    3.649174   3.535950   4.607377   3.285548   3.268759
    19  C    3.911457   4.530696   5.603233   4.204921   4.536953
    20  C    4.018360   5.093764   6.160924   5.007790   5.096666
    21  C    5.077566   6.484478   7.523260   6.314505   6.622068
    22  H    4.893028   6.626569   7.604447   6.523515   6.938377
    23  H    5.990393   7.282476   8.340943   7.180021   7.243626
    24  H    5.442945   6.767725   7.797596   6.422404   6.979018
    25  C    3.881560   4.830651   5.860325   5.043613   4.639877
    26  C    3.611600   3.917071   4.915238   4.308942   3.431628
    27  H    4.039149   4.151893   5.017461   4.772307   3.499920
    28  H    4.480029   5.648402   6.621852   5.959153   5.481586
    29  H    4.468912   5.141871   6.164640   4.611159   5.298123
    30  H    4.082695   3.476343   4.451696   2.996680   3.191208
    31  N    5.279579   3.829781   4.483188   4.284461   2.339637
    32  C    5.636251   3.729580   4.073833   4.238173   2.228572
    33  C    6.997859   4.988982   5.158339   5.471398   3.555182
    34  H    7.682573   5.827700   6.110045   6.291783   4.324644
    35  C    7.541701   5.336823   5.219446   5.805391   4.132318
    36  H    8.604381   6.390340   6.205883   6.854338   5.212875
    37  C    6.843007   4.537323   4.189401   4.971733   3.666749
    38  C    7.950375   5.631065   5.074998   5.964360   5.010515
    39  H    7.853146   5.545775   4.914372   5.714944   5.166756
    40  H    8.874453   6.531557   6.060090   6.804706   5.780313
    41  H    8.158203   5.932179   5.253884   6.398130   5.413367
    42  C    5.437646   3.113959   2.790962   3.566758   2.415533
    43  H    5.101825   2.809290   2.187437   3.150834   2.691198
    44  N    4.818943   2.659761   2.796349   3.231421   1.417255
    45  H    5.967623   4.744989   5.449929   5.171354   3.297850
                   16         17         18         19         20
    16  C    0.000000
    17  C    1.480985   0.000000
    18  C    2.509872   1.409172   0.000000
    19  C    3.822999   2.478954   1.408505   0.000000
    20  C    4.323163   2.843006   2.409879   1.402371   0.000000
    21  C    5.877998   4.398182   3.819861   2.525556   1.556477
    22  H    6.339092   4.882616   4.463143   3.246078   2.163905
    23  H    6.351810   4.888806   4.427459   3.233940   2.197658
    24  H    6.278874   4.836261   3.959106   2.554377   2.169067
    25  C    3.812708   2.436838   2.748486   2.408964   1.385174
    26  C    2.540339   1.413667   2.402475   2.822807   2.438770
    27  H    2.694683   2.122528   3.367120   3.909376   3.445459
    28  H    4.687687   3.416941   3.835208   3.388079   2.132403
    29  H    4.691041   3.462588   2.188298   1.087545   2.161213
    30  H    2.625104   2.104436   1.086464   2.189615   3.414277
    31  N    1.387223   2.527691   3.523245   4.811376   5.242721
    32  C    2.078175   3.522749   4.434387   5.805282   6.351186
    33  C    3.453742   4.859416   5.717440   7.090612   7.652530
    34  H    3.914940   5.173215   6.028411   7.344256   7.839057
    35  C    4.436174   5.907422   6.707010   8.107876   8.743749
    36  H    5.491712   6.954679   7.752835   9.153328   9.784660
    37  C    4.390607   5.843643   6.560894   7.945784   8.644854
    38  C    5.843367   7.269023   7.891315   9.262598  10.028535
    39  H    6.107965   7.452914   7.915783   9.246774  10.107251
    40  H    6.453267   7.896841   8.476805   9.868953  10.679022
    41  H    6.335538   7.753538   8.491037   9.839898  10.504072
    42  C    3.400307   4.760146   5.437080   6.777579   7.475468
    43  H    3.905551   5.090586   5.628779   6.884079   7.620263
    44  N    2.143880   3.567316   4.397734   5.754174   6.360518
    45  H    2.174439   2.895510   3.842922   4.996253   5.304224
                   21         22         23         24         25
    21  C    0.000000
    22  H    1.092006   0.000000
    23  H    1.092277   1.765696   0.000000
    24  H    1.092403   1.819150   1.771049   0.000000
    25  C    2.588142   2.879844   2.903627   3.450664   0.000000
    26  C    3.883980   4.217557   4.221253   4.605976   1.401794
    27  H    4.794018   5.018913   5.027321   5.602118   2.208720
    28  H    2.781514   2.809092   2.852205   3.817547   1.086865
    29  H    2.695286   3.444566   3.460729   2.261840   3.393619
    30  H    4.711292   5.385100   5.340344   4.663947   3.833612
    31  N    6.766981   7.314843   7.065431   7.203461   4.608755
    32  C    7.899646   8.391450   8.288316   8.288121   5.750077
    33  C    9.186930   9.720374   9.508348   9.565120   7.029038
    34  H    9.331315   9.928944   9.532858   9.733466   7.180808
    35  C   10.292745  10.773531  10.699689  10.632067   8.156309
    36  H   11.330407  11.825586  11.703982  11.672698   9.173499
    37  C   10.187174  10.580694  10.728673  10.479589   8.141041
    38  C   11.554926  11.929603  12.142531  11.793989   9.580633
    39  H   11.595154  11.958868  12.254567  11.750266   9.787959
    40  H   12.207454  12.651995  12.745630  12.419615  10.250563
    41  H   12.033190  12.328253  12.629879  12.338966   9.959382
    42  C    8.997797   9.334036   9.616291   9.278709   7.033068
    43  H    9.089349   9.348676   9.806239   9.316142   7.278854
    44  N    7.906712   8.281902   8.454349   8.254694   5.839966
    45  H    6.756529   7.372256   6.900903   7.233053   4.617110
                   26         27         28         29         30
    26  C    0.000000
    27  H    1.087733   0.000000
    28  H    2.152069   2.549247   0.000000
    29  H    3.908911   4.995242   4.282903   0.000000
    30  H    3.358571   4.215270   4.920242   2.563358   0.000000
    31  N    3.291046   3.160487   5.373096   5.681631   3.559346
    32  C    4.395556   4.188256   6.521255   6.600094   4.242164
    33  C    5.672603   5.371254   7.756245   7.852339   5.438713
    34  H    5.865836   5.528238   7.853760   8.124414   5.815220
    35  C    6.788525   6.481634   8.900429   8.810798   6.313456
    36  H    7.799203   7.442298   9.890617   9.848725   7.340264
    37  C    6.810916   6.588707   8.927049   8.586803   6.106721
    38  C    8.272226   8.065026  10.378656   9.826664   7.344034
    39  H    8.547858   8.458070  10.639095   9.710762   7.277552
    40  H    8.930756   8.728298  11.065075  10.410273   7.874667
    41  H    8.636689   8.326448  10.685898  10.458198   8.038334
    42  C    5.764645   5.650818   7.847607   7.408898   5.026268
    43  H    6.110147   6.085929   8.105205   7.429718   5.183901
    44  N    4.530578   4.405643   6.645498   6.489080   4.140914
    45  H    3.394058   3.209088   5.292339   5.885789   3.991669
                   31         32         33         34         35
    31  N    0.000000
    32  C    1.348587   0.000000
    33  C    2.450608   1.399247   0.000000
    34  H    2.652982   2.099209   1.084228   0.000000
    35  C    3.699183   2.419409   1.415620   2.238879   0.000000
    36  H    4.658114   3.440719   2.234262   2.703984   1.085200
    37  C    4.098641   2.762209   2.452520   3.481317   1.448257
    38  C    5.597046   4.261645   3.775398   4.697418   2.476398
    39  H    6.061427   4.785583   4.508559   5.469771   3.340806
    40  H    6.028575   4.705822   3.942365   4.696639   2.580246
    41  H    6.121721   4.790476   4.334305   5.248808   3.036330
    42  C    3.539838   2.401440   2.856354   3.931523   2.513185
    43  H    4.349800   3.362348   3.933884   5.004918   3.514123
    44  N    2.279934   1.356580   2.373693   3.318997   2.732178
    45  H    0.999951   2.138556   2.852144   2.655128   4.234329
                   36         37         38         39         40
    36  H    0.000000
    37  C    2.157881   0.000000
    38  C    2.573983   1.513370   0.000000
    39  H    3.551711   2.183257   1.091542   0.000000
    40  H    2.289618   2.184024   1.092119   1.712204   0.000000
    41  H    3.029427   2.110265   1.092158   1.759615   1.824551
    42  C    3.459458   1.433729   2.608627   2.814599   3.459879
    43  H    4.375138   2.228400   2.920299   2.764776   3.891187
    44  N    3.808205   2.311988   3.743952   4.070746   4.450924
    45  H    5.072946   4.874021   6.354070   6.886150   6.678641
                   41         42         43         44         45
    41  H    0.000000
    42  C    3.063121   0.000000
    43  H    3.256956   1.082158   0.000000
    44  N    4.194476   1.319024   2.100293   0.000000
    45  H    6.883712   4.475025   5.328882   3.247911   0.000000
 Stoichiometry    C19H22N3O(1+)
 Framework group  C1[X(C19H22N3O)]
 Deg. of freedom   129
 Full point group                 C1      NOp   1
 Largest Abelian subgroup         C1      NOp   1
 Largest concise Abelian subgroup C1      NOp   1
                         Standard orientation:                         
 ---------------------------------------------------------------------
 Center     Atomic      Atomic             Coordinates (Angstroms)
 Number     Number       Type             X           Y           Z
 ---------------------------------------------------------------------
      1          6           0        1.808361    3.167053   -1.157453
      2          1           0        1.907271    4.239399   -0.967394
      3          1           0        1.468051    3.070326   -2.191183
      4          1           0        2.688481    2.543865   -0.981067
      5          7           0        0.702206    2.614461   -0.378109
      6          6           0       -0.521089    2.632094   -1.113692
      7          1           0       -0.679414    1.703796   -1.668769
      8          1           0       -0.539165    3.449656   -1.839277
      9          1           0       -1.334158    2.827646   -0.410253
     10          6           0        0.920273    1.913490    0.754005
     11          8           0        1.989827    1.971505    1.317430
     12          6           0       -0.206834    1.119384    1.381815
     13          1           0       -0.993539    1.827921    1.649752
     14          1           0        0.057590    0.665344    2.338776
     15          6           0       -0.773253    0.068987    0.412113
     16          6           0       -0.145708   -0.956638   -0.220929
     17          6           0        1.329269   -1.055645   -0.131727
     18          6           0        1.939860   -1.662075    0.984153
     19          6           0        3.334787   -1.698715    1.175778
     20          6           0        4.154285   -1.206378    0.149780
     21          6           0        5.691996   -1.361489    0.334186
     22          1           0        6.149057   -0.373484    0.248055
     23          1           0        6.116352   -1.996392   -0.446769
     24          1           0        5.882566   -1.832700    1.301134
     25          6           0        3.576999   -0.703498   -1.004586
     26          6           0        2.187124   -0.635748   -1.173948
     27          1           0        1.691604   -0.232447   -2.054273
     28          1           0        4.225600   -0.343633   -1.798997
     29          1           0        3.779358   -2.046973    2.105201
     30          1           0        1.242782   -2.020316    1.736583
     31          7           0       -0.915682   -1.728669   -1.078541
     32          6           0       -2.136697   -1.282868   -0.719277
     33          6           0       -3.364285   -1.801715   -1.145560
     34          1           0       -3.291362   -2.618204   -1.855192
     35          6           0       -4.554057   -1.228332   -0.635997
     36          1           0       -5.564646   -1.465528   -0.952394
     37          6           0       -4.429464   -0.207323    0.383545
     38          6           0       -5.742383    0.141138    1.050710
     39          1           0       -5.642033    0.305874    2.125073
     40          1           0       -6.477945   -0.663689    0.988042
     41          1           0       -6.088186    1.077770    0.608046
     42          6           0       -3.145944    0.253983    0.825528
     43          1           0       -2.999910    0.956625    1.635488
     44          7           0       -2.130849   -0.230114    0.136284
     45          1           0       -0.646121   -2.410882   -1.758117
 ---------------------------------------------------------------------
 Rotational constants (GHZ):           0.4808849           0.1683367           0.1440403
 Leave Link  202 at Sun Jul 18 13:40:52 2021, MaxMem=   104857600 cpu:               0.1 elap:               0.1
 (Enter /dades/curu/g16A03_MST/g16/l301.exe)
 Standard basis: 6-31G(d) (6D, 7F)
 Ernie: Thresh=  0.10000D-02 Tol=  0.10000D-05 Strict=F.
 There are   389 symmetry adapted cartesian basis functions of A   symmetry.
 There are   389 symmetry adapted basis functions of A   symmetry.
   389 basis functions,   732 primitive gaussians,   389 cartesian basis functions
    82 alpha electrons       82 beta electrons
       nuclear repulsion energy      1933.3430150484 Hartrees.
 IExCor=  402 DFT=T Ex+Corr=B3LYP ExCW=0 ScaHFX=  0.200000
 ScaDFX=  0.800000  0.720000  1.000000  0.810000 ScalE2=  1.000000  1.000000
 IRadAn=      5 IRanWt=     -1 IRanGd=            0 ICorTp=0 IEmpDi=  4
 NAtoms=   45 NActive=   45 NUniq=   45 SFac= 1.00D+00 NAtFMM=   60 NAOKFM=F Big=F
 Integral buffers will be    131072 words long.
 Raffenetti 2 integral format.
 Two-electron integral symmetry is turned on.
 Using the following non-standard input for PCM:
 MSTModel=DFT cav MSTCharged
 --- end of non-standard input.
 MST model for solvation energy: B3LYP parametrization.
 MST cavity parameters:
 ISph   IAn     Re0     Alpha   Atom Type   QCorr
 ------------------------------------------------
   1      6     1.50     1.50      CH3        F
   2      1     1.20     1.50      CH3        F
   3      1     1.20     1.50      CH3        F
   4      1     1.20     1.50      CH3        F
   5      7     1.50     1.50      N          F
   6      6     1.50     1.50      CH3        F
   7      1     1.20     1.50      CH3        F
   8      1     1.20     1.50      CH3        F
   9      1     1.20     1.50      CH3        F
  10      6     1.50     1.50      C          F
  11      8     1.40     1.50      O          F
  12      6     1.50     1.50      CH2        F
  13      1     1.20     1.50      CH2        F
  14      1     1.20     1.50      CH2        F
  15      6     1.50     1.50      C          F
  16      6     1.50     1.50      C          F
  17      6     1.50     1.50      C          F
  18      6     1.50     1.50      CH         F
  19      6     1.50     1.50      CH         F
  20      6     1.50     1.50      C          F
  21      6     1.50     1.50      CH3        F
  22      1     1.20     1.50      CH3        F
  23      1     1.20     1.50      CH3        F
  24      1     1.20     1.50      CH3        F
  25      6     1.50     1.50      CH         F
  26      6     1.50     1.50      CH         F
  27      1     1.20     1.50      CH         F
  28      1     1.20     1.50      CH         F
  29      1     1.20     1.50      CH         F
  30      1     1.20     1.50      CH         F
  31      7     1.50     1.15      NHc        T
  32      6     1.50     1.50      C          F
  33      6     1.50     1.50      CH         F
  34      1     1.20     1.50      CH         F
  35      6     1.50     1.50      CH         F
  36      1     1.20     1.50      CH         F
  37      6     1.50     1.50      C          F
  38      6     1.50     1.50      CH3        F
  39      1     1.20     1.50      CH3        F
  40      1     1.20     1.50      CH3        F
  41      1     1.20     1.50      CH3        F
  42      6     1.50     1.50      CH         F
  43      1     1.20     1.50      CH         F
  44      7     1.50     1.50      Nc         F
  45      1     0.90     1.15      NHc        T
 ------------------------------------------------------------------------------
 Polarizable Continuum Model (PCM)
 =================================
 Model                : PCM.
 Atomic radii         : MST.
 Polarization charges : Total charges.
 Charge compensation  : None.
 Solution method      : On-the-fly selection.
 Cavity type          : Scaled VdW (van der Waals Surface) (Alpha=1.500).
 Cavity algorithm     : GePol (No added spheres)
                        Default sphere list used, NSphG=   45.
                        Lebedev-Laikov grids with approx.  5.0 points / Ang**2.
                        Smoothing algorithm: York/Karplus (Gamma=1.0000).
                        Polarization charges: spherical gaussians, with
                                              point-specific exponents (IZeta= 3).
                        Self-potential: point-specific (ISelfS= 7).
                        Self-field    : sphere-specific E.n sum rule (ISelfD= 2).
 1st derivatives      : Analytical E(r).r(x)/FMM algorithm (CHGder, D1EAlg=3).
                        Cavity 1st derivative terms included.
 Solvent              : n-Octanol, Eps=   9.862900 Eps(inf)=   2.043470
 ------------------------------------------------------------------------------
 GePol: Number of generator spheres                  =      45
 GePol: Total number of spheres                      =      45
 GePol: Number of exposed spheres                    =      45 (100.00%)
 GePol: Number of points                             =    4064
 GePol: Average weight of points                     =       0.10
 GePol: Minimum weight of points                     =   0.13D-11
 GePol: Maximum weight of points                     =    0.20526
 GePol: Number of points with low weight             =     289
 GePol: Fraction of low-weight points (<1% of avg)   =       7.11%
 GePol: Cavity surface area                          =    423.544 Ang**2
 GePol: Cavity volume                                =    517.911 Ang**3
 Surface areas from nonelectrostatic (unscaled) cavity and vdw tensions:
 Sphere =    1 Type =  CH3 Surf =        5.098 Tension =       -0.183
 Sphere =    2 Type =  CH3 Surf =       10.150 Tension =       -0.183
 Sphere =    3 Type =  CH3 Surf =        8.853 Tension =       -0.183
 Sphere =    4 Type =  CH3 Surf =        9.703 Tension =       -0.183
 Sphere =    5 Type =  N   Surf =        5.668 Tension =       -0.115
 Sphere =    6 Type =  CH3 Surf =        4.473 Tension =       -0.183
 Sphere =    7 Type =  CH3 Surf =        9.925 Tension =       -0.183
 Sphere =    8 Type =  CH3 Surf =        9.277 Tension =       -0.183
 Sphere =    9 Type =  CH3 Surf =        9.632 Tension =       -0.183
 Sphere =   10 Type =  C   Surf =        6.153 Tension =       -0.205
 Sphere =   11 Type =  O   Surf =       15.783 Tension =       -0.185
 Sphere =   12 Type =  CH2 Surf =        4.042 Tension =       -0.194
 Sphere =   13 Type =  CH2 Surf =        8.864 Tension =       -0.194
 Sphere =   14 Type =  CH2 Surf =       10.050 Tension =       -0.194
 Sphere =   15 Type =  C   Surf =        6.050 Tension =       -0.205
 Sphere =   16 Type =  C   Surf =        5.870 Tension =       -0.205
 Sphere =   17 Type =  C   Surf =        6.225 Tension =       -0.205
 Sphere =   18 Type =  CH  Surf =        7.742 Tension =       -0.195
 Sphere =   19 Type =  CH  Surf =        7.754 Tension =       -0.195
 Sphere =   20 Type =  C   Surf =        6.417 Tension =       -0.205
 Sphere =   21 Type =  CH3 Surf =        5.543 Tension =       -0.183
 Sphere =   22 Type =  CH3 Surf =       10.141 Tension =       -0.183
 Sphere =   23 Type =  CH3 Surf =       10.149 Tension =       -0.183
 Sphere =   24 Type =  CH3 Surf =        9.632 Tension =       -0.183
 Sphere =   25 Type =  CH  Surf =        7.730 Tension =       -0.195
 Sphere =   26 Type =  CH  Surf =        7.863 Tension =       -0.195
 Sphere =   27 Type =  CH  Surf =       10.225 Tension =       -0.195
 Sphere =   28 Type =  CH  Surf =       10.219 Tension =       -0.195
 Sphere =   29 Type =  CH  Surf =        9.880 Tension =       -0.195
 Sphere =   30 Type =  CH  Surf =       10.161 Tension =       -0.195
 Sphere =   31 Type =  NHc Surf =       11.170 Tension =       -0.295
 Sphere =   32 Type =  C   Surf =        5.681 Tension =       -0.205
 Sphere =   33 Type =  CH  Surf =        7.946 Tension =       -0.195
 Sphere =   34 Type =  CH  Surf =       10.194 Tension =       -0.195
 Sphere =   35 Type =  CH  Surf =        7.931 Tension =       -0.195
 Sphere =   36 Type =  CH  Surf =        9.864 Tension =       -0.195
 Sphere =   37 Type =  C   Surf =        6.528 Tension =       -0.205
 Sphere =   38 Type =  CH3 Surf =        5.276 Tension =       -0.183
 Sphere =   39 Type =  CH3 Surf =       10.090 Tension =       -0.183
 Sphere =   40 Type =  CH3 Surf =        9.767 Tension =       -0.183
 Sphere =   41 Type =  CH3 Surf =       10.098 Tension =       -0.183
 Sphere =   42 Type =  CH  Surf =        7.745 Tension =       -0.195
 Sphere =   43 Type =  CH  Surf =        9.451 Tension =       -0.195
 Sphere =   44 Type =  Nc  Surf =        5.700 Tension =       -0.161
 Sphere =   45 Type =  NHc Surf =        3.864 Tension =       -0.295
 PCM non-electrostatic energy =        -0.0174546357 Hartrees.
 Nuclear repulsion after PCM non-electrostatic terms =     1933.3255604128 Hartrees.
 Leave Link  301 at Sun Jul 18 13:40:53 2021, MaxMem=   104857600 cpu:               0.2 elap:               0.9
 (Enter /dades/curu/g16A03_MST/g16/l302.exe)
 NPDir=0 NMtPBC=     1 NCelOv=     1 NCel=       1 NClECP=     1 NCelD=      1
         NCelK=      1 NCelE2=     1 NClLst=     1 CellRange=     0.0.
 One-electron integrals computed using PRISM.
 One-electron integral symmetry used in STVInt
 NBasis=   389 RedAO= T EigKep=  4.41D-04  NBF=   389
 NBsUse=   389 1.00D-06 EigRej= -1.00D+00 NBFU=   389
 Precomputing XC quadrature grid using
 IXCGrd= 4 IRadAn=           5 IRanWt=          -1 IRanGd=           0 AccXCQ= 0.00D+00.
 Generated NRdTot=       0 NPtTot=           0 NUsed=           0 NTot=          32
 NSgBfM=   386   386   386   386   386 MxSgAt=    45 MxSgA2=    45.
 Leave Link  302 at Sun Jul 18 13:40:56 2021, MaxMem=   104857600 cpu:               8.8 elap:               2.4
 (Enter /dades/curu/g16A03_MST/g16/l303.exe)
 DipDrv:  MaxL=1.
 Leave Link  303 at Sun Jul 18 13:40:56 2021, MaxMem=   104857600 cpu:               0.1 elap:               0.1
 (Enter /dades/curu/g16A03_MST/g16/l401.exe)
 ExpMin= 1.61D-01 ExpMax= 5.48D+03 ExpMxC= 8.25D+02 IAcc=3 IRadAn=         5 AccDes= 0.00D+00
 Harris functional with IExCor=  402 and IRadAn=       5 diagonalized for initial guess.
 HarFok:  IExCor=  402 AccDes= 0.00D+00 IRadAn=         5 IDoV= 1 UseB2=F ITyADJ=14
 ICtDFT=  3500011 ScaDFX=  1.000000  1.000000  1.000000  1.000000
 FoFCou: FMM=F IPFlag=           0 FMFlag=      100000 FMFlg1=           0
         NFxFlg=           0 DoJE=T BraDBF=F KetDBF=T FulRan=T
         wScrn=  0.000000 ICntrl=       500 IOpCl=  0 I1Cent=   200000004 NGrid=           0
         NMat0=    1 NMatS0=      1 NMatT0=    0 NMatD0=    1 NMtDS0=    0 NMtDT0=    0
 Petite list used in FoFCou.
 Harris En= -976.520355605791    
 JPrj=0 DoOrth=F DoCkMO=F.
 Leave Link  401 at Sun Jul 18 13:41:10 2021, MaxMem=   104857600 cpu:              53.0 elap:              13.7
 (Enter /dades/curu/g16A03_MST/g16/l502.exe)
 Integral symmetry usage will be decided dynamically.
 Closed shell SCF:
 Using DIIS extrapolation, IDIIS=  1040.
 NGot=   104857600 LenX=   104548198 LenY=   104396436
 Requested convergence on RMS density matrix=1.00D-08 within 128 cycles.
 Requested convergence on MAX density matrix=1.00D-06.
 Requested convergence on             energy=1.00D-06.
 No special actions if energy rises.
 Fock matrices will be formed incrementally for  20 cycles.

 Cycle   1  Pass 1  IDiag  1:
 FoFJK:  IHMeth= 1 ICntrl=       0 DoSepK=F KAlg= 0 I1Cent=           0 FoldK=F
 IRaf= 770000000 NMat=       1 IRICut=       1 DoRegI=T DoRafI=F ISym2E= 0 IDoP0=0 IntGTp=1.
 FoFCou: FMM=F IPFlag=           0 FMFlag=      100000 FMFlg1=           0
         NFxFlg=           0 DoJE=F BraDBF=F KetDBF=F FulRan=T
         wScrn=  0.000000 ICntrl=         0 IOpCl=  0 I1Cent=           0 NGrid=           0
         NMat0=    1 NMatS0=      1 NMatT0=    0 NMatD0=    1 NMtDS0=    0 NMtDT0=    0
 Symmetry not used in FoFCou.
 Inv3:  Mode=1 IEnd=    49548288.
 Iteration    1 A*A^-1 deviation from unit magnitude is 5.33D-15 for   4052.
 Iteration    1 A*A^-1 deviation from orthogonality  is 3.31D-15 for   4035   1605.
 Iteration    1 A^-1*A deviation from unit magnitude is 6.00D-15 for   4052.
 Iteration    1 A^-1*A deviation from orthogonality  is 1.84D-15 for   3206   1960.
 E= -976.079150492412    
 DIIS: error= 2.19D-02 at cycle   1 NSaved=   1.
 NSaved= 1 IEnMin= 1 EnMin= -976.079150492412     IErMin= 1 ErrMin= 2.19D-02
 ErrMax= 2.19D-02  0.00D+00 EMaxC= 1.00D-01 BMatC= 5.08D-01 BMatP= 5.08D-01
 IDIUse=3 WtCom= 7.81D-01 WtEn= 2.19D-01
 Coeff-Com:  0.100D+01
 Coeff-En:   0.100D+01
 Coeff:      0.100D+01
 Gap=     0.219 Goal=   None    Shift=    0.000
 GapD=    0.219 DampG=1.000 DampE=0.500 DampFc=0.5000 IDamp=-1.
 Damping current iteration by 5.00D-01
 RMSDP=4.69D-03 MaxDP=2.04D-01              OVMax= 2.70D-01

 Cycle   2  Pass 1  IDiag  1:
 RMSU=  2.32D-03    CP:  9.79D-01
 E= -976.263363333805     Delta-E=       -0.184212841393 Rises=F Damp=T
 DIIS: error= 7.80D-03 at cycle   2 NSaved=   2.
 NSaved= 2 IEnMin= 2 EnMin= -976.263363333805     IErMin= 2 ErrMin= 7.80D-03
 ErrMax= 7.80D-03  0.00D+00 EMaxC= 1.00D-01 BMatC= 6.53D-02 BMatP= 5.08D-01
 IDIUse=3 WtCom= 9.22D-01 WtEn= 7.80D-02
 Coeff-Com:  0.148D+00 0.852D+00
 Coeff-En:   0.233D+00 0.767D+00
 Coeff:      0.155D+00 0.845D+00
 Gap=     0.229 Goal=   None    Shift=    0.000
 RMSDP=1.57D-03 MaxDP=9.01D-02 DE=-1.84D-01 OVMax= 2.16D-01

 Cycle   3  Pass 1  IDiag  1:
 RMSU=  1.42D-03    CP:  9.64D-01  7.25D-01
 E= -976.515465853560     Delta-E=       -0.252102519756 Rises=F Damp=F
 DIIS: error= 1.23D-02 at cycle   3 NSaved=   3.
 NSaved= 3 IEnMin= 3 EnMin= -976.515465853560     IErMin= 2 ErrMin= 7.80D-03
 ErrMax= 1.23D-02  0.00D+00 EMaxC= 1.00D-01 BMatC= 7.73D-02 BMatP= 6.53D-02
 IDIUse=2 WtCom= 0.00D+00 WtEn= 1.00D+00
 Coeff-En:   0.000D+00 0.000D+00 0.100D+01
 Coeff:      0.000D+00 0.000D+00 0.100D+01
 Gap=     0.199 Goal=   None    Shift=    0.000
 RMSDP=2.41D-03 MaxDP=1.66D-01 DE=-2.52D-01 OVMax= 2.94D-01

 Cycle   4  Pass 1  IDiag  1:
 RMSU=  1.25D-03    CP:  9.73D-01  1.27D+00 -1.45D-01
 E= -976.231084339866     Delta-E=        0.284381513695 Rises=F Damp=F
 DIIS: error= 2.96D-02 at cycle   4 NSaved=   4.
 NSaved= 4 IEnMin= 3 EnMin= -976.515465853560     IErMin= 2 ErrMin= 7.80D-03
 ErrMax= 2.96D-02  0.00D+00 EMaxC= 1.00D-01 BMatC= 4.08D-01 BMatP= 6.53D-02
 IDIUse=2 WtCom= 0.00D+00 WtEn= 1.00D+00
 Coeff-En:   0.000D+00 0.000D+00 0.783D+00 0.217D+00
 Coeff:      0.000D+00 0.000D+00 0.783D+00 0.217D+00
 Gap=     0.154 Goal=   None    Shift=    0.000
 RMSDP=1.33D-03 MaxDP=1.07D-01 DE= 2.84D-01 OVMax= 1.45D-01

 Cycle   5  Pass 1  IDiag  1:
 RMSU=  2.34D-04    CP:  9.70D-01  9.31D-01  4.53D-01  4.96D-01
 E= -976.561378407008     Delta-E=       -0.330294067142 Rises=F Damp=F
 DIIS: error= 6.71D-03 at cycle   5 NSaved=   5.
 NSaved= 5 IEnMin= 5 EnMin= -976.561378407008     IErMin= 5 ErrMin= 6.71D-03
 ErrMax= 6.71D-03  0.00D+00 EMaxC= 1.00D-01 BMatC= 2.63D-02 BMatP= 6.53D-02
 IDIUse=3 WtCom= 9.33D-01 WtEn= 6.71D-02
 Coeff-Com:  0.157D-02 0.136D-01 0.341D+00-0.255D-01 0.669D+00
 Coeff-En:   0.000D+00 0.000D+00 0.302D+00 0.000D+00 0.698D+00
 Coeff:      0.147D-02 0.127D-01 0.339D+00-0.238D-01 0.671D+00
 Gap=     0.175 Goal=   None    Shift=    0.000
 RMSDP=4.47D-04 MaxDP=2.31D-02 DE=-3.30D-01 OVMax= 4.75D-02

 Cycle   6  Pass 1  IDiag  1:
 RMSU=  9.32D-05    CP:  9.68D-01  8.43D-01  6.62D-01  3.12D-01  6.20D-01
 E= -976.584953629535     Delta-E=       -0.023575222526 Rises=F Damp=F
 DIIS: error= 8.74D-04 at cycle   6 NSaved=   6.
 NSaved= 6 IEnMin= 6 EnMin= -976.584953629535     IErMin= 6 ErrMin= 8.74D-04
 ErrMax= 8.74D-04  0.00D+00 EMaxC= 1.00D-01 BMatC= 4.37D-04 BMatP= 2.63D-02
 IDIUse=3 WtCom= 9.91D-01 WtEn= 8.74D-03
 Coeff-Com: -0.406D-02 0.113D-01 0.145D+00-0.522D-01 0.443D+00 0.458D+00
 Coeff-En:   0.000D+00 0.000D+00 0.000D+00 0.000D+00 0.000D+00 0.100D+01
 Coeff:     -0.403D-02 0.112D-01 0.144D+00-0.517D-01 0.439D+00 0.462D+00
 Gap=     0.167 Goal=   None    Shift=    0.000
 RMSDP=5.80D-05 MaxDP=2.33D-03 DE=-2.36D-02 OVMax= 8.39D-03

 Cycle   7  Pass 1  IDiag  1:
 RMSU=  2.15D-05    CP:  9.68D-01  8.50D-01  6.55D-01  3.16D-01  7.36D-01
                    CP:  5.51D-01
 E= -976.585382450954     Delta-E=       -0.000428821420 Rises=F Damp=F
 DIIS: error= 1.28D-04 at cycle   7 NSaved=   7.
 NSaved= 7 IEnMin= 7 EnMin= -976.585382450954     IErMin= 7 ErrMin= 1.28D-04
 ErrMax= 1.28D-04  0.00D+00 EMaxC= 1.00D-01 BMatC= 1.23D-05 BMatP= 4.37D-04
 IDIUse=3 WtCom= 9.99D-01 WtEn= 1.28D-03
 Coeff-Com: -0.193D-02 0.492D-02 0.514D-01-0.254D-01 0.178D+00 0.216D+00
 Coeff-Com:  0.578D+00
 Coeff-En:   0.000D+00 0.000D+00 0.000D+00 0.000D+00 0.000D+00 0.000D+00
 Coeff-En:   0.100D+01
 Coeff:     -0.193D-02 0.491D-02 0.514D-01-0.254D-01 0.177D+00 0.216D+00
 Coeff:      0.578D+00
 Gap=     0.167 Goal=   None    Shift=    0.000
 RMSDP=1.12D-05 MaxDP=3.88D-04 DE=-4.29D-04 OVMax= 1.17D-03

 Cycle   8  Pass 1  IDiag  1:
 RMSU=  7.50D-06    CP:  9.68D-01  8.50D-01  6.56D-01  3.15D-01  7.36D-01
                    CP:  5.69D-01  6.53D-01
 E= -976.585393011980     Delta-E=       -0.000010561026 Rises=F Damp=F
 DIIS: error= 3.74D-05 at cycle   8 NSaved=   8.
 NSaved= 8 IEnMin= 8 EnMin= -976.585393011980     IErMin= 8 ErrMin= 3.74D-05
 ErrMax= 3.74D-05  0.00D+00 EMaxC= 1.00D-01 BMatC= 1.86D-06 BMatP= 1.23D-05
 IDIUse=1 WtCom= 1.00D+00 WtEn= 0.00D+00
 Coeff-Com: -0.223D-03 0.385D-03 0.107D-01-0.579D-02 0.359D-01 0.509D-01
 Coeff-Com:  0.316D+00 0.592D+00
 Coeff:     -0.223D-03 0.385D-03 0.107D-01-0.579D-02 0.359D-01 0.509D-01
 Coeff:      0.316D+00 0.592D+00
 Gap=     0.167 Goal=   None    Shift=    0.000
 RMSDP=4.20D-06 MaxDP=1.83D-04 DE=-1.06D-05 OVMax= 3.61D-04

 Cycle   9  Pass 1  IDiag  1:
 RMSU=  2.57D-06    CP:  9.68D-01  8.49D-01  6.57D-01  3.15D-01  7.38D-01
                    CP:  5.65D-01  7.09D-01  6.36D-01
 E= -976.585394513938     Delta-E=       -0.000001501957 Rises=F Damp=F
 DIIS: error= 1.62D-05 at cycle   9 NSaved=   9.
 NSaved= 9 IEnMin= 9 EnMin= -976.585394513938     IErMin= 9 ErrMin= 1.62D-05
 ErrMax= 1.62D-05  0.00D+00 EMaxC= 1.00D-01 BMatC= 2.13D-07 BMatP= 1.86D-06
 IDIUse=1 WtCom= 1.00D+00 WtEn= 0.00D+00
 Coeff-Com:  0.677D-04-0.334D-03 0.250D-02-0.125D-02 0.698D-02 0.128D-01
 Coeff-Com:  0.138D+00 0.349D+00 0.492D+00
 Coeff:      0.677D-04-0.334D-03 0.250D-02-0.125D-02 0.698D-02 0.128D-01
 Coeff:      0.138D+00 0.349D+00 0.492D+00
 Gap=     0.167 Goal=   None    Shift=    0.000
 RMSDP=1.52D-06 MaxDP=6.52D-05 DE=-1.50D-06 OVMax= 1.27D-04

 Cycle  10  Pass 1  IDiag  1:
 RMSU=  7.32D-07    CP:  9.68D-01  8.49D-01  6.57D-01  3.15D-01  7.37D-01
                    CP:  5.66D-01  7.23D-01  6.99D-01  5.71D-01
 E= -976.585394722584     Delta-E=       -0.000000208646 Rises=F Damp=F
 DIIS: error= 4.13D-06 at cycle  10 NSaved=  10.
 NSaved=10 IEnMin=10 EnMin= -976.585394722584     IErMin=10 ErrMin= 4.13D-06
 ErrMax= 4.13D-06  0.00D+00 EMaxC= 1.00D-01 BMatC= 1.34D-08 BMatP= 2.13D-07
 IDIUse=1 WtCom= 1.00D+00 WtEn= 0.00D+00
 Coeff-Com:  0.578D-04-0.213D-03 0.288D-03-0.131D-03 0.234D-03 0.223D-02
 Coeff-Com:  0.439D-01 0.131D+00 0.258D+00 0.564D+00
 Coeff:      0.578D-04-0.213D-03 0.288D-03-0.131D-03 0.234D-03 0.223D-02
 Coeff:      0.439D-01 0.131D+00 0.258D+00 0.564D+00
 Gap=     0.167 Goal=   None    Shift=    0.000
 RMSDP=3.47D-07 MaxDP=2.05D-05 DE=-2.09D-07 OVMax= 3.31D-05

 Cycle  11  Pass 1  IDiag  1:
 RMSU=  2.45D-07    CP:  9.68D-01  8.49D-01  6.57D-01  3.15D-01  7.37D-01
                    CP:  5.66D-01  7.25D-01  6.94D-01  6.15D-01  7.35D-01
 E= -976.585394734041     Delta-E=       -0.000000011457 Rises=F Damp=F
 DIIS: error= 1.51D-06 at cycle  11 NSaved=  11.
 NSaved=11 IEnMin=11 EnMin= -976.585394734041     IErMin=11 ErrMin= 1.51D-06
 ErrMax= 1.51D-06  0.00D+00 EMaxC= 1.00D-01 BMatC= 1.28D-09 BMatP= 1.34D-08
 IDIUse=1 WtCom= 1.00D+00 WtEn= 0.00D+00
 Coeff-Com:  0.148D-04-0.417D-04-0.228D-03 0.745D-04-0.791D-03-0.373D-03
 Coeff-Com:  0.300D-02 0.181D-01 0.590D-01 0.277D+00 0.644D+00
 Coeff:      0.148D-04-0.417D-04-0.228D-03 0.745D-04-0.791D-03-0.373D-03
 Coeff:      0.300D-02 0.181D-01 0.590D-01 0.277D+00 0.644D+00
 Gap=     0.167 Goal=   None    Shift=    0.000
 RMSDP=1.15D-07 MaxDP=5.38D-06 DE=-1.15D-08 OVMax= 1.12D-05

 Cycle  12  Pass 1  IDiag  1:
 RMSU=  7.73D-08    CP:  9.68D-01  8.49D-01  6.57D-01  3.15D-01  7.37D-01
                    CP:  5.66D-01  7.25D-01  6.96D-01  6.24D-01  8.01D-01
                    CP:  7.43D-01
 E= -976.585394735133     Delta-E=       -0.000000001092 Rises=F Damp=F
 DIIS: error= 7.07D-07 at cycle  12 NSaved=  12.
 NSaved=12 IEnMin=12 EnMin= -976.585394735133     IErMin=12 ErrMin= 7.07D-07
 ErrMax= 7.07D-07  0.00D+00 EMaxC= 1.00D-01 BMatC= 2.01D-10 BMatP= 1.28D-09
 IDIUse=1 WtCom= 1.00D+00 WtEn= 0.00D+00
 Coeff-Com:  0.389D-05-0.739D-05-0.150D-03 0.505D-04-0.460D-03-0.285D-03
 Coeff-Com: -0.128D-02 0.180D-02 0.153D-01 0.123D+00 0.373D+00 0.490D+00
 Coeff:      0.389D-05-0.739D-05-0.150D-03 0.505D-04-0.460D-03-0.285D-03
 Coeff:     -0.128D-02 0.180D-02 0.153D-01 0.123D+00 0.373D+00 0.490D+00
 Gap=     0.167 Goal=   None    Shift=    0.000
 RMSDP=4.89D-08 MaxDP=1.73D-06 DE=-1.09D-09 OVMax= 5.53D-06

 Cycle  13  Pass 1  IDiag  1:
 RMSU=  3.11D-08    CP:  9.68D-01  8.49D-01  6.57D-01  3.15D-01  7.37D-01
                    CP:  5.66D-01  7.25D-01  6.97D-01  6.25D-01  8.03D-01
                    CP:  8.02D-01  5.84D-01
 E= -976.585394735281     Delta-E=       -0.000000000147 Rises=F Damp=F
 DIIS: error= 2.04D-07 at cycle  13 NSaved=  13.
 NSaved=13 IEnMin=13 EnMin= -976.585394735281     IErMin=13 ErrMin= 2.04D-07
 ErrMax= 2.04D-07  0.00D+00 EMaxC= 1.00D-01 BMatC= 2.51D-11 BMatP= 2.01D-10
 IDIUse=1 WtCom= 1.00D+00 WtEn= 0.00D+00
 Coeff-Com: -0.809D-06 0.349D-05-0.456D-04 0.154D-04-0.118D-03-0.575D-04
 Coeff-Com: -0.127D-02-0.200D-02-0.274D-02 0.203D-01 0.922D-01 0.279D+00
 Coeff-Com:  0.615D+00
 Coeff:     -0.809D-06 0.349D-05-0.456D-04 0.154D-04-0.118D-03-0.575D-04
 Coeff:     -0.127D-02-0.200D-02-0.274D-02 0.203D-01 0.922D-01 0.279D+00
 Coeff:      0.615D+00
 Gap=     0.167 Goal=   None    Shift=    0.000
 RMSDP=1.61D-08 MaxDP=7.92D-07 DE=-1.47D-10 OVMax= 1.62D-06

 Cycle  14  Pass 1  IDiag  1:
 RMSU=  9.26D-09    CP:  9.68D-01  8.49D-01  6.57D-01  3.15D-01  7.37D-01
                    CP:  5.66D-01  7.25D-01  6.97D-01  6.25D-01  8.08D-01
                    CP:  8.05D-01  6.94D-01  7.19D-01
 E= -976.585394735388     Delta-E=       -0.000000000107 Rises=F Damp=F
 DIIS: error= 6.83D-08 at cycle  14 NSaved=  14.
 NSaved=14 IEnMin=14 EnMin= -976.585394735388     IErMin=14 ErrMin= 6.83D-08
 ErrMax= 6.83D-08  0.00D+00 EMaxC= 1.00D-01 BMatC= 2.35D-12 BMatP= 2.51D-11
 IDIUse=1 WtCom= 1.00D+00 WtEn= 0.00D+00
 Coeff-Com: -0.945D-06 0.263D-05-0.101D-04 0.372D-05-0.185D-04 0.460D-06
 Coeff-Com: -0.618D-03-0.137D-02-0.346D-02-0.163D-02 0.116D-01 0.103D+00
 Coeff-Com:  0.330D+00 0.563D+00
 Coeff:     -0.945D-06 0.263D-05-0.101D-04 0.372D-05-0.185D-04 0.460D-06
 Coeff:     -0.618D-03-0.137D-02-0.346D-02-0.163D-02 0.116D-01 0.103D+00
 Coeff:      0.330D+00 0.563D+00
 Gap=     0.167 Goal=   None    Shift=    0.000
 RMSDP=5.45D-09 MaxDP=2.00D-07 DE=-1.07D-10 OVMax= 5.56D-07

 Error on total polarization charges =  0.00688
 SCF Done:  E(RB3LYP) =  -976.585394735     A.U. after   14 cycles
            NFock= 14  Conv=0.55D-08     -V/T= 2.0096
 KE= 9.673119700792D+02 PE=-6.110255819047D+03 EE= 2.233032893820D+03
 Leave Link  502 at Sun Jul 18 13:49:12 2021, MaxMem=   104857600 cpu:            1879.5 elap:             481.7
 (Enter /dades/curu/g16A03_MST/g16/l601.exe)
 Copying SCF densities to generalized density rwf, IOpCl= 0 IROHF=0.

 **********************************************************************

            Population analysis using the SCF density.

 **********************************************************************

 Orbital symmetries:
       Occupied  (A) (A) (A) (A) (A) (A) (A) (A) (A) (A) (A) (A)
                 (A) (A) (A) (A) (A) (A) (A) (A) (A) (A) (A) (A)
                 (A) (A) (A) (A) (A) (A) (A) (A) (A) (A) (A) (A)
                 (A) (A) (A) (A) (A) (A) (A) (A) (A) (A) (A) (A)
                 (A) (A) (A) (A) (A) (A) (A) (A) (A) (A) (A) (A)
                 (A) (A) (A) (A) (A) (A) (A) (A) (A) (A) (A) (A)
                 (A) (A) (A) (A) (A) (A) (A) (A) (A) (A)
       Virtual   (A) (A) (A) (A) (A) (A) (A) (A) (A) (A) (A) (A)
                 (A) (A) (A) (A) (A) (A) (A) (A) (A) (A) (A) (A)
                 (A) (A) (A) (A) (A) (A) (A) (A) (A) (A) (A) (A)
                 (A) (A) (A) (A) (A) (A) (A) (A) (A) (A) (A) (A)
                 (A) (A) (A) (A) (A) (A) (A) (A) (A) (A) (A) (A)
                 (A) (A) (A) (A) (A) (A) (A) (A) (A) (A) (A) (A)
                 (A) (A) (A) (A) (A) (A) (A) (A) (A) (A) (A) (A)
                 (A) (A) (A) (A) (A) (A) (A) (A) (A) (A) (A) (A)
                 (A) (A) (A) (A) (A) (A) (A) (A) (A) (A) (A) (A)
                 (A) (A) (A) (A) (A) (A) (A) (A) (A) (A) (A) (A)
[...]
    29  H   -2.160021   1.294290   0.089258   0.004564   0.004695  -0.062091
    30  H    1.291470  -0.658796  -0.012549  -0.000875  -0.001491   0.002633
    31  N   -0.011991  -0.061080  -0.011865  -0.000148  -0.001004   0.000252
    32  C   -0.037245  -0.001210   0.007410   0.001096  -0.000834   0.000571
    33  C    0.022228   0.017236   0.003890   0.000246  -0.000005   0.000106
    34  H    0.002888  -0.000433   0.000281   0.000018   0.000002   0.000012
    35  C   -0.000870  -0.001252   0.000080   0.000004  -0.000012   0.000015
    36  H   -0.000277  -0.000101  -0.000015  -0.000001  -0.000001  -0.000000
    37  C    0.005439   0.001869  -0.000067  -0.000003   0.000018  -0.000027
    38  C   -0.000098  -0.000118  -0.000011  -0.000001  -0.000000  -0.000000
    39  H    0.000012  -0.000041  -0.000002  -0.000000   0.000000  -0.000000
    40  H    0.000012   0.000004   0.000000   0.000000   0.000000   0.000000
    41  H    0.000018  -0.000007  -0.000001  -0.000000  -0.000000  -0.000000
    42  C   -0.043232  -0.026237  -0.004709  -0.000365  -0.000114  -0.000028
    43  H   -0.007105   0.002408   0.000014  -0.000001  -0.000004   0.000020
    44  N    0.010056  -0.023778  -0.002371  -0.000234  -0.000124  -0.000090
    45  H   -0.007957   0.001107  -0.004921  -0.000343   0.000329  -0.000285
              25         26         27         28         29         30
     1  C    0.055507  -0.067406   0.005684  -0.001397   0.001865  -0.013966
     2  H    0.005132   0.002832  -0.000036   0.000003  -0.000278   0.004105
     3  H    0.016007  -0.048315   0.001179  -0.001528   0.003768  -0.007328
     4  H   -0.024952   0.016036  -0.000257  -0.000077  -0.003333  -0.004540
     5  N    0.098948   0.054875   0.001964   0.000880  -0.005101  -0.006176
     6  C    0.002850   0.077738  -0.003922   0.000958  -0.001025   0.005973
     7  H   -0.020127   0.032298  -0.000551  -0.000127  -0.000168   0.004443
     8  H   -0.006063   0.012076  -0.000480   0.000108  -0.000217   0.001125
     9  H    0.040783   0.035467   0.001537   0.000159   0.000419  -0.002761
    10  C   -0.059162  -0.406078  -0.007262   0.003027   0.024829   0.072480
    11  O   -0.004521  -0.014198   0.001536  -0.000223   0.001504   0.008102
    12  C    0.029145   0.084574  -0.016774   0.000980  -0.006131  -0.006393
    13  H   -0.005334  -0.010846  -0.001194  -0.000050   0.000201   0.002387
    14  H    0.011360  -0.020204  -0.002003   0.000349   0.001249   0.005959
    15  C   -0.175402  -1.741320   0.139420  -0.020523   0.026215  -0.189910
    16  C   -0.759897  -1.846448  -0.049769   0.069948  -0.057481  -0.050405
    17  C    2.386924 -10.539454   1.312436  -0.458627  -0.461094   1.393531
    18  C   -6.048839   1.265092   0.334390   0.010454   0.669561  -2.618188
    19  C    3.068689  -6.864271  -0.056768   0.165576  -2.160021   1.291470
    20  C   -6.110496   2.977668  -0.514147   0.733609   1.294290  -0.658796
    21  C   -0.544449   0.597336   0.021457   0.000487   0.089258  -0.012549
    22  H   -0.030843   0.005599  -0.001632  -0.006811   0.004564  -0.000875
    23  H   -0.062133   0.014170  -0.001288  -0.008834   0.004695  -0.001491
    24  H   -0.228258  -0.096786   0.000272   0.006763  -0.062091   0.002633
    25  C   22.529194  -8.603779   0.841453  -1.632971   0.155950   0.165040
    26  C   -8.603779  31.341189  -2.456620   0.860912   0.030420  -0.149000
    27  H    0.841453  -2.456620   2.369251  -0.129428   0.005793  -0.023818
    28  H   -1.632971   0.860912  -0.129428   2.068973  -0.026041   0.011201
    29  H    0.155950   0.030420   0.005793  -0.026041   2.356865  -0.171276
    30  H    0.165040  -0.149000  -0.023818   0.011201  -0.171276   2.515030
    31  N    0.279993   0.676936   0.010961  -0.002403  -0.004119   0.033883
    32  C    0.362493   0.681731   0.056987   0.011112  -0.004340   0.060803
    33  C   -0.022229  -0.158031   0.005698  -0.000209   0.000777  -0.014539
    34  H   -0.005221  -0.033945   0.002063   0.000016   0.000019   0.000215
    35  C   -0.006469  -0.044522   0.005523  -0.000263  -0.000612   0.007635
    36  H    0.000252   0.002780  -0.000264   0.000006  -0.000013   0.000045
    37  C    0.003824   0.064022  -0.003520   0.000390   0.000737  -0.003247
    38  C    0.000042   0.001294   0.000147   0.000014  -0.000002  -0.000052
    39  H    0.000133   0.000902  -0.000046   0.000004   0.000011  -0.000205
    40  H    0.000003  -0.000098   0.000014   0.000001  -0.000001   0.000052
    41  H   -0.000037  -0.000101   0.000010  -0.000001   0.000001  -0.000035
    42  C   -0.007253  -0.174089   0.001988  -0.000061  -0.003188   0.019831
    43  H   -0.004669  -0.019762   0.001384  -0.000131  -0.000493   0.003627
    44  N    0.026659  -0.096297  -0.007252   0.001852   0.001006   0.026461
    45  H    0.028007   0.076251  -0.030905  -0.003818   0.000515   0.004143
              31         32         33         34         35         36
     1  C    0.012115   0.026647  -0.008242  -0.000185   0.003539   0.000120
     2  H    0.000189   0.001690   0.000057  -0.000007   0.000062   0.000005
     3  H   -0.000583   0.004414   0.000034   0.000017   0.000529   0.000015
     4  H    0.000295  -0.003837  -0.001008  -0.000018   0.000165   0.000004
     5  N    0.027719   0.074241  -0.017343  -0.000013   0.003641   0.000031
     6  C    0.000285   0.041800  -0.059242  -0.000946   0.023192   0.000457
     7  H    0.006320  -0.009392   0.006536  -0.000029  -0.003211  -0.000041
     8  H    0.001342  -0.000661  -0.005970   0.000031   0.001091   0.000015
     9  H    0.000154   0.056047   0.047765  -0.001935  -0.007282   0.000179
    10  C   -0.127899  -0.194283  -0.027953   0.002239   0.031559   0.001989
    11  O    0.005688   0.014239   0.001059   0.000014  -0.000735  -0.000021
    12  C    0.022802   0.933395  -0.134289   0.003575   0.131485   0.011288
    13  H   -0.009397  -0.038414   0.013519   0.001484  -0.015031   0.000949
    14  H    0.010002  -0.032075  -0.001639  -0.000272  -0.003800   0.000660
    15  C   -0.373095  -7.605991   2.289858   0.027499  -2.521536   0.041355
    16  C    0.268638  -3.466610  -2.053943   0.204939   0.405291  -0.035513
    17  C   -1.505921  -2.804171  -0.058293  -0.031003  -0.128303  -0.002280
    18  C    0.170064   0.298193  -0.172604   0.014965   0.034367  -0.000959
    19  C   -0.011991  -0.037245   0.022228   0.002888  -0.000870  -0.000277
    20  C   -0.061080  -0.001210   0.017236  -0.000433  -0.001252  -0.000101
    21  C   -0.011865   0.007410   0.003890   0.000281   0.000080  -0.000015
    22  H   -0.000148   0.001096   0.000246   0.000018   0.000004  -0.000001
    23  H   -0.001004  -0.000834  -0.000005   0.000002  -0.000012  -0.000001
    24  H    0.000252   0.000571   0.000106   0.000012   0.000015  -0.000000
    25  C    0.279993   0.362493  -0.022229  -0.005221  -0.006469   0.000252
    26  C    0.676936   0.681731  -0.158031  -0.033945  -0.044522   0.002780
    27  H    0.010961   0.056987   0.005698   0.002063   0.005523  -0.000264
    28  H   -0.002403   0.011112  -0.000209   0.000016  -0.000263   0.000006
    29  H   -0.004119  -0.004340   0.000777   0.000019  -0.000612  -0.000013
    30  H    0.033883   0.060803  -0.014539   0.000215   0.007635   0.000045
    31  N    9.031646  -0.407035  -0.302383  -0.044556  -0.035955  -0.028542
    32  C   -0.407035  24.704192  -9.693922   1.250970   4.480944  -0.368159
    33  C   -0.302383  -9.693922  21.795697  -1.978736  -7.590417   0.836950
    34  H   -0.044556   1.250970  -1.978736   1.792256   0.896973  -0.081918
    35  C   -0.035955   4.480944  -7.590417   0.896973  16.713393  -1.172980
    36  H   -0.028542  -0.368159   0.836950  -0.081918  -1.172980   1.842769
    37  C    0.017228  -2.479928   3.476864  -0.557305  -4.449505   0.383377
    38  C   -0.028682  -0.512822   0.805488  -0.001764  -1.190818   0.021336
    39  H    0.000508   0.097046  -0.101344  -0.002114   0.087539   0.009216
    40  H   -0.000203  -0.029099   0.047398  -0.001102  -0.100024  -0.010351
    41  H    0.000001  -0.009413   0.009729  -0.001388  -0.082771  -0.009956
    42  C   -0.269329   1.406833  -2.704558   0.080643   1.103350   0.148897
    43  H    0.043144  -0.608829   0.138849   0.002912   0.010319  -0.026197
    44  N    0.097951  -0.007687   0.259724  -0.018120  -0.728557   0.039170
    45  H    0.382462   0.239468  -0.119228  -0.008329  -0.012538   0.003102
              37         38         39         40         41         42
     1  C   -0.003061   0.000138   0.000237  -0.000026   0.000006   0.016926
     2  H   -0.000130  -0.000017   0.000018  -0.000001  -0.000006   0.001387
     3  H   -0.001505  -0.000032   0.000019  -0.000007  -0.000000  -0.004662
     4  H    0.000628   0.000042   0.000022   0.000001   0.000003   0.002926
     5  N    0.006896   0.001923  -0.000253   0.000041   0.000120   0.020467
     6  C   -0.018973  -0.004162  -0.000814  -0.000157   0.000020   0.132836
     7  H    0.001819  -0.000823  -0.000187   0.000012  -0.000036  -0.009309
     8  H    0.009499   0.000221  -0.000031   0.000067  -0.000036   0.014727
     9  H   -0.062573   0.001319   0.001235  -0.000548   0.000161  -0.008662
    10  C   -0.169191  -0.011825   0.007220  -0.001488  -0.000547  -0.098769
    11  O    0.000993  -0.000209  -0.000024  -0.000013  -0.000005  -0.020024
    12  C   -0.495268  -0.055186   0.014040  -0.007625  -0.002176   0.614733
    13  H   -0.053653   0.001611   0.002015  -0.000739   0.001598  -0.073040
    14  H    0.002922   0.003948   0.002414   0.000369  -0.000096   0.080450
    15  C    1.756138   0.124718  -0.035283   0.012834   0.014962  -5.784589
    16  C    0.073523  -0.128693   0.012246  -0.004116  -0.007701  -1.384193
    17  C    0.134889  -0.008096   0.000141  -0.000150  -0.000878   0.135352
    18  C    0.010864  -0.000797  -0.000817   0.000222   0.000012   0.014847
    19  C    0.005439  -0.000098   0.000012   0.000012   0.000018  -0.043232
    20  C    0.001869  -0.000118  -0.000041   0.000004  -0.000007  -0.026237
    21  C   -0.000067  -0.000011  -0.000002   0.000000  -0.000001  -0.004709
    22  H   -0.000003  -0.000001  -0.000000   0.000000  -0.000000  -0.000365
    23  H    0.000018  -0.000000   0.000000   0.000000  -0.000000  -0.000114
    24  H   -0.000027  -0.000000  -0.000000   0.000000  -0.000000  -0.000028
    25  C    0.003824   0.000042   0.000133   0.000003  -0.000037  -0.007253
    26  C    0.064022   0.001294   0.000902  -0.000098  -0.000101  -0.174089
    27  H   -0.003520   0.000147  -0.000046   0.000014   0.000010   0.001988
    28  H    0.000390   0.000014   0.000004   0.000001  -0.000001  -0.000061
    29  H    0.000737  -0.000002   0.000011  -0.000001   0.000001  -0.003188
    30  H   -0.003247  -0.000052  -0.000205   0.000052  -0.000035   0.019831
    31  N    0.017228  -0.028682   0.000508  -0.000203   0.000001  -0.269329
    32  C   -2.479928  -0.512822   0.097046  -0.029099  -0.009413   1.406833
    33  C    3.476864   0.805488  -0.101344   0.047398   0.009729  -2.704558
    34  H   -0.557305  -0.001764  -0.002114  -0.001102  -0.001388   0.080643
    35  C   -4.449505  -1.190818   0.087539  -0.100024  -0.082771   1.103350
    36  H    0.383377   0.021336   0.009216  -0.010351  -0.009956   0.148897
    37  C   11.392412  -0.098551   0.418456   0.100242   0.038632  -4.371549
    38  C   -0.098551   5.957566  -0.106315   0.353788   0.359142   0.002412
    39  H    0.418456  -0.106315   1.097290  -0.091045  -0.081165  -0.209735
    40  H    0.100242   0.353788  -0.091045   0.758077  -0.108336  -0.027795
    41  H    0.038632   0.359142  -0.081165  -0.108336   0.752939   0.022157
    42  C   -4.371549   0.002412  -0.209735  -0.027795   0.022157  17.630560
    43  H    0.732281   0.026669  -0.041366   0.004720  -0.010431  -1.983823
    44  N    0.186027  -0.042727   0.068053  -0.007922  -0.003537  -0.029722
    45  H   -0.001355  -0.006578   0.000390  -0.000488  -0.000302  -0.018140
              43         44         45
     1  C   -0.008311   0.023004  -0.001319
     2  H    0.000606   0.000519   0.000100
     3  H   -0.000971  -0.002298  -0.000589
     4  H   -0.002137   0.001829   0.000001
     5  N    0.024849   0.017071  -0.000847
     6  C    0.031043   0.041032   0.004105
     7  H    0.002465   0.000928   0.000997
     8  H    0.001736  -0.009585   0.000456
     9  H   -0.015572   0.044195  -0.000508
    10  C   -0.299805  -0.068526  -0.012136
    11  O    0.005233  -0.005577  -0.000306
    12  C   -0.322789   0.108671  -0.014346
    13  H   -0.097058  -0.044463  -0.001992
    14  H   -0.054446  -0.039244   0.001318
    15  C    1.506425  -3.864595  -0.179209
    16  C    0.096259   0.334902  -0.224993
    17  C    0.012946   1.192017   0.148439
    18  C    0.054577  -0.278853  -0.058830
    19  C   -0.007105   0.010056  -0.007957
    20  C    0.002408  -0.023778   0.001107
    21  C    0.000014  -0.002371  -0.004921
    22  H   -0.000001  -0.000234  -0.000343
    23  H   -0.000004  -0.000124   0.000329
    24  H    0.000020  -0.000090  -0.000285
    25  C   -0.004669   0.026659   0.028007
    26  C   -0.019762  -0.096297   0.076251
    27  H    0.001384  -0.007252  -0.030905
    28  H   -0.000131   0.001852  -0.003818
    29  H   -0.000493   0.001006   0.000515
    30  H    0.003627   0.026461   0.004143
    31  N    0.043144   0.097951   0.382462
    32  C   -0.608829  -0.007687   0.239468
    33  C    0.138849   0.259724  -0.119228
    34  H    0.002912  -0.018120  -0.008329
    35  C    0.010319  -0.728557  -0.012538
    36  H   -0.026197   0.039170   0.003102
    37  C    0.732281   0.186027  -0.001355
    38  C    0.026669  -0.042727  -0.006578
    39  H   -0.041366   0.068053   0.000390
    40  H    0.004720  -0.007922  -0.000488
    41  H   -0.010431  -0.003537  -0.000302
    42  C   -1.983823  -0.029722  -0.018140
    43  H    2.583156  -0.104424  -0.002761
    44  N   -0.104424  10.923385  -0.029653
    45  H   -0.002761  -0.029653   0.949688
 Mulliken charges:
               1
     1  C    0.884110
     2  H   -0.142221
     3  H   -0.069814
     4  H   -0.264157
     5  N   -0.447505
     6  C    1.067672
     7  H   -0.144428
     8  H   -0.154988
     9  H   -0.427385
    10  C    0.858501
    11  O   -0.969589
    12  C    0.520157
    13  H   -0.006212
    14  H   -0.101334
    15  C   -0.318552
    16  C    0.054526
    17  C    2.183501
    18  C    0.317372
    19  C   -0.144353
    20  C   -0.052490
    21  C    0.729710
    22  H    0.104050
    23  H    0.113653
    24  H   -0.169844
    25  C    0.254717
    26  C    0.479370
    27  H   -0.813211
    28  H   -0.654255
    29  H   -0.707484
    30  H   -0.704623
    31  N   -0.874388
    32  C   -0.496363
    33  C    1.446414
    34  H   -0.514691
    35  C    0.156769
    36  H   -0.607379
    37  C   -0.050578
    38  C    0.536560
    39  H   -0.148379
    40  H    0.113475
    41  H    0.119449
    42  C    1.805855
    43  H   -0.674556
    44  N   -0.988875
    45  H   -0.098201
 Sum of Mulliken charges =   1.00000
 Mulliken charges with hydrogens summed into heavy atoms:
               1
     1  C    0.407918
     5  N   -0.447505
     6  C    0.340871
    10  C    0.858501
    11  O   -0.969589
    12  C    0.412611
    15  C   -0.318552
    16  C    0.054526
    17  C    2.183501
    18  C   -0.387251
    19  C   -0.851838
    20  C   -0.052490
    21  C    0.777568
    25  C   -0.399539
    26  C   -0.333840
    31  N   -0.972589
    32  C   -0.496363
    33  C    0.931723
    35  C   -0.450610
    37  C   -0.050578
    38  C    0.621104
    42  C    1.131299
    44  N   -0.988875
 Electronic spatial extent (au):  <R**2>=           8126.8162
 Charge=              1.0000 electrons
 Dipole moment (field-independent basis, Debye):
    X=             -8.2351    Y=             -4.2448    Z=             -3.3358  Tot=              9.8469
 Quadrupole moment (field-independent basis, Debye-Ang):
   XX=            -59.3686   YY=           -113.4313   ZZ=           -133.0329
   XY=             -0.6968   XZ=             -4.9137   YZ=             -1.7736
 Traceless Quadrupole moment (field-independent basis, Debye-Ang):
   XX=             42.5757   YY=            -11.4870   ZZ=            -31.0887
   XY=             -0.6968   XZ=             -4.9137   YZ=             -1.7736
 Octapole moment (field-independent basis, Debye-Ang**2):
  XXX=           -147.8467  YYY=            -24.2947  ZZZ=             -8.8377  XYY=            -39.5574
  XXY=            -53.7977  XXZ=              1.6662  XZZ=              8.5931  YZZ=              2.9589
  YYZ=            -48.9768  XYZ=            -22.5069
 Hexadecapole moment (field-independent basis, Debye-Ang**3):
 XXXX=          -5667.8336 YYYY=          -2278.4550 ZZZZ=           -753.4131 XXXY=             -8.5898
 XXXZ=             23.2654 YYYX=            105.3381 YYYZ=            -21.0703 ZZZX=            -11.2631
 ZZZY=            -14.4471 XXYY=          -1499.5177 XXZZ=          -1409.7353 YYZZ=           -536.8038
 XXYZ=             51.1938 YYXZ=            -52.2006 ZZXY=            -17.4515
 N-N= 1.912320578449D+03 E-N=-6.066957600907D+03  KE= 9.693727907760D+02
 Leave Link  601 at Sun Jul 18 21:24:07 2021, MaxMem=   262144000 cpu:               0.8 elap:               0.7
 (Enter /dades/curu/g16A03_MST/g16/l9999.exe)
 1\1\GINC-PIRINEUS36\SP\RMP2-FC\Aug-CC-pVDZ\C19H22N3O1(1+)\UBATOR02\18-
 Jul-2021\0\\#p mp2/aug-cc-pVDZ scf=tight maxdisk=180GB geom=allcheck\\
 SET_328_BBB268_conf1.geo_060_225_255 geometry\\1,1\C,0,-3.0880964771,-
 1.8609413896,1.178734049\H,0,-3.3390559072,-2.8961743575,1.4308108083\
 H,0,-3.5754875561,-1.6034056159,0.2332809981\H,0,-3.4343911422,-1.1957
 963563,1.9653751741\N,0,-1.6446255218,-1.711167299,1.0546656947\C,0,-1
 .0191612967,-2.5295647474,0.0285269487\H,0,-1.3492883654,-2.2164012142
 ,-0.9673514365\H,0,-1.3025866956,-3.5777324086,0.1715404027\H,0,0.0654
 421,-2.458625472,0.0714269574\C,0,-1.0039972818,-0.8353552904,1.872373
 5483\O,0,-1.5785383212,-0.1888432966,2.7476566596\C,0,0.5150609775,-0.
 67693385,1.717582058\H,0,0.9856536857,-1.659468766,1.8316917043\H,0,0.
 8212943831,-0.0824888108,2.5821139132\C,0,1.0123416483,-0.0511431493,0
 .4516971859\C,0,0.4492552642,0.7628448731,-0.5088190727\C,0,-0.8885235
 653,1.3524003338,-0.6398151412\C,0,-1.5348773963,1.9338405479,0.459309
 0181\C,0,-2.7890675523,2.5180375651,0.3044874583\C,0,-3.4333070642,2.5
 488909979,-0.9371232831\C,0,-4.7901796434,3.189115039,-1.0935163648\H,
 0,-5.5244123768,2.4742405822,-1.4799065798\H,0,-4.7550797669,4.0239762
 434,-1.8000988243\H,0,-5.1588977969,3.5707483944,-0.1379701013\C,0,-2.
 7800689245,1.9633402776,-2.0332778413\C,0,-1.5292856827,1.3750170167,-
 1.8917110693\H,0,-1.0563026594,0.9099827633,-2.7518544816\H,0,-3.26022
 02495,1.9624194176,-3.0068655984\H,0,-3.2757592779,2.9635844768,1.1656
 517113\H,0,-1.0697507954,1.9196977243,1.4365582571\N,0,1.4187840352,0.
 9915176137,-1.4747506006\C,0,2.5695192312,0.3755181599,-1.1384822593\C
 ,0,3.82156054,0.3158917543,-1.7594588037\H,0,3.980951738,0.8336472349,
 -2.6954646718\C,0,4.8107055716,-0.4110414757,-1.1397373769\H,0,5.79138
 78145,-0.4740548332,-1.5957468034\C,0,4.5773251905,-1.0825864578,0.093
 2305093\C,0,5.6667277025,-1.8718084274,0.7624279892\H,0,5.3148100472,-
 2.3212536989,1.6921430028\H,0,6.5243197523,-1.2334325685,0.994858107\H
 ,0,6.0233936609,-2.6735385464,0.1096435733\C,0,3.3351084562,-0.9918807
 254,0.6653432091\H,0,3.077713252,-1.4576126989,1.6045766176\N,0,2.3403
 24685,-0.2695728237,0.0506164169\H,0,1.3222815804,1.6161132634,-2.2703
 716623\\Version=ES64L-G16RevA.03\State=1-A\HF=-970.4597858\MP2=-973.79
 97157\RMSD=4.971e-09\PG=C01 [X(C19H22N3O1)]\\@


 MAN IS THE MEASURE OF ALL THINGS.
  -- PROTAGORAS (5TH CENTURY B.C.)
 Job cpu time:       0 days  9 hours 17 minutes 22.8 seconds.
 Elapsed time:       0 days  2 hours 48 minutes 13.7 seconds.
 File lengths (MBytes):  RWF= 118337 Int=      0 D2E=      0 Chk=     42 Scr=      1
 Normal termination of Gaussian 16 at Sun Jul 18 21:24:09 2021.
