 Entering Gaussian System, Link 0=g16
 Input=SET_328_BBB30_conf1.geo_285_180_195_OCTANOL.dat
 Output=SET_328_BBB30_conf1.geo_285_180_195_OCTANOL.log
 Initial command:
 /dades/curu/g16A03_MST/g16/l1.exe "/tmp/ubator02/1839628/Gau-89646.inp" -scrdir="/tmp/ubator02/1839628/"
 Entering Link 1 = /dades/curu/g16A03_MST/g16/l1.exe PID=     89647.
  
 Copyright (c) 1988,1990,1992,1993,1995,1998,2003,2009,2016,
            Gaussian, Inc.  All Rights Reserved.
  
 This is part of the Gaussian(R) 16 program.  It is based on
 the Gaussian(R) 09 system (copyright 2009, Gaussian, Inc.),
 the Gaussian(R) 03 system (copyright 2003, Gaussian, Inc.),
 the Gaussian(R) 98 system (copyright 1998, Gaussian, Inc.),
 the Gaussian(R) 94 system (copyright 1995, Gaussian, Inc.),
 the Gaussian 92(TM) system (copyright 1992, Gaussian, Inc.),
 the Gaussian 90(TM) system (copyright 1990, Gaussian, Inc.),
 the Gaussian 88(TM) system (copyright 1988, Gaussian, Inc.),
 the Gaussian 86(TM) system (copyright 1986, Carnegie Mellon
 University), and the Gaussian 82(TM) system (copyright 1983,
 Carnegie Mellon University). Gaussian is a federally registered
 trademark of Gaussian, Inc.
  
 This software contains proprietary and confidential information,
 including trade secrets, belonging to Gaussian, Inc.
  
 This software is provided under written license and may be
 used, copied, transmitted, or stored only in accord with that
 written license.
  
 The following legend is applicable only to US Government
 contracts under FAR:
  
                    RESTRICTED RIGHTS LEGEND
  
 Use, reproduction and disclosure by the US Government is
 subject to restrictions as set forth in subparagraphs (a)
 and (c) of the Commercial Computer Software - Restricted
 Rights clause in FAR 52.227-19.
  
 Gaussian, Inc.
 340 Quinnipiac St., Bldg. 40, Wallingford CT 06492
  
  
 ---------------------------------------------------------------
 Warning -- This program may not be used in any manner that
 competes with the business of Gaussian, Inc. or will provide
 assistance to any competitor of Gaussian, Inc.  The licensee
 of this program is prohibited from giving any competitor of
 Gaussian, Inc. access to this program.  By using this program,
 the user acknowledges that Gaussian, Inc. is engaged in the
 business of creating and licensing software in the field of
 computational chemistry and represents and warrants to the
 licensee that it is not a competitor of Gaussian, Inc. and that
 it will not use this program in any manner prohibited above.
 ---------------------------------------------------------------
  

 Cite this work as:
 Gaussian 16, Revision A.03,
 M. J. Frisch, G. W. Trucks, H. B. Schlegel, G. E. Scuseria, 
 M. A. Robb, J. R. Cheeseman, G. Scalmani, V. Barone, 
 G. A. Petersson, H. Nakatsuji, X. Li, M. Caricato, A. V. Marenich, 
 J. Bloino, B. G. Janesko, R. Gomperts, B. Mennucci, H. P. Hratchian, 
 J. V. Ortiz, A. F. Izmaylov, J. L. Sonnenberg, D. Williams-Young, 
 F. Ding, F. Lipparini, F. Egidi, J. Goings, B. Peng, A. Petrone, 
 T. Henderson, D. Ranasinghe, V. G. Zakrzewski, J. Gao, N. Rega, 
 G. Zheng, W. Liang, M. Hada, M. Ehara, K. Toyota, R. Fukuda, 
 J. Hasegawa, M. Ishida, T. Nakajima, Y. Honda, O. Kitao, H. Nakai, 
 T. Vreven, K. Throssell, J. A. Montgomery, Jr., J. E. Peralta, 
 F. Ogliaro, M. J. Bearpark, J. J. Heyd, E. N. Brothers, K. N. Kudin, 
 V. N. Staroverov, T. A. Keith, R. Kobayashi, J. Normand, 
 K. Raghavachari, A. P. Rendell, J. C. Burant, S. S. Iyengar, 
 J. Tomasi, M. Cossi, J. M. Millam, M. Klene, C. Adamo, R. Cammi, 
 J. W. Ochterski, R. L. Martin, K. Morokuma, O. Farkas, 
 J. B. Foresman, and D. J. Fox, Gaussian, Inc., Wallingford CT, 2016.
 
 ******************************************
 Gaussian 16:  ES64L-G16RevA.03 25-Dec-2016
                18-Jul-2021 
 ******************************************
 %mem=800MB
 %nproc=4
 Will use up to    4 processors via shared memory.
 %chk=SET_328_BBB30_conf1.geo_285_180_195.chk
 ---------------------------------------------------------------
 #p b3lyp/6-31G(d) opt freq scrf=(iefpcm,read,solvent=n-octanol)
 ---------------------------------------------------------------
 1/18=20,19=15,26=3,38=1,40=2/1,3;
 2/9=110,12=2,17=6,18=5,40=1/2;
 3/5=1,6=6,7=1,11=2,25=1,30=1,70=2203,71=1,72=25,74=-5/1,2,3;
 4//1;
 5/5=2,38=5,53=25/2;
 6/7=2,8=2,9=2,10=2,28=1/1;
 7//1,2,3,16;
 1/18=20,19=15,26=3/3(2);
 2/9=110/2;
 99//99;
 2/9=110/2;
 3/5=1,6=6,7=1,11=2,25=1,30=1,70=2205,71=1,72=25,74=-5/1,2,3;
 4/5=5,16=3,69=1/1;
 5/5=2,38=5,53=25/2;
 7//1,2,3,16;
 1/18=20,19=15,26=3/3(-5);
 2/9=110/2;
 6/7=2,8=2,9=2,10=2,19=2,28=1/1;
 99/9=1/99;
 Leave Link    1 at Sun Jul 18 14:23:14 2021, MaxMem=   104857600 cpu:               0.0 elap:               0.0
 (Enter /dades/curu/g16A03_MST/g16/l101.exe)
 --------------------------------------------
 SET_328_BBB30_conf1.geo_285_180_195 geometry
 --------------------------------------------
 Symbolic Z-matrix:
 Charge =  1 Multiplicity = 1
 C                     2.852    -2.286     0.778 
 H                     2.697    -2.277     1.86 
 H                     3.448    -1.435     0.439 
 H                     3.451    -3.15      0.481 
 N                     1.628    -2.243    -0.054 
 H                     1.057    -3.03      0.18 
 C                     0.812    -0.992     0.121 
 C                     1.555     0.145    -0.733 
 H                     2.589     0.3      -0.417 
 H                     1.076     1.065    -0.392 
 H                     1.468    -0.05     -1.804 
 H                     0.738    -0.686     1.168 
 C                    -0.582    -1.098    -0.43 
 H                    -1.045    -2.006    -0.037 
 H                    -0.413    -1.208    -1.503 
 C                    -1.328     0.186    -0.251 
 C                    -1.807     0.577     0.974 
 H                    -1.687    -0.082     1.83 
 C                    -2.394     1.862     1.234 
 H                    -2.664     2.115     2.256 
 C                    -2.387     2.79      0.231 
 H                    -2.951     3.71      0.36 
 C                    -1.87      2.48     -1.023 
 H                    -1.865     3.263    -1.777 
 C                    -1.398     1.171    -1.27 
 H                    -1.023     0.92     -2.259 
 H                     1.894    -2.317    -1.015 
 
 ITRead=  0  0  0  0  0  0  0  0  0  0  0  0  0  0  0  0  0  0  0  0
 ITRead=  0  0  0  0  0  0  0
 MicOpt= -1 -1 -1 -1 -1 -1 -1 -1 -1 -1 -1 -1 -1 -1 -1 -1 -1 -1 -1 -1
 MicOpt= -1 -1 -1 -1 -1 -1 -1
 NAtoms=     27 NQM=       27 NQMF=       0 NMMI=      0 NMMIF=      0
                NMic=       0 NMicF=      0.
                    Isotopes and Nuclear Properties:
 (Nuclear quadrupole moments (NQMom) in fm**2, nuclear magnetic moments (NMagM)
  in nuclear magnetons)

  Atom         1           2           3           4           5           6           7           8           9          10
 IAtWgt=          12           1           1           1          14           1          12          12           1           1
 AtmWgt=  12.0000000   1.0078250   1.0078250   1.0078250  14.0030740   1.0078250  12.0000000  12.0000000   1.0078250   1.0078250
 NucSpn=           0           1           1           1           2           1           0           0           1           1
 AtZEff=  -0.0000000  -0.0000000  -0.0000000  -0.0000000  -0.0000000  -0.0000000  -0.0000000  -0.0000000  -0.0000000  -0.0000000
 NQMom=    0.0000000   0.0000000   0.0000000   0.0000000   2.0440000   0.0000000   0.0000000   0.0000000   0.0000000   0.0000000
 NMagM=    0.0000000   2.7928460   2.7928460   2.7928460   0.4037610   2.7928460   0.0000000   0.0000000   2.7928460   2.7928460
 AtZNuc=   6.0000000   1.0000000   1.0000000   1.0000000   7.0000000   1.0000000   6.0000000   6.0000000   1.0000000   1.0000000

  Atom        11          12          13          14          15          16          17          18          19          20
 IAtWgt=           1           1          12           1           1          12          12           1          12           1
 AtmWgt=   1.0078250   1.0078250  12.0000000   1.0078250   1.0078250  12.0000000  12.0000000   1.0078250  12.0000000   1.0078250
 NucSpn=           1           1           0           1           1           0           0           1           0           1
 AtZEff=  -0.0000000  -0.0000000  -0.0000000  -0.0000000  -0.0000000  -0.0000000  -0.0000000  -0.0000000  -0.0000000  -0.0000000
 NQMom=    0.0000000   0.0000000   0.0000000   0.0000000   0.0000000   0.0000000   0.0000000   0.0000000   0.0000000   0.0000000
 NMagM=    2.7928460   2.7928460   0.0000000   2.7928460   2.7928460   0.0000000   0.0000000   2.7928460   0.0000000   2.7928460
 AtZNuc=   1.0000000   1.0000000   6.0000000   1.0000000   1.0000000   6.0000000   6.0000000   1.0000000   6.0000000   1.0000000

  Atom        21          22          23          24          25          26          27
 IAtWgt=          12           1          12           1          12           1           1
 AtmWgt=  12.0000000   1.0078250  12.0000000   1.0078250  12.0000000   1.0078250   1.0078250
 NucSpn=           0           1           0           1           0           1           1
 AtZEff=  -0.0000000  -0.0000000  -0.0000000  -0.0000000  -0.0000000  -0.0000000  -0.0000000
 NQMom=    0.0000000   0.0000000   0.0000000   0.0000000   0.0000000   0.0000000   0.0000000
 NMagM=    0.0000000   2.7928460   0.0000000   2.7928460   0.0000000   2.7928460   2.7928460
 AtZNuc=   6.0000000   1.0000000   6.0000000   1.0000000   6.0000000   1.0000000   1.0000000
 Leave Link  101 at Sun Jul 18 14:23:14 2021, MaxMem=   104857600 cpu:               0.1 elap:               0.1
 (Enter /dades/curu/g16A03_MST/g16/l103.exe)

 GradGradGradGradGradGradGradGradGradGradGradGradGradGradGradGradGradGrad
 Berny optimization.
 Initialization pass.
                           ----------------------------
                           !    Initial Parameters    !
                           ! (Angstroms and Degrees)  !
 --------------------------                            --------------------------
 ! Name  Definition              Value          Derivative Info.                !
 --------------------------------------------------------------------------------
 ! R1    R(1,2)                  1.0931         estimate D2E/DX2                !
 ! R2    R(1,3)                  1.0929         estimate D2E/DX2                !
 ! R3    R(1,4)                  1.0925         estimate D2E/DX2                !
 ! R4    R(1,5)                  1.4806         estimate D2E/DX2                !
 ! R5    R(5,6)                  1.0001         estimate D2E/DX2                !
 ! R6    R(5,7)                  1.5038         estimate D2E/DX2                !
 ! R7    R(5,27)                 0.9999         estimate D2E/DX2                !
 ! R8    R(7,8)                  1.6044         estimate D2E/DX2                !
 ! R9    R(7,12)                 1.0933         estimate D2E/DX2                !
 ! R10   R(7,13)                 1.5027         estimate D2E/DX2                !
 ! R11   R(8,9)                  1.0923         estimate D2E/DX2                !
 ! R12   R(8,10)                 1.0918         estimate D2E/DX2                !
 ! R13   R(8,11)                 1.0921         estimate D2E/DX2                !
 ! R14   R(13,14)                1.0924         estimate D2E/DX2                !
 ! R15   R(13,15)                1.0918         estimate D2E/DX2                !
 ! R16   R(13,16)                1.4957         estimate D2E/DX2                !
 ! R17   R(16,17)                1.3722         estimate D2E/DX2                !
 ! R18   R(16,25)                1.419          estimate D2E/DX2                !
 ! R19   R(17,18)                1.0869         estimate D2E/DX2                !
 ! R20   R(17,19)                1.4365         estimate D2E/DX2                !
 ! R21   R(19,20)                1.0869         estimate D2E/DX2                !
 ! R22   R(19,21)                1.3665         estimate D2E/DX2                !
 ! R23   R(21,22)                1.0868         estimate D2E/DX2                !
 ! R24   R(21,23)                1.3914         estimate D2E/DX2                !
 ! R25   R(23,24)                1.087          estimate D2E/DX2                !
 ! R26   R(23,25)                1.4132         estimate D2E/DX2                !
 ! R27   R(25,26)                1.0871         estimate D2E/DX2                !
 ! A1    A(2,1,3)              112.2081         estimate D2E/DX2                !
 ! A2    A(2,1,4)              110.6932         estimate D2E/DX2                !
 ! A3    A(2,1,5)              116.0251         estimate D2E/DX2                !
 ! A4    A(3,1,4)              103.4438         estimate D2E/DX2                !
 ! A5    A(3,1,5)              104.7093         estimate D2E/DX2                !
 ! A6    A(4,1,5)              108.8727         estimate D2E/DX2                !
 ! A7    A(1,5,6)              108.5215         estimate D2E/DX2                !
 ! A8    A(1,5,7)              114.0377         estimate D2E/DX2                !
 ! A9    A(1,5,27)             108.5422         estimate D2E/DX2                !
 ! A10   A(6,5,7)              108.5177         estimate D2E/DX2                !
 ! A11   A(6,5,27)             108.5743         estimate D2E/DX2                !
 ! A12   A(7,5,27)             108.5279         estimate D2E/DX2                !
 ! A13   A(5,7,8)              106.0397         estimate D2E/DX2                !
 ! A14   A(5,7,12)             112.3955         estimate D2E/DX2                !
 ! A15   A(5,7,13)             113.7045         estimate D2E/DX2                !
 ! A16   A(8,7,12)             110.0437         estimate D2E/DX2                !
 ! A17   A(8,7,13)             106.524          estimate D2E/DX2                !
 ! A18   A(12,7,13)            107.9447         estimate D2E/DX2                !
 ! A19   A(7,8,9)              112.6418         estimate D2E/DX2                !
 ! A20   A(7,8,10)             103.1634         estimate D2E/DX2                !
 ! A21   A(7,8,11)             111.0128         estimate D2E/DX2                !
 ! A22   A(9,8,10)             101.8516         estimate D2E/DX2                !
 ! A23   A(9,8,11)             112.6113         estimate D2E/DX2                !
 ! A24   A(10,8,11)            114.9479         estimate D2E/DX2                !
 ! A25   A(7,13,14)            108.6573         estimate D2E/DX2                !
 ! A26   A(7,13,15)            102.9369         estimate D2E/DX2                !
 ! A27   A(7,13,16)            110.9923         estimate D2E/DX2                !
 ! A28   A(14,13,15)           109.5992         estimate D2E/DX2                !
 ! A29   A(14,13,16)           117.3292         estimate D2E/DX2                !
 ! A30   A(15,13,16)           106.3383         estimate D2E/DX2                !
 ! A31   A(13,16,17)           121.7049         estimate D2E/DX2                !
 ! A32   A(13,16,25)           122.3143         estimate D2E/DX2                !
 ! A33   A(17,16,25)           115.2184         estimate D2E/DX2                !
 ! A34   A(16,17,18)           119.4561         estimate D2E/DX2                !
 ! A35   A(16,17,19)           123.9958         estimate D2E/DX2                !
 ! A36   A(18,17,19)           116.4195         estimate D2E/DX2                !
 ! A37   A(17,19,20)           118.6807         estimate D2E/DX2                !
 ! A38   A(17,19,21)           118.2012         estimate D2E/DX2                !
 ! A39   A(20,19,21)           122.2329         estimate D2E/DX2                !
 ! A40   A(19,21,22)           119.0195         estimate D2E/DX2                !
 ! A41   A(19,21,23)           120.8061         estimate D2E/DX2                !
 ! A42   A(22,21,23)           119.2365         estimate D2E/DX2                !
 ! A43   A(21,23,24)           117.7992         estimate D2E/DX2                !
 ! A44   A(21,23,25)           119.2083         estimate D2E/DX2                !
 ! A45   A(24,23,25)           122.9845         estimate D2E/DX2                !
 ! A46   A(16,25,23)           122.271          estimate D2E/DX2                !
 ! A47   A(16,25,26)           118.4269         estimate D2E/DX2                !
 ! A48   A(23,25,26)           119.2143         estimate D2E/DX2                !
 ! D1    D(2,1,5,6)            -58.4787         estimate D2E/DX2                !
 ! D2    D(2,1,5,7)             62.5972         estimate D2E/DX2                !
 ! D3    D(2,1,5,27)          -176.2988         estimate D2E/DX2                !
 ! D4    D(3,1,5,6)            177.2539         estimate D2E/DX2                !
 ! D5    D(3,1,5,7)            -61.6702         estimate D2E/DX2                !
 ! D6    D(3,1,5,27)            59.4338         estimate D2E/DX2                !
 ! D7    D(4,1,5,6)             67.1473         estimate D2E/DX2                !
 ! D8    D(4,1,5,7)           -171.7767         estimate D2E/DX2                !
 ! D9    D(4,1,5,27)           -50.6727         estimate D2E/DX2                !
 ! D10   D(1,5,7,8)             78.4528         estimate D2E/DX2                !
 ! D11   D(1,5,7,12)           -41.8242         estimate D2E/DX2                !
 ! D12   D(1,5,7,13)          -164.8398         estimate D2E/DX2                !
 ! D13   D(6,5,7,8)           -160.4691         estimate D2E/DX2                !
 ! D14   D(6,5,7,12)            79.2539         estimate D2E/DX2                !
 ! D15   D(6,5,7,13)           -43.7617         estimate D2E/DX2                !
 ! D16   D(27,5,7,8)           -42.6591         estimate D2E/DX2                !
 ! D17   D(27,5,7,12)         -162.9361         estimate D2E/DX2                !
 ! D18   D(27,5,7,13)           74.0483         estimate D2E/DX2                !
 ! D19   D(5,7,8,9)            -58.1305         estimate D2E/DX2                !
 ! D20   D(5,7,8,10)          -167.1619         estimate D2E/DX2                !
 ! D21   D(5,7,8,11)            69.2052         estimate D2E/DX2                !
 ! D22   D(12,7,8,9)            63.6643         estimate D2E/DX2                !
 ! D23   D(12,7,8,10)          -45.3671         estimate D2E/DX2                !
 ! D24   D(12,7,8,11)         -169.0001         estimate D2E/DX2                !
 ! D25   D(13,7,8,9)          -179.571          estimate D2E/DX2                !
 ! D26   D(13,7,8,10)           71.3975         estimate D2E/DX2                !
 ! D27   D(13,7,8,11)          -52.2354         estimate D2E/DX2                !
 ! D28   D(5,7,13,14)           50.8056         estimate D2E/DX2                !
 ! D29   D(5,7,13,15)          -65.351          estimate D2E/DX2                !
 ! D30   D(5,7,13,16)         -178.7602         estimate D2E/DX2                !
 ! D31   D(8,7,13,14)          167.2301         estimate D2E/DX2                !
 ! D32   D(8,7,13,15)           51.0735         estimate D2E/DX2                !
 ! D33   D(8,7,13,16)          -62.3357         estimate D2E/DX2                !
 ! D34   D(12,7,13,14)         -74.6149         estimate D2E/DX2                !
 ! D35   D(12,7,13,15)         169.2285         estimate D2E/DX2                !
 ! D36   D(12,7,13,16)          55.8193         estimate D2E/DX2                !
 ! D37   D(7,13,16,17)         -74.5285         estimate D2E/DX2                !
 ! D38   D(7,13,16,25)          94.9886         estimate D2E/DX2                !
 ! D39   D(14,13,16,17)         51.2035         estimate D2E/DX2                !
 ! D40   D(14,13,16,25)       -139.2794         estimate D2E/DX2                !
 ! D41   D(15,13,16,17)        174.2259         estimate D2E/DX2                !
 ! D42   D(15,13,16,25)        -16.257          estimate D2E/DX2                !
 ! D43   D(13,16,17,18)         -3.0728         estimate D2E/DX2                !
 ! D44   D(13,16,17,19)        172.6515         estimate D2E/DX2                !
 ! D45   D(25,16,17,18)       -173.2871         estimate D2E/DX2                !
 ! D46   D(25,16,17,19)          2.4372         estimate D2E/DX2                !
 ! D47   D(13,16,25,23)       -167.3337         estimate D2E/DX2                !
 ! D48   D(13,16,25,26)          9.2289         estimate D2E/DX2                !
 ! D49   D(17,16,25,23)          2.8146         estimate D2E/DX2                !
 ! D50   D(17,16,25,26)        179.3773         estimate D2E/DX2                !
 ! D51   D(16,17,19,20)       -174.5745         estimate D2E/DX2                !
 ! D52   D(16,17,19,21)         -5.0981         estimate D2E/DX2                !
 ! D53   D(18,17,19,20)          1.2686         estimate D2E/DX2                !
 ! D54   D(18,17,19,21)        170.745          estimate D2E/DX2                !
 ! D55   D(17,19,21,22)        171.1975         estimate D2E/DX2                !
 ! D56   D(17,19,21,23)          2.3634         estimate D2E/DX2                !
 ! D57   D(20,19,21,22)        -19.7218         estimate D2E/DX2                !
 ! D58   D(20,19,21,23)        171.4442         estimate D2E/DX2                !
 ! D59   D(19,21,23,24)       -178.4258         estimate D2E/DX2                !
 ! D60   D(19,21,23,25)          2.5693         estimate D2E/DX2                !
 ! D61   D(22,21,23,24)         12.7641         estimate D2E/DX2                !
 ! D62   D(22,21,23,25)       -166.2408         estimate D2E/DX2                !
 ! D63   D(21,23,25,16)         -5.3731         estimate D2E/DX2                !
 ! D64   D(21,23,25,26)        178.0903         estimate D2E/DX2                !
 ! D65   D(24,23,25,16)        175.6763         estimate D2E/DX2                !
 ! D66   D(24,23,25,26)         -0.8602         estimate D2E/DX2                !
 --------------------------------------------------------------------------------
 Trust Radius=3.00D-01 FncErr=1.00D-07 GrdErr=1.00D-06 EigMax=2.50D+02 EigMin=1.00D-04
 Number of steps in this run=    151 maximum allowed number of steps=    162.
 GradGradGradGradGradGradGradGradGradGradGradGradGradGradGradGradGradGrad

 Leave Link  103 at Sun Jul 18 14:23:14 2021, MaxMem=   104857600 cpu:               0.0 elap:               0.0
 (Enter /dades/curu/g16A03_MST/g16/l202.exe)
                          Input orientation:                          
 ---------------------------------------------------------------------
 Center     Atomic      Atomic             Coordinates (Angstroms)
 Number     Number       Type             X           Y           Z
 ---------------------------------------------------------------------
      1          6           0        2.852000   -2.286000    0.778000
      2          1           0        2.697000   -2.277000    1.860000
      3          1           0        3.448000   -1.435000    0.439000
      4          1           0        3.451000   -3.150000    0.481000
      5          7           0        1.628000   -2.243000   -0.054000
      6          1           0        1.057000   -3.030000    0.180000
      7          6           0        0.812000   -0.992000    0.121000
      8          6           0        1.555000    0.145000   -0.733000
      9          1           0        2.589000    0.300000   -0.417000
     10          1           0        1.076000    1.065000   -0.392000
     11          1           0        1.468000   -0.050000   -1.804000
     12          1           0        0.738000   -0.686000    1.168000
     13          6           0       -0.582000   -1.098000   -0.430000
     14          1           0       -1.045000   -2.006000   -0.037000
     15          1           0       -0.413000   -1.208000   -1.503000
     16          6           0       -1.328000    0.186000   -0.251000
     17          6           0       -1.807000    0.577000    0.974000
     18          1           0       -1.687000   -0.082000    1.830000
     19          6           0       -2.394000    1.862000    1.234000
     20          1           0       -2.664000    2.115000    2.256000
     21          6           0       -2.387000    2.790000    0.231000
     22          1           0       -2.951000    3.710000    0.360000
     23          6           0       -1.870000    2.480000   -1.023000
     24          1           0       -1.865000    3.263000   -1.777000
     25          6           0       -1.398000    1.171000   -1.270000
     26          1           0       -1.023000    0.920000   -2.259000
     27          1           0        1.894000   -2.317000   -1.015000
 ---------------------------------------------------------------------
                    Distance matrix (angstroms):
                    1          2          3          4          5
     1  C    0.000000
     2  H    1.093083   0.000000
     3  H    1.092858   1.814444   0.000000
     4  H    1.092477   1.797856   1.715517   0.000000
     5  N    1.480625   2.192559   2.051417   2.105280   0.000000
     6  H    2.033019   2.465565   2.885825   2.415830   1.000083
     7  C    2.503535   2.868549   2.691815   3.427956   1.503822
     8  C    3.142466   3.727452   2.730098   3.990694   2.483730
     9  H    2.860872   3.440541   2.116800   3.667690   2.742652
    10  H    3.968914   4.343744   3.544989   4.916196   3.370729
    11  H    3.685360   4.460366   3.296919   4.331687   2.810222
    12  H    2.679757   2.616835   2.904573   3.728758   2.170169
    13  C    3.829225   4.169650   4.136379   4.615811   2.517241
    14  H    3.991144   4.204119   4.554082   4.668091   2.683540
    15  H    4.126169   4.703683   4.327842   4.757953   2.708599
    16  C    4.964073   5.169460   5.090571   5.873973   3.831029
    17  C    5.471880   5.405213   5.652379   6.463756   4.561624
    18  H    5.154303   4.902895   5.489418   6.134449   4.382762
    19  C    6.703309   6.591015   6.755087   7.736354   5.889521
    20  H    7.209684   6.941671   7.297981   8.262208   6.538312
    21  C    7.315197   7.360379   7.207018   8.332367   6.444574
    22  H    8.354732   8.366246   8.211240   9.384021   7.521758
    23  C    6.946628   7.197099   6.763564   7.891258   5.956651
    24  H    7.718129   8.045571   7.430332   8.630469   6.744317
    25  C    5.848731   6.201180   5.761565   6.726800   4.721306
    26  H    5.875154   6.405105   5.728444   6.639968   4.679145
    27  H    2.033119   2.985303   2.303683   2.314337   0.999876
                    6          7          8          9         10
     6  H    0.000000
     7  C    2.053521   0.000000
     8  C    3.340988   1.604411   0.000000
     9  H    3.713803   2.261954   1.092262   0.000000
    10  H    4.134800   2.136379   1.091843   1.695588   0.000000
    11  H    3.603551   2.241278   1.092078   1.817391   1.841367
    12  H    2.563638   1.093307   2.229765   2.628806   2.369355
    13  C    2.605963   1.502689   2.490708   3.465518   2.725615
    14  H    2.348205   2.121700   3.445463   4.320647   3.749094
    15  H    2.883240   2.045643   2.509289   3.530646   2.935638
    16  C    4.026989   2.470965   2.923302   3.922173   2.563540
    17  C    4.673690   3.169942   3.795197   4.619137   3.227350
    18  H    4.352326   3.161294   4.138969   4.845525   3.726535
    19  C    6.078814   4.434244   4.734108   5.476854   3.914075
    20  H    6.680318   5.127792   5.533081   6.167103   4.701277
    21  C    6.762850   4.954717   4.844036   5.601837   3.918689
    22  H    7.843728   6.027113   5.848753   6.551597   4.876296
    23  C    6.354104   4.533944   4.155352   5.000232   3.328559
    24  H    7.209007   5.373431   4.744287   5.519700   3.924144
    25  C    5.077197   3.390804   3.171948   4.169223   2.627317
    26  H    5.087005   3.561933   3.094412   4.101696   2.812919
    27  H    1.623873   2.053496   2.501178   2.772962   3.534852
                   11         12         13         14         15
    11  H    0.000000
    12  H    3.125729   0.000000
    13  C    2.681171   2.113232   0.000000
    14  H    3.641894   2.524582   1.092374   0.000000
    15  H    2.229288   2.954916   1.091783   1.784764   0.000000
    16  C    3.207042   2.653733   1.495732   2.220529   2.085177
    17  C    4.340050   2.847776   2.505487   2.876570   3.356336
    18  H    4.812588   2.585282   2.713094   2.756742   3.741636
    19  C    5.272593   4.038079   3.848875   4.289133   4.565132
    20  H    6.184193   4.539047   4.676825   4.986146   5.499037
    21  C    5.202677   4.767197   4.337221   4.987425   4.784082
    22  H    6.192581   5.795378   5.417852   6.038468   5.839430
    23  C    4.260646   4.650344   3.848724   4.666585   3.994320
    24  H    4.699531   5.571646   4.741183   5.609132   4.708845
    25  C    3.160689   3.735611   2.553393   3.426110   2.585373
    26  H    2.711643   4.174289   2.758994   3.674132   2.339235
    27  H    2.437886   2.960065   2.821128   3.113025   2.605815
                   16         17         18         19         20
    16  C    0.000000
    17  C    1.372205   0.000000
    18  H    2.128677   1.086930   0.000000
    19  C    2.480032   1.436452   2.152719   0.000000
    20  H    3.433801   2.177939   2.441887   1.086919   0.000000
    21  C    2.852126   2.405373   3.360831   1.366471   2.152436
    22  H    3.927598   3.391375   4.258857   2.118780   2.494235
    23  C    2.480360   2.759237   3.838872   2.398030   3.393450
    24  H    3.476345   3.845252   4.922515   3.362850   4.268652
    25  C    1.418974   2.357043   3.356118   2.781998   3.863492
    26  H    2.159594   3.344338   4.262021   3.868857   4.950367
    27  H    4.150902   5.101839   5.090463   6.396013   7.149645
                   21         22         23         24         25
    21  C    0.000000
    22  H    1.086801   0.000000
    23  C    1.391368   2.143397   0.000000
    24  H    2.127975   2.438437   1.087028   0.000000
    25  C    2.419149   3.393410   1.413249   2.202635   0.000000
    26  H    3.399632   4.284909   2.163031   2.535929   1.087082
    27  H    6.779449   7.854259   6.097456   6.771051   4.802961
                   26         27
    26  H    0.000000
    27  H    4.531511   0.000000
 Stoichiometry    C10H16N(1+)
 Framework group  C1[X(C10H16N)]
 Deg. of freedom    75
 Full point group                 C1      NOp   1
 Largest Abelian subgroup         C1      NOp   1
 Largest concise Abelian subgroup C1      NOp   1
                         Standard orientation:                         
 ---------------------------------------------------------------------
 Center     Atomic      Atomic             Coordinates (Angstroms)
 Number     Number       Type             X           Y           Z
 ---------------------------------------------------------------------
      1          6           0       -3.915983   -0.439847   -0.699781
      2          1           0       -3.825753   -1.446475   -1.116183
      3          1           0       -3.751634    0.334928   -1.452809
      4          1           0       -4.937583   -0.252295   -0.361162
      5          7           0       -2.978859   -0.103754    0.396161
      6          1           0       -3.114433   -0.756632    1.141504
      7          6           0       -1.530159   -0.132375   -0.006246
      8          6           0       -1.261568    1.239552   -0.793525
      9          1           0       -1.911217    1.359314   -1.663381
     10          1           0       -0.289339    1.071632   -1.261175
     11          1           0       -1.305213    2.094887   -0.115931
     12          1           0       -1.292825   -0.985228   -0.647834
     13          6           0       -0.580068   -0.150190    1.157834
     14          1           0       -0.881383   -0.946096    1.842688
     15          1           0       -0.750314    0.820754    1.627169
     16          6           0        0.840625   -0.148085    0.690031
     17          6           0        1.425048   -1.267971    0.154071
     18          1           0        0.861477   -2.196381    0.110967
     19          6           0        2.729254   -1.283456   -0.447762
     20          1           0        3.072536   -2.197472   -0.925386
     21          6           0        3.390245   -0.095647   -0.587198
     22          1           0        4.429504   -0.104763   -0.904991
     23          6           0        2.834934    1.088763   -0.113165
     24          1           0        3.390899    2.009040   -0.273238
     25          6           0        1.597066    1.046168    0.567382
     26          1           0        1.178314    1.967124    0.965167
     27          1           0       -3.197393    0.812468    0.731620
 ---------------------------------------------------------------------
 Rotational constants (GHZ):           2.7077332           0.5387323           0.5103492
 Leave Link  202 at Sun Jul 18 14:23:14 2021, MaxMem=   104857600 cpu:               0.0 elap:               0.0
 (Enter /dades/curu/g16A03_MST/g16/l301.exe)
 Standard basis: 6-31G(d) (6D, 7F)
 Ernie: Thresh=  0.10000D-02 Tol=  0.10000D-05 Strict=F.
 There are   197 symmetry adapted cartesian basis functions of A   symmetry.
 There are   197 symmetry adapted basis functions of A   symmetry.
   197 basis functions,   372 primitive gaussians,   197 cartesian basis functions
    41 alpha electrons       41 beta electrons
       nuclear repulsion energy       608.9145831806 Hartrees.
 IExCor=  402 DFT=T Ex+Corr=B3LYP ExCW=0 ScaHFX=  0.200000
 ScaDFX=  0.800000  0.720000  1.000000  0.810000 ScalE2=  1.000000  1.000000
 IRadAn=      5 IRanWt=     -1 IRanGd=            0 ICorTp=0 IEmpDi=  4
 NAtoms=   27 NActive=   27 NUniq=   27 SFac= 1.00D+00 NAtFMM=   60 NAOKFM=F Big=F
 Integral buffers will be    131072 words long.
 Raffenetti 2 integral format.
 Two-electron integral symmetry is turned on.
 Using the following non-standard input for PCM:
 MSTModel=DFT cav MSTCharged
 --- end of non-standard input.
 MST model for solvation energy: B3LYP parametrization.
 MST cavity parameters:
 ISph   IAn     Re0     Alpha   Atom Type   QCorr
 ------------------------------------------------
   1      6     1.50     1.50      CN+        F
   2      1     1.20     1.50      CN+        F
   3      1     1.20     1.50      CN+        F
   4      1     1.20     1.50      CN+        F
   5      7     1.50     1.15      NH+        T
   6      1     0.90     1.15      NH+        T
   7      6     1.50     1.50      CN+        F
   8      6     1.50     1.50      CH3        F
   9      1     1.20     1.50      CH3        F
  10      1     1.20     1.50      CH3        F
  11      1     1.20     1.50      CH3        F
  12      1     1.20     1.50      CN+        F
  13      6     1.50     1.50      CH2        F
  14      1     1.20     1.50      CH2        F
  15      1     1.20     1.50      CH2        F
  16      6     1.50     1.50      C          F
  17      6     1.50     1.50      CH         F
  18      1     1.20     1.50      CH         F
  19      6     1.50     1.50      CH         F
  20      1     1.20     1.50      CH         F
  21      6     1.50     1.50      CH         F
  22      1     1.20     1.50      CH         F
  23      6     1.50     1.50      CH         F
  24      1     1.20     1.50      CH         F
  25      6     1.50     1.50      CH         F
  26      1     1.20     1.50      CH         F
  27      1     0.90     1.15      NH+        T
 ------------------------------------------------------------------------------
 Polarizable Continuum Model (PCM)
 =================================
 Model                : PCM.
 Atomic radii         : MST.
 Polarization charges : Total charges.
 Charge compensation  : None.
 Solution method      : On-the-fly selection.
 Cavity type          : Scaled VdW (van der Waals Surface) (Alpha=1.500).
 Cavity algorithm     : GePol (No added spheres)
                        Default sphere list used, NSphG=   27.
                        Lebedev-Laikov grids with approx.  5.0 points / Ang**2.
                        Smoothing algorithm: York/Karplus (Gamma=1.0000).
                        Polarization charges: spherical gaussians, with
                                              point-specific exponents (IZeta= 3).
                        Self-potential: point-specific (ISelfS= 7).
                        Self-field    : sphere-specific E.n sum rule (ISelfD= 2).
 1st derivatives      : Analytical E(r).r(x)/FMM algorithm (CHGder, D1EAlg=3).
                        Cavity 1st derivative terms included.
 Solvent              : n-Octanol, Eps=   9.862900 Eps(inf)=   2.043470
 ------------------------------------------------------------------------------
 GePol: Number of generator spheres                  =      27
 GePol: Total number of spheres                      =      27
 GePol: Number of exposed spheres                    =      27 (100.00%)
 GePol: Number of points                             =    2525
 GePol: Average weight of points                     =       0.10
 GePol: Minimum weight of points                     =   0.16D-11
 GePol: Maximum weight of points                     =    0.21220
 GePol: Number of points with low weight             =     159
 GePol: Fraction of low-weight points (<1% of avg)   =       6.30%
 GePol: Cavity surface area                          =    264.293 Ang**2
 GePol: Cavity volume                                =    292.189 Ang**3
 Surface areas from nonelectrostatic (unscaled) cavity and vdw tensions:
 Sphere =    1 Type =  CN+ Surf =        5.287 Tension =       -0.227
 Sphere =    2 Type =  CN+ Surf =       10.238 Tension =       -0.227
 Sphere =    3 Type =  CN+ Surf =        8.866 Tension =       -0.227
 Sphere =    4 Type =  CN+ Surf =       10.063 Tension =       -0.227
 Sphere =    5 Type =  NH+ Surf =        7.928 Tension =       -0.274
 Sphere =    6 Type =  NH+ Surf =        3.845 Tension =       -0.274
 Sphere =    7 Type =  CN+ Surf =        2.631 Tension =       -0.227
 Sphere =    8 Type =  CH3 Surf =        4.899 Tension =       -0.183
 Sphere =    9 Type =  CH3 Surf =        9.127 Tension =       -0.183
 Sphere =   10 Type =  CH3 Surf =        9.204 Tension =       -0.183
 Sphere =   11 Type =  CH3 Surf =        9.775 Tension =       -0.183
 Sphere =   12 Type =  CN+ Surf =        9.929 Tension =       -0.227
 Sphere =   13 Type =  CH2 Surf =        3.634 Tension =       -0.194
 Sphere =   14 Type =  CH2 Surf =       10.095 Tension =       -0.194
 Sphere =   15 Type =  CH2 Surf =        8.884 Tension =       -0.194
 Sphere =   16 Type =  C   Surf =        5.532 Tension =       -0.205
 Sphere =   17 Type =  CH  Surf =        7.669 Tension =       -0.195
 Sphere =   18 Type =  CH  Surf =       10.195 Tension =       -0.195
 Sphere =   19 Type =  CH  Surf =        7.884 Tension =       -0.195
 Sphere =   20 Type =  CH  Surf =       10.245 Tension =       -0.195
 Sphere =   21 Type =  CH  Surf =        7.668 Tension =       -0.195
 Sphere =   22 Type =  CH  Surf =       10.214 Tension =       -0.195
 Sphere =   23 Type =  CH  Surf =        7.874 Tension =       -0.195
 Sphere =   24 Type =  CH  Surf =       10.242 Tension =       -0.195
 Sphere =   25 Type =  CH  Surf =        7.461 Tension =       -0.195
 Sphere =   26 Type =  CH  Surf =       10.058 Tension =       -0.195
 Sphere =   27 Type =  NH+ Surf =        3.838 Tension =       -0.274
 PCM non-electrostatic energy =        -0.0131022379 Hartrees.
 Nuclear repulsion after PCM non-electrostatic terms =      608.9014809427 Hartrees.
 Leave Link  301 at Sun Jul 18 14:23:14 2021, MaxMem=   104857600 cpu:               0.1 elap:               0.1
 (Enter /dades/curu/g16A03_MST/g16/l302.exe)
 NPDir=0 NMtPBC=     1 NCelOv=     1 NCel=       1 NClECP=     1 NCelD=      1
         NCelK=      1 NCelE2=     1 NClLst=     1 CellRange=     0.0.
 One-electron integrals computed using PRISM.
 One-electron integral symmetry used in STVInt
 NBasis=   197 RedAO= T EigKep=  5.26D-04  NBF=   197
 NBsUse=   197 1.00D-06 EigRej= -1.00D+00 NBFU=   197
 Precomputing XC quadrature grid using
 IXCGrd= 4 IRadAn=           5 IRanWt=          -1 IRanGd=           0 AccXCQ= 0.00D+00.
 Generated NRdTot=       0 NPtTot=           0 NUsed=           0 NTot=          32
 NSgBfM=   197   197   197   197   197 MxSgAt=    27 MxSgA2=    27.
 Leave Link  302 at Sun Jul 18 14:23:15 2021, MaxMem=   104857600 cpu:               2.7 elap:               0.7
 (Enter /dades/curu/g16A03_MST/g16/l303.exe)
 DipDrv:  MaxL=1.
 Leave Link  303 at Sun Jul 18 14:23:15 2021, MaxMem=   104857600 cpu:               0.1 elap:               0.0
 (Enter /dades/curu/g16A03_MST/g16/l401.exe)
 ExpMin= 1.61D-01 ExpMax= 4.17D+03 ExpMxC= 6.27D+02 IAcc=3 IRadAn=         5 AccDes= 0.00D+00
 Harris functional with IExCor=  402 and IRadAn=       5 diagonalized for initial guess.
 HarFok:  IExCor=  402 AccDes= 0.00D+00 IRadAn=         5 IDoV= 1 UseB2=F ITyADJ=14
 ICtDFT=  3500011 ScaDFX=  1.000000  1.000000  1.000000  1.000000
 FoFCou: FMM=F IPFlag=           0 FMFlag=      100000 FMFlg1=           0
         NFxFlg=           0 DoJE=T BraDBF=F KetDBF=T FulRan=T
         wScrn=  0.000000 ICntrl=       500 IOpCl=  0 I1Cent=   200000004 NGrid=           0
         NMat0=    1 NMatS0=      1 NMatT0=    0 NMatD0=    1 NMtDS0=    0 NMtDT0=    0
 Petite list used in FoFCou.
 Harris En= -445.268449864828    
 JPrj=0 DoOrth=F DoCkMO=F.
 Leave Link  401 at Sun Jul 18 14:23:19 2021, MaxMem=   104857600 cpu:              18.7 elap:               4.7
 (Enter /dades/curu/g16A03_MST/g16/l502.exe)
 Integral symmetry usage will be decided dynamically.
 Closed shell SCF:
 Using DIIS extrapolation, IDIIS=  1040.
 NGot=   104857600 LenX=   104776336 LenY=   104737086
 Requested convergence on RMS density matrix=1.00D-08 within 128 cycles.
 Requested convergence on MAX density matrix=1.00D-06.
 Requested convergence on             energy=1.00D-06.
 No special actions if energy rises.
 Fock matrices will be formed incrementally for  20 cycles.

 Cycle   1  Pass 1  IDiag  1:
 FoFJK:  IHMeth= 1 ICntrl=       0 DoSepK=F KAlg= 0 I1Cent=           0 FoldK=F
 IRaf= 910000000 NMat=       1 IRICut=       1 DoRegI=T DoRafI=F ISym2E= 0 IDoP0=0 IntGTp=1.
 FoFCou: FMM=F IPFlag=           0 FMFlag=      100000 FMFlg1=           0
         NFxFlg=           0 DoJE=F BraDBF=F KetDBF=F FulRan=T
         wScrn=  0.000000 ICntrl=         0 IOpCl=  0 I1Cent=           0 NGrid=           0
         NMat0=    1 NMatS0=      1 NMatT0=    0 NMatD0=    1 NMtDS0=    0 NMtDT0=    0
 Symmetry not used in FoFCou.
 Inv3:  Mode=1 IEnd=    19126875.
 Iteration    1 A*A^-1 deviation from unit magnitude is 6.66D-15 for   2519.
 Iteration    1 A*A^-1 deviation from orthogonality  is 2.73D-15 for   2447     60.
 Iteration    1 A^-1*A deviation from unit magnitude is 6.22D-15 for   2519.
 Iteration    1 A^-1*A deviation from orthogonality  is 5.72D-15 for   2509   1181.
 E= -445.032709852089    
 DIIS: error= 2.66D-02 at cycle   1 NSaved=   1.
 NSaved= 1 IEnMin= 1 EnMin= -445.032709852089     IErMin= 1 ErrMin= 2.66D-02
 ErrMax= 2.66D-02  0.00D+00 EMaxC= 1.00D-01 BMatC= 2.41D-01 BMatP= 2.41D-01
 IDIUse=3 WtCom= 7.34D-01 WtEn= 2.66D-01
 Coeff-Com:  0.100D+01
 Coeff-En:   0.100D+01
 Coeff:      0.100D+01
 Gap=     0.237 Goal=   None    Shift=    0.000
 GapD=    0.237 DampG=1.000 DampE=0.500 DampFc=0.5000 IDamp=-1.
 Damping current iteration by 5.00D-01
 RMSDP=5.34D-03 MaxDP=1.22D-01              OVMax= 1.43D-01

 Cycle   2  Pass 1  IDiag  1:
 RMSU=  2.62D-03    CP:  9.77D-01
 E= -445.158840492605     Delta-E=       -0.126130640516 Rises=F Damp=T
 DIIS: error= 5.49D-03 at cycle   2 NSaved=   2.
 NSaved= 2 IEnMin= 2 EnMin= -445.158840492605     IErMin= 2 ErrMin= 5.49D-03
 ErrMax= 5.49D-03  0.00D+00 EMaxC= 1.00D-01 BMatC= 1.23D-02 BMatP= 2.41D-01
 IDIUse=3 WtCom= 9.45D-01 WtEn= 5.49D-02
 Coeff-Com: -0.566D-02 0.101D+01
 Coeff-En:   0.000D+00 0.100D+01
 Coeff:     -0.535D-02 0.101D+01
 Gap=     0.295 Goal=   None    Shift=    0.000
 RMSDP=1.24D-03 MaxDP=1.81D-02 DE=-1.26D-01 OVMax= 7.94D-02

 Cycle   3  Pass 1  IDiag  1:
 RMSU=  1.21D-03    CP:  9.70D-01  9.28D-01
 E= -445.291365358554     Delta-E=       -0.132524865949 Rises=F Damp=F
 DIIS: error= 2.43D-03 at cycle   3 NSaved=   3.
 NSaved= 3 IEnMin= 3 EnMin= -445.291365358554     IErMin= 3 ErrMin= 2.43D-03
 ErrMax= 2.43D-03  0.00D+00 EMaxC= 1.00D-01 BMatC= 2.24D-03 BMatP= 1.23D-02
 IDIUse=3 WtCom= 9.76D-01 WtEn= 2.43D-02
 Coeff-Com: -0.401D-01 0.262D+00 0.778D+00
 Coeff-En:   0.000D+00 0.000D+00 0.100D+01
 Coeff:     -0.392D-01 0.256D+00 0.783D+00
 Gap=     0.236 Goal=   None    Shift=    0.000
 RMSDP=3.38D-04 MaxDP=9.26D-03 DE=-1.33D-01 OVMax= 9.14D-03

 Cycle   4  Pass 1  IDiag  1:
 RMSU=  2.55D-04    CP:  9.70D-01  9.77D-01  8.50D-01
 E= -445.292869815143     Delta-E=       -0.001504456589 Rises=F Damp=F
 DIIS: error= 1.30D-03 at cycle   4 NSaved=   4.
 NSaved= 4 IEnMin= 4 EnMin= -445.292869815143     IErMin= 4 ErrMin= 1.30D-03
 ErrMax= 1.30D-03  0.00D+00 EMaxC= 1.00D-01 BMatC= 6.08D-04 BMatP= 2.24D-03
 IDIUse=3 WtCom= 9.87D-01 WtEn= 1.30D-02
 Coeff-Com: -0.185D-01 0.719D-01 0.389D+00 0.558D+00
 Coeff-En:   0.000D+00 0.000D+00 0.145D+00 0.855D+00
 Coeff:     -0.183D-01 0.709D-01 0.386D+00 0.561D+00
 Gap=     0.236 Goal=   None    Shift=    0.000
 RMSDP=1.23D-04 MaxDP=4.88D-03 DE=-1.50D-03 OVMax= 4.42D-03

 Cycle   5  Pass 1  IDiag  1:
 RMSU=  8.22D-05    CP:  9.69D-01  9.76D-01  8.71D-01  6.59D-01
 E= -445.293364089341     Delta-E=       -0.000494274197 Rises=F Damp=F
 DIIS: error= 2.99D-04 at cycle   5 NSaved=   5.
 NSaved= 5 IEnMin= 5 EnMin= -445.293364089341     IErMin= 5 ErrMin= 2.99D-04
 ErrMax= 2.99D-04  0.00D+00 EMaxC= 1.00D-01 BMatC= 4.51D-05 BMatP= 6.08D-04
 IDIUse=3 WtCom= 9.97D-01 WtEn= 2.99D-03
 Coeff-Com: -0.495D-02 0.104D-01 0.111D+00 0.271D+00 0.613D+00
 Coeff-En:   0.000D+00 0.000D+00 0.000D+00 0.000D+00 0.100D+01
 Coeff:     -0.493D-02 0.104D-01 0.110D+00 0.270D+00 0.614D+00
 Gap=     0.236 Goal=   None    Shift=    0.000
 RMSDP=3.75D-05 MaxDP=1.24D-03 DE=-4.94D-04 OVMax= 2.12D-03

 Cycle   6  Pass 1  IDiag  1:
 RMSU=  2.28D-05    CP:  9.69D-01  9.77D-01  8.74D-01  7.06D-01  6.73D-01
 E= -445.293400791932     Delta-E=       -0.000036702592 Rises=F Damp=F
 DIIS: error= 1.32D-04 at cycle   6 NSaved=   6.
 NSaved= 6 IEnMin= 6 EnMin= -445.293400791932     IErMin= 6 ErrMin= 1.32D-04
 ErrMax= 1.32D-04  0.00D+00 EMaxC= 1.00D-01 BMatC= 3.96D-06 BMatP= 4.51D-05
 IDIUse=3 WtCom= 9.99D-01 WtEn= 1.32D-03
 Coeff-Com: -0.235D-02 0.406D-02 0.534D-01 0.143D+00 0.366D+00 0.436D+00
 Coeff-En:   0.000D+00 0.000D+00 0.000D+00 0.000D+00 0.000D+00 0.100D+01
 Coeff:     -0.234D-02 0.406D-02 0.533D-01 0.143D+00 0.366D+00 0.437D+00
 Gap=     0.236 Goal=   None    Shift=    0.000
 RMSDP=1.28D-05 MaxDP=3.48D-04 DE=-3.67D-05 OVMax= 9.36D-04

 Cycle   7  Pass 1  IDiag  1:
 RMSU=  5.38D-06    CP:  9.69D-01  9.76D-01  8.77D-01  7.02D-01  6.99D-01
                    CP:  5.22D-01
 E= -445.293405121625     Delta-E=       -0.000004329693 Rises=F Damp=F
 DIIS: error= 2.95D-05 at cycle   7 NSaved=   7.
 NSaved= 7 IEnMin= 7 EnMin= -445.293405121625     IErMin= 7 ErrMin= 2.95D-05
 ErrMax= 2.95D-05  0.00D+00 EMaxC= 1.00D-01 BMatC= 1.39D-07 BMatP= 3.96D-06
 IDIUse=1 WtCom= 1.00D+00 WtEn= 0.00D+00
 Coeff-Com: -0.491D-03 0.499D-03 0.116D-01 0.344D-01 0.961D-01 0.196D+00
 Coeff-Com:  0.662D+00
 Coeff:     -0.491D-03 0.499D-03 0.116D-01 0.344D-01 0.961D-01 0.196D+00
 Coeff:      0.662D+00
 Gap=     0.236 Goal=   None    Shift=    0.000
 RMSDP=2.49D-06 MaxDP=6.37D-05 DE=-4.33D-06 OVMax= 1.95D-04

 Cycle   8  Pass 1  IDiag  1:
 RMSU=  1.48D-06    CP:  9.69D-01  9.76D-01  8.76D-01  7.04D-01  6.99D-01
                    CP:  5.69D-01  7.17D-01
 E= -445.293405252131     Delta-E=       -0.000000130506 Rises=F Damp=F
 DIIS: error= 6.79D-06 at cycle   8 NSaved=   8.
 NSaved= 8 IEnMin= 8 EnMin= -445.293405252131     IErMin= 8 ErrMin= 6.79D-06
 ErrMax= 6.79D-06  0.00D+00 EMaxC= 1.00D-01 BMatC= 1.94D-08 BMatP= 1.39D-07
 IDIUse=1 WtCom= 1.00D+00 WtEn= 0.00D+00
 Coeff-Com: -0.497D-04-0.102D-03 0.144D-02 0.563D-02 0.189D-01 0.667D-01
 Coeff-Com:  0.346D+00 0.562D+00
 Coeff:     -0.497D-04-0.102D-03 0.144D-02 0.563D-02 0.189D-01 0.667D-01
 Coeff:      0.346D+00 0.562D+00
 Gap=     0.236 Goal=   None    Shift=    0.000
 RMSDP=7.27D-07 MaxDP=2.26D-05 DE=-1.31D-07 OVMax= 4.64D-05

 Cycle   9  Pass 1  IDiag  1:
 RMSU=  4.09D-07    CP:  9.69D-01  9.76D-01  8.77D-01  7.04D-01  7.00D-01
                    CP:  5.69D-01  7.71D-01  6.58D-01
 E= -445.293405270799     Delta-E=       -0.000000018668 Rises=F Damp=F
 DIIS: error= 1.21D-06 at cycle   9 NSaved=   9.
 NSaved= 9 IEnMin= 9 EnMin= -445.293405270799     IErMin= 9 ErrMin= 1.21D-06
 ErrMax= 1.21D-06  0.00D+00 EMaxC= 1.00D-01 BMatC= 7.28D-10 BMatP= 1.94D-08
 IDIUse=1 WtCom= 1.00D+00 WtEn= 0.00D+00
 Coeff-Com:  0.207D-04-0.739D-04-0.427D-03-0.803D-03-0.102D-02 0.905D-02
 Coeff-Com:  0.680D-01 0.211D+00 0.714D+00
 Coeff:      0.207D-04-0.739D-04-0.427D-03-0.803D-03-0.102D-02 0.905D-02
 Coeff:      0.680D-01 0.211D+00 0.714D+00
 Gap=     0.236 Goal=   None    Shift=    0.000
 RMSDP=1.78D-07 MaxDP=7.36D-06 DE=-1.87D-08 OVMax= 1.51D-05

 Cycle  10  Pass 1  IDiag  1:
 RMSU=  1.23D-07    CP:  9.69D-01  9.76D-01  8.77D-01  7.04D-01  7.00D-01
                    CP:  5.71D-01  7.76D-01  7.05D-01  7.83D-01
 E= -445.293405271466     Delta-E=       -0.000000000666 Rises=F Damp=F
 DIIS: error= 7.10D-07 at cycle  10 NSaved=  10.
 NSaved=10 IEnMin=10 EnMin= -445.293405271466     IErMin=10 ErrMin= 7.10D-07
 ErrMax= 7.10D-07  0.00D+00 EMaxC= 1.00D-01 BMatC= 1.16D-10 BMatP= 7.28D-10
 IDIUse=1 WtCom= 1.00D+00 WtEn= 0.00D+00
 Coeff-Com:  0.139D-04-0.343D-04-0.316D-03-0.763D-03-0.163D-02 0.132D-02
 Coeff-Com:  0.169D-01 0.833D-01 0.389D+00 0.512D+00
 Coeff:      0.139D-04-0.343D-04-0.316D-03-0.763D-03-0.163D-02 0.132D-02
 Coeff:      0.169D-01 0.833D-01 0.389D+00 0.512D+00
 Gap=     0.236 Goal=   None    Shift=    0.000
 RMSDP=6.35D-08 MaxDP=2.26D-06 DE=-6.66D-10 OVMax= 5.25D-06

 Cycle  11  Pass 1  IDiag  1:
 RMSU=  4.14D-08    CP:  9.69D-01  9.76D-01  8.77D-01  7.04D-01  7.00D-01
                    CP:  5.72D-01  7.77D-01  7.04D-01  8.23D-01  6.42D-01
 E= -445.293405271580     Delta-E=       -0.000000000115 Rises=F Damp=F
 DIIS: error= 2.13D-07 at cycle  11 NSaved=  11.
 NSaved=11 IEnMin=11 EnMin= -445.293405271580     IErMin=11 ErrMin= 2.13D-07
 ErrMax= 2.13D-07  0.00D+00 EMaxC= 1.00D-01 BMatC= 6.69D-12 BMatP= 1.16D-10
 IDIUse=1 WtCom= 1.00D+00 WtEn= 0.00D+00
 Coeff-Com:  0.396D-05-0.703D-05-0.956D-04-0.253D-03-0.610D-03-0.261D-03
 Coeff-Com:  0.105D-03 0.144D-01 0.990D-01 0.227D+00 0.660D+00
 Coeff:      0.396D-05-0.703D-05-0.956D-04-0.253D-03-0.610D-03-0.261D-03
 Coeff:      0.105D-03 0.144D-01 0.990D-01 0.227D+00 0.660D+00
 Gap=     0.236 Goal=   None    Shift=    0.000
 RMSDP=1.99D-08 MaxDP=5.29D-07 DE=-1.15D-10 OVMax= 1.53D-06

 Cycle  12  Pass 1  IDiag  1:
 RMSU=  1.19D-08    CP:  9.69D-01  9.76D-01  8.77D-01  7.04D-01  7.00D-01
                    CP:  5.72D-01  7.76D-01  7.07D-01  8.29D-01  6.94D-01
                    CP:  6.85D-01
 E= -445.293405271571     Delta-E=        0.000000000009 Rises=F Damp=F
 DIIS: error= 7.04D-08 at cycle  12 NSaved=  12.
 NSaved=12 IEnMin=11 EnMin= -445.293405271580     IErMin=12 ErrMin= 7.04D-08
 ErrMax= 7.04D-08  0.00D+00 EMaxC= 1.00D-01 BMatC= 1.00D-12 BMatP= 6.69D-12
 IDIUse=1 WtCom= 1.00D+00 WtEn= 0.00D+00
 Coeff-Com:  0.106D-05-0.129D-05-0.268D-04-0.748D-04-0.191D-03-0.161D-03
 Coeff-Com: -0.899D-03 0.200D-02 0.247D-01 0.717D-01 0.342D+00 0.561D+00
 Coeff:      0.106D-05-0.129D-05-0.268D-04-0.748D-04-0.191D-03-0.161D-03
 Coeff:     -0.899D-03 0.200D-02 0.247D-01 0.717D-01 0.342D+00 0.561D+00
 Gap=     0.236 Goal=   None    Shift=    0.000
 RMSDP=6.71D-09 MaxDP=2.25D-07 DE= 9.44D-12 OVMax= 5.50D-07

 Error on total polarization charges =  0.00661
 SCF Done:  E(RB3LYP) =  -445.293405272     A.U. after   12 cycles
            NFock= 12  Conv=0.67D-08     -V/T= 2.0098
 KE= 4.409561777829D+02 PE=-2.234563403895D+03 EE= 7.394123398973D+02
 Leave Link  502 at Sun Jul 18 14:25:16 2021, MaxMem=   104857600 cpu:             444.4 elap:             117.0
 (Enter /dades/curu/g16A03_MST/g16/l601.exe)
 Copying SCF densities to generalized density rwf, IOpCl= 0 IROHF=0.

 **********************************************************************

            Population analysis using the SCF density.

 **********************************************************************

 Orbital symmetries:
       Occupied  (A) (A) (A) (A) (A) (A) (A) (A) (A) (A) (A) (A)
                 (A) (A) (A) (A) (A) (A) (A) (A) (A) (A) (A) (A)
                 (A) (A) (A) (A) (A) (A) (A) (A) (A) (A) (A) (A)
                 (A) (A) (A) (A) (A)
       Virtual   (A) (A) (A) (A) (A) (A) (A) (A) (A) (A) (A) (A)
                 (A) (A) (A) (A) (A) (A) (A) (A) (A) (A) (A) (A)
                 (A) (A) (A) (A) (A) (A) (A) (A) (A) (A) (A) (A)
                 (A) (A) (A) (A) (A) (A) (A) (A) (A) (A) (A) (A)
                 (A) (A) (A) (A) (A) (A) (A) (A) (A) (A) (A) (A)
                 (A) (A) (A) (A) (A) (A) (A) (A) (A) (A) (A) (A)
                 (A) (A) (A) (A) (A) (A) (A) (A) (A) (A) (A) (A)
                 (A) (A) (A) (A) (A) (A) (A) (A) (A) (A) (A) (A)
                 (A) (A) (A) (A) (A) (A) (A) (A) (A) (A) (A) (A)
                 (A) (A) (A) (A) (A) (A) (A) (A) (A) (A) (A) (A)
                 (A) (A) (A) (A) (A) (A) (A) (A) (A) (A) (A) (A)
                 (A) (A) (A) (A) (A) (A) (A) (A) (A) (A) (A) (A)
                 (A) (A) (A) (A) (A) (A) (A) (A) (A) (A) (A) (A)
 The electronic state is 1-A.
 Alpha  occ. eigenvalues --  -14.48022 -10.28219 -10.26966 -10.22463 -10.21822
 Alpha  occ. eigenvalues --  -10.21440 -10.21016 -10.20638 -10.20534 -10.20430
 Alpha  occ. eigenvalues --  -10.20008  -1.04501  -0.87996  -0.83826  -0.77372
 Alpha  occ. eigenvalues --   -0.75317  -0.74973  -0.71580  -0.66234  -0.62415
 Alpha  occ. eigenvalues --   -0.62162  -0.59897  -0.54572  -0.54428  -0.51948
 Alpha  occ. eigenvalues --   -0.49945  -0.47417  -0.46309  -0.45567  -0.44005
 Alpha  occ. eigenvalues --   -0.42967  -0.42824  -0.42617  -0.41244  -0.39140
 Alpha  occ. eigenvalues --   -0.38048  -0.36764  -0.35573  -0.35325  -0.26652
 Alpha  occ. eigenvalues --   -0.25961
 Alpha virt. eigenvalues --   -0.02374  -0.02040   0.03199   0.06640   0.07728
 Alpha virt. eigenvalues --    0.08383   0.08855   0.09886   0.10857   0.11297
 Alpha virt. eigenvalues --    0.11800   0.12791   0.13785   0.14540   0.15149
 Alpha virt. eigenvalues --    0.16000   0.16344   0.17530   0.18325   0.18768
 Alpha virt. eigenvalues --    0.20246   0.21294   0.22733   0.25225   0.29282
 Alpha virt. eigenvalues --    0.30301   0.32218   0.32239   0.44090   0.45138
 Alpha virt. eigenvalues --    0.46041   0.47966   0.49497   0.51133   0.51957
 Alpha virt. eigenvalues --    0.52951   0.53421   0.54802   0.55770   0.56859
 Alpha virt. eigenvalues --    0.57656   0.58583   0.59003   0.59868   0.60732
 Alpha virt. eigenvalues --    0.61248   0.62809   0.65280   0.65916   0.68195
 Alpha virt. eigenvalues --    0.71236   0.72626   0.74892   0.78718   0.79932
 Alpha virt. eigenvalues --    0.80483   0.81758   0.81901   0.82410   0.83619
 Alpha virt. eigenvalues --    0.84098   0.84822   0.86211   0.86453   0.88881
 Alpha virt. eigenvalues --    0.89593   0.91233   0.91559   0.93240   0.94355
 Alpha virt. eigenvalues --    0.95259   0.96017   0.96948   0.99166   1.00252
 Alpha virt. eigenvalues --    1.01947   1.05434   1.07492   1.10528   1.13931
 Alpha virt. eigenvalues --    1.15927   1.18331   1.21943   1.24061   1.26478
 Alpha virt. eigenvalues --    1.28503   1.33529   1.38514   1.42673   1.45488
 Alpha virt. eigenvalues --    1.48756   1.50019   1.51430   1.54831   1.57004
 Alpha virt. eigenvalues --    1.65045   1.67850   1.70355   1.71798   1.75026
 Alpha virt. eigenvalues --    1.78356   1.80669   1.82857   1.84882   1.87377
 Alpha virt. eigenvalues --    1.89153   1.90264   1.90993   1.92292   1.95925
 Alpha virt. eigenvalues --    1.99210   1.99948   2.03665   2.05032   2.08979
 Alpha virt. eigenvalues --    2.10432   2.11130   2.14484   2.15636   2.19870
 Alpha virt. eigenvalues --    2.21147   2.23393   2.24266   2.26697   2.28216
 Alpha virt. eigenvalues --    2.28658   2.31030   2.35899   2.38208   2.44224
 Alpha virt. eigenvalues --    2.44752   2.50545   2.54988   2.55901   2.59098
 Alpha virt. eigenvalues --    2.63638   2.67534   2.68887   2.70318   2.74079
 Alpha virt. eigenvalues --    2.78036   2.80043   2.88471   3.03442   3.36330
 Alpha virt. eigenvalues --    3.85353   4.08356   4.10156   4.16010   4.18241
 Alpha virt. eigenvalues --    4.20898   4.31634   4.34262   4.40307   4.52267
 Alpha virt. eigenvalues --    4.68254
          Condensed to atoms (all electrons):
               1          2          3          4          5          6
     1  C    5.044317   0.384074   0.381964   0.377923   0.248792  -0.021052
     2  H    0.384074   0.449347  -0.020276  -0.021371  -0.025226  -0.002176
     3  H    0.381964  -0.020276   0.485537  -0.029648  -0.039264   0.003918
     4  H    0.377923  -0.021371  -0.029648   0.479949  -0.027329  -0.002278
     5  N    0.248792  -0.025226  -0.039264  -0.027329   6.750155   0.301911
     6  H   -0.021052  -0.002176   0.003918  -0.002278   0.301911   0.291795
     7  C   -0.034899  -0.001781  -0.004435   0.003581   0.201290  -0.027206
     8  C   -0.007139  -0.000080   0.005099   0.000006  -0.054772   0.004891
     9  H   -0.001122   0.000114   0.006306  -0.000064  -0.002070  -0.000041
    10  H    0.000193  -0.000004  -0.000314   0.000002   0.003676  -0.000123
    11  H    0.000168   0.000006  -0.000093  -0.000006  -0.002495  -0.000092
    12  H   -0.000745   0.002526  -0.000586   0.000119  -0.035989  -0.000659
    13  C    0.003329  -0.000002   0.000206  -0.000156  -0.038052  -0.000222
    14  H   -0.000075   0.000000   0.000004  -0.000002  -0.002502   0.006118
    15  H   -0.000005   0.000001  -0.000013   0.000010  -0.003251  -0.000526
    16  C   -0.000073  -0.000001   0.000007   0.000001   0.003200   0.000144
    17  C   -0.000007  -0.000003   0.000000   0.000000   0.000180   0.000004
    18  H    0.000002  -0.000000   0.000000  -0.000000  -0.000050   0.000008
    19  C   -0.000000  -0.000000  -0.000000   0.000000   0.000001  -0.000000
    20  H    0.000000  -0.000000  -0.000000  -0.000000  -0.000000  -0.000000
    21  C    0.000000  -0.000000   0.000000  -0.000000  -0.000000   0.000000
    22  H   -0.000000  -0.000000   0.000000   0.000000   0.000000   0.000000
    23  C   -0.000000   0.000000  -0.000000   0.000000  -0.000000  -0.000000
    24  H    0.000000   0.000000  -0.000000  -0.000000  -0.000000   0.000000
    25  C   -0.000001   0.000000   0.000000   0.000000  -0.000027   0.000006
    26  H    0.000000  -0.000000   0.000000  -0.000000  -0.000010   0.000001
    27  H   -0.019899   0.002561  -0.003151  -0.001914   0.302681  -0.012977
               7          8          9         10         11         12
     1  C   -0.034899  -0.007139  -0.001122   0.000193   0.000168  -0.000745
     2  H   -0.001781  -0.000080   0.000114  -0.000004   0.000006   0.002526
     3  H   -0.004435   0.005099   0.006306  -0.000314  -0.000093  -0.000586
     4  H    0.003581   0.000006  -0.000064   0.000002  -0.000006   0.000119
     5  N    0.201290  -0.054772  -0.002070   0.003676  -0.002495  -0.035989
     6  H   -0.027206   0.004891  -0.000041  -0.000123  -0.000092  -0.000659
     7  C    5.044593   0.363042  -0.028654  -0.027540  -0.032325   0.383204
     8  C    0.363042   5.184136   0.365263   0.372067   0.376468  -0.032848
     9  H   -0.028654   0.365263   0.529369  -0.027583  -0.024943  -0.001395
    10  H   -0.027540   0.372067  -0.027583   0.492366  -0.017392  -0.001963
    11  H   -0.032325   0.376468  -0.024943  -0.017392   0.510145   0.003410
    12  H    0.383204  -0.032848  -0.001395  -0.001963   0.003410   0.515520
    13  C    0.353250  -0.061676   0.004663  -0.007247  -0.004763  -0.049419
    14  H   -0.046304   0.005856  -0.000154   0.000034   0.000082  -0.002022
    15  H   -0.044945  -0.013592   0.000192   0.000259   0.007484   0.006764
    16  C   -0.042202  -0.006776   0.000455   0.005140  -0.001800  -0.004236
    17  C   -0.006883  -0.001552   0.000021   0.000744   0.000075   0.006384
    18  H   -0.000625   0.000115   0.000002  -0.000000  -0.000003   0.002170
    19  C    0.000394   0.000026  -0.000007  -0.000070  -0.000001  -0.000171
    20  H   -0.000002   0.000000  -0.000000  -0.000001   0.000000   0.000010
    21  C   -0.000040   0.000013  -0.000000   0.000094   0.000001  -0.000005
    22  H    0.000000  -0.000001  -0.000000   0.000002   0.000000  -0.000000
    23  C   -0.000020  -0.000551   0.000016   0.000581   0.000003  -0.000009
    24  H   -0.000001  -0.000004   0.000000  -0.000001  -0.000005   0.000000
    25  C   -0.006994  -0.003246   0.000287   0.003089   0.000373   0.000162
    26  H   -0.000291  -0.000212   0.000027  -0.000198   0.001019   0.000022
    27  H   -0.018018  -0.004676   0.000020   0.000013   0.004245   0.003455
              13         14         15         16         17         18
     1  C    0.003329  -0.000075  -0.000005  -0.000073  -0.000007   0.000002
     2  H   -0.000002   0.000000   0.000001  -0.000001  -0.000003  -0.000000
     3  H    0.000206   0.000004  -0.000013   0.000007   0.000000   0.000000
     4  H   -0.000156  -0.000002   0.000010   0.000001   0.000000  -0.000000
     5  N   -0.038052  -0.002502  -0.003251   0.003200   0.000180  -0.000050
     6  H   -0.000222   0.006118  -0.000526   0.000144   0.000004   0.000008
     7  C    0.353250  -0.046304  -0.044945  -0.042202  -0.006883  -0.000625
     8  C   -0.061676   0.005856  -0.013592  -0.006776  -0.001552   0.000115
     9  H    0.004663  -0.000154   0.000192   0.000455   0.000021   0.000002
    10  H   -0.007247   0.000034   0.000259   0.005140   0.000744  -0.000000
    11  H   -0.004763   0.000082   0.007484  -0.001800   0.000075  -0.000003
    12  H   -0.049419  -0.002022   0.006764  -0.004236   0.006384   0.002170
    13  C    5.214514   0.357952   0.360431   0.363778  -0.071185  -0.008480
    14  H    0.357952   0.536129  -0.026746  -0.012618  -0.003139   0.002709
    15  H    0.360431  -0.026746   0.568768  -0.035479   0.005036   0.000043
    16  C    0.363778  -0.012618  -0.035479   4.655385   0.547604  -0.053014
    17  C   -0.071185  -0.003139   0.005036   0.547604   5.002456   0.356831
    18  H   -0.008480   0.002709   0.000043  -0.053014   0.356831   0.599163
    19  C    0.006695  -0.000093  -0.000194  -0.017786   0.503512  -0.042195
    20  H   -0.000160  -0.000004   0.000003   0.003486  -0.036949  -0.005361
    21  C   -0.000221   0.000032   0.000024  -0.037551  -0.028311   0.005515
    22  H    0.000008  -0.000000  -0.000000   0.000839   0.004878  -0.000204
    23  C    0.006943  -0.000145   0.000121  -0.023261  -0.051564   0.000455
    24  H   -0.000120   0.000001  -0.000011   0.003236   0.000597   0.000015
    25  C   -0.053506   0.002833  -0.003510   0.521389  -0.031372   0.006628
    26  H   -0.010045   0.000065   0.007399  -0.046465   0.007031  -0.000207
    27  H   -0.001269  -0.000295   0.002878  -0.000089   0.000001  -0.000000
              19         20         21         22         23         24
     1  C   -0.000000   0.000000   0.000000  -0.000000  -0.000000   0.000000
     2  H   -0.000000  -0.000000  -0.000000  -0.000000   0.000000   0.000000
     3  H   -0.000000  -0.000000   0.000000   0.000000  -0.000000  -0.000000
     4  H    0.000000  -0.000000  -0.000000   0.000000   0.000000  -0.000000
     5  N    0.000001  -0.000000  -0.000000   0.000000  -0.000000  -0.000000
     6  H   -0.000000  -0.000000   0.000000   0.000000  -0.000000   0.000000
     7  C    0.000394  -0.000002  -0.000040   0.000000  -0.000020  -0.000001
     8  C    0.000026   0.000000   0.000013  -0.000001  -0.000551  -0.000004
     9  H   -0.000007  -0.000000  -0.000000  -0.000000   0.000016   0.000000
    10  H   -0.000070  -0.000001   0.000094   0.000002   0.000581  -0.000001
    11  H   -0.000001   0.000000   0.000001   0.000000   0.000003  -0.000005
    12  H   -0.000171   0.000010  -0.000005  -0.000000  -0.000009   0.000000
    13  C    0.006695  -0.000160  -0.000221   0.000008   0.006943  -0.000120
    14  H   -0.000093  -0.000004   0.000032  -0.000000  -0.000145   0.000001
    15  H   -0.000194   0.000003   0.000024  -0.000000   0.000121  -0.000011
    16  C   -0.017786   0.003486  -0.037551   0.000839  -0.023261   0.003236
    17  C    0.503512  -0.036949  -0.028311   0.004878  -0.051564   0.000597
    18  H   -0.042195  -0.005361   0.005515  -0.000204   0.000455   0.000015
    19  C    4.881803   0.362508   0.550566  -0.042594  -0.031043   0.004934
    20  H    0.362508   0.566075  -0.041225  -0.005058   0.004533  -0.000191
    21  C    0.550566  -0.041225   4.866107   0.359600   0.529542  -0.042442
    22  H   -0.042594  -0.005058   0.359600   0.577173  -0.041706  -0.005630
    23  C   -0.031043   0.004533   0.529542  -0.041706   4.887110   0.363392
    24  H    0.004934  -0.000191  -0.042442  -0.005630   0.363392   0.564445
    25  C   -0.050392   0.000609  -0.025631   0.004560   0.523476  -0.036748
    26  H    0.000335   0.000014   0.005062  -0.000170  -0.042842  -0.004773
    27  H   -0.000000   0.000000  -0.000000   0.000000   0.000000  -0.000000
              25         26         27
     1  C   -0.000001   0.000000  -0.019899
     2  H    0.000000  -0.000000   0.002561
     3  H    0.000000   0.000000  -0.003151
     4  H    0.000000  -0.000000  -0.001914
     5  N   -0.000027  -0.000010   0.302681
     6  H    0.000006   0.000001  -0.012977
     7  C   -0.006994  -0.000291  -0.018018
     8  C   -0.003246  -0.000212  -0.004676
     9  H    0.000287   0.000027   0.000020
    10  H    0.003089  -0.000198   0.000013
    11  H    0.000373   0.001019   0.004245
    12  H    0.000162   0.000022   0.003455
    13  C   -0.053506  -0.010045  -0.001269
    14  H    0.002833   0.000065  -0.000295
    15  H   -0.003510   0.007399   0.002878
    16  C    0.521389  -0.046465  -0.000089
    17  C   -0.031372   0.007031   0.000001
    18  H    0.006628  -0.000207  -0.000000
    19  C   -0.050392   0.000335  -0.000000
    20  H    0.000609   0.000014   0.000000
    21  C   -0.025631   0.005062  -0.000000
    22  H    0.004560  -0.000170   0.000000
    23  C    0.523476  -0.042842   0.000000
    24  H   -0.036748  -0.004773  -0.000000
    25  C    4.995178   0.355176  -0.000000
    26  H    0.355176   0.588322  -0.000001
    27  H   -0.000000  -0.000001   0.284783
 Mulliken charges:
               1
     1  C   -0.355746
     2  H    0.232292
     3  H    0.214740
     4  H    0.221176
     5  N   -0.580849
     6  H    0.458556
     7  C   -0.026189
     8  C   -0.489855
     9  H    0.179299
    10  H    0.204176
    11  H    0.180437
    12  H    0.206302
    13  C   -0.365246
    14  H    0.182283
    15  H    0.168861
    16  C    0.176686
    17  C   -0.204389
    18  H    0.136482
    19  C   -0.126228
    20  H    0.151711
    21  C   -0.141131
    22  H    0.148303
    23  C   -0.125030
    24  H    0.153305
    25  C   -0.202339
    26  H    0.140741
    27  H    0.461651
 Sum of Mulliken charges =   1.00000
 Mulliken charges with hydrogens summed into heavy atoms:
               1
     1  C    0.312462
     5  N    0.339359
     7  C    0.180113
     8  C    0.074056
    13  C   -0.014102
    16  C    0.176686
    17  C   -0.067907
    19  C    0.025483
    21  C    0.007171
    23  C    0.028276
    25  C   -0.061598
 Electronic spatial extent (au):  <R**2>=           2299.4407
 Charge=              1.0000 electrons
 Dipole moment (field-independent basis, Debye):
    X=            -12.9026    Y=             -0.2886    Z=              1.0885  Tot=             12.9516
 Quadrupole moment (field-independent basis, Debye-Ang):
   XX=            -15.4012   YY=            -57.7312   ZZ=            -62.9488
   XY=              2.2123   XZ=             -6.9567   YZ=              1.3436
 Traceless Quadrupole moment (field-independent basis, Debye-Ang):
   XX=             29.9592   YY=            -12.3708   ZZ=            -17.5884
   XY=              2.2123   XZ=             -6.9567   YZ=              1.3436
 Octapole moment (field-independent basis, Debye-Ang**2):
  XXX=           -161.4269  YYY=             -1.8126  ZZZ=              2.6785  XYY=            -11.3324
  XXY=             -3.7459  XXZ=             -2.9270  XZZ=            -26.2384  YZZ=             -1.3769
  YYZ=              0.4015  XYZ=              2.2601
 Hexadecapole moment (field-independent basis, Debye-Ang**3):
 XXXX=          -1636.7288 YYYY=           -387.4066 ZZZZ=           -262.3379 XXXY=             39.0558
 XXXZ=            -75.6609 YYYX=              7.8051 YYYZ=             12.3295 ZZZX=             -9.2980
 ZZZY=             -3.7251 XXYY=           -404.4010 XXZZ=           -404.1737 YYZZ=           -107.5185
 XXYZ=             12.2486 YYXZ=            -12.4799 ZZXY=              3.3246
 N-N= 6.089014809427D+02 E-N=-2.234563408046D+03  KE= 4.409561777829D+02
 No NMR shielding tensors so no spin-rotation constants.
 Leave Link  601 at Sun Jul 18 14:25:17 2021, MaxMem=   104857600 cpu:               0.4 elap:               0.1
 (Enter /dades/curu/g16A03_MST/g16/l701.exe)
 ... and contract with generalized density number  0.
 Compute integral first derivatives.
 D1PCM: PCM CHGder 1st derivatives, ID1Alg=3 FixD1E=F DoIter=F DoCFld=F I1PDM=0.
 GePol: Maximum number of non-zero 1st derivatives   =     270
 Leave Link  701 at Sun Jul 18 14:25:20 2021, MaxMem=   104857600 cpu:              11.3 elap:               3.3
 (Enter /dades/curu/g16A03_MST/g16/l702.exe)
 L702 exits ... SP integral derivatives will be done elsewhere.
 Leave Link  702 at Sun Jul 18 14:25:20 2021, MaxMem=   104857600 cpu:               0.0 elap:               0.0
 (Enter /dades/curu/g16A03_MST/g16/l703.exe)
 Integral derivatives from FoFJK, PRISM(SPDF).
 Compute integral first derivatives, UseDBF=F ICtDFT=           0.
 Calling FoFJK, ICntrl=      2127 FMM=F ISym2X=0 I1Cent= 0 IOpClX= 0 NMat=1 NMatS=1 NMatT=0.
 FoFJK:  IHMeth= 1 ICntrl=    2127 DoSepK=F KAlg= 0 I1Cent=           0 FoldK=F
 IRaf=         0 NMat=       1 IRICut=       1 DoRegI=T DoRafI=F ISym2E= 0 IDoP0=0 IntGTp=1.
 FoFCou: FMM=F IPFlag=           0 FMFlag=      100000 FMFlg1=         800
         NFxFlg=           0 DoJE=F BraDBF=F KetDBF=F FulRan=T
         wScrn=  0.000000 ICntrl=      2127 IOpCl=  0 I1Cent=           0 NGrid=           0
         NMat0=    1 NMatS0=      1 NMatT0=    0 NMatD0=    1 NMtDS0=    0 NMtDT0=    0
 Symmetry not used in FoFCou.
 Leave Link  703 at Sun Jul 18 14:25:36 2021, MaxMem=   104857600 cpu:              62.6 elap:              15.7
 (Enter /dades/curu/g16A03_MST/g16/l716.exe)
 Dipole        =-5.07625937D+00-1.13531282D-01 4.28245858D-01
 ***** Axes restored to original set *****
 -------------------------------------------------------------------
 Center     Atomic                   Forces (Hartrees/Bohr)
 Number     Number              X              Y              Z
 -------------------------------------------------------------------
      1        6           0.030739808    0.005668447   -0.010702029
      2        1          -0.008383410    0.001406837   -0.006673533
      3        1          -0.000635813    0.001963558    0.010444991
      4        1          -0.006452132   -0.004079567    0.003649419
      5        7          -0.010156911    0.012734966    0.037970758
      6        1          -0.014209188   -0.024373293    0.000051068
      7        6           0.028532895    0.047184031   -0.020122190
      8        6          -0.006900817   -0.007173995    0.042598315
      9        1           0.003983372   -0.007808108   -0.004969457
     10        1          -0.002908665    0.002666070   -0.014628802
     11        1          -0.000842826    0.004092392    0.001873887
     12        1           0.011490900   -0.008591257    0.001375298
     13        6           0.001943717   -0.013080485   -0.023181244
     14        1          -0.010315300    0.003848478    0.000254477
     15        1          -0.009445257   -0.008956177   -0.005165086
     16        6          -0.007273935    0.023743412   -0.008472236
     17        6          -0.014197718    0.018552215    0.037786089
     18        1          -0.003216163   -0.002886839   -0.000753281
     19        6           0.025261475   -0.037070849    0.006989522
     20        1          -0.006277604   -0.001820103   -0.003690516
     21        6          -0.019864180    0.014420747   -0.008233431
     22        1           0.009376568    0.005431720    0.002214716
     23        6           0.002544139   -0.021473899   -0.005448025
     24        1           0.000299726   -0.006701553   -0.003876796
     25        6           0.002621205    0.009294904   -0.004604786
     26        1           0.000072481    0.000968839    0.000495366
     27        1           0.004213633   -0.007960491   -0.025182493
 -------------------------------------------------------------------
 Cartesian Forces:  Max     0.047184031 RMS     0.014834339
 Leave Link  716 at Sun Jul 18 14:25:36 2021, MaxMem=   104857600 cpu:               0.0 elap:               0.0
 (Enter /dades/curu/g16A03_MST/g16/l103.exe)

 GradGradGradGradGradGradGradGradGradGradGradGradGradGradGradGradGradGrad
 Berny optimization.
 FormGI is forming the generalized inverse of G from B-inverse, IUseBI=4.
 Internal  Forces:  Max     0.033194042 RMS     0.008303849
 Search for a local minimum.
 Step number   1 out of a maximum of  151
 All quantities printed in internal units (Hartrees-Bohrs-Radians)
 RMS Force = .83038D-02 SwitMx=.10000D-02 MixMth= 1
 Mixed Optimization -- RFO/linear search
 Second derivative matrix not updated -- first step.
 ITU=  0
     Eigenvalues ---    0.00230   0.00318   0.00625   0.00730   0.00822
     Eigenvalues ---    0.01609   0.01874   0.01879   0.02036   0.02059
     Eigenvalues ---    0.02064   0.02200   0.02354   0.02432   0.03573
     Eigenvalues ---    0.04074   0.04313   0.04509   0.04940   0.05119
     Eigenvalues ---    0.05130   0.05132   0.06153   0.06327   0.06473
     Eigenvalues ---    0.08535   0.08971   0.12337   0.12740   0.15019
     Eigenvalues ---    0.15637   0.15803   0.15967   0.15975   0.15998
     Eigenvalues ---    0.16000   0.16000   0.16000   0.16000   0.16000
     Eigenvalues ---    0.16000   0.16605   0.21990   0.22017   0.22024
     Eigenvalues ---    0.22041   0.23309   0.23497   0.24566   0.31980
     Eigenvalues ---    0.32097   0.32829   0.34433   0.34459   0.34484
     Eigenvalues ---    0.34498   0.34528   0.34540   0.34552   0.34574
     Eigenvalues ---    0.34600   0.34607   0.35152   0.35158   0.35170
     Eigenvalues ---    0.35171   0.35185   0.38120   0.41085   0.42482
     Eigenvalues ---    0.45440   0.47674   0.47710   0.49417   0.50606
 RFO step:  Lambda=-4.23841939D-02 EMin= 2.30000000D-03
 Linear search not attempted -- first point.
 Maximum step size (   0.300) exceeded in Quadratic search.
    -- Step size scaled by   0.862
 Iteration  1 RMS(Cart)=  0.13671878 RMS(Int)=  0.00489297
 Iteration  2 RMS(Cart)=  0.00930193 RMS(Int)=  0.00084807
 Iteration  3 RMS(Cart)=  0.00003382 RMS(Int)=  0.00084788
 Iteration  4 RMS(Cart)=  0.00000005 RMS(Int)=  0.00084788
 ITry= 1 IFail=0 DXMaxC= 5.62D-01 DCOld= 1.00D+10 DXMaxT= 3.00D-01 DXLimC= 3.00D+00 Rises=F
 Variable       Old X    -DE/DX   Delta X   Delta X   Delta X     New X
                                 (Linear)    (Quad)   (Total)
    R1        2.06563  -0.00544   0.00000  -0.01213  -0.01213   2.05350
    R2        2.06520  -0.00203   0.00000  -0.00453  -0.00453   2.06067
    R3        2.06448  -0.00129   0.00000  -0.00287  -0.00287   2.06161
    R4        2.79797   0.01060   0.00000   0.02360   0.02360   2.82158
    R5        1.88988   0.02730   0.00000   0.04534   0.04534   1.93523
    R6        2.84181   0.00845   0.00000   0.02011   0.02011   2.86193
    R7        1.88949   0.02593   0.00000   0.04304   0.04304   1.93253
    R8        3.03190  -0.02213   0.00000  -0.06879  -0.06879   2.96311
    R9        2.06605  -0.00187   0.00000  -0.00418  -0.00418   2.06188
   R10        2.83967   0.03319   0.00000   0.07877   0.07877   2.91844
   R11        2.06408   0.00121   0.00000   0.00269   0.00269   2.06676
   R12        2.06328  -0.00105   0.00000  -0.00233  -0.00233   2.06096
   R13        2.06373  -0.00248   0.00000  -0.00551  -0.00551   2.05822
   R14        2.06429   0.00127   0.00000   0.00283   0.00283   2.06712
   R15        2.06317   0.00450   0.00000   0.01000   0.01000   2.07317
   R16        2.82652   0.00893   0.00000   0.02076   0.02076   2.84729
   R17        2.59309   0.02185   0.00000   0.03444   0.03449   2.62758
   R18        2.68147  -0.00784   0.00000  -0.01556  -0.01566   2.66581
   R19        2.05400   0.00082   0.00000   0.00180   0.00180   2.05580
   R20        2.71450  -0.02714   0.00000  -0.05166  -0.05152   2.66298
   R21        2.05398  -0.00231   0.00000  -0.00505  -0.00505   2.04893
   R22        2.58226   0.02289   0.00000   0.03625   0.03635   2.61861
   R23        2.05376  -0.00000   0.00000  -0.00001  -0.00001   2.05375
   R24        2.62930   0.01100   0.00000   0.01850   0.01846   2.64776
   R25        2.05419  -0.00216   0.00000  -0.00472  -0.00472   2.04947
   R26        2.67065  -0.02269   0.00000  -0.04210  -0.04226   2.62840
   R27        2.05429  -0.00067   0.00000  -0.00147  -0.00147   2.05282
    A1        1.95840  -0.00161   0.00000  -0.01279  -0.01174   1.94666
    A2        1.93196   0.00556   0.00000   0.00890   0.00683   1.93879
    A3        2.02502  -0.01679   0.00000  -0.08293  -0.08346   1.94156
    A4        1.80544   0.00365   0.00000   0.04430   0.04314   1.84857
    A5        1.82752   0.01287   0.00000   0.06300   0.06305   1.89057
    A6        1.90019  -0.00124   0.00000  -0.00426  -0.00589   1.89430
    A7        1.89406   0.00111   0.00000   0.00606   0.00601   1.90007
    A8        1.99033  -0.00221   0.00000  -0.00216  -0.00219   1.98815
    A9        1.89442   0.00077   0.00000   0.00273   0.00271   1.89713
   A10        1.89399   0.00200   0.00000   0.01189   0.01187   1.90586
   A11        1.89498  -0.00368   0.00000  -0.02992  -0.02991   1.86507
   A12        1.89417   0.00182   0.00000   0.00945   0.00946   1.90363
   A13        1.85074   0.00670   0.00000   0.03739   0.03916   1.88991
   A14        1.96167  -0.00375   0.00000  -0.06147  -0.06161   1.90006
   A15        1.98452  -0.01479   0.00000  -0.06080  -0.06343   1.92109
   A16        1.92062  -0.00628   0.00000  -0.02118  -0.02250   1.89812
   A17        1.85919   0.01295   0.00000   0.08092   0.08140   1.94059
   A18        1.88399   0.00592   0.00000   0.03242   0.02940   1.91339
   A19        1.96597  -0.00341   0.00000  -0.01260  -0.01327   1.95270
   A20        1.80054   0.01418   0.00000   0.06894   0.06872   1.86926
   A21        1.93754  -0.00045   0.00000  -0.01420  -0.01440   1.92313
   A22        1.77765   0.00296   0.00000   0.04192   0.04114   1.81879
   A23        1.96544  -0.00183   0.00000  -0.02127  -0.02187   1.94357
   A24        2.00622  -0.01036   0.00000  -0.05333  -0.05304   1.95318
   A25        1.89643   0.00182   0.00000   0.00564   0.00576   1.90219
   A26        1.79659   0.00714   0.00000   0.07057   0.06842   1.86501
   A27        1.93718   0.00876   0.00000   0.03364   0.03223   1.96941
   A28        1.91287  -0.00276   0.00000  -0.02767  -0.02842   1.88445
   A29        2.04778  -0.01382   0.00000  -0.08933  -0.08925   1.95853
   A30        1.85595   0.00137   0.00000   0.02741   0.02397   1.87993
   A31        2.12415  -0.00488   0.00000  -0.01159  -0.01204   2.11211
   A32        2.13479  -0.00864   0.00000  -0.02281  -0.02331   2.11148
   A33        2.01094   0.01402   0.00000   0.04242   0.04218   2.05312
[...]
 Alpha virt. eigenvalues --   -0.01330  -0.00667  -0.00441   0.00082   0.00351
 Alpha virt. eigenvalues --    0.00442   0.00792   0.01006   0.01581   0.01986
 Alpha virt. eigenvalues --    0.02853   0.02951   0.03835   0.04178   0.04928
 Alpha virt. eigenvalues --    0.05184   0.05480   0.05970   0.06322   0.06702
 Alpha virt. eigenvalues --    0.06815   0.07112   0.07493   0.07848   0.08195
 Alpha virt. eigenvalues --    0.08659   0.08992   0.09219   0.09810   0.09926
 Alpha virt. eigenvalues --    0.10087   0.10816   0.11033   0.11456   0.11798
 Alpha virt. eigenvalues --    0.12567   0.12782   0.13494   0.13918   0.14479
 Alpha virt. eigenvalues --    0.15019   0.15335   0.15714   0.16237   0.16809
 Alpha virt. eigenvalues --    0.17451   0.18488   0.18773   0.19133   0.19688
 Alpha virt. eigenvalues --    0.20108   0.20907   0.21611   0.22290   0.22578
 Alpha virt. eigenvalues --    0.23322   0.23563   0.23810   0.23936   0.24853
 Alpha virt. eigenvalues --    0.25212   0.26221   0.26411   0.26806   0.27512
 Alpha virt. eigenvalues --    0.28139   0.28617   0.29152   0.29903   0.30308
 Alpha virt. eigenvalues --    0.31019   0.31122   0.31588   0.31723   0.32980
 Alpha virt. eigenvalues --    0.33413   0.33910   0.34358   0.34483   0.35074
 Alpha virt. eigenvalues --    0.35705   0.35806   0.36554   0.36724   0.37083
 Alpha virt. eigenvalues --    0.37759   0.38595   0.39114   0.39292   0.40302
 Alpha virt. eigenvalues --    0.41014   0.41164   0.42095   0.43131   0.43258
 Alpha virt. eigenvalues --    0.44091   0.45188   0.45413   0.45760   0.46528
 Alpha virt. eigenvalues --    0.47311   0.47825   0.48086   0.48711   0.49147
 Alpha virt. eigenvalues --    0.50002   0.50232   0.50726   0.51383   0.51827
 Alpha virt. eigenvalues --    0.52140   0.53577   0.53873   0.54280   0.54718
 Alpha virt. eigenvalues --    0.55263   0.55843   0.55962   0.56428   0.57457
 Alpha virt. eigenvalues --    0.57997   0.58625   0.58882   0.59247   0.59680
 Alpha virt. eigenvalues --    0.60850   0.61349   0.61439   0.61694   0.62732
 Alpha virt. eigenvalues --    0.63246   0.63473   0.64434   0.65239   0.65842
 Alpha virt. eigenvalues --    0.66093   0.66988   0.68044   0.68447   0.69138
 Alpha virt. eigenvalues --    0.69889   0.70319   0.70681   0.71372   0.71502
 Alpha virt. eigenvalues --    0.72900   0.73220   0.73723   0.74881   0.75284
 Alpha virt. eigenvalues --    0.76659   0.76816   0.77301   0.78018   0.78582
 Alpha virt. eigenvalues --    0.79842   0.80588   0.81649   0.81953   0.83267
 Alpha virt. eigenvalues --    0.83602   0.84169   0.84823   0.85380   0.85978
 Alpha virt. eigenvalues --    0.86405   0.87050   0.88233   0.88570   0.90166
 Alpha virt. eigenvalues --    0.91031   0.91450   0.92527   0.93084   0.94287
 Alpha virt. eigenvalues --    0.94781   0.95308   0.96561   0.97325   0.99171
 Alpha virt. eigenvalues --    0.99598   1.00356   1.01564   1.02776   1.03143
 Alpha virt. eigenvalues --    1.05986   1.06172   1.07929   1.08088   1.10487
 Alpha virt. eigenvalues --    1.10823   1.12555   1.14541   1.15664   1.18838
 Alpha virt. eigenvalues --    1.20733   1.23868   1.25427   1.26025   1.28225
 Alpha virt. eigenvalues --    1.28884   1.31551   1.32616   1.35474   1.37279
 Alpha virt. eigenvalues --    1.40758   1.42313   1.42875   1.43841   1.45073
 Alpha virt. eigenvalues --    1.47189   1.48023   1.48539   1.48978   1.50853
 Alpha virt. eigenvalues --    1.51354   1.52876   1.53470   1.54130   1.55210
 Alpha virt. eigenvalues --    1.55736   1.57110   1.57433   1.59360   1.61012
 Alpha virt. eigenvalues --    1.62501   1.63987   1.65018   1.65863   1.66700
 Alpha virt. eigenvalues --    1.68107   1.69269   1.69733   1.71337   1.72304
 Alpha virt. eigenvalues --    1.74066   1.74873   1.75006   1.76663   1.78170
 Alpha virt. eigenvalues --    1.79608   1.80193   1.81893   1.82776   1.83485
 Alpha virt. eigenvalues --    1.84010   1.85042   1.86748   1.87173   1.88291
 Alpha virt. eigenvalues --    1.88659   1.89101   1.90769   1.92014   1.92826
 Alpha virt. eigenvalues --    1.93399   1.94952   1.96504   1.97705   1.98682
 Alpha virt. eigenvalues --    2.00175   2.01103   2.02301   2.02867   2.03478
 Alpha virt. eigenvalues --    2.04433   2.05225   2.06662   2.08932   2.10269
 Alpha virt. eigenvalues --    2.11301   2.12402   2.13878   2.15501   2.16347
 Alpha virt. eigenvalues --    2.16774   2.17960   2.19077   2.19867   2.21304
 Alpha virt. eigenvalues --    2.22525   2.24233   2.24596   2.24925   2.27000
 Alpha virt. eigenvalues --    2.27268   2.27888   2.29565   2.30858   2.31450
 Alpha virt. eigenvalues --    2.32724   2.34229   2.36270   2.37126   2.38479
 Alpha virt. eigenvalues --    2.40101   2.41034   2.45820   2.46388   2.46907
 Alpha virt. eigenvalues --    2.48988   2.51051   2.52886   2.54888   2.56714
 Alpha virt. eigenvalues --    2.59777   2.60438   2.60877   2.62304   2.64182
 Alpha virt. eigenvalues --    2.65842   2.68380   2.70193   2.71296   2.71977
 Alpha virt. eigenvalues --    2.72582   2.74206   2.75288   2.76297   2.77916
 Alpha virt. eigenvalues --    2.81414   2.85438   2.86493   2.87921   2.90060
 Alpha virt. eigenvalues --    2.93114   2.94725   2.95610   2.97498   3.01717
 Alpha virt. eigenvalues --    3.03106   3.05820   3.07361   3.10676   3.19210
 Alpha virt. eigenvalues --    3.22843   3.27190   3.28856   3.29591   3.42968
 Alpha virt. eigenvalues --    3.48629   3.54909   3.63520   3.76420   3.88582
 Alpha virt. eigenvalues --    4.77280
          Condensed to atoms (all electrons):
               1          2          3          4          5          6
     1  C    3.983610   0.341886   0.315521   0.450471   0.225578  -0.033990
     2  H    0.341886   1.015710  -0.096443  -0.185101   0.002945  -0.027762
     3  H    0.315521  -0.096443   1.114123  -0.231693   0.004926   0.017716
     4  H    0.450471  -0.185101  -0.231693   1.217038  -0.174139   0.000517
     5  N    0.225578   0.002945   0.004926  -0.174139   7.846858   0.457598
     6  H   -0.033990  -0.027762   0.017716   0.000517   0.457598   0.584158
     7  C   -0.086764  -0.020307   0.033044   0.060354  -1.433072  -0.007682
     8  C    0.029333   0.006651  -0.072427   0.020548   0.170967   0.001510
     9  H    0.030689  -0.020031   0.021379   0.004039   0.066931   0.006541
    10  H   -0.017829   0.002915  -0.001723   0.001023  -0.043941  -0.001547
    11  H    0.014215   0.000949  -0.013367   0.003102  -0.042370  -0.010247
    12  H    0.003085   0.010399  -0.018269   0.007036  -0.214834  -0.049426
    13  C   -0.016602   0.021514   0.054914  -0.047831   0.098491  -0.060710
    14  H   -0.005629   0.001640   0.002142  -0.001389  -0.067401  -0.009814
    15  H    0.004125  -0.000559   0.005520  -0.001698  -0.052319   0.002831
    16  C    0.027560  -0.007776  -0.006109   0.007180   0.301943   0.009538
    17  C   -0.019237   0.006092   0.003702  -0.005792   0.016897  -0.013597
    18  H   -0.000672  -0.001109   0.000621  -0.000264   0.019709   0.001094
    19  C    0.001765   0.002677   0.000593  -0.001027   0.046604  -0.001403
    20  H    0.000234   0.000067  -0.000028  -0.000008   0.000903  -0.000043
    21  C   -0.001768  -0.000419  -0.000184   0.000097  -0.011088  -0.000092
    22  H   -0.000077   0.000003  -0.000020   0.000003  -0.000186  -0.000010
    23  C    0.004040  -0.000267   0.000883   0.000100   0.016421   0.001160
    24  H   -0.000028  -0.000040   0.000050  -0.000009   0.000325  -0.000047
    25  C   -0.002892  -0.000392  -0.003361   0.002717  -0.061008   0.007214
    26  H   -0.000171   0.000126  -0.000186   0.000057   0.003379  -0.000444
    27  H   -0.054402   0.018523  -0.023149   0.003930   0.368452  -0.067486
               7          8          9         10         11         12
     1  C   -0.086764   0.029333   0.030689  -0.017829   0.014215   0.003085
     2  H   -0.020307   0.006651  -0.020031   0.002915   0.000949   0.010399
     3  H    0.033044  -0.072427   0.021379  -0.001723  -0.013367  -0.018269
     4  H    0.060354   0.020548   0.004039   0.001023   0.003102   0.007036
     5  N   -1.433072   0.170967   0.066931  -0.043941  -0.042370  -0.214834
     6  H   -0.007682   0.001510   0.006541  -0.001547  -0.010247  -0.049426
     7  C    8.874071  -0.397551  -0.008128   0.087482   0.003665  -0.066463
     8  C   -0.397551   4.452023   0.286695   0.256499   0.332009   0.084212
     9  H   -0.008128   0.286695   1.280978  -0.239293  -0.245307  -0.042205
    10  H    0.087482   0.256499  -0.239293   1.105517  -0.123682  -0.066438
    11  H    0.003665   0.332009  -0.245307  -0.123682   1.121623   0.098713
    12  H   -0.066463   0.084212  -0.042205  -0.066438   0.098713   1.964427
    13  C    0.284523  -0.275433  -0.006953   0.050205  -0.181599  -0.282052
    14  H    0.039822   0.030734  -0.005369   0.014274   0.010441   0.010853
    15  H    0.094355  -0.032907   0.007883  -0.020779   0.014769   0.077693
    16  C   -0.602159   0.207243   0.047868  -0.021740  -0.035235  -0.091091
    17  C   -0.474624   0.026431  -0.001250  -0.000251  -0.003946   0.012321
    18  H    0.005935   0.017544  -0.000893   0.009399  -0.001449  -0.045435
    19  C    0.020665  -0.020743  -0.000590   0.019637  -0.007381  -0.008256
    20  H    0.003106   0.000433   0.000069   0.000303  -0.000048  -0.000795
    21  C   -0.069025   0.015938  -0.001297  -0.001622   0.005595   0.015560
    22  H   -0.004310   0.001954   0.000170  -0.001708   0.000394   0.000293
    23  C    0.106698   0.002130   0.001892  -0.003143  -0.004603  -0.013557
    24  H   -0.001301  -0.002028  -0.000137   0.000309  -0.000660   0.000802
    25  C   -0.294201   0.119309  -0.031310  -0.009902   0.078928   0.013608
    26  H    0.011563   0.006934   0.001056  -0.008534  -0.002169   0.001397
    27  H   -0.027972  -0.018353  -0.022460   0.006444   0.016596   0.022072
              13         14         15         16         17         18
     1  C   -0.016602  -0.005629   0.004125   0.027560  -0.019237  -0.000672
     2  H    0.021514   0.001640  -0.000559  -0.007776   0.006092  -0.001109
     3  H    0.054914   0.002142   0.005520  -0.006109   0.003702   0.000621
     4  H   -0.047831  -0.001389  -0.001698   0.007180  -0.005792  -0.000264
     5  N    0.098491  -0.067401  -0.052319   0.301943   0.016897   0.019709
     6  H   -0.060710  -0.009814   0.002831   0.009538  -0.013597   0.001094
     7  C    0.284523   0.039822   0.094355  -0.602159  -0.474624   0.005935
     8  C   -0.275433   0.030734  -0.032907   0.207243   0.026431   0.017544
     9  H   -0.006953  -0.005369   0.007883   0.047868  -0.001250  -0.000893
    10  H    0.050205   0.014274  -0.020779  -0.021740  -0.000251   0.009399
    11  H   -0.181599   0.010441   0.014769  -0.035235  -0.003946  -0.001449
    12  H   -0.282052   0.010853   0.077693  -0.091091   0.012321  -0.045435
    13  C    7.302303  -0.039825  -0.078019  -0.177095  -0.569856  -0.103119
    14  H   -0.039825   1.464002  -0.267621  -0.046827   0.169484  -0.011599
    15  H   -0.078019  -0.267621   1.564741  -0.100675  -0.229424   0.003422
    16  C   -0.177095  -0.046827  -0.100675  12.982850  -5.489359   0.663081
    17  C   -0.569856   0.169484  -0.229424  -5.489359  15.753979  -1.179522
    18  H   -0.103119  -0.011599   0.003422   0.663081  -1.179522   2.168974
    19  C   -0.074003   0.068364  -0.050113   2.654866  -3.931044   0.442360
    20  H    0.019607  -0.000144  -0.001066  -0.164163   0.662418  -0.093917
    21  C    0.058528   0.009644  -0.003252  -3.493699   3.181212  -0.170939
    22  H   -0.001382   0.000922   0.000194   0.103921  -0.140884  -0.015663
    23  C   -0.163692  -0.051209   0.119607   3.051589  -3.641138   0.130322
    24  H    0.017142   0.000066   0.001674  -0.167576   0.117696   0.009061
    25  C   -0.626915  -0.089918   0.173066  -5.482014   1.379449  -0.119704
    26  H    0.024771   0.012671  -0.041319   0.749523  -0.009612  -0.021572
    27  H   -0.002965  -0.003383  -0.008172  -0.013575   0.008902  -0.000332
              19         20         21         22         23         24
     1  C    0.001765   0.000234  -0.001768  -0.000077   0.004040  -0.000028
     2  H    0.002677   0.000067  -0.000419   0.000003  -0.000267  -0.000040
     3  H    0.000593  -0.000028  -0.000184  -0.000020   0.000883   0.000050
     4  H   -0.001027  -0.000008   0.000097   0.000003   0.000100  -0.000009
     5  N    0.046604   0.000903  -0.011088  -0.000186   0.016421   0.000325
     6  H   -0.001403  -0.000043  -0.000092  -0.000010   0.001160  -0.000047
     7  C    0.020665   0.003106  -0.069025  -0.004310   0.106698  -0.001301
     8  C   -0.020743   0.000433   0.015938   0.001954   0.002130  -0.002028
     9  H   -0.000590   0.000069  -0.001297   0.000170   0.001892  -0.000137
    10  H    0.019637   0.000303  -0.001622  -0.001708  -0.003143   0.000309
    11  H   -0.007381  -0.000048   0.005595   0.000394  -0.004603  -0.000660
    12  H   -0.008256  -0.000795   0.015560   0.000293  -0.013557   0.000802
    13  C   -0.074003   0.019607   0.058528  -0.001382  -0.163692   0.017142
    14  H    0.068364  -0.000144   0.009644   0.000922  -0.051209   0.000066
    15  H   -0.050113  -0.001066  -0.003252   0.000194   0.119607   0.001674
    16  C    2.654866  -0.164163  -3.493699   0.103921   3.051589  -0.167576
    17  C   -3.931044   0.662418   3.181212  -0.140884  -3.641138   0.117696
    18  H    0.442360  -0.093917  -0.170939  -0.015663   0.130322   0.009061
    19  C   10.639212  -0.762735  -3.036986   0.362638   3.442363  -0.210393
    20  H   -0.762735   1.654406   0.319637  -0.056983  -0.242589  -0.017949
    21  C   -3.036986   0.319637   8.773041  -0.576917  -3.186338   0.329535
    22  H    0.362638  -0.056983  -0.576917   1.586536   0.361244  -0.053062
    23  C    3.442363  -0.242589  -3.186338   0.361244  10.267497  -0.699274
    24  H   -0.210393  -0.017949   0.329535  -0.053062  -0.699274   1.638979
    25  C   -3.811535   0.122313   3.342372  -0.130895  -3.983164   0.563578
    26  H    0.097720   0.009547  -0.157288  -0.015581   0.268406  -0.086074
    27  H    0.000041  -0.000018   0.001038  -0.000006  -0.002850  -0.000005
              25         26         27
     1  C   -0.002892  -0.000171  -0.054402
     2  H   -0.000392   0.000126   0.018523
     3  H   -0.003361  -0.000186  -0.023149
     4  H    0.002717   0.000057   0.003930
     5  N   -0.061008   0.003379   0.368452
     6  H    0.007214  -0.000444  -0.067486
     7  C   -0.294201   0.011563  -0.027972
     8  C    0.119309   0.006934  -0.018353
     9  H   -0.031310   0.001056  -0.022460
    10  H   -0.009902  -0.008534   0.006444
    11  H    0.078928  -0.002169   0.016596
    12  H    0.013608   0.001397   0.022072
    13  C   -0.626915   0.024771  -0.002965
    14  H   -0.089918   0.012671  -0.003383
    15  H    0.173066  -0.041319  -0.008172
    16  C   -5.482014   0.749523  -0.013575
    17  C    1.379449  -0.009612   0.008902
    18  H   -0.119704  -0.021572  -0.000332
    19  C   -3.811535   0.097720   0.000041
    20  H    0.122313   0.009547  -0.000018
    21  C    3.342372  -0.157288   0.001038
    22  H   -0.130895  -0.015581  -0.000006
    23  C   -3.983164   0.268406  -0.002850
    24  H    0.563578  -0.086074  -0.000005
    25  C   15.614757  -1.251326   0.002035
    26  H   -1.251326   2.077497   0.001192
    27  H    0.002035   0.001192   0.587048
 Mulliken charges:
               1
     1  C    0.807950
     2  H   -0.071890
     3  H   -0.108173
     4  H   -0.129262
     5  N   -0.548569
     6  H    0.194422
     7  C   -0.131725
     8  C    0.750346
     9  H   -0.130965
    10  H    0.008126
    11  H   -0.028936
    12  H   -0.423650
    13  C    0.776055
    14  H   -0.234930
    15  H   -0.181958
    16  C    1.091933
    17  C    0.370950
    18  H   -0.705331
    19  C    0.116705
    20  H   -0.452557
    21  C    0.658713
    22  H   -0.420587
    23  C    0.217474
    24  H   -0.440634
    25  C    0.479194
    26  H   -0.671558
    27  H    0.208857
 Sum of Mulliken charges =   1.00000
 Mulliken charges with hydrogens summed into heavy atoms:
               1
     1  C    0.498625
     5  N   -0.145289
     7  C   -0.555375
     8  C    0.598571
    13  C    0.359166
    16  C    1.091933
    17  C   -0.334381
    19  C   -0.335852
    21  C    0.238126
    23  C   -0.223160
    25  C   -0.192364
 Electronic spatial extent (au):  <R**2>=           2413.8673
 Charge=              1.0000 electrons
 Dipole moment (field-independent basis, Debye):
    X=            -10.9506    Y=             -0.6495    Z=              0.9297  Tot=             11.0092
 Quadrupole moment (field-independent basis, Debye-Ang):
   XX=            -13.4643   YY=            -57.6019   ZZ=            -64.4368
   XY=              3.8667   XZ=             -6.1773   YZ=              1.0081
 Traceless Quadrupole moment (field-independent basis, Debye-Ang):
   XX=             31.7033   YY=            -12.4342   ZZ=            -19.2691
   XY=              3.8667   XZ=             -6.1773   YZ=              1.0081
 Octapole moment (field-independent basis, Debye-Ang**2):
  XXX=           -141.0379  YYY=             -2.7951  ZZZ=              3.5664  XYY=             -8.9488
  XXY=            -12.6009  XXZ=             -6.2001  XZZ=            -31.5877  YZZ=             -0.0469
  YYZ=              0.9406  XYZ=              5.4839
 Hexadecapole moment (field-independent basis, Debye-Ang**3):
 XXXX=          -1723.6380 YYYY=           -398.9035 ZZZZ=           -248.4320 XXXY=             73.4708
 XXXZ=            -87.5337 YYYX=              9.6044 YYYZ=             10.2934 ZZZX=             -8.7548
 ZZZY=             -4.7714 XXYY=           -428.2277 XXZZ=           -436.9042 YYZZ=           -108.8624
 XXYZ=             14.0634 YYXZ=            -10.6554 ZZXY=              2.6030
 N-N= 6.012064521411D+02 E-N=-2.218763653747D+03  KE= 4.417268478360D+02
 Leave Link  601 at Sun Jul 18 15:29:28 2021, MaxMem=   262144000 cpu:               0.3 elap:               0.3
 (Enter /dades/curu/g16A03_MST/g16/l9999.exe)
 1\1\GINC-PIRINEUS28\SP\RMP2-FC\Aug-CC-pVDZ\C10H16N1(1+)\UBATOR02\18-Ju
 l-2021\0\\#p mp2/aug-cc-pVDZ scf=tight maxdisk=180GB geom=allcheck\\SE
 T_328_BBB30_conf1.geo_285_180_195 geometry\\1,1\C,0,2.8668162559,-2.40
 26132941,0.7458668594\H,0,2.7159952973,-2.0809193418,1.7747580543\H,0,
 3.6174408781,-1.7852243161,0.2602856364\H,0,3.1659824151,-3.4485587825
 ,0.7165288383\N,0,1.5652920453,-2.2617310259,0.0116280357\H,0,0.884755
 417,-2.9214500576,0.4195821913\C,0,0.9729128745,-0.8524571228,0.036244
 2366\C,0,1.8855566546,0.1161108918,-0.7080493578\H,0,2.8777085657,0.18
 27359591,-0.2573808863\H,0,1.441589575,1.1133769473,-0.6727071045\H,0,
 1.99448687,-0.1634849463,-1.7614200736\H,0,0.9366573579,-0.5973109925,
 1.0978388635\C,0,-0.4608114945,-0.9004751154,-0.530917936\H,0,-0.99475
 17908,-1.745218236,-0.0834456582\H,0,-0.4170777265,-1.0823075212,-1.60
 99735319\C,0,-1.2367027464,0.3715995184,-0.257489498\C,0,-1.7433845092
 ,0.6316205654,1.0233282552\H,0,-1.5883358424,-0.0890010719,1.820684852
 7\C,0,-2.4579774274,1.8008275354,1.2811080865\H,0,-2.8479031586,1.9854
 773948,2.2765480397\C,0,-2.678590372,2.726084667,0.2589905954\H,0,-3.2
 38470455,3.633371958,0.4580364568\C,0,-2.1821827093,2.4748163118,-1.01
 97814854\H,0,-2.3547072545,3.1857072137,-1.8210074305\C,0,-1.466143880
 7,1.3043462025,-1.2745418877\H,0,-1.0890314198,1.1069807595,-2.2729738
 613\H,0,1.6818765804,-2.5783041006,-0.9647402906\\Version=ES64L-G16Rev
 A.03\State=1-A\HF=-442.2919551\MP2=-443.877367\RMSD=5.695e-09\PG=C01 [
 X(C10H16N1)]\\@


 HONESTY IN A LAWYER IS LIKE A HEN'S HIND LEGS.
  -- MAGNUS OLESON, LAKE WOBEGON PATRIARCH, C.1875
 Job cpu time:       0 days  0 hours 49 minutes  1.9 seconds.
 Elapsed time:       0 days  0 hours 13 minutes 39.3 seconds.
 File lengths (MBytes):  RWF=  17388 Int=      0 D2E=      0 Chk=     14 Scr=      1
 Normal termination of Gaussian 16 at Sun Jul 18 15:29:29 2021.
