 Entering Gaussian System, Link 0=g16
 Input=SET_328_BBB87_conf1.geo_180_090_OCTANOL.dat
 Output=SET_328_BBB87_conf1.geo_180_090_OCTANOL.log
 Initial command:
 /dades/curu/g16A03_MST/g16/l1.exe "/tmp/ubator02/1835316/Gau-211918.inp" -scrdir="/tmp/ubator02/1835316/"
 Entering Link 1 = /dades/curu/g16A03_MST/g16/l1.exe PID=    211919.
  
 Copyright (c) 1988,1990,1992,1993,1995,1998,2003,2009,2016,
            Gaussian, Inc.  All Rights Reserved.
  
 This is part of the Gaussian(R) 16 program.  It is based on
 the Gaussian(R) 09 system (copyright 2009, Gaussian, Inc.),
 the Gaussian(R) 03 system (copyright 2003, Gaussian, Inc.),
 the Gaussian(R) 98 system (copyright 1998, Gaussian, Inc.),
 the Gaussian(R) 94 system (copyright 1995, Gaussian, Inc.),
 the Gaussian 92(TM) system (copyright 1992, Gaussian, Inc.),
 the Gaussian 90(TM) system (copyright 1990, Gaussian, Inc.),
 the Gaussian 88(TM) system (copyright 1988, Gaussian, Inc.),
 the Gaussian 86(TM) system (copyright 1986, Carnegie Mellon
 University), and the Gaussian 82(TM) system (copyright 1983,
 Carnegie Mellon University). Gaussian is a federally registered
 trademark of Gaussian, Inc.
  
 This software contains proprietary and confidential information,
 including trade secrets, belonging to Gaussian, Inc.
  
 This software is provided under written license and may be
 used, copied, transmitted, or stored only in accord with that
 written license.
  
 The following legend is applicable only to US Government
 contracts under FAR:
  
                    RESTRICTED RIGHTS LEGEND
  
 Use, reproduction and disclosure by the US Government is
 subject to restrictions as set forth in subparagraphs (a)
 and (c) of the Commercial Computer Software - Restricted
 Rights clause in FAR 52.227-19.
  
 Gaussian, Inc.
 340 Quinnipiac St., Bldg. 40, Wallingford CT 06492
  
  
 ---------------------------------------------------------------
 Warning -- This program may not be used in any manner that
 competes with the business of Gaussian, Inc. or will provide
 assistance to any competitor of Gaussian, Inc.  The licensee
 of this program is prohibited from giving any competitor of
 Gaussian, Inc. access to this program.  By using this program,
 the user acknowledges that Gaussian, Inc. is engaged in the
 business of creating and licensing software in the field of
 computational chemistry and represents and warrants to the
 licensee that it is not a competitor of Gaussian, Inc. and that
 it will not use this program in any manner prohibited above.
 ---------------------------------------------------------------
  

 Cite this work as:
 Gaussian 16, Revision A.03,
 M. J. Frisch, G. W. Trucks, H. B. Schlegel, G. E. Scuseria, 
 M. A. Robb, J. R. Cheeseman, G. Scalmani, V. Barone, 
 G. A. Petersson, H. Nakatsuji, X. Li, M. Caricato, A. V. Marenich, 
 J. Bloino, B. G. Janesko, R. Gomperts, B. Mennucci, H. P. Hratchian, 
 J. V. Ortiz, A. F. Izmaylov, J. L. Sonnenberg, D. Williams-Young, 
 F. Ding, F. Lipparini, F. Egidi, J. Goings, B. Peng, A. Petrone, 
 T. Henderson, D. Ranasinghe, V. G. Zakrzewski, J. Gao, N. Rega, 
 G. Zheng, W. Liang, M. Hada, M. Ehara, K. Toyota, R. Fukuda, 
 J. Hasegawa, M. Ishida, T. Nakajima, Y. Honda, O. Kitao, H. Nakai, 
 T. Vreven, K. Throssell, J. A. Montgomery, Jr., J. E. Peralta, 
 F. Ogliaro, M. J. Bearpark, J. J. Heyd, E. N. Brothers, K. N. Kudin, 
 V. N. Staroverov, T. A. Keith, R. Kobayashi, J. Normand, 
 K. Raghavachari, A. P. Rendell, J. C. Burant, S. S. Iyengar, 
 J. Tomasi, M. Cossi, J. M. Millam, M. Klene, C. Adamo, R. Cammi, 
 J. W. Ochterski, R. L. Martin, K. Morokuma, O. Farkas, 
 J. B. Foresman, and D. J. Fox, Gaussian, Inc., Wallingford CT, 2016.
 
 ******************************************
 Gaussian 16:  ES64L-G16RevA.03 25-Dec-2016
                12-Jul-2021 
 ******************************************
 %mem=800MB
 %nproc=4
 Will use up to    4 processors via shared memory.
 %chk=SET_328_BBB87_conf1.geo_180_090.chk
 ---------------------------------------------------------------
 #p b3lyp/6-31G(d) opt freq scrf=(iefpcm,read,solvent=n-octanol)
 ---------------------------------------------------------------
 1/18=20,19=15,26=3,38=1,40=2/1,3;
 2/9=110,12=2,17=6,18=5,40=1/2;
 3/5=1,6=6,7=1,11=2,25=1,30=1,70=2203,71=1,72=25,74=-5/1,2,3;
 4//1;
 5/5=2,38=5,53=25/2;
 6/7=2,8=2,9=2,10=2,28=1/1;
 7//1,2,3,16;
 1/18=20,19=15,26=3/3(2);
 2/9=110/2;
 99//99;
 2/9=110/2;
 3/5=1,6=6,7=1,11=2,25=1,30=1,70=2205,71=1,72=25,74=-5/1,2,3;
 4/5=5,16=3,69=1/1;
 5/5=2,38=5,53=25/2;
 7//1,2,3,16;
 1/18=20,19=15,26=3/3(-5);
 2/9=110/2;
 6/7=2,8=2,9=2,10=2,19=2,28=1/1;
 99/9=1/99;
 Leave Link    1 at Mon Jul 12 12:51:26 2021, MaxMem=   104857600 cpu:               0.0 elap:               0.0
 (Enter /dades/curu/g16A03_MST/g16/l101.exe)
 ----------------------------------------
 SET_328_BBB87_conf1.geo_180_090 geometry
 ----------------------------------------
 Symbolic Z-matrix:
 Charge =  1 Multiplicity = 1
 N                    -1.224     1.78     -1.892 
 H                    -2.134     1.942    -1.51 
 H                    -1.297     1.639    -2.879 
 C                    -0.643     0.599    -1.275 
 H                     0.257     0.265    -1.797 
 H                    -1.345    -0.238    -1.243 
 C                    -0.327     1.078     0.156 
 H                    -1.211     1.41      0.705 
 H                     0.333     1.936     0.011 
 C                     0.273    -0.072     0.847 
 N                     1.616    -0.321     0.859 
 C                     1.926    -1.502     1.316 
 H                     2.975    -1.762     1.25 
 C                     0.854    -2.14      1.814 
 H                     0.731    -3.067     2.362 
 S                    -0.58     -1.446     1.329 
 H                    -0.641     2.572    -1.711 
 
 ITRead=  0  0  0  0  0  0  0  0  0  0  0  0  0  0  0  0  0
 MicOpt= -1 -1 -1 -1 -1 -1 -1 -1 -1 -1 -1 -1 -1 -1 -1 -1 -1
 NAtoms=     17 NQM=       17 NQMF=       0 NMMI=      0 NMMIF=      0
                NMic=       0 NMicF=      0.
                    Isotopes and Nuclear Properties:
 (Nuclear quadrupole moments (NQMom) in fm**2, nuclear magnetic moments (NMagM)
  in nuclear magnetons)

  Atom         1           2           3           4           5           6           7           8           9          10
 IAtWgt=          14           1           1          12           1           1          12           1           1          12
 AtmWgt=  14.0030740   1.0078250   1.0078250  12.0000000   1.0078250   1.0078250  12.0000000   1.0078250   1.0078250  12.0000000
 NucSpn=           2           1           1           0           1           1           0           1           1           0
 AtZEff=  -0.0000000  -0.0000000  -0.0000000  -0.0000000  -0.0000000  -0.0000000  -0.0000000  -0.0000000  -0.0000000  -0.0000000
 NQMom=    2.0440000   0.0000000   0.0000000   0.0000000   0.0000000   0.0000000   0.0000000   0.0000000   0.0000000   0.0000000
 NMagM=    0.4037610   2.7928460   2.7928460   0.0000000   2.7928460   2.7928460   0.0000000   2.7928460   2.7928460   0.0000000
 AtZNuc=   7.0000000   1.0000000   1.0000000   6.0000000   1.0000000   1.0000000   6.0000000   1.0000000   1.0000000   6.0000000

  Atom        11          12          13          14          15          16          17
 IAtWgt=          14          12           1          12           1          32           1
 AtmWgt=  14.0030740  12.0000000   1.0078250  12.0000000   1.0078250  31.9720718   1.0078250
 NucSpn=           2           0           1           0           1           0           1
 AtZEff=  -0.0000000  -0.0000000  -0.0000000  -0.0000000  -0.0000000  -0.0000000  -0.0000000
 NQMom=    2.0440000   0.0000000   0.0000000   0.0000000   0.0000000   0.0000000   0.0000000
 NMagM=    0.4037610   0.0000000   2.7928460   0.0000000   2.7928460   0.0000000   2.7928460
 AtZNuc=   7.0000000   6.0000000   1.0000000   6.0000000   1.0000000  16.0000000   1.0000000
 Leave Link  101 at Mon Jul 12 12:51:26 2021, MaxMem=   104857600 cpu:               0.1 elap:               0.1
 (Enter /dades/curu/g16A03_MST/g16/l103.exe)

 GradGradGradGradGradGradGradGradGradGradGradGradGradGradGradGradGradGrad
 Berny optimization.
 Initialization pass.
                           ----------------------------
                           !    Initial Parameters    !
                           ! (Angstroms and Degrees)  !
 --------------------------                            --------------------------
 ! Name  Definition              Value          Derivative Info.                !
 --------------------------------------------------------------------------------
 ! R1    R(1,2)                  1.0001         estimate D2E/DX2                !
 ! R2    R(1,3)                  0.9997         estimate D2E/DX2                !
 ! R3    R(1,4)                  1.4536         estimate D2E/DX2                !
 ! R4    R(1,17)                 1.0            estimate D2E/DX2                !
 ! R5    R(4,5)                  1.0927         estimate D2E/DX2                !
 ! R6    R(4,6)                  1.0929         estimate D2E/DX2                !
 ! R7    R(4,7)                  1.5418         estimate D2E/DX2                !
 ! R8    R(7,8)                  1.0923         estimate D2E/DX2                !
 ! R9    R(7,9)                  1.0921         estimate D2E/DX2                !
 ! R10   R(7,10)                 1.4697         estimate D2E/DX2                !
 ! R11   R(10,11)                1.3659         estimate D2E/DX2                !
 ! R12   R(10,16)                1.6875         estimate D2E/DX2                !
 ! R13   R(11,12)                1.3037         estimate D2E/DX2                !
 ! R14   R(12,13)                1.0828         estimate D2E/DX2                !
 ! R15   R(12,14)                1.3432         estimate D2E/DX2                !
 ! R16   R(14,15)                1.0839         estimate D2E/DX2                !
 ! R17   R(14,16)                1.6653         estimate D2E/DX2                !
 ! A1    A(2,1,3)              109.4816         estimate D2E/DX2                !
 ! A2    A(2,1,4)              109.4601         estimate D2E/DX2                !
 ! A3    A(2,1,17)             109.4542         estimate D2E/DX2                !
 ! A4    A(3,1,4)              109.4914         estimate D2E/DX2                !
 ! A5    A(3,1,17)             109.4507         estimate D2E/DX2                !
 ! A6    A(4,1,17)             109.4893         estimate D2E/DX2                !
 ! A7    A(1,4,5)              112.0099         estimate D2E/DX2                !
 ! A8    A(1,4,6)              112.2049         estimate D2E/DX2                !
 ! A9    A(1,4,7)              102.9128         estimate D2E/DX2                !
 ! A10   A(5,4,6)              107.9956         estimate D2E/DX2                !
 ! A11   A(5,4,7)              111.687          estimate D2E/DX2                !
 ! A12   A(6,4,7)              110.0241         estimate D2E/DX2                !
 ! A13   A(4,7,8)              113.2698         estimate D2E/DX2                !
 ! A14   A(4,7,9)              104.1645         estimate D2E/DX2                !
 ! A15   A(4,7,10)             106.0789         estimate D2E/DX2                !
 ! A16   A(8,7,9)              108.483          estimate D2E/DX2                !
 ! A17   A(8,7,10)             109.3856         estimate D2E/DX2                !
 ! A18   A(9,7,10)             115.495          estimate D2E/DX2                !
 ! A19   A(7,10,11)            123.2411         estimate D2E/DX2                !
 ! A20   A(7,10,16)            124.4042         estimate D2E/DX2                !
 ! A21   A(11,10,16)           110.2457         estimate D2E/DX2                !
 ! A22   A(10,11,12)           113.7031         estimate D2E/DX2                !
 ! A23   A(11,12,13)           115.2471         estimate D2E/DX2                !
 ! A24   A(11,12,14)           111.7439         estimate D2E/DX2                !
 ! A25   A(13,12,14)           132.9804         estimate D2E/DX2                !
 ! A26   A(12,14,15)           133.1772         estimate D2E/DX2                !
 ! A27   A(12,14,16)           112.4151         estimate D2E/DX2                !
 ! A28   A(15,14,16)           113.9511         estimate D2E/DX2                !
 ! A29   A(10,16,14)            89.2685         estimate D2E/DX2                !
 ! D1    D(2,1,4,5)            168.4714         estimate D2E/DX2                !
 ! D2    D(2,1,4,6)             46.8083         estimate D2E/DX2                !
 ! D3    D(2,1,4,7)            -71.4225         estimate D2E/DX2                !
 ! D4    D(3,1,4,5)             48.4532         estimate D2E/DX2                !
 ! D5    D(3,1,4,6)            -73.21           estimate D2E/DX2                !
 ! D6    D(3,1,4,7)            168.5592         estimate D2E/DX2                !
 ! D7    D(17,1,4,5)           -71.5451         estimate D2E/DX2                !
 ! D8    D(17,1,4,6)           166.7917         estimate D2E/DX2                !
 ! D9    D(17,1,4,7)            48.5609         estimate D2E/DX2                !
 ! D10   D(1,4,7,8)             60.1731         estimate D2E/DX2                !
 ! D11   D(1,4,7,9)            -57.5015         estimate D2E/DX2                !
 ! D12   D(1,4,7,10)          -179.8283         estimate D2E/DX2                !
 ! D13   D(5,4,7,8)           -179.4985         estimate D2E/DX2                !
 ! D14   D(5,4,7,9)             62.8268         estimate D2E/DX2                !
 ! D15   D(5,4,7,10)           -59.5            estimate D2E/DX2                !
 ! D16   D(6,4,7,8)            -59.5776         estimate D2E/DX2                !
 ! D17   D(6,4,7,9)           -177.2522         estimate D2E/DX2                !
 ! D18   D(6,4,7,10)            60.421          estimate D2E/DX2                !
 ! D19   D(4,7,10,11)           90.0867         estimate D2E/DX2                !
 ! D20   D(4,7,10,16)          -71.775          estimate D2E/DX2                !
 ! D21   D(8,7,10,11)         -147.4148         estimate D2E/DX2                !
 ! D22   D(8,7,10,16)           50.7235         estimate D2E/DX2                !
 ! D23   D(9,7,10,11)          -24.7222         estimate D2E/DX2                !
 ! D24   D(9,7,10,16)          173.4161         estimate D2E/DX2                !
 ! D25   D(7,10,11,12)        -168.4626         estimate D2E/DX2                !
 ! D26   D(16,10,11,12)         -4.3512         estimate D2E/DX2                !
 ! D27   D(7,10,16,14)         174.9356         estimate D2E/DX2                !
 ! D28   D(11,10,16,14)         11.0478         estimate D2E/DX2                !
 ! D29   D(10,11,12,13)        174.477          estimate D2E/DX2                !
 ! D30   D(10,11,12,14)         -7.213          estimate D2E/DX2                !
 ! D31   D(11,12,14,15)       -172.4718         estimate D2E/DX2                !
 ! D32   D(11,12,14,16)         15.9495         estimate D2E/DX2                !
 ! D33   D(13,12,14,15)          5.4387         estimate D2E/DX2                !
 ! D34   D(13,12,14,16)       -166.1401         estimate D2E/DX2                !
 ! D35   D(12,14,16,10)        -15.4046         estimate D2E/DX2                !
 ! D36   D(15,14,16,10)        171.3063         estimate D2E/DX2                !
 --------------------------------------------------------------------------------
 Trust Radius=3.00D-01 FncErr=1.00D-07 GrdErr=1.00D-06 EigMax=2.50D+02 EigMin=1.00D-04
 Number of steps in this run=     92 maximum allowed number of steps=    102.
 GradGradGradGradGradGradGradGradGradGradGradGradGradGradGradGradGradGrad

 Leave Link  103 at Mon Jul 12 12:51:26 2021, MaxMem=   104857600 cpu:               0.1 elap:               0.0
 (Enter /dades/curu/g16A03_MST/g16/l202.exe)
                          Input orientation:                          
 ---------------------------------------------------------------------
 Center     Atomic      Atomic             Coordinates (Angstroms)
 Number     Number       Type             X           Y           Z
 ---------------------------------------------------------------------
      1          7           0       -1.224000    1.780000   -1.892000
      2          1           0       -2.134000    1.942000   -1.510000
      3          1           0       -1.297000    1.639000   -2.879000
      4          6           0       -0.643000    0.599000   -1.275000
      5          1           0        0.257000    0.265000   -1.797000
      6          1           0       -1.345000   -0.238000   -1.243000
      7          6           0       -0.327000    1.078000    0.156000
      8          1           0       -1.211000    1.410000    0.705000
      9          1           0        0.333000    1.936000    0.011000
     10          6           0        0.273000   -0.072000    0.847000
     11          7           0        1.616000   -0.321000    0.859000
     12          6           0        1.926000   -1.502000    1.316000
     13          1           0        2.975000   -1.762000    1.250000
     14          6           0        0.854000   -2.140000    1.814000
     15          1           0        0.731000   -3.067000    2.362000
     16         16           0       -0.580000   -1.446000    1.329000
     17          1           0       -0.641000    2.572000   -1.711000
 ---------------------------------------------------------------------
                    Distance matrix (angstroms):
                    1          2          3          4          5
     1  N    0.000000
     2  H    1.000134   0.000000
     3  H    0.999689   1.632954   0.000000
     4  C    1.453620   2.020385   2.020429   0.000000
     5  H    2.120757   2.934549   2.339555   1.092721   0.000000
     6  H    2.123244   2.333712   2.490367   1.092885   1.768143
     7  C    2.343441   2.605245   3.235251   1.541771   2.194592
     8  H    2.623257   2.457881   3.592338   2.213763   3.118662
     9  H    2.463736   2.898200   3.331247   2.096173   2.463104
    10  C    3.629467   3.924958   4.390387   2.406695   2.665438
    11  N    4.477477   4.979541   5.128334   3.240901   3.040496
    12  C    5.566443   6.027521   6.152368   4.210373   3.949509
    13  H    6.328470   6.887605   6.845833   5.003985   4.558559
    14  C    5.780910   6.053085   6.397804   4.391475   4.379470
    15  H    6.738839   6.949150   7.329891   5.343707   5.350157
    16  S    4.603982   4.685444   5.266743   3.311617   3.660596
    17  H    0.999957   1.632896   1.632498   2.020601   2.477105
                    6          7          8          9         10
     6  H    0.000000
     7  C    2.173794   0.000000
     8  H    2.555105   1.092282   0.000000
     9  H    3.019019   1.092149   1.772639   0.000000
    10  C    2.648316   1.469687   2.102081   2.175904   0.000000
    11  N    3.632191   2.495327   3.318434   2.731161   1.365941
    12  C    4.341154   3.616353   4.323637   4.007558   2.235457
    13  H    5.215364   4.490617   5.280266   4.710678   3.212369
    14  C    4.218821   3.807788   4.254011   4.487318   2.355690
    15  H    5.030809   4.813193   5.153692   5.542167   3.387479
    16  S    2.942732   2.794730   2.990698   3.742809   1.687545
    17  H    2.934406   2.411705   2.740839   2.078090   3.790712
                   11         12         13         14         15
    11  N    0.000000
    12  C    1.303729   0.000000
    13  H    2.018971   1.082754   0.000000
    14  C    2.191217   1.343217   2.227021   0.000000
    15  H    3.253114   2.229656   2.824023   1.083864   0.000000
    16  S    2.511761   2.506659   3.569891   1.665298   2.326682
    17  H    4.479777   5.687679   6.373895   6.071540   7.090136
                   16         17
    16  S    0.000000
    17  H    5.038814   0.000000
 Stoichiometry    C5H9N2S(1+)
 Framework group  C1[X(C5H9N2S)]
 Deg. of freedom    45
 Full point group                 C1      NOp   1
 Largest Abelian subgroup         C1      NOp   1
 Largest concise Abelian subgroup C1      NOp   1
                         Standard orientation:                         
 ---------------------------------------------------------------------
 Center     Atomic      Atomic             Coordinates (Angstroms)
 Number     Number       Type             X           Y           Z
 ---------------------------------------------------------------------
      1          7           0       -3.326892   -0.001875   -0.211042
      2          1           0       -3.547221   -0.840383    0.287584
      3          1           0       -3.889306    0.053192   -1.035685
      4          6           0       -1.921550   -0.014332   -0.582353
      5          1           0       -1.679699    0.776395   -1.296705
      6          1           0       -1.618382   -0.968855   -1.019812
      7          6           0       -1.206772    0.198732    0.767000
      8          1           0       -1.423870   -0.582870    1.498470
      9          1           0       -1.612191    1.142505    1.138103
     10          6           0        0.232424    0.202013    0.469202
     11          7           0        0.930380    1.334590    0.159494
     12          6           0        2.128101    1.102825   -0.300353
     13          1           0        2.668926    1.976625   -0.641440
     14          6           0        2.450679   -0.198298   -0.215176
     15          1           0        3.368094   -0.748000   -0.391067
     16         16           0        1.120192   -1.167077    0.038770
     17          1           0       -3.511128    0.789974    0.371149
 ---------------------------------------------------------------------
 Rotational constants (GHZ):           4.2771425           1.0338268           0.9060264
 Leave Link  202 at Mon Jul 12 12:51:26 2021, MaxMem=   104857600 cpu:               0.1 elap:               0.0
 (Enter /dades/curu/g16A03_MST/g16/l301.exe)
 Standard basis: 6-31G(d) (6D, 7F)
 Ernie: Thresh=  0.10000D-02 Tol=  0.10000D-05 Strict=F.
 There are   142 symmetry adapted cartesian basis functions of A   symmetry.
 There are   142 symmetry adapted basis functions of A   symmetry.
   142 basis functions,   284 primitive gaussians,   142 cartesian basis functions
    34 alpha electrons       34 beta electrons
       nuclear repulsion energy       449.8162880496 Hartrees.
 IExCor=  402 DFT=T Ex+Corr=B3LYP ExCW=0 ScaHFX=  0.200000
 ScaDFX=  0.800000  0.720000  1.000000  0.810000 ScalE2=  1.000000  1.000000
 IRadAn=      5 IRanWt=     -1 IRanGd=            0 ICorTp=0 IEmpDi=  4
 NAtoms=   17 NActive=   17 NUniq=   17 SFac= 1.00D+00 NAtFMM=   60 NAOKFM=F Big=F
 Integral buffers will be    131072 words long.
 Raffenetti 2 integral format.
 Two-electron integral symmetry is turned on.
 Using the following non-standard input for PCM:
 MSTModel=DFT cav MSTCharged
 --- end of non-standard input.
 MST model for solvation energy: B3LYP parametrization.
 MST cavity parameters:
 ISph   IAn     Re0     Alpha   Atom Type   QCorr
 ------------------------------------------------
   1      7     1.50     1.15      NH+        T
   2      1     0.90     1.15      NH+        T
   3      1     0.90     1.15      NH+        T
   4      6     1.50     1.50      CN+        F
   5      1     1.20     1.50      CN+        F
   6      1     1.20     1.50      CN+        F
   7      6     1.50     1.50      CH2        F
   8      1     1.20     1.50      CH2        F
   9      1     1.20     1.50      CH2        F
  10      6     1.50     1.50      C          F
  11      7     1.50     1.50      Nc         F
  12      6     1.50     1.50      CH         F
  13      1     1.20     1.50      CH         F
  14      6     1.50     1.50      CH         F
  15      1     1.20     1.50      CH         F
  16     16     1.75     1.50      S          F
  17      1     0.90     1.15      NH+        T
 ------------------------------------------------------------------------------
 Polarizable Continuum Model (PCM)
 =================================
 Model                : PCM.
 Atomic radii         : MST.
 Polarization charges : Total charges.
 Charge compensation  : None.
 Solution method      : On-the-fly selection.
 Cavity type          : Scaled VdW (van der Waals Surface) (Alpha=1.500).
 Cavity algorithm     : GePol (No added spheres)
                        Default sphere list used, NSphG=   17.
                        Lebedev-Laikov grids with approx.  5.0 points / Ang**2.
                        Smoothing algorithm: York/Karplus (Gamma=1.0000).
                        Polarization charges: spherical gaussians, with
                                              point-specific exponents (IZeta= 3).
                        Self-potential: point-specific (ISelfS= 7).
                        Self-field    : sphere-specific E.n sum rule (ISelfD= 2).
 1st derivatives      : Analytical E(r).r(x)/FMM algorithm (CHGder, D1EAlg=3).
                        Cavity 1st derivative terms included.
 Solvent              : n-Octanol, Eps=   9.862900 Eps(inf)=   2.043470
 ------------------------------------------------------------------------------
 Spheres list:
 ISph  on   Nord     Re0    Alpha      Xe            Ye            Ze
    1   N      1    1.5000  1.150     -3.326892     -0.001875     -0.211042
    2   H      2    0.9000  1.150     -3.547221     -0.840383      0.287584
    3   H      3    0.9000  1.150     -3.889306      0.053192     -1.035685
    4   C      4    1.5000  1.500     -1.921550     -0.014332     -0.582353
    5   H      5    1.2000  1.500     -1.679699      0.776395     -1.296705
    6   H      6    1.2000  1.500     -1.618382     -0.968855     -1.019812
    7   C      7    1.5000  1.500     -1.206772      0.198732      0.767000
    8   H      8    1.2000  1.500     -1.423870     -0.582870      1.498470
    9   H      9    1.2000  1.500     -1.612191      1.142505      1.138103
   10   C     10    1.5000  1.500      0.232424      0.202013      0.469202
   11   N     11    1.5000  1.500      0.930380      1.334590      0.159494
   12   C     12    1.5000  1.500      2.128101      1.102825     -0.300353
   13   H     13    1.2000  1.500      2.668926      1.976625     -0.641440
   14   C     14    1.5000  1.500      2.450679     -0.198298     -0.215176
   15   H     15    1.2000  1.500      3.368094     -0.748000     -0.391067
   16   S     16    1.7500  1.500      1.120192     -1.167077      0.038770
   17   H     17    0.9000  1.150     -3.511128      0.789974      0.371149
 ------------------------------------------------------------------------------
 GePol: Number of generator spheres                  =      17
 GePol: Total number of spheres                      =      17
 GePol: Number of exposed spheres                    =      17 (100.00%)
 GePol: Number of points                             =    1698
 GePol: Average weight of points                     =       0.12
 GePol: Minimum weight of points                     =   0.16D-10
 GePol: Maximum weight of points                     =    0.22065
 GePol: Number of points with low weight             =     100
 GePol: Fraction of low-weight points (<1% of avg)   =       5.89%
 GePol: Cavity surface area                          =    197.242 Ang**2
 GePol: Cavity volume                                =    210.038 Ang**3
 Surface areas from nonelectrostatic (unscaled) cavity and vdw tensions:
 Sphere =    1 Type =  NH+ Surf =       12.009 Tension =       -0.274
 Sphere =    2 Type =  NH+ Surf =        3.856 Tension =       -0.274
 Sphere =    3 Type =  NH+ Surf =        3.854 Tension =       -0.274
 Sphere =    4 Type =  CN+ Surf =        3.849 Tension =       -0.227
 Sphere =    5 Type =  CN+ Surf =       10.074 Tension =       -0.227
 Sphere =    6 Type =  CN+ Surf =        9.920 Tension =       -0.227
 Sphere =    7 Type =  CH2 Surf =        3.642 Tension =       -0.194
 Sphere =    8 Type =  CH2 Surf =       10.036 Tension =       -0.194
 Sphere =    9 Type =  CH2 Surf =        9.696 Tension =       -0.194
 Sphere =   10 Type =  C   Surf =        5.256 Tension =       -0.205
 Sphere =   11 Type =  Nc  Surf =       12.724 Tension =       -0.161
 Sphere =   12 Type =  CH  Surf =        7.658 Tension =       -0.195
 Sphere =   13 Type =  CH  Surf =       10.189 Tension =       -0.195
 Sphere =   14 Type =  CH  Surf =        7.268 Tension =       -0.195
 Sphere =   15 Type =  CH  Surf =       10.124 Tension =       -0.195
 Sphere =   16 Type =  S   Surf =       23.684 Tension =       -0.186
 Sphere =   17 Type =  NH+ Surf =        3.795 Tension =       -0.274
 PCM non-electrostatic energy =        -0.0107760464 Hartrees.
 Nuclear repulsion after PCM non-electrostatic terms =      449.8055120032 Hartrees.
 Leave Link  301 at Mon Jul 12 12:51:26 2021, MaxMem=   104857600 cpu:               0.1 elap:               0.1
 (Enter /dades/curu/g16A03_MST/g16/l302.exe)
 NPDir=0 NMtPBC=     1 NCelOv=     1 NCel=       1 NClECP=     1 NCelD=      1
         NCelK=      1 NCelE2=     1 NClLst=     1 CellRange=     0.0.
 One-electron integrals computed using PRISM.
 One-electron integral symmetry used in STVInt
 NBasis=   142 RedAO= T EigKep=  1.96D-03  NBF=   142
 NBsUse=   142 1.00D-06 EigRej= -1.00D+00 NBFU=   142
 Precomputing XC quadrature grid using
 IXCGrd= 4 IRadAn=           5 IRanWt=          -1 IRanGd=           0 AccXCQ= 0.00D+00.
 Generated NRdTot=       0 NPtTot=           0 NUsed=           0 NTot=          32
 NSgBfM=   142   142   142   142   142 MxSgAt=    17 MxSgA2=    17.
 Leave Link  302 at Mon Jul 12 12:51:27 2021, MaxMem=   104857600 cpu:               1.6 elap:               0.4
 (Enter /dades/curu/g16A03_MST/g16/l303.exe)
 DipDrv:  MaxL=1.
 Leave Link  303 at Mon Jul 12 12:51:27 2021, MaxMem=   104857600 cpu:               0.1 elap:               0.0
 (Enter /dades/curu/g16A03_MST/g16/l401.exe)
 ExpMin= 1.17D-01 ExpMax= 2.19D+04 ExpMxC= 3.30D+03 IAcc=3 IRadAn=         5 AccDes= 0.00D+00
 Harris functional with IExCor=  402 and IRadAn=       5 diagonalized for initial guess.
 HarFok:  IExCor=  402 AccDes= 0.00D+00 IRadAn=         5 IDoV= 1 UseB2=F ITyADJ=14
 ICtDFT=  3500011 ScaDFX=  1.000000  1.000000  1.000000  1.000000
 FoFCou: FMM=F IPFlag=           0 FMFlag=      100000 FMFlg1=           0
         NFxFlg=           0 DoJE=T BraDBF=F KetDBF=T FulRan=T
         wScrn=  0.000000 ICntrl=       500 IOpCl=  0 I1Cent=   200000004 NGrid=           0
         NMat0=    1 NMatS0=      1 NMatT0=    0 NMatD0=    1 NMtDS0=    0 NMtDT0=    0
 Petite list used in FoFCou.
 Harris En= -703.365050067713    
 JPrj=0 DoOrth=F DoCkMO=F.
 Leave Link  401 at Mon Jul 12 12:51:29 2021, MaxMem=   104857600 cpu:               8.1 elap:               2.1
 (Enter /dades/curu/g16A03_MST/g16/l502.exe)
 Keep R1 ints in memory in canonical form, NReq=55416097.
 FoFCou: FMM=F IPFlag=           0 FMFlag=           0 FMFlg1=           0
         NFxFlg=           0 DoJE=F BraDBF=F KetDBF=F FulRan=T
         wScrn=  0.000000 ICntrl=       600 IOpCl=  0 I1Cent=           0 NGrid=           0
         NMat0=    1 NMatS0=  10153 NMatT0=    0 NMatD0=    1 NMtDS0=    0 NMtDT0=    0
 Symmetry not used in FoFCou.
 Two-electron integral symmetry not used.
 Closed shell SCF:
 Using DIIS extrapolation, IDIIS=  1040.
 NGot=   104857600 LenX=    53267895 LenY=    53247290
 Requested convergence on RMS density matrix=1.00D-08 within 128 cycles.
 Requested convergence on MAX density matrix=1.00D-06.
 Requested convergence on             energy=1.00D-06.
 No special actions if energy rises.

 Cycle   1  Pass 1  IDiag  1:
 Inv3:  Mode=1 IEnd=     8649612.
 Iteration    1 A*A^-1 deviation from unit magnitude is 7.55D-15 for    407.
 Iteration    1 A*A^-1 deviation from orthogonality  is 2.14D-15 for   1375    951.
 Iteration    1 A^-1*A deviation from unit magnitude is 6.88D-15 for    407.
 Iteration    1 A^-1*A deviation from orthogonality  is 1.43D-15 for   1697   1693.
 E= -703.237945946784    
 DIIS: error= 2.62D-02 at cycle   1 NSaved=   1.
 NSaved= 1 IEnMin= 1 EnMin= -703.237945946784     IErMin= 1 ErrMin= 2.62D-02
 ErrMax= 2.62D-02  0.00D+00 EMaxC= 1.00D-01 BMatC= 2.20D-01 BMatP= 2.20D-01
 IDIUse=3 WtCom= 7.38D-01 WtEn= 2.62D-01
 Coeff-Com:  0.100D+01
 Coeff-En:   0.100D+01
 Coeff:      0.100D+01
 Gap=     0.210 Goal=   None    Shift=    0.000
 GapD=    0.210 DampG=1.000 DampE=0.500 DampFc=0.5000 IDamp=-1.
 Damping current iteration by 5.00D-01
 RMSDP=9.96D-03 MaxDP=2.51D-01              OVMax= 3.30D-01

 Cycle   2  Pass 1  IDiag  1:
 E= -703.293757803563     Delta-E=       -0.055811856779 Rises=F Damp=T
 DIIS: error= 1.05D-02 at cycle   2 NSaved=   2.
 NSaved= 2 IEnMin= 2 EnMin= -703.293757803563     IErMin= 2 ErrMin= 1.05D-02
 ErrMax= 1.05D-02  0.00D+00 EMaxC= 1.00D-01 BMatC= 3.24D-02 BMatP= 2.20D-01
 IDIUse=3 WtCom= 8.95D-01 WtEn= 1.05D-01
 Coeff-Com:  0.209D+00 0.791D+00
 Coeff-En:   0.372D+00 0.628D+00
 Coeff:      0.226D+00 0.774D+00
 Gap=     0.286 Goal=   None    Shift=    0.000
 RMSDP=3.27D-03 MaxDP=7.72D-02 DE=-5.58D-02 OVMax= 2.75D-01

 Cycle   3  Pass 1  IDiag  1:
 E= -703.442760576831     Delta-E=       -0.149002773268 Rises=F Damp=F
 DIIS: error= 1.08D-02 at cycle   3 NSaved=   3.
 NSaved= 3 IEnMin= 3 EnMin= -703.442760576831     IErMin= 2 ErrMin= 1.05D-02
 ErrMax= 1.08D-02  0.00D+00 EMaxC= 1.00D-01 BMatC= 2.41D-02 BMatP= 3.24D-02
 IDIUse=3 WtCom= 8.92D-01 WtEn= 1.08D-01
 Coeff-Com:  0.696D-01 0.457D+00 0.474D+00
 Coeff-En:   0.000D+00 0.000D+00 0.100D+01
 Coeff:      0.621D-01 0.407D+00 0.531D+00
 Gap=     0.203 Goal=   None    Shift=    0.000
 RMSDP=1.41D-03 MaxDP=4.33D-02 DE=-1.49D-01 OVMax= 7.08D-02

 Cycle   4  Pass 1  IDiag  1:
 E= -703.461385049173     Delta-E=       -0.018624472343 Rises=F Damp=F
 DIIS: error= 3.77D-03 at cycle   4 NSaved=   4.
 NSaved= 4 IEnMin= 4 EnMin= -703.461385049173     IErMin= 4 ErrMin= 3.77D-03
 ErrMax= 3.77D-03  0.00D+00 EMaxC= 1.00D-01 BMatC= 4.92D-03 BMatP= 2.41D-02
 IDIUse=3 WtCom= 9.62D-01 WtEn= 3.77D-02
 Coeff-Com: -0.370D-02 0.687D-01 0.318D+00 0.617D+00
 Coeff-En:   0.000D+00 0.000D+00 0.189D+00 0.811D+00
 Coeff:     -0.356D-02 0.661D-01 0.314D+00 0.624D+00
 Gap=     0.203 Goal=   None    Shift=    0.000
 RMSDP=5.16D-04 MaxDP=1.52D-02 DE=-1.86D-02 OVMax= 2.54D-02

 Cycle   5  Pass 1  IDiag  1:
 E= -703.465675553540     Delta-E=       -0.004290504367 Rises=F Damp=F
 DIIS: error= 6.94D-04 at cycle   5 NSaved=   5.
 NSaved= 5 IEnMin= 5 EnMin= -703.465675553540     IErMin= 5 ErrMin= 6.94D-04
 ErrMax= 6.94D-04  0.00D+00 EMaxC= 1.00D-01 BMatC= 1.97D-04 BMatP= 4.92D-03
 IDIUse=3 WtCom= 9.93D-01 WtEn= 6.94D-03
 Coeff-Com: -0.314D-02 0.105D-01 0.131D+00 0.313D+00 0.549D+00
 Coeff-En:   0.000D+00 0.000D+00 0.000D+00 0.000D+00 0.100D+01
 Coeff:     -0.311D-02 0.104D-01 0.130D+00 0.311D+00 0.552D+00
 Gap=     0.204 Goal=   None    Shift=    0.000
 RMSDP=1.48D-04 MaxDP=4.80D-03 DE=-4.29D-03 OVMax= 7.95D-03

 Cycle   6  Pass 1  IDiag  1:
 E= -703.465851594740     Delta-E=       -0.000176041200 Rises=F Damp=F
 DIIS: error= 3.49D-04 at cycle   6 NSaved=   6.
 NSaved= 6 IEnMin= 6 EnMin= -703.465851594740     IErMin= 6 ErrMin= 3.49D-04
 ErrMax= 3.49D-04  0.00D+00 EMaxC= 1.00D-01 BMatC= 3.21D-05 BMatP= 1.97D-04
 IDIUse=3 WtCom= 9.97D-01 WtEn= 3.49D-03
 Coeff-Com: -0.110D-02-0.201D-02 0.448D-01 0.123D+00 0.328D+00 0.508D+00
 Coeff-En:   0.000D+00 0.000D+00 0.000D+00 0.000D+00 0.930D-01 0.907D+00
 Coeff:     -0.110D-02-0.200D-02 0.447D-01 0.122D+00 0.327D+00 0.509D+00
 Gap=     0.204 Goal=   None    Shift=    0.000
 RMSDP=5.06D-05 MaxDP=1.50D-03 DE=-1.76D-04 OVMax= 3.52D-03

 Cycle   7  Pass 1  IDiag  1:
 E= -703.465881702680     Delta-E=       -0.000030107940 Rises=F Damp=F
 DIIS: error= 1.10D-04 at cycle   7 NSaved=   7.
 NSaved= 7 IEnMin= 7 EnMin= -703.465881702680     IErMin= 7 ErrMin= 1.10D-04
 ErrMax= 1.10D-04  0.00D+00 EMaxC= 1.00D-01 BMatC= 3.02D-06 BMatP= 3.21D-05
 IDIUse=3 WtCom= 9.99D-01 WtEn= 1.10D-03
 Coeff-Com: -0.199D-03-0.210D-02 0.137D-01 0.400D-01 0.127D+00 0.291D+00
 Coeff-Com:  0.530D+00
 Coeff-En:   0.000D+00 0.000D+00 0.000D+00 0.000D+00 0.000D+00 0.475D-01
 Coeff-En:   0.952D+00
 Coeff:     -0.198D-03-0.210D-02 0.137D-01 0.399D-01 0.127D+00 0.291D+00
 Coeff:      0.531D+00
 Gap=     0.204 Goal=   None    Shift=    0.000
 RMSDP=1.56D-05 MaxDP=4.80D-04 DE=-3.01D-05 OVMax= 9.14D-04

 Cycle   8  Pass 1  IDiag  1:
 E= -703.465884789709     Delta-E=       -0.000003087029 Rises=F Damp=F
 DIIS: error= 2.25D-05 at cycle   8 NSaved=   8.
 NSaved= 8 IEnMin= 8 EnMin= -703.465884789709     IErMin= 8 ErrMin= 2.25D-05
 ErrMax= 2.25D-05  0.00D+00 EMaxC= 1.00D-01 BMatC= 1.68D-07 BMatP= 3.02D-06
 IDIUse=1 WtCom= 1.00D+00 WtEn= 0.00D+00
 Coeff-Com:  0.121D-03-0.856D-03 0.671D-03 0.193D-02 0.117D-01 0.590D-01
 Coeff-Com:  0.228D+00 0.699D+00
 Coeff:      0.121D-03-0.856D-03 0.671D-03 0.193D-02 0.117D-01 0.590D-01
 Coeff:      0.228D+00 0.699D+00
 Gap=     0.204 Goal=   None    Shift=    0.000
 RMSDP=3.79D-06 MaxDP=9.03D-05 DE=-3.09D-06 OVMax= 1.61D-04

 Cycle   9  Pass 1  IDiag  1:
 E= -703.465884959178     Delta-E=       -0.000000169469 Rises=F Damp=F
 DIIS: error= 4.72D-06 at cycle   9 NSaved=   9.
 NSaved= 9 IEnMin= 9 EnMin= -703.465884959178     IErMin= 9 ErrMin= 4.72D-06
 ErrMax= 4.72D-06  0.00D+00 EMaxC= 1.00D-01 BMatC= 1.04D-08 BMatP= 1.68D-07
 IDIUse=1 WtCom= 1.00D+00 WtEn= 0.00D+00
 Coeff-Com:  0.831D-04-0.255D-03-0.418D-03-0.154D-02-0.263D-02 0.685D-02
 Coeff-Com:  0.626D-01 0.291D+00 0.644D+00
 Coeff:      0.831D-04-0.255D-03-0.418D-03-0.154D-02-0.263D-02 0.685D-02
 Coeff:      0.626D-01 0.291D+00 0.644D+00
 Gap=     0.204 Goal=   None    Shift=    0.000
 RMSDP=1.17D-06 MaxDP=4.88D-05 DE=-1.69D-07 OVMax= 3.35D-05

 Cycle  10  Pass 1  IDiag  1:
 E= -703.465884970339     Delta-E=       -0.000000011161 Rises=F Damp=F
 DIIS: error= 1.23D-06 at cycle  10 NSaved=  10.
 NSaved=10 IEnMin=10 EnMin= -703.465884970339     IErMin=10 ErrMin= 1.23D-06
 ErrMax= 1.23D-06  0.00D+00 EMaxC= 1.00D-01 BMatC= 6.18D-10 BMatP= 1.04D-08
 IDIUse=1 WtCom= 1.00D+00 WtEn= 0.00D+00
 Coeff-Com:  0.241D-04-0.391D-04-0.188D-03-0.739D-03-0.192D-02-0.223D-02
 Coeff-Com:  0.624D-02 0.587D-01 0.247D+00 0.693D+00
 Coeff:      0.241D-04-0.391D-04-0.188D-03-0.739D-03-0.192D-02-0.223D-02
 Coeff:      0.624D-02 0.587D-01 0.247D+00 0.693D+00
 Gap=     0.204 Goal=   None    Shift=    0.000
 RMSDP=2.41D-07 MaxDP=6.09D-06 DE=-1.12D-08 OVMax= 8.38D-06

 Cycle  11  Pass 1  IDiag  1:
 E= -703.465884970879     Delta-E=       -0.000000000540 Rises=F Damp=F
 DIIS: error= 5.46D-07 at cycle  11 NSaved=  11.
 NSaved=11 IEnMin=11 EnMin= -703.465884970879     IErMin=11 ErrMin= 5.46D-07
 ErrMax= 5.46D-07  0.00D+00 EMaxC= 1.00D-01 BMatC= 8.28D-11 BMatP= 6.18D-10
 IDIUse=1 WtCom= 1.00D+00 WtEn= 0.00D+00
 Coeff-Com:  0.613D-05-0.266D-05-0.563D-04-0.248D-03-0.716D-03-0.156D-02
 Coeff-Com: -0.145D-02 0.753D-02 0.734D-01 0.336D+00 0.587D+00
 Coeff:      0.613D-05-0.266D-05-0.563D-04-0.248D-03-0.716D-03-0.156D-02
 Coeff:     -0.145D-02 0.753D-02 0.734D-01 0.336D+00 0.587D+00
 Gap=     0.204 Goal=   None    Shift=    0.000
 RMSDP=7.18D-08 MaxDP=2.56D-06 DE=-5.40D-10 OVMax= 3.46D-06

 Cycle  12  Pass 1  IDiag  1:
 E= -703.465884970956     Delta-E=       -0.000000000078 Rises=F Damp=F
 DIIS: error= 1.13D-07 at cycle  12 NSaved=  12.
 NSaved=12 IEnMin=12 EnMin= -703.465884970956     IErMin=12 ErrMin= 1.13D-07
 ErrMax= 1.13D-07  0.00D+00 EMaxC= 1.00D-01 BMatC= 4.93D-12 BMatP= 8.28D-11
 IDIUse=1 WtCom= 1.00D+00 WtEn= 0.00D+00
 Coeff-Com: -0.147D-06 0.296D-05 0.304D-05-0.767D-05-0.397D-04-0.319D-03
 Coeff-Com: -0.119D-02-0.378D-02-0.508D-04 0.515D-01 0.233D+00 0.721D+00
 Coeff:     -0.147D-06 0.296D-05 0.304D-05-0.767D-05-0.397D-04-0.319D-03
 Coeff:     -0.119D-02-0.378D-02-0.508D-04 0.515D-01 0.233D+00 0.721D+00
 Gap=     0.204 Goal=   None    Shift=    0.000
 RMSDP=1.88D-08 MaxDP=4.70D-07 DE=-7.75D-11 OVMax= 7.45D-07

 Cycle  13  Pass 1  IDiag  1:
 E= -703.465884970954     Delta-E=        0.000000000003 Rises=F Damp=F
 DIIS: error= 2.17D-08 at cycle  13 NSaved=  13.
 NSaved=13 IEnMin=12 EnMin= -703.465884970956     IErMin=13 ErrMin= 2.17D-08
 ErrMax= 2.17D-08  0.00D+00 EMaxC= 1.00D-01 BMatC= 1.50D-13 BMatP= 4.93D-12
 IDIUse=1 WtCom= 1.00D+00 WtEn= 0.00D+00
 Coeff-Com: -0.220D-06 0.904D-06 0.356D-05 0.717D-05 0.124D-04-0.508D-04
 Coeff-Com: -0.354D-03-0.163D-02-0.290D-02 0.549D-02 0.588D-01 0.231D+00
 Coeff-Com:  0.709D+00
 Coeff:     -0.220D-06 0.904D-06 0.356D-05 0.717D-05 0.124D-04-0.508D-04
 Coeff:     -0.354D-03-0.163D-02-0.290D-02 0.549D-02 0.588D-01 0.231D+00
 Coeff:      0.709D+00
 Gap=     0.204 Goal=   None    Shift=    0.000
 RMSDP=4.13D-09 MaxDP=1.14D-07 DE= 2.61D-12 OVMax= 1.65D-07

 Error on total polarization charges =  0.00689
 SCF Done:  E(RB3LYP) =  -703.465884971     A.U. after   13 cycles
            NFock= 13  Conv=0.41D-08     -V/T= 2.0053
 KE= 6.997899477614D+02 PE=-2.542486950330D+03 EE= 6.894256055947D+02
 Leave Link  502 at Mon Jul 12 12:52:14 2021, MaxMem=   104857600 cpu:             173.1 elap:              45.5
 (Enter /dades/curu/g16A03_MST/g16/l601.exe)
 Copying SCF densities to generalized density rwf, IOpCl= 0 IROHF=0.

 **********************************************************************

            Population analysis using the SCF density.

 **********************************************************************

 Orbital symmetries:
       Occupied  (A) (A) (A) (A) (A) (A) (A) (A) (A) (A) (A) (A)
                 (A) (A) (A) (A) (A) (A) (A) (A) (A) (A) (A) (A)
                 (A) (A) (A) (A) (A) (A) (A) (A) (A) (A)
       Virtual   (A) (A) (A) (A) (A) (A) (A) (A) (A) (A) (A) (A)
                 (A) (A) (A) (A) (A) (A) (A) (A) (A) (A) (A) (A)
                 (A) (A) (A) (A) (A) (A) (A) (A) (A) (A) (A) (A)
                 (A) (A) (A) (A) (A) (A) (A) (A) (A) (A) (A) (A)
                 (A) (A) (A) (A) (A) (A) (A) (A) (A) (A) (A) (A)
                 (A) (A) (A) (A) (A) (A) (A) (A) (A) (A) (A) (A)
                 (A) (A) (A) (A) (A) (A) (A) (A) (A) (A) (A) (A)
                 (A) (A) (A) (A) (A) (A) (A) (A) (A) (A) (A) (A)
                 (A) (A) (A) (A) (A) (A) (A) (A) (A) (A) (A) (A)
 The electronic state is 1-A.
 Alpha  occ. eigenvalues --  -88.93554 -14.46713 -14.34359 -10.27787 -10.26696
 Alpha  occ. eigenvalues --  -10.23781 -10.22730 -10.22547  -7.99944  -5.96282
 Alpha  occ. eigenvalues --   -5.95939  -5.95698  -1.04183  -0.99129  -0.84043
 Alpha  occ. eigenvalues --   -0.82451  -0.74862  -0.68941  -0.62196  -0.61756
 Alpha  occ. eigenvalues --   -0.60446  -0.56459  -0.54071  -0.51495  -0.49029
 Alpha  occ. eigenvalues --   -0.44989  -0.44002  -0.41717  -0.41318  -0.39736
 Alpha  occ. eigenvalues --   -0.39110  -0.30274  -0.28182  -0.25395
 Alpha virt. eigenvalues --   -0.04978   0.00181   0.03088   0.04742   0.08010
 Alpha virt. eigenvalues --    0.08584   0.09712   0.10277   0.11470   0.13432
 Alpha virt. eigenvalues --    0.14976   0.15505   0.16663   0.17693   0.18992
 Alpha virt. eigenvalues --    0.21967   0.23585   0.28996   0.30384   0.34686
 Alpha virt. eigenvalues --    0.37837   0.39734   0.43816   0.47653   0.50051
 Alpha virt. eigenvalues --    0.50384   0.52151   0.52939   0.55018   0.56971
 Alpha virt. eigenvalues --    0.59832   0.60256   0.62691   0.63526   0.66347
 Alpha virt. eigenvalues --    0.68754   0.71305   0.72982   0.76121   0.78872
 Alpha virt. eigenvalues --    0.80873   0.82054   0.82570   0.83604   0.84493
 Alpha virt. eigenvalues --    0.85025   0.85386   0.86565   0.87067   0.88999
 Alpha virt. eigenvalues --    0.91041   0.92475   0.95647   0.96139   1.00897
 Alpha virt. eigenvalues --    1.02962   1.05202   1.06648   1.10889   1.20225
 Alpha virt. eigenvalues --    1.27150   1.29876   1.34389   1.40789   1.42291
 Alpha virt. eigenvalues --    1.46865   1.48023   1.54603   1.57260   1.66340
 Alpha virt. eigenvalues --    1.70117   1.73642   1.79969   1.80548   1.84944
 Alpha virt. eigenvalues --    1.91535   1.94665   1.96891   1.98607   2.00907
 Alpha virt. eigenvalues --    2.08700   2.12916   2.20840   2.21480   2.25723
 Alpha virt. eigenvalues --    2.26792   2.29998   2.30630   2.34068   2.38295
 Alpha virt. eigenvalues --    2.40826   2.45940   2.48061   2.55370   2.57941
 Alpha virt. eigenvalues --    2.65679   2.71839   2.79845   2.96427   3.06706
 Alpha virt. eigenvalues --    3.76955   3.93153   3.98658   4.11169   4.16167
 Alpha virt. eigenvalues --    4.31887   4.34667   4.48152
          Condensed to atoms (all electrons):
               1          2          3          4          5          6
     1  N    6.675668   0.305363   0.302641   0.224593  -0.030266  -0.027044
     2  H    0.305363   0.266965  -0.008931  -0.019243   0.003178  -0.003966
     3  H    0.302641  -0.008931   0.265250  -0.016726  -0.002743  -0.001182
     4  C    0.224593  -0.019243  -0.016726   5.082473   0.382508   0.378603
     5  H   -0.030266   0.003178  -0.002743   0.382508   0.474027  -0.027950
     6  H   -0.027044  -0.003966  -0.001182   0.378603  -0.027950   0.487662
     7  C   -0.071210  -0.001213   0.004812   0.355234  -0.033488  -0.037698
     8  H   -0.000346   0.003163  -0.000024  -0.037166   0.003807  -0.003816
     9  H   -0.004197  -0.000475  -0.000072  -0.042104  -0.003645   0.004563
    10  C    0.005661  -0.000062  -0.000180  -0.058227  -0.000478   0.000458
    11  N    0.000047  -0.000001  -0.000000  -0.004530   0.004184   0.000038
    12  C   -0.000001  -0.000000  -0.000000  -0.000095   0.000017  -0.000031
    13  H   -0.000000   0.000000   0.000000   0.000006  -0.000004  -0.000001
    14  C   -0.000002  -0.000000   0.000000   0.000160  -0.000076  -0.000201
    15  H   -0.000000  -0.000000   0.000000   0.000002  -0.000002   0.000003
    16  S    0.000003   0.000025   0.000003  -0.006532   0.001023   0.006153
    17  H    0.306356  -0.011021  -0.010453  -0.025066  -0.001880   0.003650
               7          8          9         10         11         12
     1  N   -0.071210  -0.000346  -0.004197   0.005661   0.000047  -0.000001
     2  H   -0.001213   0.003163  -0.000475  -0.000062  -0.000001  -0.000000
     3  H    0.004812  -0.000024  -0.000072  -0.000180  -0.000000  -0.000000
     4  C    0.355234  -0.037166  -0.042104  -0.058227  -0.004530  -0.000095
     5  H   -0.033488   0.003807  -0.003645  -0.000478   0.004184   0.000017
     6  H   -0.037698  -0.003816   0.004563   0.000458   0.000038  -0.000031
     7  C    5.162198   0.371767   0.360475   0.352238  -0.050384   0.006145
     8  H    0.371767   0.518598  -0.027662  -0.030962   0.002175  -0.000125
     9  H    0.360475  -0.027662   0.512416  -0.015576   0.001948   0.000133
    10  C    0.352238  -0.030962  -0.015576   5.081905   0.473778  -0.104987
    11  N   -0.050384   0.002175   0.001948   0.473778   6.738219   0.472571
    12  C    0.006145  -0.000125   0.000133  -0.104987   0.472571   4.688876
    13  H   -0.000241   0.000004  -0.000019   0.009242  -0.051498   0.376025
    14  C    0.004196   0.000055  -0.000037  -0.066079  -0.074248   0.574655
    15  H   -0.000113  -0.000004   0.000001   0.004157   0.006463  -0.013979
    16  S   -0.073517   0.002645   0.004725   0.296378  -0.106866  -0.070022
    17  H   -0.003104  -0.000714   0.008453   0.000220  -0.000011   0.000000
              13         14         15         16         17
     1  N   -0.000000  -0.000002  -0.000000   0.000003   0.306356
     2  H    0.000000  -0.000000  -0.000000   0.000025  -0.011021
     3  H    0.000000   0.000000   0.000000   0.000003  -0.010453
     4  C    0.000006   0.000160   0.000002  -0.006532  -0.025066
     5  H   -0.000004  -0.000076  -0.000002   0.001023  -0.001880
     6  H   -0.000001  -0.000201   0.000003   0.006153   0.003650
     7  C   -0.000241   0.004196  -0.000113  -0.073517  -0.003104
     8  H    0.000004   0.000055  -0.000004   0.002645  -0.000714
     9  H   -0.000019  -0.000037   0.000001   0.004725   0.008453
    10  C    0.009242  -0.066079   0.004157   0.296378   0.000220
    11  N   -0.051498  -0.074248   0.006463  -0.106866  -0.000011
    12  C    0.376025   0.574655  -0.013979  -0.070022   0.000000
    13  H    0.546417  -0.053262  -0.000706   0.004193   0.000000
    14  C   -0.053262   5.292173   0.342574   0.347686  -0.000000
    15  H   -0.000706   0.342574   0.507607  -0.043685   0.000000
    16  S    0.004193   0.347686  -0.043685  15.345736   0.000001
    17  H    0.000000  -0.000000   0.000000   0.000001   0.275797
 Mulliken charges:
               1
     1  N   -0.687263
     2  H    0.466219
     3  H    0.467605
     4  C   -0.213892
     5  H    0.231788
     6  H    0.220761
     7  C   -0.346097
     8  H    0.198606
     9  H    0.201073
    10  C    0.052513
    11  N   -0.411884
    12  C    0.070818
    13  H    0.169844
    14  C   -0.367595
    15  H    0.197682
    16  S    0.292052
    17  H    0.457771
 Sum of Mulliken charges =   1.00000
 Mulliken charges with hydrogens summed into heavy atoms:
               1
     1  N    0.704332
     4  C    0.238657
     7  C    0.053582
    10  C    0.052513
    11  N   -0.411884
    12  C    0.240662
    14  C   -0.169913
    16  S    0.292052
 Electronic spatial extent (au):  <R**2>=           1263.8974
 Charge=              1.0000 electrons
 Dipole moment (field-independent basis, Debye):
    X=            -14.6351    Y=             -1.5792    Z=             -1.4154  Tot=             14.7879
 Quadrupole moment (field-independent basis, Debye-Ang):
   XX=              7.8319   YY=            -51.9809   ZZ=            -50.5508
   XY=             -0.5654   XZ=              0.6636   YZ=             -1.0962
 Traceless Quadrupole moment (field-independent basis, Debye-Ang):
   XX=             39.3985   YY=            -20.4143   ZZ=            -18.9842
   XY=             -0.5654   XZ=              0.6636   YZ=             -1.0962
 Octapole moment (field-independent basis, Debye-Ang**2):
  XXX=           -192.3929  YYY=             -5.2092  ZZZ=             -3.2079  XYY=            -12.5479
  XXY=              0.0682  XXZ=            -17.6445  XZZ=            -20.4351  YZZ=              0.3402
  YYZ=             -3.3657  XYZ=             -1.4225
 Hexadecapole moment (field-independent basis, Debye-Ang**3):
 XXXX=           -413.4957 YYYY=           -294.5682 ZZZZ=           -124.0964 XXXY=             -6.5355
 XXXZ=             36.3882 YYYX=              5.1877 YYYZ=             -4.3073 ZZZX=             12.8767
 ZZZY=             -2.1507 XXYY=           -194.0832 XXZZ=           -186.8907 YYZZ=            -67.6266
 XXYZ=             -3.8499 YYXZ=            -10.1038 ZZXY=             -0.5766
 N-N= 4.498055120032D+02 E-N=-2.542486947918D+03  KE= 6.997899477614D+02
 No NMR shielding tensors so no spin-rotation constants.
 Leave Link  601 at Mon Jul 12 12:52:14 2021, MaxMem=   104857600 cpu:               0.4 elap:               0.1
 (Enter /dades/curu/g16A03_MST/g16/l701.exe)
 ... and contract with generalized density number  0.
 Compute integral first derivatives.
 D1PCM: PCM CHGder 1st derivatives, ID1Alg=3 FixD1E=F DoIter=F DoCFld=F I1PDM=0.
 GePol: Maximum number of non-zero 1st derivatives   =     302
 Leave Link  701 at Mon Jul 12 12:52:16 2021, MaxMem=   104857600 cpu:               5.0 elap:               1.3
 (Enter /dades/curu/g16A03_MST/g16/l702.exe)
 L702 exits ... SP integral derivatives will be done elsewhere.
 Leave Link  702 at Mon Jul 12 12:52:16 2021, MaxMem=   104857600 cpu:               0.1 elap:               0.0
 (Enter /dades/curu/g16A03_MST/g16/l703.exe)
 Integral derivatives from FoFJK, PRISM(SPDF).
 Compute integral first derivatives, UseDBF=F ICtDFT=           0.
 Calling FoFJK, ICntrl=      2127 FMM=F ISym2X=0 I1Cent= 0 IOpClX= 0 NMat=1 NMatS=1 NMatT=0.
 FoFJK:  IHMeth= 1 ICntrl=    2127 DoSepK=F KAlg= 0 I1Cent=           0 FoldK=F
 IRaf=         0 NMat=       1 IRICut=       1 DoRegI=T DoRafI=F ISym2E= 0 IDoP0=0 IntGTp=1.
 FoFCou: FMM=F IPFlag=           0 FMFlag=      100000 FMFlg1=         800
         NFxFlg=           0 DoJE=F BraDBF=F KetDBF=F FulRan=T
         wScrn=  0.000000 ICntrl=      2127 IOpCl=  0 I1Cent=           0 NGrid=           0
         NMat0=    1 NMatS0=      1 NMatT0=    0 NMatD0=    1 NMtDS0=    0 NMtDT0=    0
 Symmetry not used in FoFCou.
 Leave Link  703 at Mon Jul 12 12:52:22 2021, MaxMem=   104857600 cpu:              24.9 elap:               6.3
 (Enter /dades/curu/g16A03_MST/g16/l716.exe)
 Dipole        =-5.75788672D+00-6.21297766D-01-5.56876714D-01
 ***** Axes restored to original set *****
 -------------------------------------------------------------------
 Center     Atomic                   Forces (Hartrees/Bohr)
 Number     Number              X              Y              Z
 -------------------------------------------------------------------
      1        7          -0.000364139   -0.022324438   -0.014758543
      2        1          -0.023267701    0.010480446    0.004044748
      3        1          -0.006679363    0.005669510   -0.027350882
      4        6           0.001570408   -0.009552739    0.030245532
      5        1          -0.000550908    0.005849316    0.000384716
      6        1          -0.002730010    0.005359709   -0.006290025
      7        6           0.000850434   -0.009438197   -0.009014723
      8        1          -0.004718542    0.001973563   -0.005266588
      9        1           0.008225302   -0.003956697    0.014472098
     10        6           0.071821033   -0.001660338   -0.008106109
     11        7          -0.044033480    0.080969014   -0.037621223
     12        6           0.024366084   -0.012155963    0.017874570
     13        1          -0.001373331   -0.009207948    0.011549159
     14        6          -0.006003066   -0.072012229    0.016847043
     15        1           0.010519478   -0.003766911   -0.004134648
     16       16          -0.038067184    0.008706044    0.019612472
     17        1           0.010434985    0.025067859   -0.002487596
 -------------------------------------------------------------------
 Cartesian Forces:  Max     0.080969014 RMS     0.023665983
 Leave Link  716 at Mon Jul 12 12:52:22 2021, MaxMem=   104857600 cpu:               0.1 elap:               0.0
 (Enter /dades/curu/g16A03_MST/g16/l103.exe)

 GradGradGradGradGradGradGradGradGradGradGradGradGradGradGradGradGradGrad
 Berny optimization.
 FormGI is forming the generalized inverse of G from B-inverse, IUseBI=4.
 Internal  Forces:  Max     0.072112838 RMS     0.016631225
 Search for a local minimum.
 Step number   1 out of a maximum of   92
 All quantities printed in internal units (Hartrees-Bohrs-Radians)
 RMS Force = .16631D-01 SwitMx=.10000D-02 MixMth= 1
 Mixed Optimization -- RFO/linear search
 Second derivative matrix not updated -- first step.
 ITU=  0
     Eigenvalues ---    0.00230   0.00982   0.01167   0.01718   0.02202
     Eigenvalues ---    0.02681   0.02811   0.02876   0.04669   0.04863
     Eigenvalues ---    0.05263   0.05784   0.06203   0.06206   0.06927
     Eigenvalues ---    0.08325   0.11012   0.12110   0.15876   0.15993
     Eigenvalues ---    0.16000   0.16000   0.16000   0.21706   0.21802
     Eigenvalues ---    0.22285   0.24219   0.24360   0.28363   0.34481
     Eigenvalues ---    0.34500   0.34550   0.34565   0.35531   0.35664
     Eigenvalues ---    0.35778   0.35886   0.37775   0.38908   0.47665
     Eigenvalues ---    0.47696   0.47743   0.49110   0.54299   0.63684
 RFO step:  Lambda=-6.58145702D-02 EMin= 2.30000000D-03
 Linear search not attempted -- first point.
 Maximum step size (   0.300) exceeded in Quadratic search.
    -- Step size scaled by   0.770
 Iteration  1 RMS(Cart)=  0.10216879 RMS(Int)=  0.00315684
 Iteration  2 RMS(Cart)=  0.00352065 RMS(Int)=  0.00124571
 Iteration  3 RMS(Cart)=  0.00001180 RMS(Int)=  0.00124568
 Iteration  4 RMS(Cart)=  0.00000002 RMS(Int)=  0.00124568
 ITry= 1 IFail=0 DXMaxC= 3.37D-01 DCOld= 1.00D+10 DXMaxT= 3.00D-01 DXLimC= 3.00D+00 Rises=F
 Variable       Old X    -DE/DX   Delta X   Delta X   Delta X     New X
                                 (Linear)    (Quad)   (Total)
    R1        1.88998   0.02447   0.00000   0.03476   0.03476   1.92474
    R2        1.88914   0.02667   0.00000   0.03781   0.03781   1.92695
    R3        2.74694   0.04052   0.00000   0.07037   0.07037   2.81732
    R4        1.88964   0.02545   0.00000   0.03613   0.03613   1.92577
    R5        2.06494  -0.00248   0.00000  -0.00464  -0.00464   2.06030
    R6        2.06525  -0.00250   0.00000  -0.00468  -0.00468   2.06057
    R7        2.91353   0.01300   0.00000   0.02867   0.02867   2.94219
    R8        2.06411   0.00175   0.00000   0.00327   0.00327   2.06739
    R9        2.06386  -0.00003   0.00000  -0.00006  -0.00006   2.06381
   R10        2.77731   0.02172   0.00000   0.03949   0.03949   2.81680
   R11        2.58125  -0.03494   0.00000  -0.05024  -0.05001   2.53125
   R12        3.18900   0.03968   0.00000   0.06296   0.06320   3.25220
   R13        2.46369   0.07211   0.00000   0.07780   0.07778   2.54148
   R14        2.04611   0.00022   0.00000   0.00040   0.00040   2.04651
   R15        2.53831   0.03107   0.00000   0.04312   0.04298   2.58129
   R16        2.04821  -0.00008   0.00000  -0.00015  -0.00015   2.04805
   R17        3.14696   0.02960   0.00000   0.05152   0.05121   3.19817
    A1        1.91082  -0.00927   0.00000  -0.03224  -0.03266   1.87816
    A2        1.91044   0.00751   0.00000   0.02598   0.02552   1.93596
    A3        1.91034  -0.00754   0.00000  -0.02439  -0.02483   1.88551
    A4        1.91098   0.01042   0.00000   0.03487   0.03440   1.94538
    A5        1.91028  -0.00995   0.00000  -0.03464  -0.03513   1.87514
    A6        1.91095   0.00882   0.00000   0.03040   0.02991   1.94086
    A7        1.95494  -0.01487   0.00000  -0.04282  -0.04333   1.91161
    A8        1.95835  -0.01791   0.00000  -0.05620  -0.05799   1.90035
    A9        1.79617   0.04679   0.00000   0.13243   0.13315   1.92932
   A10        1.88488   0.01019   0.00000   0.01398   0.01171   1.89659
   A11        1.94931  -0.01491   0.00000  -0.03584  -0.03493   1.91437
   A12        1.92028  -0.00948   0.00000  -0.01046  -0.00906   1.91122
   A13        1.97693  -0.01378   0.00000  -0.04213  -0.04226   1.93468
   A14        1.81801   0.00674   0.00000   0.04066   0.04215   1.86016
   A15        1.85143   0.02145   0.00000   0.06215   0.06240   1.91383
   A16        1.89339   0.00278   0.00000   0.00006  -0.00013   1.89325
   A17        1.90914   0.00054   0.00000   0.01156   0.01175   1.92089
   A18        2.01577  -0.01836   0.00000  -0.07410  -0.07545   1.94032
   A19        2.15096  -0.00729   0.00000  -0.00907  -0.00871   2.14225
   A20        2.17126  -0.00345   0.00000  -0.00022  -0.00019   2.17108
   A21        1.92415   0.01192   0.00000   0.02311   0.02166   1.94581
   A22        1.98449  -0.01021   0.00000  -0.02246  -0.02439   1.96010
   A23        2.01144   0.00650   0.00000   0.01798   0.01831   2.02976
   A24        1.95030   0.01472   0.00000   0.05941   0.05744   2.00774
   A25        2.32095  -0.02102   0.00000  -0.07582  -0.07545   2.24550
   A26        2.32438   0.00210   0.00000  -0.00932  -0.00947   2.31492
   A27        1.96201  -0.02460   0.00000  -0.04538  -0.04878   1.91323
   A28        1.98882   0.02379   0.00000   0.06519   0.06530   2.05413
   A29        1.55803   0.01338   0.00000   0.03119   0.02851   1.58654
    D1        2.94038  -0.00429   0.00000  -0.01928  -0.01844   2.92194
    D2        0.81696   0.00630   0.00000   0.03456   0.03329   0.85025
    D3       -1.24656  -0.00135   0.00000  -0.00379  -0.00338  -1.24994
    D4        0.84567  -0.00392   0.00000  -0.01707  -0.01620   0.82946
    D5       -1.27776   0.00667   0.00000   0.03678   0.03553  -1.24223
    D6        2.94191  -0.00098   0.00000  -0.00158  -0.00114   2.94077
    D7       -1.24870  -0.00352   0.00000  -0.01464  -0.01380  -1.26250
    D8        2.91106   0.00707   0.00000   0.03921   0.03793   2.94899
    D9        0.84755  -0.00058   0.00000   0.00085   0.00126   0.84881
   D10        1.05022  -0.00298   0.00000  -0.01242  -0.01174   1.03848
   D11       -1.00359  -0.00346   0.00000  -0.01612  -0.01484  -1.01843
   D12       -3.13860   0.00389   0.00000   0.01857   0.01827  -3.12033
   D13       -3.13284  -0.00021   0.00000  -0.00229  -0.00219  -3.13504
   D14        1.09653  -0.00068   0.00000  -0.00598  -0.00530   1.09124
   D15       -1.03847   0.00667   0.00000   0.02871   0.02781  -1.01066
   D16       -1.03982  -0.00342   0.00000  -0.01498  -0.01536  -1.05519
   D17       -3.09364  -0.00390   0.00000  -0.01868  -0.01846  -3.11210
   D18        1.05455   0.00346   0.00000   0.01601   0.01464   1.06919
   D19        1.57231   0.00793   0.00000   0.04172   0.04080   1.61311
   D20       -1.25271   0.00098   0.00000  -0.02017  -0.02181  -1.27452
   D21       -2.57287   0.00456   0.00000   0.03498   0.03542  -2.53746
   D22        0.88529  -0.00239   0.00000  -0.02691  -0.02719   0.85810
   D23       -0.43148  -0.00463   0.00000  -0.00943  -0.00787  -0.43935
   D24        3.02668  -0.01158   0.00000  -0.07132  -0.07048   2.95620
   D25       -2.94023  -0.00105   0.00000  -0.01546  -0.01592  -2.95615
   D26       -0.07594   0.00307   0.00000   0.03585   0.03670  -0.03925
   D27        3.05320  -0.00395   0.00000  -0.03970  -0.04137   3.01183
   D28        0.19282  -0.00743   0.00000  -0.09010  -0.09348   0.09934
   D29        3.04520   0.00121   0.00000   0.01396   0.01265   3.05785
   D30       -0.12589   0.00635   0.00000   0.05871   0.06146  -0.06444
   D31       -3.01020  -0.00464   0.00000  -0.03962  -0.04168  -3.05188
   D32        0.27837  -0.01796   0.00000  -0.14052  -0.14045   0.13792
   D33        0.09492   0.00254   0.00000   0.01859   0.01696   0.11189
   D34       -2.89969  -0.01078   0.00000  -0.08230  -0.08181  -2.98151
   D35       -0.26886   0.01827   0.00000   0.14156   0.13846  -0.13040
   D36        2.98986   0.00869   0.00000   0.06581   0.06137   3.05123
         Item               Value     Threshold  Converged?
 Maximum Force            0.072113     0.000450     NO 
 RMS     Force            0.016631     0.000300     NO 
 Maximum Displacement     0.337381     0.001800     NO 
 RMS     Displacement     0.101299     0.001200     NO 
 Predicted change in Energy=-3.678740D-02
 Lowest energy point so far.  Saving SCF results.
 GradGradGradGradGradGradGradGradGradGradGradGradGradGradGradGradGradGrad

 Leave Link  103 at Mon Jul 12 12:52:22 2021, MaxMem=   104857600 cpu:               0.1 elap:               0.0
 (Enter /dades/curu/g16A03_MST/g16/l202.exe)
                          Input orientation:                          
 ---------------------------------------------------------------------
 Center     Atomic      Atomic             Coordinates (Angstroms)
 Number     Number       Type             X           Y           Z
 ---------------------------------------------------------------------
      1          7           0       -1.274935    1.820022   -1.996351
      2          1           0       -2.207595    2.031227   -1.645734
      3          1           0       -1.356308    1.630844   -2.995040
      4          6           0       -0.682095    0.661932   -1.268320
      5          1           0        0.205133    0.314041   -1.797920
      6          1           0       -1.411623   -0.147990   -1.239987
      7          6           0       -0.299653    1.068174    0.185217
      8          1           0       -1.178685    1.414544    0.736757
      9          1           0        0.405539    1.897892    0.101576
     10          6           0        0.317462   -0.094420    0.884785
     11          7           0        1.639505   -0.308800    0.905932
     12          6           0        1.951988   -1.523205    1.392045
     13          1           0        2.999544   -1.796388    1.363535
     14          6           0        0.890201   -2.258609    1.836607
     15          1           0        0.819366   -3.217446    2.336809
     16         16           0       -0.553724   -1.474207    1.431624
     17          1           0       -0.701119    2.655390   -1.889534
 ---------------------------------------------------------------------
                    Distance matrix (angstroms):
                    1          2          3          4          5
     1  N    0.000000
     2  H    1.018526   0.000000
     3  H    1.019700   1.644877   0.000000
     4  C    1.490859   2.084361   2.091629   0.000000
     5  H    2.120838   2.965324   2.367522   1.090265   0.000000
     6  H    2.112781   2.355247   2.499504   1.090407   1.771627
     7  C    2.505133   2.814267   3.398110   1.556941   2.180908
     8  H    2.764699   2.667437   3.742278   2.198491   3.090412
     9  H    2.689117   3.146322   3.572736   2.141765   2.481296
    10  C    3.808118   4.159064   4.564108   2.491394   2.715946
    11  N    4.631316   5.175607   5.287219   3.325585   3.123486
    12  C    5.750777   6.258133   6.335563   4.334831   4.074660
    13  H    6.529811   7.128859   7.050995   5.150191   4.717779
    14  C    6.001218   6.334488   6.596928   4.543375   4.505290
    15  H    6.966955   7.250636   7.527821   5.504627   5.472172
    16  S    4.808649   4.949090   5.466336   3.445180   3.768773
    17  H    1.019075   1.648784   1.643505   2.088096   2.512290
                    6          7          8          9         10
     6  H    0.000000
     7  C    2.178702   0.000000
     8  H    2.530472   1.094014   0.000000
     9  H    3.047540   1.092119   1.773936   0.000000
    10  C    2.739938   1.490587   2.130104   2.142541   0.000000
    11  N    3.733659   2.485119   3.307677   2.653140   1.339479
    12  C    4.486947   3.638896   4.342912   3.969977   2.229443
    13  H    5.380886   4.525355   5.306650   4.687121   3.212392
    14  C    4.383896   3.900041   4.356835   4.530092   2.432634
    15  H    5.214628   4.924235   5.292231   5.597697   3.480456
    16  S    3.103603   2.842847   3.036165   3.749702   1.720990
    17  H    2.964063   2.642920   2.943667   2.400628   4.036808
                   11         12         13         14         15
    11  N    0.000000
    12  C    1.344891   0.000000
    13  H    2.066888   1.082966   0.000000
    14  C    2.286781   1.365960   2.210605   0.000000
    15  H    3.343689   2.246300   2.778460   1.083784   0.000000
    16  S    2.538656   2.506503   3.568493   1.692399   2.396585
    17  H    4.698891   5.938721   6.640459   6.368974   7.393515
                   16         17
    16  S    0.000000
    17  H    5.301452   0.000000
 Stoichiometry    C5H9N2S(1+)
 Framework group  C1[X(C5H9N2S)]
 Deg. of freedom    45
 Full point group                 C1      NOp   1
 RotChk:  IX=0 Diff= 1.69D-02
 Largest Abelian subgroup         C1      NOp   1
 Largest concise Abelian subgroup C1      NOp   1
                         Standard orientation:                         
 ---------------------------------------------------------------------
 Center     Atomic      Atomic             Coordinates (Angstroms)
 Number     Number       Type             X           Y           Z
 ---------------------------------------------------------------------
      1          7           0       -3.471146   -0.021569   -0.244024
      2          1           0       -3.748005   -0.852964    0.275136
      3          1           0       -4.019268    0.002174   -1.103551
      4          6           0       -2.008088   -0.035294   -0.530261
      5          1           0       -1.773559    0.733887   -1.266491
      6          1           0       -1.738464   -1.007689   -0.943467
      7          6           0       -1.194170    0.219843    0.772240
      8          1           0       -1.410416   -0.546130    1.522833
      9          1           0       -1.521855    1.186747    1.160110
     10          6           0        0.263018    0.231390    0.458680
     11          7           0        0.932118    1.354149    0.165554
     12          6           0        2.168013    1.104446   -0.302361
     13          1           0        2.737363    1.963212   -0.635793
     14          6           0        2.526600   -0.213561   -0.313281
     15          1           0        3.453720   -0.720099   -0.555056
     16         16           0        1.187046   -1.170223    0.079921
     17          1           0       -3.731301    0.795432    0.306742
 ---------------------------------------------------------------------
 Rotational constants (GHZ):           4.2120911           0.9646367           0.8511338
 Leave Link  202 at Mon Jul 12 12:52:22 2021, MaxMem=   104857600 cpu:               0.0 elap:               0.0
 (Enter /dades/curu/g16A03_MST/g16/l301.exe)
 Standard basis: 6-31G(d) (6D, 7F)
 Ernie: Thresh=  0.10000D-02 Tol=  0.10000D-05 Strict=F.
 There are   142 symmetry adapted cartesian basis functions of A   symmetry.
 There are   142 symmetry adapted basis functions of A   symmetry.
   142 basis functions,   284 primitive gaussians,   142 cartesian basis functions
    34 alpha electrons       34 beta electrons
       nuclear repulsion energy       440.7929649820 Hartrees.
 IExCor=  402 DFT=T Ex+Corr=B3LYP ExCW=0 ScaHFX=  0.200000
 ScaDFX=  0.800000  0.720000  1.000000  0.810000 ScalE2=  1.000000  1.000000
 IRadAn=      5 IRanWt=     -1 IRanGd=            0 ICorTp=0 IEmpDi=  4
 NAtoms=   17 NActive=   17 NUniq=   17 SFac= 1.00D+00 NAtFMM=   60 NAOKFM=F Big=F
 Integral buffers will be    131072 words long.
 Raffenetti 2 integral format.
 Two-electron integral symmetry is turned on.
 ------------------------------------------------------------------------------
 Polarizable Continuum Model (PCM)
 =================================
 Model                : PCM.
 Atomic radii         : MST.
 Polarization charges : Total charges.
 Charge compensation  : None.
 Solution method      : On-the-fly selection.
 Cavity type          : Scaled VdW (van der Waals Surface) (Alpha=1.500).
 Cavity algorithm     : GePol (No added spheres)
                        Default sphere list used, NSphG=   17.
                        Lebedev-Laikov grids with approx.  5.0 points / Ang**2.
                        Smoothing algorithm: York/Karplus (Gamma=1.0000).
                        Polarization charges: spherical gaussians, with
                                              point-specific exponents (IZeta= 3).
                        Self-potential: point-specific (ISelfS= 7).
                        Self-field    : sphere-specific E.n sum rule (ISelfD= 2).
 1st derivatives      : Analytical E(r).r(x)/FMM algorithm (CHGder, D1EAlg=3).
                        Cavity 1st derivative terms included.
 Solvent              : n-Octanol, Eps=   9.862900 Eps(inf)=   2.043470
 ------------------------------------------------------------------------------
 Spheres list:
 ISph  on   Nord     Re0    Alpha      Xe            Ye            Ze
    1   N      1    1.5000  1.150     -3.471146     -0.021569     -0.244024
    2   H      2    0.9000  1.150     -3.748005     -0.852964      0.275136
    3   H      3    0.9000  1.150     -4.019268      0.002174     -1.103551
    4   C      4    1.5000  1.500     -2.008088     -0.035294     -0.530261
    5   H      5    1.2000  1.500     -1.773559      0.733887     -1.266491
    6   H      6    1.2000  1.500     -1.738464     -1.007689     -0.943467
    7   C      7    1.5000  1.500     -1.194170      0.219843      0.772240
    8   H      8    1.2000  1.500     -1.410416     -0.546130      1.522833
    9   H      9    1.2000  1.500     -1.521855      1.186747      1.160110
   10   C     10    1.5000  1.500      0.263018      0.231390      0.458680
   11   N     11    1.5000  1.500      0.932118      1.354149      0.165554
   12   C     12    1.5000  1.500      2.168013      1.104446     -0.302361
   13   H     13    1.2000  1.500      2.737363      1.963212     -0.635793
   14   C     14    1.5000  1.500      2.526600     -0.213561     -0.313281
   15   H     15    1.2000  1.500      3.453720     -0.720099     -0.555056
   16   S     16    1.7500  1.500      1.187046     -1.170223      0.079921
   17   H     17    0.9000  1.150     -3.731301      0.795432      0.306742
 ------------------------------------------------------------------------------
 GePol: Number of generator spheres                  =      17
 GePol: Total number of spheres                      =      17
 GePol: Number of exposed spheres                    =      17 (100.00%)
 GePol: Number of points                             =    1730
 GePol: Average weight of points                     =       0.12
 GePol: Minimum weight of points                     =   0.21D-10
 GePol: Maximum weight of points                     =    0.22065
 GePol: Number of points with low weight             =      84
 GePol: Fraction of low-weight points (<1% of avg)   =       4.86%
 GePol: Cavity surface area                          =    201.436 Ang**2
 GePol: Cavity volume                                =    213.460 Ang**3
 Surface areas from nonelectrostatic (unscaled) cavity and vdw tensions:
 Sphere =    1 Type =  NH  Surf =       12.507 Tension =       -0.234
 Sphere =    2 Type =  NH  Surf =        3.987 Tension =       -0.234
 Sphere =    3 Type =  NH  Surf =        3.995 Tension =       -0.234
 Sphere =    4 Type =  CH2 Surf =        4.009 Tension =       -0.194
 Sphere =    5 Type =  CH2 Surf =       10.026 Tension =       -0.194
 Sphere =    6 Type =  CH2 Surf =       10.018 Tension =       -0.194
 Sphere =    7 Type =  CH2 Surf =        3.916 Tension =       -0.194
 Sphere =    8 Type =  CH2 Surf =       10.072 Tension =       -0.194
 Sphere =    9 Type =  CH2 Surf =        9.975 Tension =       -0.194
 Sphere =   10 Type =  C   Surf =        5.520 Tension =       -0.205
 Sphere =   11 Type =  Nc  Surf =       12.882 Tension =       -0.161
 Sphere =   12 Type =  CH  Surf =        7.691 Tension =       -0.195
 Sphere =   13 Type =  CH  Surf =       10.212 Tension =       -0.195
 Sphere =   14 Type =  CH  Surf =        7.569 Tension =       -0.195
 Sphere =   15 Type =  CH  Surf =       10.207 Tension =       -0.195
 Sphere =   16 Type =  S   Surf =       24.061 Tension =       -0.186
 Sphere =   17 Type =  NH  Surf =        3.988 Tension =       -0.234
 PCM non-electrostatic energy =        -0.0082272248 Hartrees.
 Nuclear repulsion after PCM non-electrostatic terms =      440.7847377572 Hartrees.
 Leave Link  301 at Mon Jul 12 12:52:22 2021, MaxMem=   104857600 cpu:               0.1 elap:               0.1
 (Enter /dades/curu/g16A03_MST/g16/l302.exe)
 NPDir=0 NMtPBC=     1 NCelOv=     1 NCel=       1 NClECP=     1 NCelD=      1
         NCelK=      1 NCelE2=     1 NClLst=     1 CellRange=     0.0.
 One-electron integrals computed using PRISM.
 One-electron integral symmetry used in STVInt
 NBasis=   142 RedAO= T EigKep=  2.28D-03  NBF=   142
 NBsUse=   142 1.00D-06 EigRej= -1.00D+00 NBFU=   142
 Precomputing XC quadrature grid using
 IXCGrd= 4 IRadAn=           5 IRanWt=          -1 IRanGd=           0 AccXCQ= 0.00D+00.
 Generated NRdTot=       0 NPtTot=           0 NUsed=           0 NTot=          32
 NSgBfM=   142   142   142   142   142 MxSgAt=    17 MxSgA2=    17.
 Leave Link  302 at Mon Jul 12 12:52:23 2021, MaxMem=   104857600 cpu:               1.9 elap:               0.5
 (Enter /dades/curu/g16A03_MST/g16/l303.exe)
 DipDrv:  MaxL=1.
 Leave Link  303 at Mon Jul 12 12:52:23 2021, MaxMem=   104857600 cpu:               0.1 elap:               0.0
 (Enter /dades/curu/g16A03_MST/g16/l401.exe)
 Initial guess from the checkpoint file:  "SET_328_BBB87_conf1.geo_180_090.chk"
 B after Tr=    -0.000000    0.000000    0.000000
         Rot=    0.999958    0.008357   -0.002804   -0.002359 Ang=   1.05 deg.
 Guess basis will be translated and rotated to current coordinates.
 JPrj=2 DoOrth=T DoCkMO=T.
 Generating alternative initial guess.
 ExpMin= 1.17D-01 ExpMax= 2.19D+04 ExpMxC= 3.30D+03 IAcc=2 IRadAn=         4 AccDes= 0.00D+00
 Harris functional with IExCor=  402 and IRadAn=       4 diagonalized for initial guess.
 HarFok:  IExCor=  402 AccDes= 0.00D+00 IRadAn=         4 IDoV= 1 UseB2=F ITyADJ=14
 ICtDFT=  3500011 ScaDFX=  1.000000  1.000000  1.000000  1.000000
 FoFCou: FMM=F IPFlag=           0 FMFlag=      100000 FMFlg1=           0
         NFxFlg=           0 DoJE=T BraDBF=F KetDBF=T FulRan=T
         wScrn=  0.000000 ICntrl=       500 IOpCl=  0 I1Cent=   200000004 NGrid=           0
         NMat0=    1 NMatS0=      1 NMatT0=    0 NMatD0=    1 NMtDS0=    0 NMtDT0=    0
 Petite list used in FoFCou.
 Harris En= -703.383156151573    
 Leave Link  401 at Mon Jul 12 12:52:24 2021, MaxMem=   104857600 cpu:               3.8 elap:               1.0
 (Enter /dades/curu/g16A03_MST/g16/l502.exe)
 Keep R1 ints in memory in canonical form, NReq=55416097.
 FoFCou: FMM=F IPFlag=           0 FMFlag=           0 FMFlg1=           0
         NFxFlg=           0 DoJE=F BraDBF=F KetDBF=F FulRan=T
         wScrn=  0.000000 ICntrl=       600 IOpCl=  0 I1Cent=           0 NGrid=           0
         NMat0=    1 NMatS0=  10153 NMatT0=    0 NMatD0=    1 NMtDS0=    0 NMtDT0=    0
 Symmetry not used in FoFCou.
 Two-electron integral symmetry not used.
 Closed shell SCF:
 Using DIIS extrapolation, IDIIS=  1040.
 NGot=   104857600 LenX=    53267895 LenY=    53247290
 Requested convergence on RMS density matrix=1.00D-08 within 128 cycles.
 Requested convergence on MAX density matrix=1.00D-06.
 Requested convergence on             energy=1.00D-06.
 No special actions if energy rises.

 Cycle   1  Pass 1  IDiag  1:
 Inv3:  Mode=1 IEnd=     8978700.
 Iteration    1 A*A^-1 deviation from unit magnitude is 5.55D-15 for    426.
 Iteration    1 A*A^-1 deviation from orthogonality  is 1.57D-15 for   1724   1722.
 Iteration    1 A^-1*A deviation from unit magnitude is 5.77D-15 for    426.
 Iteration    1 A^-1*A deviation from orthogonality  is 2.06D-15 for   1285   1230.
 E= -703.485126957858    
 DIIS: error= 4.81D-03 at cycle   1 NSaved=   1.
 NSaved= 1 IEnMin= 1 EnMin= -703.485126957858     IErMin= 1 ErrMin= 4.81D-03
 ErrMax= 4.81D-03  0.00D+00 EMaxC= 1.00D-01 BMatC= 6.37D-03 BMatP= 6.37D-03
 IDIUse=3 WtCom= 9.52D-01 WtEn= 4.81D-02
 Coeff-Com:  0.100D+01
 Coeff-En:   0.100D+01
 Coeff:      0.100D+01
 Gap=     1.566 Goal=   None    Shift=    0.000
 GapD=    1.566 DampG=2.000 DampE=1.000 DampFc=2.0000 IDamp=-1.
 RMSDP=1.14D-03 MaxDP=1.62D-02              OVMax= 2.82D-02

 Cycle   2  Pass 1  IDiag  1:
 E= -703.496036180111     Delta-E=       -0.010909222253 Rises=F Damp=F
 DIIS: error= 1.64D-03 at cycle   2 NSaved=   2.
 NSaved= 2 IEnMin= 2 EnMin= -703.496036180111     IErMin= 2 ErrMin= 1.64D-03
 ErrMax= 1.64D-03  0.00D+00 EMaxC= 1.00D-01 BMatC= 6.48D-04 BMatP= 6.37D-03
 IDIUse=3 WtCom= 9.84D-01 WtEn= 1.64D-02
 Coeff-Com:  0.110D+00 0.890D+00
 Coeff-En:   0.000D+00 0.100D+01
 Coeff:      0.109D+00 0.891D+00
 Gap=     0.213 Goal=   None    Shift=    0.000
 RMSDP=2.92D-04 MaxDP=8.79D-03 DE=-1.09D-02 OVMax= 7.64D-03

 Cycle   3  Pass 1  IDiag  1:
 E= -703.496098725186     Delta-E=       -0.000062545075 Rises=F Damp=F
 DIIS: error= 1.82D-03 at cycle   3 NSaved=   3.
 NSaved= 3 IEnMin= 3 EnMin= -703.496098725186     IErMin= 2 ErrMin= 1.64D-03
 ErrMax= 1.82D-03  0.00D+00 EMaxC= 1.00D-01 BMatC= 6.66D-04 BMatP= 6.48D-04
 IDIUse=3 WtCom= 9.82D-01 WtEn= 1.82D-02
 Coeff-Com: -0.300D-01 0.510D+00 0.520D+00
 Coeff-En:   0.000D+00 0.474D+00 0.526D+00
 Coeff:     -0.295D-01 0.509D+00 0.520D+00
 Gap=     0.211 Goal=   None    Shift=    0.000
 RMSDP=1.56D-04 MaxDP=4.72D-03 DE=-6.25D-05 OVMax= 5.80D-03

 Cycle   4  Pass 1  IDiag  1:
 E= -703.496663127161     Delta-E=       -0.000564401976 Rises=F Damp=F
 DIIS: error= 3.44D-04 at cycle   4 NSaved=   4.
 NSaved= 4 IEnMin= 4 EnMin= -703.496663127161     IErMin= 4 ErrMin= 3.44D-04
 ErrMax= 3.44D-04  0.00D+00 EMaxC= 1.00D-01 BMatC= 2.07D-05 BMatP= 6.48D-04
 IDIUse=3 WtCom= 9.97D-01 WtEn= 3.44D-03
 Coeff-Com: -0.187D-01 0.227D+00 0.265D+00 0.527D+00
[...]
 Coeff-Com:  0.106D-04-0.291D-03-0.102D-02 0.105D-02 0.126D-01 0.489D-02
 Coeff-Com: -0.941D-01 0.369D-01 0.104D+01
 Coeff:      0.106D-04-0.291D-03-0.102D-02 0.105D-02 0.126D-01 0.489D-02
 Coeff:     -0.941D-01 0.369D-01 0.104D+01
 Gap=     0.333 Goal=   None    Shift=    0.000
 RMSDP=1.81D-06 MaxDP=6.97D-05 DE=-9.23D-07 OVMax= 1.54D-04

 Initial convergence to 1.0D-05 achieved.  Increase integral accuracy.
 Cycle  10  Pass 1  IDiag  1:
 E= -700.815473425485     Delta-E=       -0.000000038808 Rises=F Damp=F
 DIIS: error= 2.66D-06 at cycle   1 NSaved=   1.
 NSaved= 1 IEnMin= 1 EnMin= -700.815473425485     IErMin= 1 ErrMin= 2.66D-06
 ErrMax= 2.66D-06  0.00D+00 EMaxC= 1.00D-01 BMatC= 2.74D-09 BMatP= 2.74D-09
 IDIUse=1 WtCom= 1.00D+00 WtEn= 0.00D+00
 Coeff-Com:  0.100D+01
 Coeff:      0.100D+01
 Gap=     0.333 Goal=   None    Shift=    0.000
 RMSDP=1.81D-06 MaxDP=6.97D-05 DE=-3.88D-08 OVMax= 2.01D-05

 Cycle  11  Pass 1  IDiag  1:
 RMSU=  6.72D-07    CP:  1.00D+00
 E= -700.815473429146     Delta-E=       -0.000000003661 Rises=F Damp=F
 DIIS: error= 2.04D-06 at cycle   2 NSaved=   2.
 NSaved= 2 IEnMin= 2 EnMin= -700.815473429146     IErMin= 2 ErrMin= 2.04D-06
 ErrMax= 2.04D-06  0.00D+00 EMaxC= 1.00D-01 BMatC= 9.89D-10 BMatP= 2.74D-09
 IDIUse=1 WtCom= 1.00D+00 WtEn= 0.00D+00
 Coeff-Com:  0.326D+00 0.674D+00
 Coeff:      0.326D+00 0.674D+00
 Gap=     0.333 Goal=   None    Shift=    0.000
 RMSDP=2.31D-07 MaxDP=1.03D-05 DE=-3.66D-09 OVMax= 2.08D-05

 Cycle  12  Pass 1  IDiag  1:
 RMSU=  2.22D-07    CP:  1.00D+00  9.13D-01
 E= -700.815473430638     Delta-E=       -0.000000001492 Rises=F Damp=F
 DIIS: error= 7.52D-07 at cycle   3 NSaved=   3.
 NSaved= 3 IEnMin= 3 EnMin= -700.815473430638     IErMin= 3 ErrMin= 7.52D-07
 ErrMax= 7.52D-07  0.00D+00 EMaxC= 1.00D-01 BMatC= 1.75D-10 BMatP= 9.89D-10
 IDIUse=1 WtCom= 1.00D+00 WtEn= 0.00D+00
 Coeff-Com: -0.365D+00-0.131D+00 0.150D+01
 Coeff:     -0.365D+00-0.131D+00 0.150D+01
 Gap=     0.333 Goal=   None    Shift=    0.000
 RMSDP=2.78D-07 MaxDP=1.50D-05 DE=-1.49D-09 OVMax= 1.67D-05

 Cycle  13  Pass 1  IDiag  1:
 RMSU=  7.87D-08    CP:  1.00D+00  1.25D+00  1.61D+00
 E= -700.815473431271     Delta-E=       -0.000000000633 Rises=F Damp=F
 DIIS: error= 2.37D-07 at cycle   4 NSaved=   4.
 NSaved= 4 IEnMin= 4 EnMin= -700.815473431271     IErMin= 4 ErrMin= 2.37D-07
 ErrMax= 2.37D-07  0.00D+00 EMaxC= 1.00D-01 BMatC= 9.90D-12 BMatP= 1.75D-10
 IDIUse=1 WtCom= 1.00D+00 WtEn= 0.00D+00
 Coeff-Com: -0.855D-01-0.513D-01 0.214D+00 0.923D+00
 Coeff:     -0.855D-01-0.513D-01 0.214D+00 0.923D+00
 Gap=     0.333 Goal=   None    Shift=    0.000
 RMSDP=5.20D-08 MaxDP=2.24D-06 DE=-6.33D-10 OVMax= 4.39D-06

 Cycle  14  Pass 1  IDiag  1:
 RMSU=  2.81D-08    CP:  1.00D+00  1.30D+00  1.72D+00  1.27D+00
 E= -700.815473431329     Delta-E=       -0.000000000058 Rises=F Damp=F
 DIIS: error= 9.23D-08 at cycle   5 NSaved=   5.
 NSaved= 5 IEnMin= 5 EnMin= -700.815473431329     IErMin= 5 ErrMin= 9.23D-08
 ErrMax= 9.23D-08  0.00D+00 EMaxC= 1.00D-01 BMatC= 2.14D-12 BMatP= 9.90D-12
 IDIUse=1 WtCom= 1.00D+00 WtEn= 0.00D+00
 Coeff-Com:  0.949D-01 0.590D-01-0.376D+00-0.268D+00 0.149D+01
 Coeff:      0.949D-01 0.590D-01-0.376D+00-0.268D+00 0.149D+01
 Gap=     0.333 Goal=   None    Shift=    0.000
 RMSDP=3.50D-08 MaxDP=1.60D-06 DE=-5.80D-11 OVMax= 3.02D-06

 Cycle  15  Pass 1  IDiag  1:
 RMSU=  1.03D-08    CP:  1.00D+00  1.32D+00  1.76D+00  1.58D+00  1.57D+00
 E= -700.815473431339     Delta-E=       -0.000000000010 Rises=F Damp=F
 DIIS: error= 2.54D-08 at cycle   6 NSaved=   6.
 NSaved= 6 IEnMin= 6 EnMin= -700.815473431339     IErMin= 6 ErrMin= 2.54D-08
 ErrMax= 2.54D-08  0.00D+00 EMaxC= 1.00D-01 BMatC= 2.67D-13 BMatP= 2.14D-12
 IDIUse=1 WtCom= 1.00D+00 WtEn= 0.00D+00
 Coeff-Com:  0.291D-01 0.218D-01-0.105D+00-0.156D+00 0.328D+00 0.882D+00
 Coeff:      0.291D-01 0.218D-01-0.105D+00-0.156D+00 0.328D+00 0.882D+00
 Gap=     0.333 Goal=   None    Shift=    0.000
 RMSDP=8.40D-09 MaxDP=3.47D-07 DE=-9.55D-12 OVMax= 5.75D-07

 SCF Done:  E(RHF) =  -700.815473431     A.U. after   15 cycles
            NFock= 15  Conv=0.84D-08     -V/T= 2.0007
 KE= 7.003153518472D+02 PE=-2.513663648607D+03 EE= 6.770632515964D+02
 Leave Link  502 at Mon Jul 12 13:53:36 2021, MaxMem=   262144000 cpu:             441.7 elap:             111.5
 (Enter /dades/curu/g16A03_MST/g16/l801.exe)
 ExpMin= 2.97D-02 ExpMax= 1.11D+05 ExpMxC= 1.07D+03 IAcc=3 IRadAn=         5 AccDes= 0.00D+00
 HarFok:  IExCor=  205 AccDes= 0.00D+00 IRadAn=         5 IDoV=-2 UseB2=F ITyADJ=14
 ICtDFT= 12500011 ScaDFX=  1.000000  1.000000  1.000000  1.000000
 Largest valence mixing into a core orbital is  3.20D-04
 Largest core mixing into a valence orbital is  8.89D-05
 Range of M.O.s used for correlation:    13   269
 NBasis=   269 NAE=    34 NBE=    34 NFC=    12 NFV=     0
 NROrb=    257 NOA=    22 NOB=    22 NVA=   235 NVB=   235

 **** Warning!!: The largest alpha MO coefficient is  0.59309197D+02

 Leave Link  801 at Mon Jul 12 13:53:36 2021, MaxMem=   262144000 cpu:               1.1 elap:               0.3
 (Enter /dades/curu/g16A03_MST/g16/l906.exe)
 FulOut=F Deriv=F AODrv=F NAtomX=    17
   MMem=          42  MDisk=          22 MDiskD=          22
  W3Min=     1473450 MinDsk=     1955505 NBas6D=         285
 NBas2D=       41124    NTT=       40755    LW2=     2000000
    MDV=   261541111 MDiskM=       12648 NBas2p=       39997
 Fully direct method using O(OVN) memory.
 IMap=   1   2   3   4   5   6   7   8   9  10  11  12  13  14  15  16  17  18  19  20
 IMap=  21  22
 JobTyp=1 Pass  1:  I=   1 to  22 NPSUse=  4 ParTrn=T ParDer=T DoDerP=F.
 Spin components of T(2) and E(2):
     alpha-alpha T2 =       0.5919881522D-01 E2=     -0.1541525899D+00
     alpha-beta  T2 =       0.3165156511D+00 E2=     -0.8805700147D+00
     beta-beta   T2 =       0.5919881522D-01 E2=     -0.1541525899D+00
 The integrals were generated   1 times.
 ANorm=    0.1197878659D+01
 E2 =    -0.1188875194D+01 EUMP2 =    -0.70200434862574D+03
 Leave Link  906 at Mon Jul 12 13:54:14 2021, MaxMem=   262144000 cpu:             150.0 elap:              37.6
 (Enter /dades/curu/g16A03_MST/g16/l601.exe)
 Copying SCF densities to generalized density rwf, IOpCl= 0 IROHF=0.

 **********************************************************************

            Population analysis using the SCF density.

 **********************************************************************

 Orbital symmetries:
       Occupied  (A) (A) (A) (A) (A) (A) (A) (A) (A) (A) (A) (A)
                 (A) (A) (A) (A) (A) (A) (A) (A) (A) (A) (A) (A)
                 (A) (A) (A) (A) (A) (A) (A) (A) (A) (A)
       Virtual   (A) (A) (A) (A) (A) (A) (A) (A) (A) (A) (A) (A)
                 (A) (A) (A) (A) (A) (A) (A) (A) (A) (A) (A) (A)
                 (A) (A) (A) (A) (A) (A) (A) (A) (A) (A) (A) (A)
                 (A) (A) (A) (A) (A) (A) (A) (A) (A) (A) (A) (A)
                 (A) (A) (A) (A) (A) (A) (A) (A) (A) (A) (A) (A)
                 (A) (A) (A) (A) (A) (A) (A) (A) (A) (A) (A) (A)
                 (A) (A) (A) (A) (A) (A) (A) (A) (A) (A) (A) (A)
                 (A) (A) (A) (A) (A) (A) (A) (A) (A) (A) (A) (A)
                 (A) (A) (A) (A) (A) (A) (A) (A) (A) (A) (A) (A)
                 (A) (A) (A) (A) (A) (A) (A) (A) (A) (A) (A) (A)
                 (A) (A) (A) (A) (A) (A) (A) (A) (A) (A) (A) (A)
                 (A) (A) (A) (A) (A) (A) (A) (A) (A) (A) (A) (A)
                 (A) (A) (A) (A) (A) (A) (A) (A) (A) (A) (A) (A)
                 (A) (A) (A) (A) (A) (A) (A) (A) (A) (A) (A) (A)
                 (A) (A) (A) (A) (A) (A) (A) (A) (A) (A) (A) (A)
                 (A) (A) (A) (A) (A) (A) (A) (A) (A) (A) (A) (A)
                 (A) (A) (A) (A) (A) (A) (A) (A) (A) (A) (A) (A)
                 (A) (A) (A) (A) (A) (A) (A) (A) (A) (A) (A) (A)
                 (A) (A) (A) (A) (A) (A) (A) (A) (A) (A) (A) (A)
                 (A) (A) (A) (A) (A) (A) (A)
 The electronic state is 1-A.
 Alpha  occ. eigenvalues --  -92.11165 -15.90415 -15.70303 -11.48152 -11.44884
 Alpha  occ. eigenvalues --  -11.42629 -11.38484 -11.38304  -9.11368  -6.79514
 Alpha  occ. eigenvalues --   -6.79428  -6.79247  -1.51362  -1.40688  -1.24048
 Alpha  occ. eigenvalues --   -1.18028  -1.12483  -1.05261  -0.97081  -0.96145
 Alpha  occ. eigenvalues --   -0.91825  -0.85637  -0.85018  -0.80830  -0.79585
 Alpha  occ. eigenvalues --   -0.73271  -0.71173  -0.69618  -0.66973  -0.65966
 Alpha  occ. eigenvalues --   -0.61522  -0.55226  -0.50515  -0.44944
 Alpha virt. eigenvalues --   -0.11621  -0.07851  -0.07740  -0.06307  -0.03786
 Alpha virt. eigenvalues --   -0.03551  -0.03363  -0.03192  -0.02220  -0.02018
 Alpha virt. eigenvalues --   -0.01019  -0.00956   0.00571   0.01963   0.02133
 Alpha virt. eigenvalues --    0.02608   0.03041   0.03733   0.04242   0.04392
 Alpha virt. eigenvalues --    0.04993   0.05063   0.05828   0.06376   0.07065
 Alpha virt. eigenvalues --    0.07137   0.08122   0.08286   0.09061   0.09246
 Alpha virt. eigenvalues --    0.10042   0.10372   0.10790   0.11762   0.12602
 Alpha virt. eigenvalues --    0.12741   0.13284   0.14294   0.14976   0.15238
 Alpha virt. eigenvalues --    0.15461   0.17031   0.17966   0.18594   0.19339
 Alpha virt. eigenvalues --    0.20485   0.21340   0.22063   0.23011   0.23402
 Alpha virt. eigenvalues --    0.24460   0.26356   0.27327   0.27497   0.28517
 Alpha virt. eigenvalues --    0.29739   0.29991   0.30654   0.31567   0.31870
 Alpha virt. eigenvalues --    0.32624   0.33008   0.33778   0.34063   0.34878
 Alpha virt. eigenvalues --    0.35703   0.36394   0.37830   0.38635   0.39483
 Alpha virt. eigenvalues --    0.39911   0.40276   0.41150   0.41760   0.42755
 Alpha virt. eigenvalues --    0.43648   0.44571   0.45116   0.45862   0.46777
 Alpha virt. eigenvalues --    0.47374   0.47825   0.48776   0.50431   0.51780
 Alpha virt. eigenvalues --    0.52686   0.52784   0.53460   0.54479   0.55905
 Alpha virt. eigenvalues --    0.57661   0.57771   0.58799   0.59115   0.59467
 Alpha virt. eigenvalues --    0.60435   0.60987   0.62110   0.63523   0.64282
 Alpha virt. eigenvalues --    0.64779   0.64919   0.66189   0.66953   0.68700
 Alpha virt. eigenvalues --    0.69118   0.70260   0.70768   0.72113   0.73053
 Alpha virt. eigenvalues --    0.75231   0.75584   0.77143   0.77863   0.78485
 Alpha virt. eigenvalues --    0.80730   0.81211   0.82474   0.83524   0.83818
 Alpha virt. eigenvalues --    0.86430   0.87288   0.88011   0.91867   0.93539
 Alpha virt. eigenvalues --    0.94055   0.95749   0.97132   0.99014   1.00476
 Alpha virt. eigenvalues --    1.01839   1.03590   1.06002   1.07602   1.08319
 Alpha virt. eigenvalues --    1.08492   1.10003   1.12052   1.13723   1.15180
 Alpha virt. eigenvalues --    1.15545   1.17824   1.20117   1.22396   1.25775
 Alpha virt. eigenvalues --    1.27017   1.28535   1.32378   1.33489   1.35811
 Alpha virt. eigenvalues --    1.39172   1.41625   1.45357   1.46714   1.48589
 Alpha virt. eigenvalues --    1.50999   1.52245   1.53764   1.54944   1.56124
 Alpha virt. eigenvalues --    1.58483   1.61355   1.62528   1.63931   1.65300
 Alpha virt. eigenvalues --    1.66750   1.67883   1.70792   1.71550   1.72078
 Alpha virt. eigenvalues --    1.75668   1.76671   1.78239   1.80231   1.84132
 Alpha virt. eigenvalues --    1.86830   1.88225   1.89442   1.91395   1.94010
 Alpha virt. eigenvalues --    1.95441   1.98565   1.99322   2.00736   2.02510
 Alpha virt. eigenvalues --    2.03325   2.05949   2.07223   2.07633   2.09287
 Alpha virt. eigenvalues --    2.09965   2.13181   2.16389   2.18035   2.19660
 Alpha virt. eigenvalues --    2.23520   2.25852   2.28850   2.30072   2.30456
 Alpha virt. eigenvalues --    2.31137   2.32321   2.34532   2.37433   2.38383
 Alpha virt. eigenvalues --    2.39835   2.45535   2.46216   2.49167   2.52822
 Alpha virt. eigenvalues --    2.57165   2.58582   2.60191   2.63909   2.68291
 Alpha virt. eigenvalues --    2.69368   2.72485   2.73559   2.79066   2.79753
 Alpha virt. eigenvalues --    2.81161   2.84484   2.86663   2.88804   2.91422
 Alpha virt. eigenvalues --    2.98993   3.01323   3.07580   3.16686   3.27897
 Alpha virt. eigenvalues --    3.33822   3.36425   3.39398   3.57157   3.66292
          Condensed to atoms (all electrons):
               1          2          3          4          5          6
     1  N    6.555201   0.418683   0.457297  -0.097485  -0.159181  -0.114081
     2  H    0.418683   0.539600  -0.060927  -0.026179   0.019013  -0.029702
     3  H    0.457297  -0.060927   0.590666  -0.072940  -0.025740  -0.036790
     4  C   -0.097485  -0.026179  -0.072940   4.780930   0.285190   0.197768
     5  H   -0.159181   0.019013  -0.025740   0.285190   1.106474  -0.084296
     6  H   -0.114081  -0.029702  -0.036790   0.197768  -0.084296   1.186028
     7  C   -0.006660  -0.034651   0.052370   0.141673  -0.083193  -0.065574
     8  H   -0.038439   0.013671  -0.000375  -0.022003   0.071305  -0.063170
     9  H   -0.001021  -0.009574  -0.003025  -0.166992  -0.032027   0.068963
    10  C    0.050570   0.009520  -0.020674  -0.043176   0.010095   0.054473
    11  N    0.010271   0.000455   0.002852  -0.067166  -0.010399  -0.005678
    12  C    0.005876   0.001549  -0.000482  -0.027874   0.004615  -0.010190
    13  H   -0.000162   0.000056  -0.000132  -0.003375  -0.001689   0.000248
    14  C    0.002483  -0.000373   0.000407  -0.008655  -0.004371   0.000888
    15  H    0.000100  -0.000027   0.000010   0.001567   0.000399   0.000025
    16  S    0.000449   0.000175  -0.000495  -0.054871   0.001858   0.006814
    17  H    0.419708  -0.059841  -0.058686  -0.041744  -0.028032   0.020908
               7          8          9         10         11         12
     1  N   -0.006660  -0.038439  -0.001021   0.050570   0.010271   0.005876
     2  H   -0.034651   0.013671  -0.009574   0.009520   0.000455   0.001549
     3  H    0.052370  -0.000375  -0.003025  -0.020674   0.002852  -0.000482
     4  C    0.141673  -0.022003  -0.166992  -0.043176  -0.067166  -0.027874
     5  H   -0.083193   0.071305  -0.032027   0.010095  -0.010399   0.004615
     6  H   -0.065574  -0.063170   0.068963   0.054473  -0.005678  -0.010190
     7  C    6.322027   0.093971   0.172137  -0.663138   0.162433  -0.287783
     8  H    0.093971   1.117114  -0.095914  -0.043901   0.027248   0.000997
     9  H    0.172137  -0.095914   0.964069   0.020375   0.005802  -0.016975
    10  C   -0.663138  -0.043901   0.020375   6.494222   0.284589  -0.112596
    11  N    0.162433   0.027248   0.005802   0.284589   7.546389   0.084924
    12  C   -0.287783   0.000997  -0.016975  -0.112596   0.084924   5.364278
    13  H   -0.015133  -0.000219   0.000259   0.091501  -0.182173   0.323928
    14  C    0.050304  -0.002444   0.012199  -0.138143  -0.073633   0.215039
    15  H    0.025943   0.001339   0.000617   0.038351   0.009705  -0.040718
    16  S    0.140010  -0.030062   0.026638   0.148425  -0.111516  -0.295052
    17  H   -0.014202  -0.011208   0.011327   0.012084  -0.001195   0.000843
              13         14         15         16         17
     1  N   -0.000162   0.002483   0.000100   0.000449   0.419708
     2  H    0.000056  -0.000373  -0.000027   0.000175  -0.059841
     3  H   -0.000132   0.000407   0.000010  -0.000495  -0.058686
     4  C   -0.003375  -0.008655   0.001567  -0.054871  -0.041744
     5  H   -0.001689  -0.004371   0.000399   0.001858  -0.028032
     6  H    0.000248   0.000888   0.000025   0.006814   0.020908
     7  C   -0.015133   0.050304   0.025943   0.140010  -0.014202
     8  H   -0.000219  -0.002444   0.001339  -0.030062  -0.011208
     9  H    0.000259   0.012199   0.000617   0.026638   0.011327
    10  C    0.091501  -0.138143   0.038351   0.148425   0.012084
    11  N   -0.182173  -0.073633   0.009705  -0.111516  -0.001195
    12  C    0.323928   0.215039  -0.040718  -0.295052   0.000843
    13  H    1.215739  -0.151080  -0.034346   0.003740   0.000069
    14  C   -0.151080   5.414596   0.283109   0.255623  -0.000535
    15  H   -0.034346   0.283109   1.173799  -0.120877   0.000001
    16  S    0.003740   0.255623  -0.120877  15.670461  -0.000027
    17  H    0.000069  -0.000535   0.000001  -0.000027   0.536709
 Mulliken charges:
               1
     1  N   -0.503610
     2  H    0.218551
     3  H    0.176665
     4  C    1.225331
     5  H   -0.070020
     6  H   -0.126634
     7  C    0.009467
     8  H   -0.017910
     9  H    0.043144
    10  C   -0.192577
    11  N   -0.682910
    12  C    0.789621
    13  H   -0.247231
    14  C    0.144586
    15  H   -0.338997
    16  S    0.358705
    17  H    0.213821
 Sum of Mulliken charges =   1.00000
 Mulliken charges with hydrogens summed into heavy atoms:
               1
     1  N    0.105427
     4  C    1.028676
     7  C    0.034700
    10  C   -0.192577
    11  N   -0.682910
    12  C    0.542389
    14  C   -0.194412
    16  S    0.358705
 Electronic spatial extent (au):  <R**2>=           1413.3523
 Charge=              1.0000 electrons
 Dipole moment (field-independent basis, Debye):
    X=            -13.0396    Y=             -0.8597    Z=             -0.1859  Tot=             13.0693
 Quadrupole moment (field-independent basis, Debye-Ang):
   XX=             14.2704   YY=            -50.6359   ZZ=            -53.5846
   XY=              2.9995   XZ=             -0.1527   YZ=             -0.2535
 Traceless Quadrupole moment (field-independent basis, Debye-Ang):
   XX=             44.2538   YY=            -20.6526   ZZ=            -23.6012
   XY=              2.9995   XZ=             -0.1527   YZ=             -0.2535
 Octapole moment (field-independent basis, Debye-Ang**2):
  XXX=           -206.3739  YYY=              2.6643  ZZZ=              0.9205  XYY=            -10.9443
  XXY=              4.8619  XXZ=             -3.3660  XZZ=            -23.3755  YZZ=             -2.0517
  YYZ=             -1.2419  XYZ=              0.4518
 Hexadecapole moment (field-independent basis, Debye-Ang**3):
 XXXX=           -376.1597 YYYY=           -315.8970 ZZZZ=            -78.0791 XXXY=             -2.0715
 XXXZ=             -0.1185 YYYX=             20.3991 YYYZ=              2.5209 ZZZX=             -2.7327
 ZZZY=             -2.5518 XXYY=           -235.3719 XXZZ=           -226.0406 YYZZ=            -70.8071
 XXYZ=              0.5081 YYXZ=              3.7649 ZZXY=              1.7345
 N-N= 4.354695717322D+02 E-N=-2.513663652620D+03  KE= 7.003153518472D+02
 Leave Link  601 at Mon Jul 12 13:54:14 2021, MaxMem=   262144000 cpu:               0.3 elap:               0.2
 (Enter /dades/curu/g16A03_MST/g16/l9999.exe)
 1\1\GINC-PIRINEUS49\SP\RMP2-FC\Aug-CC-pVDZ\C5H9N2S1(1+)\UBATOR02\12-Ju
 l-2021\0\\#p mp2/aug-cc-pVDZ scf=tight maxdisk=180GB geom=allcheck\\SE
 T_328_BBB87_conf1.geo_180_090 geometry\\1,1\N,0,-1.1606981063,1.952149
 6601,-2.0014854618\H,0,-2.1743332905,1.9462527099,-1.8219249476\H,0,-1
 .0403356386,1.9284949991,-3.0231346248\C,0,-0.4531982924,0.7992706257,
 -1.3472981083\H,0,0.5956314378,0.855104828,-1.6335973373\H,0,-0.875256
 7101,-0.1139255145,-1.7663302877\C,0,-0.6097814885,0.841336969,0.17156
 05123\H,0,-1.6642348346,0.7628967932,0.4503755623\H,0,-0.2507029445,1.
 8027914668,0.5598209205\C,0,0.1754650224,-0.2784417749,0.8010733932\N,
 0,1.1461818762,-0.9066611479,0.2004165032\C,0,1.7030574398,-1.86419298
 88,1.0200776312\H,0,2.5217676261,-2.4671355174,0.6482637262\C,0,1.1564
 261145,-1.9727855469,2.2629522639\H,0,1.4260730293,-2.6442288804,3.062
 9560504\S,0,-0.1317814407,-0.8286161123,2.440203036\H,0,-0.8012797999,
 2.8606894313,-1.6819288315\\Version=ES64L-G16RevA.03\State=1-A\HF=-700
 .8154734\MP2=-702.0043486\RMSD=8.403e-09\PG=C01 [X(C5H9N2S1)]\\@


 You never know when you're making a memory.
                        -- Rickie Lee Jones
 Job cpu time:       0 days  0 hours 10 minutes  5.1 seconds.
 Elapsed time:       0 days  0 hours  2 minutes 33.0 seconds.
 File lengths (MBytes):  RWF=     44 Int=      0 D2E=      0 Chk=      9 Scr=      1
 Normal termination of Gaussian 16 at Mon Jul 12 13:54:14 2021.
