 Entering Gaussian System, Link 0=g16
 Input=SET_328_BBB299_conf1.geo_165_180_OCTANOL.dat
 Output=SET_328_BBB299_conf1.geo_165_180_OCTANOL.log
 Initial command:
 /dades/curu/g16A03_MST/g16/l1.exe "/tmp/ubator02/1835307/Gau-2888.inp" -scrdir="/tmp/ubator02/1835307/"
 Entering Link 1 = /dades/curu/g16A03_MST/g16/l1.exe PID=      2889.
  
 Copyright (c) 1988,1990,1992,1993,1995,1998,2003,2009,2016,
            Gaussian, Inc.  All Rights Reserved.
  
 This is part of the Gaussian(R) 16 program.  It is based on
 the Gaussian(R) 09 system (copyright 2009, Gaussian, Inc.),
 the Gaussian(R) 03 system (copyright 2003, Gaussian, Inc.),
 the Gaussian(R) 98 system (copyright 1998, Gaussian, Inc.),
 the Gaussian(R) 94 system (copyright 1995, Gaussian, Inc.),
 the Gaussian 92(TM) system (copyright 1992, Gaussian, Inc.),
 the Gaussian 90(TM) system (copyright 1990, Gaussian, Inc.),
 the Gaussian 88(TM) system (copyright 1988, Gaussian, Inc.),
 the Gaussian 86(TM) system (copyright 1986, Carnegie Mellon
 University), and the Gaussian 82(TM) system (copyright 1983,
 Carnegie Mellon University). Gaussian is a federally registered
 trademark of Gaussian, Inc.
  
 This software contains proprietary and confidential information,
 including trade secrets, belonging to Gaussian, Inc.
  
 This software is provided under written license and may be
 used, copied, transmitted, or stored only in accord with that
 written license.
  
 The following legend is applicable only to US Government
 contracts under FAR:
  
                    RESTRICTED RIGHTS LEGEND
  
 Use, reproduction and disclosure by the US Government is
 subject to restrictions as set forth in subparagraphs (a)
 and (c) of the Commercial Computer Software - Restricted
 Rights clause in FAR 52.227-19.
  
 Gaussian, Inc.
 340 Quinnipiac St., Bldg. 40, Wallingford CT 06492
  
  
 ---------------------------------------------------------------
 Warning -- This program may not be used in any manner that
 competes with the business of Gaussian, Inc. or will provide
 assistance to any competitor of Gaussian, Inc.  The licensee
 of this program is prohibited from giving any competitor of
 Gaussian, Inc. access to this program.  By using this program,
 the user acknowledges that Gaussian, Inc. is engaged in the
 business of creating and licensing software in the field of
 computational chemistry and represents and warrants to the
 licensee that it is not a competitor of Gaussian, Inc. and that
 it will not use this program in any manner prohibited above.
 ---------------------------------------------------------------
  

 Cite this work as:
 Gaussian 16, Revision A.03,
 M. J. Frisch, G. W. Trucks, H. B. Schlegel, G. E. Scuseria, 
 M. A. Robb, J. R. Cheeseman, G. Scalmani, V. Barone, 
 G. A. Petersson, H. Nakatsuji, X. Li, M. Caricato, A. V. Marenich, 
 J. Bloino, B. G. Janesko, R. Gomperts, B. Mennucci, H. P. Hratchian, 
 J. V. Ortiz, A. F. Izmaylov, J. L. Sonnenberg, D. Williams-Young, 
 F. Ding, F. Lipparini, F. Egidi, J. Goings, B. Peng, A. Petrone, 
 T. Henderson, D. Ranasinghe, V. G. Zakrzewski, J. Gao, N. Rega, 
 G. Zheng, W. Liang, M. Hada, M. Ehara, K. Toyota, R. Fukuda, 
 J. Hasegawa, M. Ishida, T. Nakajima, Y. Honda, O. Kitao, H. Nakai, 
 T. Vreven, K. Throssell, J. A. Montgomery, Jr., J. E. Peralta, 
 F. Ogliaro, M. J. Bearpark, J. J. Heyd, E. N. Brothers, K. N. Kudin, 
 V. N. Staroverov, T. A. Keith, R. Kobayashi, J. Normand, 
 K. Raghavachari, A. P. Rendell, J. C. Burant, S. S. Iyengar, 
 J. Tomasi, M. Cossi, J. M. Millam, M. Klene, C. Adamo, R. Cammi, 
 J. W. Ochterski, R. L. Martin, K. Morokuma, O. Farkas, 
 J. B. Foresman, and D. J. Fox, Gaussian, Inc., Wallingford CT, 2016.
 
 ******************************************
 Gaussian 16:  ES64L-G16RevA.03 25-Dec-2016
                12-Jul-2021 
 ******************************************
 %mem=800MB
 %nproc=4
 Will use up to    4 processors via shared memory.
 %chk=SET_328_BBB299_conf1.geo_165_180.chk
 ---------------------------------------------------------------
 #p b3lyp/6-31G(d) opt freq scrf=(iefpcm,read,solvent=n-octanol)
 ---------------------------------------------------------------
 1/18=20,19=15,26=3,38=1,40=2/1,3;
 2/9=110,12=2,17=6,18=5,40=1/2;
 3/5=1,6=6,7=1,11=2,25=1,30=1,70=2203,71=1,72=25,74=-5/1,2,3;
 4//1;
 5/5=2,38=5,53=25/2;
 6/7=2,8=2,9=2,10=2,28=1/1;
 7//1,2,3,16;
 1/18=20,19=15,26=3/3(2);
 2/9=110/2;
 99//99;
 2/9=110/2;
 3/5=1,6=6,7=1,11=2,25=1,30=1,70=2205,71=1,72=25,74=-5/1,2,3;
 4/5=5,16=3,69=1/1;
 5/5=2,38=5,53=25/2;
 7//1,2,3,16;
 1/18=20,19=15,26=3/3(-5);
 2/9=110/2;
 6/7=2,8=2,9=2,10=2,19=2,28=1/1;
 99/9=1/99;
 Leave Link    1 at Mon Jul 12 12:46:00 2021, MaxMem=   104857600 cpu:               0.0 elap:               0.0
 (Enter /dades/curu/g16A03_MST/g16/l101.exe)
 -----------------------------------------
 SET_328_BBB299_conf1.geo_165_180 geometry
 -----------------------------------------
 Symbolic Z-matrix:
 Charge = -1 Multiplicity = 1
 O                     1.518    -1.803    -1.834 
 C                     1.134    -1.667    -0.641 
 O                     1.402    -2.559     0.076 
 C                     0.347    -0.462    -0.24 
 C                    -0.356    -0.374     0.959 
 O                    -0.45     -1.386     1.913 
 H                    -1.004    -0.986     2.608 
 C                    -1.159     0.779     1.153 
 H                    -1.835     0.867     2. 
 C                    -1.093     1.895     0.358 
 H                    -1.743     2.755     0.497 
 C                    -0.255     1.788    -0.761 
 H                    -0.162     2.638    -1.431 
 C                     0.536     0.663    -1.029 
 H                     1.291     0.579    -1.807 
 
 ITRead=  0  0  0  0  0  0  0  0  0  0  0  0  0  0  0
 MicOpt= -1 -1 -1 -1 -1 -1 -1 -1 -1 -1 -1 -1 -1 -1 -1
 NAtoms=     15 NQM=       15 NQMF=       0 NMMI=      0 NMMIF=      0
                NMic=       0 NMicF=      0.
                    Isotopes and Nuclear Properties:
 (Nuclear quadrupole moments (NQMom) in fm**2, nuclear magnetic moments (NMagM)
  in nuclear magnetons)

  Atom         1           2           3           4           5           6           7           8           9          10
 IAtWgt=          16          12          16          12          12          16           1          12           1          12
 AtmWgt=  15.9949146  12.0000000  15.9949146  12.0000000  12.0000000  15.9949146   1.0078250  12.0000000   1.0078250  12.0000000
 NucSpn=           0           0           0           0           0           0           1           0           1           0
 AtZEff=  -0.0000000  -0.0000000  -0.0000000  -0.0000000  -0.0000000  -0.0000000  -0.0000000  -0.0000000  -0.0000000  -0.0000000
 NQMom=    0.0000000   0.0000000   0.0000000   0.0000000   0.0000000   0.0000000   0.0000000   0.0000000   0.0000000   0.0000000
 NMagM=    0.0000000   0.0000000   0.0000000   0.0000000   0.0000000   0.0000000   2.7928460   0.0000000   2.7928460   0.0000000
 AtZNuc=   8.0000000   6.0000000   8.0000000   6.0000000   6.0000000   8.0000000   1.0000000   6.0000000   1.0000000   6.0000000

  Atom        11          12          13          14          15
 IAtWgt=           1          12           1          12           1
 AtmWgt=   1.0078250  12.0000000   1.0078250  12.0000000   1.0078250
 NucSpn=           1           0           1           0           1
 AtZEff=  -0.0000000  -0.0000000  -0.0000000  -0.0000000  -0.0000000
 NQMom=    0.0000000   0.0000000   0.0000000   0.0000000   0.0000000
 NMagM=    2.7928460   0.0000000   2.7928460   0.0000000   2.7928460
 AtZNuc=   1.0000000   6.0000000   1.0000000   6.0000000   1.0000000
 Leave Link  101 at Mon Jul 12 12:46:00 2021, MaxMem=   104857600 cpu:               0.1 elap:               0.1
 (Enter /dades/curu/g16A03_MST/g16/l103.exe)

 GradGradGradGradGradGradGradGradGradGradGradGradGradGradGradGradGradGrad
 Berny optimization.
 Initialization pass.
                           ----------------------------
                           !    Initial Parameters    !
                           ! (Angstroms and Degrees)  !
 --------------------------                            --------------------------
 ! Name  Definition              Value          Derivative Info.                !
 --------------------------------------------------------------------------------
 ! R1    R(1,2)                  1.2606         estimate D2E/DX2                !
 ! R2    R(2,3)                  1.1754         estimate D2E/DX2                !
 ! R3    R(2,4)                  1.4941         estimate D2E/DX2                !
 ! R4    R(4,5)                  1.3927         estimate D2E/DX2                !
 ! R5    R(4,14)                 1.387          estimate D2E/DX2                !
 ! R6    R(5,6)                  1.3939         estimate D2E/DX2                !
 ! R7    R(5,8)                  1.4184         estimate D2E/DX2                !
 ! R8    R(6,7)                  0.9746         estimate D2E/DX2                !
 ! R9    R(8,9)                  1.0873         estimate D2E/DX2                !
 ! R10   R(8,10)                 1.3718         estimate D2E/DX2                !
 ! R11   R(10,11)                1.0869         estimate D2E/DX2                !
 ! R12   R(10,12)                1.4021         estimate D2E/DX2                !
 ! R13   R(12,13)                1.0863         estimate D2E/DX2                !
 ! R14   R(12,14)                1.4011         estimate D2E/DX2                !
 ! R15   R(14,15)                1.0874         estimate D2E/DX2                !
 ! A1    A(1,2,3)              115.2109         estimate D2E/DX2                !
 ! A2    A(1,2,4)              120.0968         estimate D2E/DX2                !
 ! A3    A(3,2,4)              124.642          estimate D2E/DX2                !
 ! A4    A(2,4,5)              123.2252         estimate D2E/DX2                !
 ! A5    A(2,4,14)             115.4492         estimate D2E/DX2                !
 ! A6    A(5,4,14)             120.4817         estimate D2E/DX2                !
 ! A7    A(4,5,6)              125.2661         estimate D2E/DX2                !
 ! A8    A(4,5,8)              117.0579         estimate D2E/DX2                !
 ! A9    A(6,5,8)              117.282          estimate D2E/DX2                !
 ! A10   A(5,6,7)              103.2028         estimate D2E/DX2                !
 ! A11   A(5,8,9)              121.6235         estimate D2E/DX2                !
 ! A12   A(5,8,10)             123.6974         estimate D2E/DX2                !
 ! A13   A(9,8,10)             114.5531         estimate D2E/DX2                !
 ! A14   A(8,10,11)            122.7378         estimate D2E/DX2                !
 ! A15   A(8,10,12)            115.4163         estimate D2E/DX2                !
 ! A16   A(11,10,12)           121.3232         estimate D2E/DX2                !
 ! A17   A(10,12,13)           118.9271         estimate D2E/DX2                !
 ! A18   A(10,12,14)           123.4598         estimate D2E/DX2                !
 ! A19   A(13,12,14)           117.514          estimate D2E/DX2                !
 ! A20   A(4,14,12)            117.7433         estimate D2E/DX2                !
 ! A21   A(4,14,15)            116.0372         estimate D2E/DX2                !
 ! A22   A(12,14,15)           126.2189         estimate D2E/DX2                !
 ! D1    D(1,2,4,5)            165.4563         estimate D2E/DX2                !
 ! D2    D(1,2,4,14)           -25.0389         estimate D2E/DX2                !
 ! D3    D(3,2,4,5)            -11.8355         estimate D2E/DX2                !
 ! D4    D(3,2,4,14)           157.6694         estimate D2E/DX2                !
 ! D5    D(2,4,5,6)             -1.7375         estimate D2E/DX2                !
 ! D6    D(2,4,5,8)           -174.3102         estimate D2E/DX2                !
 ! D7    D(14,4,5,6)          -170.7348         estimate D2E/DX2                !
 ! D8    D(14,4,5,8)            16.6925         estimate D2E/DX2                !
 ! D9    D(2,4,14,12)          175.1232         estimate D2E/DX2                !
 ! D10   D(2,4,14,15)           -4.5997         estimate D2E/DX2                !
 ! D11   D(5,4,14,12)          -15.0609         estimate D2E/DX2                !
 ! D12   D(5,4,14,15)          165.2162         estimate D2E/DX2                !
 ! D13   D(4,5,6,7)            179.8227         estimate D2E/DX2                !
 ! D14   D(8,5,6,7)             -7.6196         estimate D2E/DX2                !
 ! D15   D(4,5,8,9)            172.1097         estimate D2E/DX2                !
 ! D16   D(4,5,8,10)           -12.1968         estimate D2E/DX2                !
 ! D17   D(6,5,8,9)             -1.07           estimate D2E/DX2                !
 ! D18   D(6,5,8,10)           174.6235         estimate D2E/DX2                !
 ! D19   D(5,8,10,11)          177.545          estimate D2E/DX2                !
 ! D20   D(5,8,10,12)            5.7477         estimate D2E/DX2                !
 ! D21   D(9,8,10,11)           -6.4861         estimate D2E/DX2                !
 ! D22   D(9,8,10,12)         -178.2834         estimate D2E/DX2                !
 ! D23   D(8,10,12,13)         179.8693         estimate D2E/DX2                !
 ! D24   D(8,10,12,14)          -3.8447         estimate D2E/DX2                !
 ! D25   D(11,10,12,13)          7.9454         estimate D2E/DX2                !
 ! D26   D(11,10,12,14)       -175.7686         estimate D2E/DX2                !
 ! D27   D(10,12,14,4)           8.5343         estimate D2E/DX2                !
 ! D28   D(10,12,14,15)       -171.7743         estimate D2E/DX2                !
 ! D29   D(13,12,14,4)        -175.1308         estimate D2E/DX2                !
 ! D30   D(13,12,14,15)          4.5606         estimate D2E/DX2                !
 --------------------------------------------------------------------------------
 Trust Radius=3.00D-01 FncErr=1.00D-07 GrdErr=1.00D-06 EigMax=2.50D+02 EigMin=1.00D-04
 Number of steps in this run=     77 maximum allowed number of steps=    100.
 GradGradGradGradGradGradGradGradGradGradGradGradGradGradGradGradGradGrad

 Leave Link  103 at Mon Jul 12 12:46:00 2021, MaxMem=   104857600 cpu:               0.0 elap:               0.0
 (Enter /dades/curu/g16A03_MST/g16/l202.exe)
                          Input orientation:                          
 ---------------------------------------------------------------------
 Center     Atomic      Atomic             Coordinates (Angstroms)
 Number     Number       Type             X           Y           Z
 ---------------------------------------------------------------------
      1          8           0        1.518000   -1.803000   -1.834000
      2          6           0        1.134000   -1.667000   -0.641000
      3          8           0        1.402000   -2.559000    0.076000
      4          6           0        0.347000   -0.462000   -0.240000
      5          6           0       -0.356000   -0.374000    0.959000
      6          8           0       -0.450000   -1.386000    1.913000
      7          1           0       -1.004000   -0.986000    2.608000
      8          6           0       -1.159000    0.779000    1.153000
      9          1           0       -1.835000    0.867000    2.000000
     10          6           0       -1.093000    1.895000    0.358000
     11          1           0       -1.743000    2.755000    0.497000
     12          6           0       -0.255000    1.788000   -0.761000
     13          1           0       -0.162000    2.638000   -1.431000
     14          6           0        0.536000    0.663000   -1.029000
     15          1           0        1.291000    0.579000   -1.807000
 ---------------------------------------------------------------------
                    Distance matrix (angstroms):
                    1          2          3          4          5
     1  O    0.000000
     2  C    1.260635   0.000000
     3  O    2.057448   1.175405   0.000000
     4  C    2.389636   1.494053   2.368605   0.000000
     5  C    3.654417   2.540069   2.940149   1.392679   0.000000
     6  O    4.252872   3.018432   2.860140   2.474751   1.393950
     7  H    5.172943   3.948519   3.830690   3.195447   1.874473
     8  C    4.770243   3.802526   4.342913   2.397617   1.418398
     9  H    5.750745   4.712855   5.090916   3.397788   2.193445
    10  C    5.029651   4.318029   5.112990   2.826067   2.460230
    11  H    6.069847   5.396875   6.189254   3.906451   3.453673
    12  C    4.146099   3.725687   4.726799   2.386702   2.764570
    13  H    4.765217   4.564728   5.632580   3.359697   3.849919
    14  C    2.773717   2.436606   3.514579   1.387035   2.413126
    15  H    2.392944   2.535492   3.661291   2.104829   3.357316
                    6          7          8          9         10
     6  O    0.000000
     7  H    0.974649   0.000000
     8  C    2.401563   2.292657   0.000000
     9  H    2.646092   2.119867   1.087258   0.000000
    10  C    3.687334   3.656581   1.371801   2.074491   0.000000
    11  H    4.563418   4.358615   2.162399   2.414957   1.086932
    12  C    4.154826   4.427893   2.344929   3.311761   1.402089
    13  H    5.240024   5.491435   3.335708   4.207984   2.149263
    14  C    3.718328   4.280020   2.765430   3.852025   2.468853
    15  H    4.553099   5.216174   3.847610   4.934376   3.478870
                   11         12         13         14         15
    11  H    0.000000
    12  C    2.175269   0.000000
    13  H    2.496084   1.086301   0.000000
    14  C    3.449490   1.401117   2.132940   0.000000
    15  H    4.387317   2.223941   2.547953   1.087366   0.000000
 Stoichiometry    C7H5O3(1-)
 Framework group  C1[X(C7H5O3)]
 Deg. of freedom    39
 Full point group                 C1      NOp   1
 Largest Abelian subgroup         C1      NOp   1
 Largest concise Abelian subgroup C1      NOp   1
                         Standard orientation:                         
 ---------------------------------------------------------------------
 Center     Atomic      Atomic             Coordinates (Angstroms)
 Number     Number       Type             X           Y           Z
 ---------------------------------------------------------------------
      1          8           0        2.389181   -1.281125    0.303026
      2          6           0        1.759762   -0.229270    0.008690
      3          8           0        2.430560    0.710061   -0.213266
      4          6           0        0.265733   -0.223577    0.015071
      5          6           0       -0.493017    0.944050   -0.007288
      6          8           0        0.022586    2.239131   -0.003479
      7          1           0       -0.776370    2.796886   -0.026297
      8          6           0       -1.897986    0.803222    0.127190
      9          1           0       -2.548592    1.666123    0.246534
     10          6           0       -2.554917   -0.397440    0.033980
     11          1           0       -3.627998   -0.493094    0.178093
     12          6           0       -1.731648   -1.526366   -0.082677
     13          1           0       -2.192452   -2.507187   -0.158169
     14          6           0       -0.335851   -1.457505   -0.183382
     15          1           0        0.334339   -2.285949   -0.399923
 ---------------------------------------------------------------------
 Rotational constants (GHZ):           2.3482220           1.2218791           0.8118473
 Leave Link  202 at Mon Jul 12 12:46:00 2021, MaxMem=   104857600 cpu:               0.0 elap:               0.0
 (Enter /dades/curu/g16A03_MST/g16/l301.exe)
 Standard basis: 6-31G(d) (6D, 7F)
 Ernie: Thresh=  0.10000D-02 Tol=  0.10000D-05 Strict=F.
 There are   160 symmetry adapted cartesian basis functions of A   symmetry.
 There are   160 symmetry adapted basis functions of A   symmetry.
   160 basis functions,   300 primitive gaussians,   160 cartesian basis functions
    36 alpha electrons       36 beta electrons
       nuclear repulsion energy       488.0892559097 Hartrees.
 IExCor=  402 DFT=T Ex+Corr=B3LYP ExCW=0 ScaHFX=  0.200000
 ScaDFX=  0.800000  0.720000  1.000000  0.810000 ScalE2=  1.000000  1.000000
 IRadAn=      5 IRanWt=     -1 IRanGd=            0 ICorTp=0 IEmpDi=  4
 NAtoms=   15 NActive=   15 NUniq=   15 SFac= 1.00D+00 NAtFMM=   60 NAOKFM=F Big=F
 Integral buffers will be    131072 words long.
 Raffenetti 2 integral format.
 Two-electron integral symmetry is turned on.
 Using the following non-standard input for PCM:
 MSTModel=DFT cav MSTCharged
 --- end of non-standard input.
 MST model for solvation energy: B3LYP parametrization.
 MST cavity parameters:
 ISph   IAn     Re0     Alpha   Atom Type   QCorr
 ------------------------------------------------
   1      8     1.40     1.15      O          T
   2      6     1.50     1.15      C          T
   3      8     1.40     1.15      O          T
   4      6     1.50     1.50      C          F
   5      6     1.50     1.50      C          F
   6      8     1.40     1.50      OH         F
   7      1     0.90     1.50      OH         F
   8      6     1.50     1.50      CH         F
   9      1     1.20     1.50      CH         F
  10      6     1.50     1.50      CH         F
  11      1     1.20     1.50      CH         F
  12      6     1.50     1.50      CH         F
  13      1     1.20     1.50      CH         F
  14      6     1.50     1.50      CH         F
  15      1     1.20     1.50      CH         F
 ------------------------------------------------------------------------------
 Polarizable Continuum Model (PCM)
 =================================
 Model                : PCM.
 Atomic radii         : MST.
 Polarization charges : Total charges.
 Charge compensation  : None.
 Solution method      : On-the-fly selection.
 Cavity type          : Scaled VdW (van der Waals Surface) (Alpha=1.500).
 Cavity algorithm     : GePol (No added spheres)
                        Default sphere list used, NSphG=   15.
                        Lebedev-Laikov grids with approx.  5.0 points / Ang**2.
                        Smoothing algorithm: York/Karplus (Gamma=1.0000).
                        Polarization charges: spherical gaussians, with
                                              point-specific exponents (IZeta= 3).
                        Self-potential: point-specific (ISelfS= 7).
                        Self-field    : sphere-specific E.n sum rule (ISelfD= 2).
 1st derivatives      : Analytical E(r).r(x)/FMM algorithm (CHGder, D1EAlg=3).
                        Cavity 1st derivative terms included.
 Solvent              : n-Octanol, Eps=   9.862900 Eps(inf)=   2.043470
 ------------------------------------------------------------------------------
 Spheres list:
 ISph  on   Nord     Re0    Alpha      Xe            Ye            Ze
    1   O      1    1.4000  1.150      2.389181     -1.281125      0.303026
    2   C      2    1.5000  1.150      1.759762     -0.229270      0.008690
    3   O      3    1.4000  1.150      2.430560      0.710061     -0.213266
    4   C      4    1.5000  1.500      0.265733     -0.223577      0.015071
    5   C      5    1.5000  1.500     -0.493017      0.944050     -0.007288
    6   O      6    1.4000  1.500      0.022586      2.239131     -0.003479
    7   H      7    0.9000  1.500     -0.776370      2.796886     -0.026297
    8   C      8    1.5000  1.500     -1.897986      0.803222      0.127190
    9   H      9    1.2000  1.500     -2.548592      1.666123      0.246534
   10   C     10    1.5000  1.500     -2.554917     -0.397440      0.033980
   11   H     11    1.2000  1.500     -3.627998     -0.493094      0.178093
   12   C     12    1.5000  1.500     -1.731648     -1.526366     -0.082677
   13   H     13    1.2000  1.500     -2.192452     -2.507187     -0.158169
   14   C     14    1.5000  1.500     -0.335851     -1.457505     -0.183382
   15   H     15    1.2000  1.500      0.334339     -2.285949     -0.399923
 ------------------------------------------------------------------------------
 GePol: Number of generator spheres                  =      15
 GePol: Total number of spheres                      =      15
 GePol: Number of exposed spheres                    =      15 (100.00%)
 GePol: Number of points                             =    1600
 GePol: Average weight of points                     =       0.12
 GePol: Minimum weight of points                     =   0.18D-11
 GePol: Maximum weight of points                     =    0.20790
 GePol: Number of points with low weight             =      99
 GePol: Fraction of low-weight points (<1% of avg)   =       6.19%
 GePol: Cavity surface area                          =    186.366 Ang**2
 GePol: Cavity volume                                =    189.043 Ang**3
 Surface areas from nonelectrostatic (unscaled) cavity and vdw tensions:
 Sphere =    1 Type =  O   Surf =       15.812 Tension =       -0.185
 Sphere =    2 Type =  C   Surf =        6.860 Tension =       -0.205
 Sphere =    3 Type =  O   Surf =       16.051 Tension =       -0.185
 Sphere =    4 Type =  C   Surf =        6.284 Tension =       -0.205
 Sphere =    5 Type =  C   Surf =        6.905 Tension =       -0.205
 Sphere =    6 Type =  OH  Surf =       14.634 Tension =       -0.238
 Sphere =    7 Type =  OH  Surf =        4.301 Tension =       -0.238
 Sphere =    8 Type =  CH  Surf =        7.559 Tension =       -0.195
 Sphere =    9 Type =  CH  Surf =       10.148 Tension =       -0.195
 Sphere =   10 Type =  CH  Surf =        7.850 Tension =       -0.195
 Sphere =   11 Type =  CH  Surf =       10.262 Tension =       -0.195
 Sphere =   12 Type =  CH  Surf =        7.743 Tension =       -0.195
 Sphere =   13 Type =  CH  Surf =       10.211 Tension =       -0.195
 Sphere =   14 Type =  CH  Surf =        7.640 Tension =       -0.195
 Sphere =   15 Type =  CH  Surf =        9.515 Tension =       -0.195
 PCM non-electrostatic energy =        -0.0088762885 Hartrees.
 Nuclear repulsion after PCM non-electrostatic terms =      488.0803796212 Hartrees.
 Leave Link  301 at Mon Jul 12 12:46:00 2021, MaxMem=   104857600 cpu:               0.1 elap:               0.1
 (Enter /dades/curu/g16A03_MST/g16/l302.exe)
 NPDir=0 NMtPBC=     1 NCelOv=     1 NCel=       1 NClECP=     1 NCelD=      1
         NCelK=      1 NCelE2=     1 NClLst=     1 CellRange=     0.0.
 One-electron integrals computed using PRISM.
 One-electron integral symmetry used in STVInt
 NBasis=   160 RedAO= T EigKep=  6.39D-04  NBF=   160
 NBsUse=   160 1.00D-06 EigRej= -1.00D+00 NBFU=   160
 Precomputing XC quadrature grid using
 IXCGrd= 4 IRadAn=           5 IRanWt=          -1 IRanGd=           0 AccXCQ= 0.00D+00.
 Generated NRdTot=       0 NPtTot=           0 NUsed=           0 NTot=          32
 NSgBfM=   160   160   160   160   160 MxSgAt=    15 MxSgA2=    15.
 Leave Link  302 at Mon Jul 12 12:46:00 2021, MaxMem=   104857600 cpu:               0.8 elap:               0.2
 (Enter /dades/curu/g16A03_MST/g16/l303.exe)
 DipDrv:  MaxL=1.
 Leave Link  303 at Mon Jul 12 12:46:00 2021, MaxMem=   104857600 cpu:               0.1 elap:               0.0
 (Enter /dades/curu/g16A03_MST/g16/l401.exe)
 ExpMin= 1.61D-01 ExpMax= 5.48D+03 ExpMxC= 8.25D+02 IAcc=3 IRadAn=         5 AccDes= 0.00D+00
 Harris functional with IExCor=  402 and IRadAn=       5 diagonalized for initial guess.
 HarFok:  IExCor=  402 AccDes= 0.00D+00 IRadAn=         5 IDoV= 1 UseB2=F ITyADJ=14
 ICtDFT=  3500011 ScaDFX=  1.000000  1.000000  1.000000  1.000000
 FoFCou: FMM=F IPFlag=           0 FMFlag=      100000 FMFlg1=           0
         NFxFlg=           0 DoJE=T BraDBF=F KetDBF=T FulRan=T
         wScrn=  0.000000 ICntrl=       500 IOpCl=  0 I1Cent=   200000004 NGrid=           0
         NMat0=    1 NMatS0=      1 NMatT0=    0 NMatD0=    1 NMtDS0=    0 NMtDT0=    0
 Petite list used in FoFCou.
 Harris En= -495.671678117579    
 JPrj=0 DoOrth=F DoCkMO=F.
 Leave Link  401 at Mon Jul 12 12:46:02 2021, MaxMem=   104857600 cpu:               7.3 elap:               1.8
 (Enter /dades/curu/g16A03_MST/g16/l502.exe)
 Keep R1 ints in memory in canonical form, NReq=86904867.
 FoFCou: FMM=F IPFlag=           0 FMFlag=           0 FMFlg1=           0
         NFxFlg=           0 DoJE=F BraDBF=F KetDBF=F FulRan=T
         wScrn=  0.000000 ICntrl=       600 IOpCl=  0 I1Cent=           0 NGrid=           0
         NMat0=    1 NMatS0=  12880 NMatT0=    0 NMatD0=    1 NMtDS0=    0 NMtDT0=    0
 Symmetry not used in FoFCou.
 Two-electron integral symmetry not used.
 Closed shell SCF:
 Using DIIS extrapolation, IDIIS=  1040.
 NGot=   104857600 LenX=    21850023 LenY=    21823982
 Requested convergence on RMS density matrix=1.00D-08 within 128 cycles.
 Requested convergence on MAX density matrix=1.00D-06.
 Requested convergence on             energy=1.00D-06.
 No special actions if energy rises.

 Cycle   1  Pass 1  IDiag  1:
 Inv3:  Mode=1 IEnd=     7680000.
 Iteration    1 A*A^-1 deviation from unit magnitude is 4.44D-15 for   1596.
 Iteration    1 A*A^-1 deviation from orthogonality  is 1.78D-15 for    235     34.
 Iteration    1 A^-1*A deviation from unit magnitude is 4.44D-15 for   1596.
 Iteration    1 A^-1*A deviation from orthogonality  is 1.83D-15 for   1096    765.
 E= -495.219362995344    
 DIIS: error= 5.14D-02 at cycle   1 NSaved=   1.
 NSaved= 1 IEnMin= 1 EnMin= -495.219362995344     IErMin= 1 ErrMin= 5.14D-02
 ErrMax= 5.14D-02  0.00D+00 EMaxC= 1.00D-01 BMatC= 3.68D-01 BMatP= 3.68D-01
 IDIUse=3 WtCom= 4.86D-01 WtEn= 5.14D-01
 Coeff-Com:  0.100D+01
 Coeff-En:   0.100D+01
 Coeff:      0.100D+01
 Gap=     0.217 Goal=   None    Shift=    0.000
 GapD=    0.217 DampG=1.000 DampE=0.500 DampFc=0.5000 IDamp=-1.
 Damping current iteration by 5.00D-01
 RMSDP=1.02D-02 MaxDP=2.36D-01              OVMax= 2.15D-01

 Cycle   2  Pass 1  IDiag  1:
 E= -495.348921469379     Delta-E=       -0.129558474034 Rises=F Damp=T
 DIIS: error= 9.78D-03 at cycle   2 NSaved=   2.
 NSaved= 2 IEnMin= 2 EnMin= -495.348921469379     IErMin= 2 ErrMin= 9.78D-03
 ErrMax= 9.78D-03  0.00D+00 EMaxC= 1.00D-01 BMatC= 2.40D-02 BMatP= 3.68D-01
 IDIUse=3 WtCom= 9.02D-01 WtEn= 9.78D-02
 Coeff-Com:  0.117D+00 0.883D+00
 Coeff-En:   0.171D+00 0.829D+00
 Coeff:      0.122D+00 0.878D+00
 Gap=     0.175 Goal=   None    Shift=    0.000
 RMSDP=2.34D-03 MaxDP=6.25D-02 DE=-1.30D-01 OVMax= 1.51D-01

 Cycle   3  Pass 1  IDiag  1:
 E= -495.517277879794     Delta-E=       -0.168356410415 Rises=F Damp=F
 DIIS: error= 9.83D-03 at cycle   3 NSaved=   3.
 NSaved= 3 IEnMin= 3 EnMin= -495.517277879794     IErMin= 2 ErrMin= 9.78D-03
 ErrMax= 9.83D-03  0.00D+00 EMaxC= 1.00D-01 BMatC= 1.58D-02 BMatP= 2.40D-02
 IDIUse=3 WtCom= 9.02D-01 WtEn= 9.83D-02
 Coeff-Com:  0.194D-01 0.443D+00 0.538D+00
 Coeff-En:   0.000D+00 0.000D+00 0.100D+01
 Coeff:      0.175D-01 0.400D+00 0.583D+00
 Gap=     0.161 Goal=   None    Shift=    0.000
 RMSDP=1.24D-03 MaxDP=3.06D-02 DE=-1.68D-01 OVMax= 4.26D-02

 Cycle   4  Pass 1  IDiag  1:
 E= -495.529128451878     Delta-E=       -0.011850572085 Rises=F Damp=F
 DIIS: error= 3.37D-03 at cycle   4 NSaved=   4.
 NSaved= 4 IEnMin= 4 EnMin= -495.529128451878     IErMin= 4 ErrMin= 3.37D-03
 ErrMax= 3.37D-03  0.00D+00 EMaxC= 1.00D-01 BMatC= 3.25D-03 BMatP= 1.58D-02
 IDIUse=3 WtCom= 9.66D-01 WtEn= 3.37D-02
 Coeff-Com:  0.202D-02 0.824D-01 0.325D+00 0.591D+00
 Coeff-En:   0.000D+00 0.000D+00 0.181D+00 0.819D+00
 Coeff:      0.195D-02 0.797D-01 0.320D+00 0.598D+00
 Gap=     0.164 Goal=   None    Shift=    0.000
 RMSDP=4.83D-04 MaxDP=1.25D-02 DE=-1.19D-02 OVMax= 2.08D-02

 Cycle   5  Pass 1  IDiag  1:
 E= -495.531883709068     Delta-E=       -0.002755257190 Rises=F Damp=F
 DIIS: error= 1.48D-03 at cycle   5 NSaved=   5.
 NSaved= 5 IEnMin= 5 EnMin= -495.531883709068     IErMin= 5 ErrMin= 1.48D-03
 ErrMax= 1.48D-03  0.00D+00 EMaxC= 1.00D-01 BMatC= 3.90D-04 BMatP= 3.25D-03
 IDIUse=3 WtCom= 9.85D-01 WtEn= 1.48D-02
 Coeff-Com:  0.292D-03 0.105D-01 0.148D+00 0.370D+00 0.471D+00
 Coeff-En:   0.000D+00 0.000D+00 0.000D+00 0.272D-01 0.973D+00
 Coeff:      0.288D-03 0.103D-01 0.146D+00 0.365D+00 0.478D+00
 Gap=     0.164 Goal=   None    Shift=    0.000
 RMSDP=1.40D-04 MaxDP=4.22D-03 DE=-2.76D-03 OVMax= 7.08D-03

 Cycle   6  Pass 1  IDiag  1:
 E= -495.532196356329     Delta-E=       -0.000312647260 Rises=F Damp=F
 DIIS: error= 3.27D-04 at cycle   6 NSaved=   6.
 NSaved= 6 IEnMin= 6 EnMin= -495.532196356329     IErMin= 6 ErrMin= 3.27D-04
 ErrMax= 3.27D-04  0.00D+00 EMaxC= 1.00D-01 BMatC= 1.79D-05 BMatP= 3.90D-04
 IDIUse=3 WtCom= 9.97D-01 WtEn= 3.27D-03
 Coeff-Com:  0.651D-04-0.424D-03 0.514D-01 0.143D+00 0.248D+00 0.558D+00
 Coeff-En:   0.000D+00 0.000D+00 0.000D+00 0.000D+00 0.000D+00 0.100D+01
 Coeff:      0.649D-04-0.423D-03 0.512D-01 0.142D+00 0.247D+00 0.559D+00
 Gap=     0.164 Goal=   None    Shift=    0.000
 RMSDP=3.65D-05 MaxDP=9.53D-04 DE=-3.13D-04 OVMax= 1.77D-03

 Cycle   7  Pass 1  IDiag  1:
 E= -495.532208361093     Delta-E=       -0.000012004764 Rises=F Damp=F
 DIIS: error= 1.04D-04 at cycle   7 NSaved=   7.
 NSaved= 7 IEnMin= 7 EnMin= -495.532208361093     IErMin= 7 ErrMin= 1.04D-04
 ErrMax= 1.04D-04  0.00D+00 EMaxC= 1.00D-01 BMatC= 2.42D-06 BMatP= 1.79D-05
 IDIUse=3 WtCom= 9.99D-01 WtEn= 1.04D-03
 Coeff-Com:  0.692D-04-0.122D-02 0.182D-01 0.541D-01 0.107D+00 0.332D+00
 Coeff-Com:  0.490D+00
 Coeff-En:   0.000D+00 0.000D+00 0.000D+00 0.000D+00 0.000D+00 0.803D-01
 Coeff-En:   0.920D+00
 Coeff:      0.691D-04-0.122D-02 0.182D-01 0.540D-01 0.107D+00 0.332D+00
 Coeff:      0.490D+00
 Gap=     0.164 Goal=   None    Shift=    0.000
 RMSDP=1.10D-05 MaxDP=3.12D-04 DE=-1.20D-05 OVMax= 5.66D-04

 Cycle   8  Pass 1  IDiag  1:
 E= -495.532210473166     Delta-E=       -0.000002112074 Rises=F Damp=F
 DIIS: error= 1.60D-05 at cycle   8 NSaved=   8.
 NSaved= 8 IEnMin= 8 EnMin= -495.532210473166     IErMin= 8 ErrMin= 1.60D-05
 ErrMax= 1.60D-05  0.00D+00 EMaxC= 1.00D-01 BMatC= 9.43D-08 BMatP= 2.42D-06
 IDIUse=1 WtCom= 1.00D+00 WtEn= 0.00D+00
 Coeff-Com:  0.402D-04-0.534D-03 0.386D-02 0.123D-01 0.267D-01 0.101D+00
 Coeff-Com:  0.226D+00 0.631D+00
 Coeff:      0.402D-04-0.534D-03 0.386D-02 0.123D-01 0.267D-01 0.101D+00
 Coeff:      0.226D+00 0.631D+00
 Gap=     0.164 Goal=   None    Shift=    0.000
 RMSDP=3.13D-06 MaxDP=5.77D-05 DE=-2.11D-06 OVMax= 1.31D-04

 Cycle   9  Pass 1  IDiag  1:
 E= -495.532210556780     Delta-E=       -0.000000083613 Rises=F Damp=F
 DIIS: error= 6.19D-06 at cycle   9 NSaved=   9.
 NSaved= 9 IEnMin= 9 EnMin= -495.532210556780     IErMin= 9 ErrMin= 6.19D-06
 ErrMax= 6.19D-06  0.00D+00 EMaxC= 1.00D-01 BMatC= 1.34D-08 BMatP= 9.43D-08
 IDIUse=1 WtCom= 1.00D+00 WtEn= 0.00D+00
 Coeff-Com:  0.163D-04-0.122D-03-0.532D-03-0.116D-02-0.132D-02 0.489D-02
 Coeff-Com:  0.513D-01 0.323D+00 0.624D+00
 Coeff:      0.163D-04-0.122D-03-0.532D-03-0.116D-02-0.132D-02 0.489D-02
 Coeff:      0.513D-01 0.323D+00 0.624D+00
 Gap=     0.164 Goal=   None    Shift=    0.000
 RMSDP=8.85D-07 MaxDP=2.07D-05 DE=-8.36D-08 OVMax= 4.86D-05

 Cycle  10  Pass 1  IDiag  1:
 E= -495.532210569567     Delta-E=       -0.000000012788 Rises=F Damp=F
 DIIS: error= 1.54D-06 at cycle  10 NSaved=  10.
 NSaved=10 IEnMin=10 EnMin= -495.532210569567     IErMin=10 ErrMin= 1.54D-06
 ErrMax= 1.54D-06  0.00D+00 EMaxC= 1.00D-01 BMatC= 1.03D-09 BMatP= 1.34D-08
 IDIUse=1 WtCom= 1.00D+00 WtEn= 0.00D+00
 Coeff-Com:  0.594D-05-0.317D-04-0.426D-03-0.111D-02-0.198D-02-0.278D-02
 Coeff-Com:  0.135D-01 0.120D+00 0.299D+00 0.574D+00
 Coeff:      0.594D-05-0.317D-04-0.426D-03-0.111D-02-0.198D-02-0.278D-02
 Coeff:      0.135D-01 0.120D+00 0.299D+00 0.574D+00
 Gap=     0.164 Goal=   None    Shift=    0.000
 RMSDP=2.75D-07 MaxDP=7.68D-06 DE=-1.28D-08 OVMax= 1.66D-05

 Cycle  11  Pass 1  IDiag  1:
 E= -495.532210570549     Delta-E=       -0.000000000982 Rises=F Damp=F
 DIIS: error= 6.92D-07 at cycle  11 NSaved=  11.
 NSaved=11 IEnMin=11 EnMin= -495.532210570549     IErMin=11 ErrMin= 6.92D-07
 ErrMax= 6.92D-07  0.00D+00 EMaxC= 1.00D-01 BMatC= 1.35D-10 BMatP= 1.03D-09
 IDIUse=1 WtCom= 1.00D+00 WtEn= 0.00D+00
 Coeff-Com:  0.106D-06 0.507D-05-0.145D-03-0.416D-03-0.897D-03-0.222D-02
 Coeff-Com: -0.493D-03 0.123D-01 0.519D-01 0.287D+00 0.653D+00
 Coeff:      0.106D-06 0.507D-05-0.145D-03-0.416D-03-0.897D-03-0.222D-02
 Coeff:     -0.493D-03 0.123D-01 0.519D-01 0.287D+00 0.653D+00
 Gap=     0.164 Goal=   None    Shift=    0.000
 RMSDP=1.03D-07 MaxDP=1.81D-06 DE=-9.82D-10 OVMax= 5.14D-06

 Cycle  12  Pass 1  IDiag  1:
 E= -495.532210570677     Delta-E=       -0.000000000128 Rises=F Damp=F
 DIIS: error= 1.85D-07 at cycle  12 NSaved=  12.
 NSaved=12 IEnMin=12 EnMin= -495.532210570677     IErMin=12 ErrMin= 1.85D-07
 ErrMax= 1.85D-07  0.00D+00 EMaxC= 1.00D-01 BMatC= 1.21D-11 BMatP= 1.35D-10
 IDIUse=1 WtCom= 1.00D+00 WtEn= 0.00D+00
 Coeff-Com: -0.469D-06 0.457D-05-0.404D-04-0.121D-03-0.302D-03-0.890D-03
 Coeff-Com: -0.116D-02-0.279D-02 0.953D-03 0.103D+00 0.327D+00 0.574D+00
 Coeff:     -0.469D-06 0.457D-05-0.404D-04-0.121D-03-0.302D-03-0.890D-03
 Coeff:     -0.116D-02-0.279D-02 0.953D-03 0.103D+00 0.327D+00 0.574D+00
 Gap=     0.164 Goal=   None    Shift=    0.000
 RMSDP=3.13D-08 MaxDP=7.52D-07 DE=-1.28D-10 OVMax= 1.55D-06

 Cycle  13  Pass 1  IDiag  1:
 E= -495.532210570689     Delta-E=       -0.000000000012 Rises=F Damp=F
 DIIS: error= 7.14D-08 at cycle  13 NSaved=  13.
 NSaved=13 IEnMin=13 EnMin= -495.532210570689     IErMin=13 ErrMin= 7.14D-08
 ErrMax= 7.14D-08  0.00D+00 EMaxC= 1.00D-01 BMatC= 1.50D-12 BMatP= 1.21D-11
 IDIUse=1 WtCom= 1.00D+00 WtEn= 0.00D+00
 Coeff-Com: -0.267D-06 0.121D-05 0.723D-05 0.191D-04 0.150D-04-0.290D-04
 Coeff-Com: -0.456D-03-0.362D-02-0.100D-01-0.712D-03 0.433D-01 0.286D+00
 Coeff-Com:  0.685D+00
 Coeff:     -0.267D-06 0.121D-05 0.723D-05 0.191D-04 0.150D-04-0.290D-04
 Coeff:     -0.456D-03-0.362D-02-0.100D-01-0.712D-03 0.433D-01 0.286D+00
 Coeff:      0.685D+00
 Gap=     0.164 Goal=   None    Shift=    0.000
 RMSDP=1.10D-08 MaxDP=2.62D-07 DE=-1.17D-11 OVMax= 7.37D-07

 Cycle  14  Pass 1  IDiag  1:
 E= -495.532210570689     Delta-E=       -0.000000000001 Rises=F Damp=F
 DIIS: error= 1.10D-08 at cycle  14 NSaved=  14.
 NSaved=14 IEnMin=14 EnMin= -495.532210570689     IErMin=14 ErrMin= 1.10D-08
 ErrMax= 1.10D-08  0.00D+00 EMaxC= 1.00D-01 BMatC= 4.03D-14 BMatP= 1.50D-12
 IDIUse=1 WtCom= 1.00D+00 WtEn= 0.00D+00
 Coeff-Com: -0.428D-07 0.140D-06 0.388D-05 0.108D-04 0.185D-04 0.290D-04
 Coeff-Com: -0.727D-04-0.888D-03-0.290D-02-0.604D-02-0.727D-02 0.446D-01
 Coeff-Com:  0.187D+00 0.785D+00
 Coeff:     -0.428D-07 0.140D-06 0.388D-05 0.108D-04 0.185D-04 0.290D-04
 Coeff:     -0.727D-04-0.888D-03-0.290D-02-0.604D-02-0.727D-02 0.446D-01
 Coeff:      0.187D+00 0.785D+00
 Gap=     0.164 Goal=   None    Shift=    0.000
 RMSDP=3.03D-09 MaxDP=4.87D-08 DE=-7.39D-13 OVMax= 2.07D-07

 Error on total polarization charges =  0.00620
 SCF Done:  E(RB3LYP) =  -495.532210571     A.U. after   14 cycles
            NFock= 14  Conv=0.30D-08     -V/T= 2.0079
 KE= 4.916519908775D+02 PE=-2.148724146954D+03 EE= 6.734595658848D+02
 Leave Link  502 at Mon Jul 12 12:46:46 2021, MaxMem=   104857600 cpu:             166.6 elap:              44.2
 (Enter /dades/curu/g16A03_MST/g16/l601.exe)
 Copying SCF densities to generalized density rwf, IOpCl= 0 IROHF=0.

 **********************************************************************

            Population analysis using the SCF density.

 **********************************************************************

 Orbital symmetries:
       Occupied  (A) (A) (A) (A) (A) (A) (A) (A) (A) (A) (A) (A)
                 (A) (A) (A) (A) (A) (A) (A) (A) (A) (A) (A) (A)
                 (A) (A) (A) (A) (A) (A) (A) (A) (A) (A) (A) (A)
       Virtual   (A) (A) (A) (A) (A) (A) (A) (A) (A) (A) (A) (A)
                 (A) (A) (A) (A) (A) (A) (A) (A) (A) (A) (A) (A)
                 (A) (A) (A) (A) (A) (A) (A) (A) (A) (A) (A) (A)
                 (A) (A) (A) (A) (A) (A) (A) (A) (A) (A) (A) (A)
                 (A) (A) (A) (A) (A) (A) (A) (A) (A) (A) (A) (A)
                 (A) (A) (A) (A) (A) (A) (A) (A) (A) (A) (A) (A)
                 (A) (A) (A) (A) (A) (A) (A) (A) (A) (A) (A) (A)
                 (A) (A) (A) (A) (A) (A) (A) (A) (A) (A) (A) (A)
                 (A) (A) (A) (A) (A) (A) (A) (A) (A) (A) (A) (A)
                 (A) (A) (A) (A) (A) (A) (A) (A) (A) (A) (A) (A)
                 (A) (A) (A) (A)
 The electronic state is 1-A.
 Alpha  occ. eigenvalues --  -19.16013 -19.03188 -19.01761 -10.23602 -10.21463
 Alpha  occ. eigenvalues --  -10.17739 -10.17318 -10.16871 -10.16698 -10.16224
 Alpha  occ. eigenvalues --   -1.03350  -1.00850  -0.87625  -0.83371  -0.74021
 Alpha  occ. eigenvalues --   -0.71372  -0.60035  -0.59545  -0.52212  -0.50075
 Alpha  occ. eigenvalues --   -0.45567  -0.44310  -0.40791  -0.40144  -0.39401
 Alpha  occ. eigenvalues --   -0.37343  -0.35837  -0.35067  -0.33688  -0.32985
 Alpha  occ. eigenvalues --   -0.31453  -0.23593  -0.20927  -0.20356  -0.19377
 Alpha  occ. eigenvalues --   -0.15941
 Alpha virt. eigenvalues --    0.00466   0.02333   0.09763   0.11425   0.13020
 Alpha virt. eigenvalues --    0.16776   0.18244   0.20743   0.21528   0.24228
 Alpha virt. eigenvalues --    0.30446   0.33232   0.34858   0.35456   0.35956
 Alpha virt. eigenvalues --    0.44115   0.45448   0.52445   0.52696   0.54049
 Alpha virt. eigenvalues --    0.57769   0.58667   0.60152   0.60678   0.61672
 Alpha virt. eigenvalues --    0.62631   0.63952   0.65690   0.66343   0.67838
 Alpha virt. eigenvalues --    0.70803   0.73153   0.74781   0.77352   0.78874
 Alpha virt. eigenvalues --    0.80688   0.84108   0.85609   0.86391   0.88557
 Alpha virt. eigenvalues --    0.91319   0.92621   0.94364   0.96465   0.97629
 Alpha virt. eigenvalues --    0.99703   1.03066   1.04951   1.05517   1.06490
 Alpha virt. eigenvalues --    1.09840   1.11297   1.13486   1.14538   1.18105
 Alpha virt. eigenvalues --    1.21817   1.26529   1.31181   1.35482   1.37673
 Alpha virt. eigenvalues --    1.38829   1.41965   1.46950   1.48248   1.51785
 Alpha virt. eigenvalues --    1.52767   1.54098   1.57377   1.71952   1.72916
 Alpha virt. eigenvalues --    1.75425   1.77860   1.79298   1.82264   1.84092
 Alpha virt. eigenvalues --    1.88009   1.90680   1.93109   1.93382   1.95059
 Alpha virt. eigenvalues --    1.96466   1.98418   2.01229   2.04293   2.08627
 Alpha virt. eigenvalues --    2.11154   2.16666   2.18434   2.21047   2.24166
 Alpha virt. eigenvalues --    2.25844   2.29868   2.32590   2.33477   2.41414
 Alpha virt. eigenvalues --    2.46566   2.47603   2.54241   2.59622   2.63175
 Alpha virt. eigenvalues --    2.64215   2.69508   2.69841   2.73199   2.77049
 Alpha virt. eigenvalues --    2.81582   2.83481   2.90006   2.96632   2.99928
 Alpha virt. eigenvalues --    3.06645   3.21222   3.30149   3.44907   3.89898
 Alpha virt. eigenvalues --    4.00931   4.11146   4.14558   4.18721   4.31599
 Alpha virt. eigenvalues --    4.42247   4.45716   4.58128   4.76523
          Condensed to atoms (all electrons):
               1          2          3          4          5          6
     1  O    8.481731   0.531810  -0.184573  -0.149497   0.004080   0.000008
     2  C    0.531810   4.359107   0.594256   0.173584  -0.033893  -0.002200
     3  O   -0.184573   0.594256   8.309610  -0.133690   0.003610  -0.002220
     4  C   -0.149497   0.173584  -0.133690   5.387890   0.415635  -0.046809
     5  C    0.004080  -0.033893   0.003610   0.415635   4.786400   0.273314
     6  O    0.000008  -0.002200  -0.002220  -0.046809   0.273314   8.251538
     7  H    0.000003   0.000086   0.000339   0.005689  -0.035436   0.239485
     8  C   -0.000102   0.006045   0.000447  -0.010349   0.425693  -0.063494
     9  H    0.000001  -0.000058   0.000007   0.004695  -0.045928  -0.006377
    10  C    0.000012  -0.000039  -0.000023  -0.050659  -0.002710   0.005122
    11  H    0.000000   0.000006  -0.000000  -0.000110   0.004181  -0.000041
    12  C    0.000587   0.005372  -0.000107  -0.015354  -0.052557  -0.000083
    13  H   -0.000006  -0.000123   0.000001   0.005646   0.000767   0.000002
    14  C   -0.000714  -0.022865   0.003926   0.459050  -0.053696   0.003783
    15  H    0.028518  -0.005638   0.000828  -0.058715   0.007030  -0.000041
               7          8          9         10         11         12
     1  O    0.000003  -0.000102   0.000001   0.000012   0.000000   0.000587
     2  C    0.000086   0.006045  -0.000058  -0.000039   0.000006   0.005372
     3  O    0.000339   0.000447   0.000007  -0.000023  -0.000000  -0.000107
     4  C    0.005689  -0.010349   0.004695  -0.050659  -0.000110  -0.015354
     5  C   -0.035436   0.425693  -0.045928  -0.002710   0.004181  -0.052557
     6  O    0.239485  -0.063494  -0.006377   0.005122  -0.000041  -0.000083
     7  H    0.356521  -0.000278   0.010001   0.000665  -0.000031  -0.000005
     8  C   -0.000278   5.176828   0.343010   0.475511  -0.039987  -0.018551
     9  H    0.010001   0.343010   0.611495  -0.040634  -0.006690   0.005885
    10  C    0.000665   0.475511  -0.040634   4.906917   0.363008   0.524195
    11  H   -0.000031  -0.039987  -0.006690   0.363008   0.582101  -0.041499
    12  C   -0.000005  -0.018551   0.005885   0.524195  -0.041499   4.985638
    13  H   -0.000001   0.007125  -0.000269  -0.050355  -0.005734   0.351174
    14  C   -0.000165  -0.064520   0.001000  -0.015708   0.004048   0.471391
    15  H    0.000005  -0.000386   0.000016   0.004693  -0.000103  -0.038231
              13         14         15
     1  O   -0.000006  -0.000714   0.028518
     2  C   -0.000123  -0.022865  -0.005638
     3  O    0.000001   0.003926   0.000828
     4  C    0.005646   0.459050  -0.058715
     5  C    0.000767  -0.053696   0.007030
     6  O    0.000002   0.003783  -0.000041
     7  H   -0.000001  -0.000165   0.000005
     8  C    0.007125  -0.064520  -0.000386
     9  H   -0.000269   0.001000   0.000016
    10  C   -0.050355  -0.015708   0.004693
    11  H   -0.005734   0.004048  -0.000103
    12  C    0.351174   0.471391  -0.038231
    13  H    0.628760  -0.043718  -0.005556
    14  C   -0.043718   5.077676   0.343455
    15  H   -0.005556   0.343455   0.581247
 Mulliken charges:
               1
     1  O   -0.711858
     2  C    0.394551
     3  O   -0.592411
     4  C    0.012993
     5  C    0.303512
     6  O   -0.651987
     7  H    0.423123
     8  C   -0.236989
     9  H    0.123845
    10  C   -0.119996
    11  H    0.140850
    12  C   -0.177854
    13  H    0.112287
    14  C   -0.162941
    15  H    0.142875
 Sum of Mulliken charges =  -1.00000
 Mulliken charges with hydrogens summed into heavy atoms:
               1
     1  O   -0.711858
     2  C    0.394551
     3  O   -0.592411
     4  C    0.012993
     5  C    0.303512
     6  O   -0.228865
     8  C   -0.113144
    10  C    0.020854
    12  C   -0.065567
    14  C   -0.020067
 Electronic spatial extent (au):  <R**2>=           1355.2415
 Charge=             -1.0000 electrons
 Dipole moment (field-independent basis, Debye):
    X=            -13.6804    Y=              2.3019    Z=             -0.4246  Tot=             13.8792
 Quadrupole moment (field-independent basis, Debye-Ang):
   XX=            -85.6020   YY=            -59.6865   ZZ=            -59.4605
   XY=             -0.7110   XZ=             -1.4218   YZ=              2.7188
 Traceless Quadrupole moment (field-independent basis, Debye-Ang):
   XX=            -17.3523   YY=              8.5632   ZZ=              8.7892
   XY=             -0.7110   XZ=             -1.4218   YZ=              2.7188
 Octapole moment (field-independent basis, Debye-Ang**2):
  XXX=            -87.0023  YYY=             27.9100  ZZZ=              0.0195  XYY=            -29.8439
  XXY=             17.5008  XXZ=              0.1034  XZZ=              7.7931  YZZ=              4.6255
  YYZ=             -3.0765  XYZ=              5.2123
 Hexadecapole moment (field-independent basis, Debye-Ang**3):
 XXXX=          -1240.9618 YYYY=           -516.0091 ZZZZ=            -63.4583 XXXY=             23.8263
 XXXZ=            -12.1134 YYYX=            -24.6171 YYYZ=              5.2957 ZZZX=             -0.1968
 ZZZY=             -1.2781 XXYY=           -305.7320 XXZZ=           -201.3947 YYZZ=           -111.5057
 XXYZ=             12.6712 YYXZ=             -4.1491 ZZXY=             -2.5904
 N-N= 4.880803796212D+02 E-N=-2.148724146569D+03  KE= 4.916519908775D+02
 No NMR shielding tensors so no spin-rotation constants.
 Leave Link  601 at Mon Jul 12 12:46:46 2021, MaxMem=   104857600 cpu:               0.3 elap:               0.1
 (Enter /dades/curu/g16A03_MST/g16/l701.exe)
 ... and contract with generalized density number  0.
 Compute integral first derivatives.
 D1PCM: PCM CHGder 1st derivatives, ID1Alg=3 FixD1E=F DoIter=F DoCFld=F I1PDM=0.
 GePol: Maximum number of non-zero 1st derivatives   =     240
 Leave Link  701 at Mon Jul 12 12:46:47 2021, MaxMem=   104857600 cpu:               4.7 elap:               1.2
 (Enter /dades/curu/g16A03_MST/g16/l702.exe)
 L702 exits ... SP integral derivatives will be done elsewhere.
 Leave Link  702 at Mon Jul 12 12:46:47 2021, MaxMem=   104857600 cpu:               0.1 elap:               0.0
 (Enter /dades/curu/g16A03_MST/g16/l703.exe)
 Integral derivatives from FoFJK, PRISM(SPDF).
 Compute integral first derivatives, UseDBF=F ICtDFT=           0.
 Calling FoFJK, ICntrl=      2127 FMM=F ISym2X=0 I1Cent= 0 IOpClX= 0 NMat=1 NMatS=1 NMatT=0.
 FoFJK:  IHMeth= 1 ICntrl=    2127 DoSepK=F KAlg= 0 I1Cent=           0 FoldK=F
 IRaf=         0 NMat=       1 IRICut=       1 DoRegI=T DoRafI=F ISym2E= 0 IDoP0=0 IntGTp=1.
 FoFCou: FMM=F IPFlag=           0 FMFlag=      100000 FMFlg1=         800
         NFxFlg=           0 DoJE=F BraDBF=F KetDBF=F FulRan=T
         wScrn=  0.000000 ICntrl=      2127 IOpCl=  0 I1Cent=           0 NGrid=           0
         NMat0=    1 NMatS0=      1 NMatT0=    0 NMatD0=    1 NMtDS0=    0 NMtDT0=    0
 Symmetry not used in FoFCou.
 Leave Link  703 at Mon Jul 12 12:46:54 2021, MaxMem=   104857600 cpu:              24.3 elap:               6.1
 (Enter /dades/curu/g16A03_MST/g16/l716.exe)
 Dipole        =-5.38228585D+00 9.05634709D-01-1.67067961D-01
 ***** Axes restored to original set *****
 -------------------------------------------------------------------
 Center     Atomic                   Forces (Hartrees/Bohr)
 Number     Number              X              Y              Z
 -------------------------------------------------------------------
      1        8          -0.003877376    0.042297828   -0.052943032
      2        6          -0.003720509    0.036311880   -0.085374257
      3        8           0.014708589   -0.096329157    0.137324848
      4        6           0.026899983   -0.014590314    0.012481404
      5        6          -0.031513084    0.008461525    0.010100058
      6        8           0.001439009    0.015534492   -0.015033133
      7        1           0.002104096   -0.006590852   -0.000036567
      8        6          -0.001547444   -0.003619630    0.024830343
      9        1           0.001637524   -0.008971383    0.005556542
     10        6           0.007639656   -0.012403987   -0.029514435
     11        1           0.003108610   -0.001560919    0.002329047
     12        6           0.017614872    0.021045381   -0.016124079
     13        1           0.000481777    0.002756080    0.000481890
     14        6          -0.025182891    0.014901814    0.009524684
     15        1          -0.009792813    0.002757241   -0.003603311
 -------------------------------------------------------------------
 Cartesian Forces:  Max     0.137324848 RMS     0.032758325
 Leave Link  716 at Mon Jul 12 12:46:54 2021, MaxMem=   104857600 cpu:               0.1 elap:               0.0
 (Enter /dades/curu/g16A03_MST/g16/l103.exe)

 GradGradGradGradGradGradGradGradGradGradGradGradGradGradGradGradGradGrad
 Berny optimization.
 FormGI is forming the generalized inverse of G from B-inverse, IUseBI=4.
 Internal  Forces:  Max     0.160250659 RMS     0.024915121
 Search for a local minimum.
 Step number   1 out of a maximum of   77
 All quantities printed in internal units (Hartrees-Bohrs-Radians)
 RMS Force = .24915D-01 SwitMx=.10000D-02 MixMth= 1
 Mixed Optimization -- RFO/linear search
 Second derivative matrix not updated -- first step.
 ITU=  0
     Eigenvalues ---    0.00845   0.00856   0.01772   0.01848   0.02005
     Eigenvalues ---    0.02042   0.02072   0.02153   0.02160   0.02199
     Eigenvalues ---    0.02288   0.02324   0.15811   0.15968   0.15975
     Eigenvalues ---    0.16000   0.16000   0.21926   0.22046   0.24013
     Eigenvalues ---    0.24582   0.24821   0.25000   0.25000   0.33009
     Eigenvalues ---    0.35119   0.35131   0.35170   0.35244   0.40277
     Eigenvalues ---    0.42753   0.44425   0.46025   0.46638   0.46882
     Eigenvalues ---    0.49816   0.52438   0.79428   1.18220
 RFO step:  Lambda=-6.79628212D-02 EMin= 8.44612131D-03
 Linear search not attempted -- first point.
 Maximum step size (   0.300) exceeded in Quadratic search.
    -- Step size scaled by   0.774
 Iteration  1 RMS(Cart)=  0.04890365 RMS(Int)=  0.00232799
 Iteration  2 RMS(Cart)=  0.00252233 RMS(Int)=  0.00019605
 Iteration  3 RMS(Cart)=  0.00000671 RMS(Int)=  0.00019597
 Iteration  4 RMS(Cart)=  0.00000000 RMS(Int)=  0.00019597
 ITry= 1 IFail=0 DXMaxC= 2.52D-01 DCOld= 1.00D+10 DXMaxT= 3.00D-01 DXLimC= 3.00D+00 Rises=F
 Variable       Old X    -DE/DX   Delta X   Delta X   Delta X     New X
                                 (Linear)    (Quad)   (Total)
    R1        2.38226   0.04433   0.00000   0.03977   0.03977   2.42203
    R2        2.22119   0.16025   0.00000   0.09916   0.09916   2.32035
    R3        2.82335   0.01831   0.00000   0.03558   0.03558   2.85893
    R4        2.63178   0.00776   0.00000   0.01184   0.01182   2.64360
    R5        2.62112   0.02090   0.00000   0.02979   0.02973   2.65085
    R6        2.63418  -0.01706   0.00000  -0.02470  -0.02470   2.60948
    R7        2.68038  -0.01118   0.00000  -0.01702  -0.01700   2.66338
    R8        1.84182  -0.00390   0.00000  -0.00510  -0.00510   1.83672
    R9        2.05462   0.00258   0.00000   0.00476   0.00476   2.05938
   R10        2.59233   0.02097   0.00000   0.02808   0.02813   2.62046
   R11        2.05400  -0.00280   0.00000  -0.00515  -0.00515   2.04885
   R12        2.64956  -0.00154   0.00000  -0.00296  -0.00293   2.64663
   R13        2.05281   0.00190   0.00000   0.00350   0.00350   2.05632
   R14        2.64773  -0.01000   0.00000  -0.01527  -0.01529   2.63244
   R15        2.05482  -0.00443   0.00000  -0.00817  -0.00817   2.04665
    A1        2.01081   0.07890   0.00000   0.19254   0.19209   2.20290
    A2        2.09608  -0.04277   0.00000  -0.10346  -0.10392   1.99216
    A3        2.17541  -0.03598   0.00000  -0.08694  -0.08740   2.08801
    A4        2.15069   0.00258   0.00000   0.00648   0.00646   2.15714
    A5        2.01497   0.00968   0.00000   0.02388   0.02384   2.03881
    A6        2.10280  -0.01161   0.00000  -0.02460  -0.02510   2.07770
    A7        2.18631  -0.01585   0.00000  -0.03957  -0.03956   2.14674
    A8        2.04305   0.00785   0.00000   0.02264   0.02237   2.06542
    A9        2.04696   0.00828   0.00000   0.01935   0.01940   2.06636
   A10        1.80123   0.01040   0.00000   0.03529   0.03529   1.83652
   A11        2.12273  -0.00534   0.00000  -0.02252  -0.02250   2.10023
   A12        2.15893  -0.01056   0.00000  -0.02664  -0.02673   2.13220
   A13        1.99933   0.01596   0.00000   0.04984   0.04987   2.04919
   A14        2.14218  -0.00945   0.00000  -0.02528  -0.02539   2.11679
   A15        2.01439   0.01675   0.00000   0.04500   0.04479   2.05918
   A16        2.11749  -0.00681   0.00000  -0.01617  -0.01622   2.10127
   A17        2.07567   0.00736   0.00000   0.01953   0.01959   2.09526
   A18        2.15478  -0.01717   0.00000  -0.04677  -0.04696   2.10782
   A19        2.05101   0.00988   0.00000   0.02802   0.02807   2.07907
   A20        2.05501   0.01640   0.00000   0.04486   0.04465   2.09966
   A21        2.02523  -0.00260   0.00000  -0.00342  -0.00332   2.02191
   A22        2.20293  -0.01380   0.00000  -0.04143  -0.04132   2.16161
    D1        2.88776   0.00285   0.00000   0.02667   0.02641   2.91417
    D2       -0.43701   0.00568   0.00000   0.05962   0.05988  -0.37714
    D3       -0.20657  -0.00333   0.00000  -0.03577  -0.03603  -0.24260
    D4        2.75185  -0.00050   0.00000  -0.00283  -0.00256   2.74929
    D5       -0.03033   0.00161   0.00000   0.00981   0.00949  -0.02083
    D6       -3.04229  -0.00174   0.00000  -0.01476  -0.01466  -3.05694
    D7       -2.97989  -0.00358   0.00000  -0.02980  -0.02969  -3.00958
    D8        0.29134  -0.00693   0.00000  -0.05436  -0.05384   0.23750
    D9        3.05648   0.00223   0.00000   0.01930   0.01954   3.07602
   D10       -0.08028   0.00202   0.00000   0.01667   0.01673  -0.06355
   D11       -0.26286   0.00650   0.00000   0.05461   0.05470  -0.20816
   D12        2.88357   0.00629   0.00000   0.05198   0.05189   2.93545
   D13        3.13850  -0.00110   0.00000  -0.00731  -0.00707   3.13143
   D14       -0.13299   0.00223   0.00000   0.01752   0.01728  -0.11571
   D15        3.00388   0.00177   0.00000   0.02032   0.02061   3.02449
   D16       -0.21287   0.00345   0.00000   0.03389   0.03413  -0.17874
   D17       -0.01868   0.00055   0.00000   0.00233   0.00212  -0.01656
   D18        3.04776   0.00223   0.00000   0.01590   0.01565   3.06340
   D19        3.09874   0.00127   0.00000   0.00758   0.00723   3.10598
   D20        0.10032  -0.00219   0.00000  -0.01921  -0.01942   0.08089
   D21       -0.11320   0.00209   0.00000   0.01770   0.01766  -0.09554
   D22       -3.11163  -0.00136   0.00000  -0.00910  -0.00899  -3.12062
   D23        3.13931   0.00098   0.00000   0.00621   0.00614  -3.13774
   D24       -0.06710   0.00276   0.00000   0.02202   0.02183  -0.04527
   D25        0.13867  -0.00215   0.00000  -0.01925  -0.01939   0.11928
   D26       -3.06774  -0.00037   0.00000  -0.00344  -0.00370  -3.07144
   D27        0.14895  -0.00413   0.00000  -0.03804  -0.03813   0.11082
   D28       -2.99803  -0.00385   0.00000  -0.03496  -0.03494  -3.03297
   D29       -3.05661  -0.00244   0.00000  -0.02268  -0.02284  -3.07945
   D30        0.07960  -0.00216   0.00000  -0.01960  -0.01965   0.05995
         Item               Value     Threshold  Converged?
 Maximum Force            0.160251     0.000450     NO 
 RMS     Force            0.024915     0.000300     NO 
 Maximum Displacement     0.252326     0.001800     NO 
 RMS     Displacement     0.049202     0.001200     NO 
 Predicted change in Energy=-3.608817D-02
 Lowest energy point so far.  Saving SCF results.
 GradGradGradGradGradGradGradGradGradGradGradGradGradGradGradGradGradGrad

 Leave Link  103 at Mon Jul 12 12:46:54 2021, MaxMem=   104857600 cpu:               0.1 elap:               0.0
 (Enter /dades/curu/g16A03_MST/g16/l202.exe)
                          Input orientation:                          
 ---------------------------------------------------------------------
 Center     Atomic      Atomic             Coordinates (Angstroms)
 Number     Number       Type             X           Y           Z
 ---------------------------------------------------------------------
      1          8           0        1.519665   -1.712172   -1.856051
      2          6           0        1.145181   -1.701472   -0.630345
      3          8           0        1.386502   -2.564062    0.209525
      4          6           0        0.351706   -0.475075   -0.236439
      5          6           0       -0.373471   -0.372201    0.955429
      6          8           0       -0.452437   -1.396186    1.878494
      7          1           0       -1.004107   -1.048249    2.599111
      8          6           0       -1.157485    0.780251    1.164205
      9          1           0       -1.819191    0.846789    2.027530
     10          6           0       -1.071766    1.890987    0.338482
     11          1           0       -1.705070    2.757382    0.492716
     12          6           0       -0.244619    1.809548   -0.788771
     13          1           0       -0.149643    2.662539   -1.457701
     14          6           0        0.509446    0.665128   -1.038198
     15          1           0        1.236291    0.583795   -1.836986
 ---------------------------------------------------------------------
                    Distance matrix (angstroms):
                    1          2          3          4          5
     1  O    0.000000
     2  C    1.281682   0.000000
     3  O    2.238316   1.227876   0.000000
     4  C    2.348974   1.512883   2.373511   0.000000
     5  C    3.644710   2.566700   2.908287   1.398934   0.000000
     6  O    4.235075   2.989959   2.744283   2.442956   1.380880
     7  H    5.163205   3.933895   3.704433   3.194855   1.885850
     8  C    4.743549   3.831662   4.309027   2.411495   1.409401
     9  H    5.725246   4.727096   5.021505   3.403774   2.173808
    10  C    4.951187   4.331195   5.089910   2.820471   2.447501
    11  H    5.991037   5.409859   6.160826   3.900099   3.432426
    12  C    4.080967   3.779405   4.773428   2.424907   2.796224
    13  H    4.699294   4.626627   5.697082   3.404035   3.883677
    14  C    2.709424   2.484210   3.571234   1.402769   2.414569
    15  H    2.313466   2.585871   3.757629   2.113160   3.361970
                    6          7          8          9         10
     6  O    0.000000
     7  H    0.971951   0.000000
     8  C    2.396702   2.329354   0.000000
     9  H    2.630811   2.140615   1.089776   0.000000
    10  C    3.682487   3.708656   1.386687   2.121763   0.000000
    11  H    4.554294   4.405800   2.158655   2.453374   1.084205
    12  C    4.175431   4.496840   2.388910   3.367156   1.400538
    13  H    5.262616   5.563972   3.381293   4.269798   2.161453
    14  C    3.698828   4.296105   2.764506   3.854120   2.428623
    15  H    4.536179   5.230861   3.843944   4.933520   3.430531
                   11         12         13         14         15
    11  H    0.000000
    12  C    2.161831   0.000000
    13  H    2.496492   1.088155   0.000000
    14  C    3.409590   1.393027   2.144769   0.000000
    15  H    4.336311   2.189593   2.527024   1.083043   0.000000
 Stoichiometry    C7H5O3(1-)
 Framework group  C1[X(C7H5O3)]
 Deg. of freedom    39
 Full point group                 C1      NOp   1
 RotChk:  IX=0 Diff= 4.59D-02
 Largest Abelian subgroup         C1      NOp   1
 Largest concise Abelian subgroup C1      NOp   1
                         Standard orientation:                         
 ---------------------------------------------------------------------
 Center     Atomic      Atomic             Coordinates (Angstroms)
 Number     Number       Type             X           Y           Z
 ---------------------------------------------------------------------
      1          8           0        2.283264   -1.418009    0.293175
      2          6           0        1.789604   -0.267115    0.020318
      3          8           0        2.424153    0.750426   -0.243575
      4          6           0        0.277254   -0.226987    0.019184
      5          6           0       -0.465618    0.958368    0.009639
      6          8           0        0.116118    2.210643    0.024427
      7          1           0       -0.626521    2.837331    0.003477
      8          6           0       -1.868318    0.869714    0.114443
      9          1           0       -2.470451    1.771866    0.220130
     10          6           0       -2.540994   -0.338948    0.016741
     11          1           0       -3.617588   -0.395014    0.132071
     12          6           0       -1.778321   -1.508412   -0.093662
     13          1           0       -2.271553   -2.474868   -0.175931
     14          6           0       -0.388069   -1.449092   -0.158485
     15          1           0        0.244609   -2.308964   -0.341025
 ---------------------------------------------------------------------
 Rotational constants (GHZ):           2.2879091           1.2440357           0.8139375
 Leave Link  202 at Mon Jul 12 12:46:54 2021, MaxMem=   104857600 cpu:               0.0 elap:               0.0
 (Enter /dades/curu/g16A03_MST/g16/l301.exe)
 Standard basis: 6-31G(d) (6D, 7F)
 Ernie: Thresh=  0.10000D-02 Tol=  0.10000D-05 Strict=F.
 There are   160 symmetry adapted cartesian basis functions of A   symmetry.
 There are   160 symmetry adapted basis functions of A   symmetry.
   160 basis functions,   300 primitive gaussians,   160 cartesian basis functions
    36 alpha electrons       36 beta electrons
       nuclear repulsion energy       486.1500766543 Hartrees.
 IExCor=  402 DFT=T Ex+Corr=B3LYP ExCW=0 ScaHFX=  0.200000
 ScaDFX=  0.800000  0.720000  1.000000  0.810000 ScalE2=  1.000000  1.000000
 IRadAn=      5 IRanWt=     -1 IRanGd=            0 ICorTp=0 IEmpDi=  4
 NAtoms=   15 NActive=   15 NUniq=   15 SFac= 1.00D+00 NAtFMM=   60 NAOKFM=F Big=F
 Integral buffers will be    131072 words long.
 Raffenetti 2 integral format.
 Two-electron integral symmetry is turned on.
 ------------------------------------------------------------------------------
 Polarizable Continuum Model (PCM)
 =================================
 Model                : PCM.
 Atomic radii         : MST.
 Polarization charges : Total charges.
 Charge compensation  : None.
 Solution method      : On-the-fly selection.
 Cavity type          : Scaled VdW (van der Waals Surface) (Alpha=1.500).
 Cavity algorithm     : GePol (No added spheres)
                        Default sphere list used, NSphG=   15.
                        Lebedev-Laikov grids with approx.  5.0 points / Ang**2.
                        Smoothing algorithm: York/Karplus (Gamma=1.0000).
                        Polarization charges: spherical gaussians, with
                                              point-specific exponents (IZeta= 3).
                        Self-potential: point-specific (ISelfS= 7).
                        Self-field    : sphere-specific E.n sum rule (ISelfD= 2).
 1st derivatives      : Analytical E(r).r(x)/FMM algorithm (CHGder, D1EAlg=3).
                        Cavity 1st derivative terms included.
 Solvent              : n-Octanol, Eps=   9.862900 Eps(inf)=   2.043470
 ------------------------------------------------------------------------------
 Spheres list:
 ISph  on   Nord     Re0    Alpha      Xe            Ye            Ze
    1   O      1    1.4000  1.150      2.283264     -1.418009      0.293175
    2   C      2    1.5000  1.150      1.789604     -0.267115      0.020318
    3   O      3    1.4000  1.150      2.424153      0.750426     -0.243575
    4   C      4    1.5000  1.500      0.277254     -0.226987      0.019184
    5   C      5    1.5000  1.500     -0.465618      0.958368      0.009639
    6   O      6    1.4000  1.500      0.116118      2.210643      0.024427
    7   H      7    0.9000  1.500     -0.626521      2.837331      0.003477
    8   C      8    1.5000  1.500     -1.868318      0.869714      0.114443
    9   H      9    1.2000  1.500     -2.470451      1.771866      0.220130
   10   C     10    1.5000  1.500     -2.540994     -0.338948      0.016741
   11   H     11    1.2000  1.500     -3.617588     -0.395014      0.132071
   12   C     12    1.5000  1.500     -1.778321     -1.508412     -0.093662
   13   H     13    1.2000  1.500     -2.271553     -2.474868     -0.175931
   14   C     14    1.5000  1.500     -0.388069     -1.449092     -0.158485
   15   H     15    1.2000  1.500      0.244609     -2.308964     -0.341025
 ------------------------------------------------------------------------------
 GePol: Number of generator spheres                  =      15
 GePol: Total number of spheres                      =      15
 GePol: Number of exposed spheres                    =      15 (100.00%)
 GePol: Number of points                             =    1597
 GePol: Average weight of points                     =       0.12
 GePol: Minimum weight of points                     =   0.11D-09
 GePol: Maximum weight of points                     =    0.20790
 GePol: Number of points with low weight             =      98
 GePol: Fraction of low-weight points (<1% of avg)   =       6.14%
 GePol: Cavity surface area                          =    186.038 Ang**2
 GePol: Cavity volume                                =    189.175 Ang**3
 Surface areas from nonelectrostatic (unscaled) cavity and vdw tensions:
 Sphere =    1 Type =  O   Surf =       15.678 Tension =       -0.185
 Sphere =    2 Type =  C   Surf =        7.264 Tension =       -0.205
 Sphere =    3 Type =  O   Surf =       16.216 Tension =       -0.185
 Sphere =    4 Type =  C   Surf =        6.370 Tension =       -0.205
 Sphere =    5 Type =  C   Surf =        6.816 Tension =       -0.205
 Sphere =    6 Type =  OH  Surf =       14.300 Tension =       -0.238
 Sphere =    7 Type =  OH  Surf =        4.346 Tension =       -0.238
 Sphere =    8 Type =  CH  Surf =        7.656 Tension =       -0.195
 Sphere =    9 Type =  CH  Surf =       10.205 Tension =       -0.195
 Sphere =   10 Type =  CH  Surf =        7.839 Tension =       -0.195
 Sphere =   11 Type =  CH  Surf =       10.233 Tension =       -0.195
 Sphere =   12 Type =  CH  Surf =        7.804 Tension =       -0.195
 Sphere =   13 Type =  CH  Surf =       10.245 Tension =       -0.195
 Sphere =   14 Type =  CH  Surf =        7.571 Tension =       -0.195
 Sphere =   15 Type =  CH  Surf =        9.272 Tension =       -0.195
 PCM non-electrostatic energy =        -0.0088703687 Hartrees.
 Nuclear repulsion after PCM non-electrostatic terms =      486.1412062857 Hartrees.
 Leave Link  301 at Mon Jul 12 12:46:54 2021, MaxMem=   104857600 cpu:               0.1 elap:               0.1
 (Enter /dades/curu/g16A03_MST/g16/l302.exe)
 NPDir=0 NMtPBC=     1 NCelOv=     1 NCel=       1 NClECP=     1 NCelD=      1
         NCelK=      1 NCelE2=     1 NClLst=     1 CellRange=     0.0.
 One-electron integrals computed using PRISM.
 One-electron integral symmetry used in STVInt
 NBasis=   160 RedAO= T EigKep=  5.63D-04  NBF=   160
 NBsUse=   160 1.00D-06 EigRej= -1.00D+00 NBFU=   160
 Precomputing XC quadrature grid using
 IXCGrd= 4 IRadAn=           5 IRanWt=          -1 IRanGd=           0 AccXCQ= 0.00D+00.
 Generated NRdTot=       0 NPtTot=           0 NUsed=           0 NTot=          32
 NSgBfM=   160   160   160   160   160 MxSgAt=    15 MxSgA2=    15.
 Leave Link  302 at Mon Jul 12 12:46:54 2021, MaxMem=   104857600 cpu:               0.8 elap:               0.2
 (Enter /dades/curu/g16A03_MST/g16/l303.exe)
 DipDrv:  MaxL=1.
 Leave Link  303 at Mon Jul 12 12:46:54 2021, MaxMem=   104857600 cpu:               0.1 elap:               0.0
 (Enter /dades/curu/g16A03_MST/g16/l401.exe)
 Initial guess from the checkpoint file:  "SET_328_BBB299_conf1.geo_165_180.chk"
 B after Tr=     0.000000   -0.000000   -0.000000
         Rot=    0.999893   -0.002700    0.000289    0.014406 Ang=  -1.68 deg.
 Guess basis will be translated and rotated to current coordinates.
 JPrj=2 DoOrth=T DoCkMO=T.
 Generating alternative initial guess.
 ExpMin= 1.61D-01 ExpMax= 5.48D+03 ExpMxC= 8.25D+02 IAcc=2 IRadAn=         4 AccDes= 0.00D+00
 Harris functional with IExCor=  402 and IRadAn=       4 diagonalized for initial guess.
 HarFok:  IExCor=  402 AccDes= 0.00D+00 IRadAn=         4 IDoV= 1 UseB2=F ITyADJ=14
 ICtDFT=  3500011 ScaDFX=  1.000000  1.000000  1.000000  1.000000
 FoFCou: FMM=F IPFlag=           0 FMFlag=      100000 FMFlg1=           0
         NFxFlg=           0 DoJE=T BraDBF=F KetDBF=T FulRan=T
         wScrn=  0.000000 ICntrl=       500 IOpCl=  0 I1Cent=   200000004 NGrid=           0
         NMat0=    1 NMatS0=      1 NMatT0=    0 NMatD0=    1 NMtDS0=    0 NMtDT0=    0
 Petite list used in FoFCou.
 Harris En= -495.687082530195    
 Leave Link  401 at Mon Jul 12 12:46:55 2021, MaxMem=   104857600 cpu:               3.2 elap:               0.9
 (Enter /dades/curu/g16A03_MST/g16/l502.exe)
 Keep R1 ints in memory in canonical form, NReq=86904867.
 FoFCou: FMM=F IPFlag=           0 FMFlag=           0 FMFlg1=           0
         NFxFlg=           0 DoJE=F BraDBF=F KetDBF=F FulRan=T
         wScrn=  0.000000 ICntrl=       600 IOpCl=  0 I1Cent=           0 NGrid=           0
         NMat0=    1 NMatS0=  12880 NMatT0=    0 NMatD0=    1 NMtDS0=    0 NMtDT0=    0
 Symmetry not used in FoFCou.
 Two-electron integral symmetry not used.
 Closed shell SCF:
 Using DIIS extrapolation, IDIIS=  1040.
 NGot=   104857600 LenX=    21850023 LenY=    21823982
 Requested convergence on RMS density matrix=1.00D-08 within 128 cycles.
 Requested convergence on MAX density matrix=1.00D-06.
 Requested convergence on             energy=1.00D-06.
 No special actions if energy rises.

 Cycle   1  Pass 1  IDiag  1:
 Inv3:  Mode=1 IEnd=     7651227.
 Iteration    1 A*A^-1 deviation from unit magnitude is 4.22D-15 for   1592.
 Iteration    1 A*A^-1 deviation from orthogonality  is 2.30D-15 for   1593   1016.
 Iteration    1 A^-1*A deviation from unit magnitude is 4.22D-15 for   1592.
 Iteration    1 A^-1*A deviation from orthogonality  is 1.97D-15 for   1594   1559.
 E= -495.549007778250    
 DIIS: error= 4.16D-03 at cycle   1 NSaved=   1.
 NSaved= 1 IEnMin= 1 EnMin= -495.549007778250     IErMin= 1 ErrMin= 4.16D-03
 ErrMax= 4.16D-03  0.00D+00 EMaxC= 1.00D-01 BMatC= 8.45D-03 BMatP= 8.45D-03
 IDIUse=3 WtCom= 9.58D-01 WtEn= 4.16D-02
 Coeff-Com:  0.100D+01
 Coeff-En:   0.100D+01
 Coeff:      0.100D+01
 Gap=     1.843 Goal=   None    Shift=    0.000
 GapD=    1.843 DampG=2.000 DampE=1.000 DampFc=2.0000 IDamp=-1.
 RMSDP=1.48D-03 MaxDP=2.15D-02              OVMax= 3.55D-02

 Cycle   2  Pass 1  IDiag  1:
 E= -495.561295251963     Delta-E=       -0.012287473712 Rises=F Damp=F
 DIIS: error= 1.73D-03 at cycle   2 NSaved=   2.
 NSaved= 2 IEnMin= 2 EnMin= -495.561295251963     IErMin= 2 ErrMin= 1.73D-03
 ErrMax= 1.73D-03  0.00D+00 EMaxC= 1.00D-01 BMatC= 5.48D-04 BMatP= 8.45D-03
 IDIUse=3 WtCom= 9.83D-01 WtEn= 1.73D-02
 Coeff-Com:  0.511D-01 0.949D+00
 Coeff-En:   0.000D+00 0.100D+01
 Coeff:      0.502D-01 0.950D+00
 Gap=     0.189 Goal=   None    Shift=    0.000
 RMSDP=3.24D-04 MaxDP=7.43D-03 DE=-1.23D-02 OVMax= 1.30D-02

 Cycle   3  Pass 1  IDiag  1:
 E= -495.560828646283     Delta-E=        0.000466605679 Rises=F Damp=F
 DIIS: error= 2.48D-03 at cycle   3 NSaved=   3.
 NSaved= 3 IEnMin= 2 EnMin= -495.561295251963     IErMin= 2 ErrMin= 1.73D-03
 ErrMax= 2.48D-03  0.00D+00 EMaxC= 1.00D-01 BMatC= 1.13D-03 BMatP= 5.48D-04
 IDIUse=3 WtCom= 1.67D-01 WtEn= 8.33D-01
 Coeff-Com: -0.275D-01 0.608D+00 0.419D+00
 Coeff-En:   0.000D+00 0.642D+00 0.358D+00
 Coeff:     -0.460D-02 0.637D+00 0.368D+00
 Gap=     0.190 Goal=   None    Shift=    0.000
 RMSDP=2.04D-04 MaxDP=5.78D-03 DE= 4.67D-04 OVMax= 8.93D-03

 Cycle   4  Pass 1  IDiag  1:
 E= -495.561803580396     Delta-E=       -0.000974934113 Rises=F Damp=F
 DIIS: error= 2.32D-04 at cycle   4 NSaved=   4.
 NSaved= 4 IEnMin= 4 EnMin= -495.561803580396     IErMin= 4 ErrMin= 2.32D-04
 ErrMax= 2.32D-04  0.00D+00 EMaxC= 1.00D-01 BMatC= 1.85D-05 BMatP= 5.48D-04
 IDIUse=3 WtCom= 9.98D-01 WtEn= 2.32D-03
 Coeff-Com: -0.165D-01 0.238D+00 0.157D+00 0.622D+00
 Coeff-En:   0.000D+00 0.000D+00 0.000D+00 0.100D+01
 Coeff:     -0.164D-01 0.237D+00 0.157D+00 0.623D+00
 Gap=     0.189 Goal=   None    Shift=    0.000
 RMSDP=3.87D-05 MaxDP=8.90D-04 DE=-9.75D-04 OVMax= 1.36D-03

 Cycle   5  Pass 1  IDiag  1:
 E= -495.561816253832     Delta-E=       -0.000012673436 Rises=F Damp=F
 DIIS: error= 1.51D-04 at cycle   5 NSaved=   5.
 NSaved= 5 IEnMin= 5 EnMin= -495.561816253832     IErMin= 5 ErrMin= 1.51D-04
 ErrMax= 1.51D-04  0.00D+00 EMaxC= 1.00D-01 BMatC= 4.53D-06 BMatP= 1.85D-05
 IDIUse=3 WtCom= 9.98D-01 WtEn= 1.51D-03
 Coeff-Com: -0.681D-02 0.754D-01 0.519D-01 0.350D+00 0.530D+00
 Coeff-En:   0.000D+00 0.000D+00 0.000D+00 0.147D+00 0.853D+00
 Coeff:     -0.680D-02 0.753D-01 0.518D-01 0.350D+00 0.530D+00
 Gap=     0.189 Goal=   None    Shift=    0.000
 RMSDP=1.61D-05 MaxDP=4.71D-04 DE=-1.27D-05 OVMax= 6.93D-04

 Cycle   6  Pass 1  IDiag  1:
 E= -495.561819576867     Delta-E=       -0.000003323035 Rises=F Damp=F
 DIIS: error= 6.22D-05 at cycle   6 NSaved=   6.
 NSaved= 6 IEnMin= 6 EnMin= -495.561819576867     IErMin= 6 ErrMin= 6.22D-05
 ErrMax= 6.22D-05  0.00D+00 EMaxC= 1.00D-01 BMatC= 6.31D-07 BMatP= 4.53D-06
 IDIUse=1 WtCom= 1.00D+00 WtEn= 0.00D+00
 Coeff-Com: -0.165D-02 0.121D-01 0.105D-01 0.125D+00 0.316D+00 0.538D+00
 Coeff:     -0.165D-02 0.121D-01 0.105D-01 0.125D+00 0.316D+00 0.538D+00
 Gap=     0.189 Goal=   None    Shift=    0.000
 RMSDP=5.94D-06 MaxDP=2.02D-04 DE=-3.32D-06 OVMax= 2.68D-04

 Cycle   7  Pass 1  IDiag  1:
 E= -495.561820044532     Delta-E=       -0.000000467666 Rises=F Damp=F
 DIIS: error= 9.65D-06 at cycle   7 NSaved=   7.
 NSaved= 7 IEnMin= 7 EnMin= -495.561820044532     IErMin= 7 ErrMin= 9.65D-06
 ErrMax= 9.65D-06  0.00D+00 EMaxC= 1.00D-01 BMatC= 3.78D-08 BMatP= 6.31D-07
 IDIUse=1 WtCom= 1.00D+00 WtEn= 0.00D+00
 Coeff-Com: -0.195D-03-0.170D-02-0.604D-04 0.269D-01 0.104D+00 0.267D+00
 Coeff-Com:  0.604D+00
 Coeff:     -0.195D-03-0.170D-02-0.604D-04 0.269D-01 0.104D+00 0.267D+00
 Coeff:      0.604D+00
 Gap=     0.189 Goal=   None    Shift=    0.000
 RMSDP=1.60D-06 MaxDP=3.93D-05 DE=-4.68D-07 OVMax= 6.76D-05

 Cycle   8  Pass 1  IDiag  1:
 E= -495.561820075401     Delta-E=       -0.000000030869 Rises=F Damp=F
 DIIS: error= 3.54D-06 at cycle   8 NSaved=   8.
 NSaved= 8 IEnMin= 8 EnMin= -495.561820075401     IErMin= 8 ErrMin= 3.54D-06
 ErrMax= 3.54D-06  0.00D+00 EMaxC= 1.00D-01 BMatC= 4.88D-09 BMatP= 3.78D-08
 IDIUse=1 WtCom= 1.00D+00 WtEn= 0.00D+00
 Coeff-Com:  0.894D-04-0.247D-02-0.142D-02 0.417D-03 0.201D-01 0.852D-01
 Coeff-Com:  0.325D+00 0.573D+00
 Coeff:      0.894D-04-0.247D-02-0.142D-02 0.417D-03 0.201D-01 0.852D-01
 Coeff:      0.325D+00 0.573D+00
 Gap=     0.189 Goal=   None    Shift=    0.000
 RMSDP=5.38D-07 MaxDP=1.35D-05 DE=-3.09D-08 OVMax= 2.55D-05

 Cycle   9  Pass 1  IDiag  1:
 E= -495.561820080433     Delta-E=       -0.000000005032 Rises=F Damp=F
 DIIS: error= 5.82D-07 at cycle   9 NSaved=   9.
 NSaved= 9 IEnMin= 9 EnMin= -495.561820080433     IErMin= 9 ErrMin= 5.82D-07
 ErrMax= 5.82D-07  0.00D+00 EMaxC= 1.00D-01 BMatC= 1.68D-10 BMatP= 4.88D-09
 IDIUse=1 WtCom= 1.00D+00 WtEn= 0.00D+00
 Coeff-Com:  0.389D-04-0.703D-03-0.479D-03-0.108D-02 0.143D-02 0.167D-01
 Coeff-Com:  0.820D-01 0.221D+00 0.681D+00
 Coeff:      0.389D-04-0.703D-03-0.479D-03-0.108D-02 0.143D-02 0.167D-01
 Coeff:      0.820D-01 0.221D+00 0.681D+00
 Gap=     0.189 Goal=   None    Shift=    0.000
 RMSDP=1.43D-07 MaxDP=3.19D-06 DE=-5.03D-09 OVMax= 6.82D-06

 Cycle  10  Pass 1  IDiag  1:
 E= -495.561820080590     Delta-E=       -0.000000000157 Rises=F Damp=F
 DIIS: error= 3.28D-07 at cycle  10 NSaved=  10.
 NSaved=10 IEnMin=10 EnMin= -495.561820080590     IErMin=10 ErrMin= 3.28D-07
 ErrMax= 3.28D-07  0.00D+00 EMaxC= 1.00D-01 BMatC= 4.08D-11 BMatP= 1.68D-10
 IDIUse=1 WtCom= 1.00D+00 WtEn= 0.00D+00
 Coeff-Com:  0.944D-05-0.332D-04-0.614D-04-0.667D-03-0.210D-02-0.286D-02
 Coeff-Com: -0.226D-02 0.392D-01 0.370D+00 0.598D+00
 Coeff:      0.944D-05-0.332D-04-0.614D-04-0.667D-03-0.210D-02-0.286D-02
 Coeff:     -0.226D-02 0.392D-01 0.370D+00 0.598D+00
 Gap=     0.189 Goal=   None    Shift=    0.000
 RMSDP=5.20D-08 MaxDP=1.30D-06 DE=-1.57D-10 OVMax= 2.65D-06

 Cycle  11  Pass 1  IDiag  1:
 E= -495.561820080633     Delta-E=       -0.000000000043 Rises=F Damp=F
 DIIS: error= 7.94D-08 at cycle  11 NSaved=  11.
 NSaved=11 IEnMin=11 EnMin= -495.561820080633     IErMin=11 ErrMin= 7.94D-08
 ErrMax= 7.94D-08  0.00D+00 EMaxC= 1.00D-01 BMatC= 2.52D-12 BMatP= 4.08D-11
 IDIUse=1 WtCom= 1.00D+00 WtEn= 0.00D+00
 Coeff-Com:  0.564D-06 0.481D-04 0.193D-04-0.225D-03-0.111D-02-0.294D-02
 Coeff-Com: -0.881D-02-0.286D-02 0.102D+00 0.259D+00 0.655D+00
[...]

 Cycle  10  Pass 1  IDiag  1:
 RMSU=  2.34D-06    CP:  1.00D+00
 E= -492.674598287734     Delta-E=       -0.000000015573 Rises=F Damp=F
 DIIS: error= 2.77D-06 at cycle   2 NSaved=   2.
 NSaved= 2 IEnMin= 2 EnMin= -492.674598287734     IErMin= 2 ErrMin= 2.77D-06
 ErrMax= 2.77D-06  0.00D+00 EMaxC= 1.00D-01 BMatC= 2.69D-09 BMatP= 7.10D-09
 IDIUse=1 WtCom= 1.00D+00 WtEn= 0.00D+00
 Coeff-Com:  0.291D+00 0.709D+00
 Coeff:      0.291D+00 0.709D+00
 Gap=     0.292 Goal=   None    Shift=    0.000
 RMSDP=7.14D-07 MaxDP=2.40D-05 DE=-1.56D-08 OVMax= 3.02D-05

 Cycle  11  Pass 1  IDiag  1:
 RMSU=  6.57D-07    CP:  1.00D+00  1.12D+00
 E= -492.674598293034     Delta-E=       -0.000000005300 Rises=F Damp=F
 DIIS: error= 1.92D-06 at cycle   3 NSaved=   3.
 NSaved= 3 IEnMin= 3 EnMin= -492.674598293034     IErMin= 3 ErrMin= 1.92D-06
 ErrMax= 1.92D-06  0.00D+00 EMaxC= 1.00D-01 BMatC= 8.21D-10 BMatP= 2.69D-09
 IDIUse=1 WtCom= 1.00D+00 WtEn= 0.00D+00
 Coeff-Com: -0.439D+00-0.134D+00 0.157D+01
 Coeff:     -0.439D+00-0.134D+00 0.157D+01
 Gap=     0.292 Goal=   None    Shift=    0.000
 RMSDP=1.45D-06 MaxDP=3.67D-05 DE=-5.30D-09 OVMax= 5.24D-05

 Cycle  12  Pass 1  IDiag  1:
 RMSU=  4.53D-07    CP:  1.00D+00  1.64D+00  1.97D+00
 E= -492.674598297574     Delta-E=       -0.000000004540 Rises=F Damp=F
 DIIS: error= 7.00D-07 at cycle   4 NSaved=   4.
 NSaved= 4 IEnMin= 4 EnMin= -492.674598297574     IErMin= 4 ErrMin= 7.00D-07
 ErrMax= 7.00D-07  0.00D+00 EMaxC= 1.00D-01 BMatC= 1.07D-10 BMatP= 8.21D-10
 IDIUse=1 WtCom= 1.00D+00 WtEn= 0.00D+00
 Coeff-Com: -0.191D+00-0.139D+00 0.499D+00 0.832D+00
 Coeff:     -0.191D+00-0.139D+00 0.499D+00 0.832D+00
 Gap=     0.292 Goal=   None    Shift=    0.000
 RMSDP=4.37D-07 MaxDP=1.17D-05 DE=-4.54D-09 OVMax= 1.53D-05

 Cycle  13  Pass 1  IDiag  1:
 RMSU=  1.70D-07    CP:  1.00D+00  1.78D+00  2.21D+00  1.33D+00
 E= -492.674598297995     Delta-E=       -0.000000000421 Rises=F Damp=F
 DIIS: error= 2.74D-07 at cycle   5 NSaved=   5.
 NSaved= 5 IEnMin= 5 EnMin= -492.674598297995     IErMin= 5 ErrMin= 2.74D-07
 ErrMax= 2.74D-07  0.00D+00 EMaxC= 1.00D-01 BMatC= 1.41D-11 BMatP= 1.07D-10
 IDIUse=1 WtCom= 1.00D+00 WtEn= 0.00D+00
 Coeff-Com:  0.127D+00 0.733D-01-0.415D+00-0.269D+00 0.148D+01
 Coeff:      0.127D+00 0.733D-01-0.415D+00-0.269D+00 0.148D+01
 Gap=     0.292 Goal=   None    Shift=    0.000
 RMSDP=2.50D-07 MaxDP=7.26D-06 DE=-4.21D-10 OVMax= 8.18D-06

 Cycle  14  Pass 1  IDiag  1:
 RMSU=  6.26D-08    CP:  1.00D+00  1.82D+00  2.37D+00  1.70D+00  1.62D+00
 E= -492.674598298083     Delta-E=       -0.000000000087 Rises=F Damp=F
 DIIS: error= 7.31D-08 at cycle   6 NSaved=   6.
 NSaved= 6 IEnMin= 6 EnMin= -492.674598298083     IErMin= 6 ErrMin= 7.31D-08
 ErrMax= 7.31D-08  0.00D+00 EMaxC= 1.00D-01 BMatC= 2.35D-12 BMatP= 1.41D-11
 IDIUse=1 WtCom= 1.00D+00 WtEn= 0.00D+00
 Coeff-Com:  0.653D-01 0.422D-01-0.195D+00-0.205D+00 0.475D+00 0.818D+00
 Coeff:      0.653D-01 0.422D-01-0.195D+00-0.205D+00 0.475D+00 0.818D+00
 Gap=     0.292 Goal=   None    Shift=    0.000
 RMSDP=5.53D-08 MaxDP=1.29D-06 DE=-8.73D-11 OVMax= 1.60D-06

 Cycle  15  Pass 1  IDiag  1:
 RMSU=  2.58D-08    CP:  1.00D+00  1.83D+00  2.39D+00  1.77D+00  1.76D+00
                    CP:  1.07D+00
 E= -492.674598298119     Delta-E=       -0.000000000036 Rises=F Damp=F
 DIIS: error= 2.87D-08 at cycle   7 NSaved=   7.
 NSaved= 7 IEnMin= 7 EnMin= -492.674598298119     IErMin= 7 ErrMin= 2.87D-08
 ErrMax= 2.87D-08  0.00D+00 EMaxC= 1.00D-01 BMatC= 2.46D-13 BMatP= 2.35D-12
 IDIUse=1 WtCom= 1.00D+00 WtEn= 0.00D+00
 Coeff-Com: -0.281D-01-0.169D-01 0.918D-01 0.583D-01-0.274D+00-0.135D+00
 Coeff-Com:  0.130D+01
 Coeff:     -0.281D-01-0.169D-01 0.918D-01 0.583D-01-0.274D+00-0.135D+00
 Coeff:      0.130D+01
 Gap=     0.292 Goal=   None    Shift=    0.000
 RMSDP=2.37D-08 MaxDP=8.92D-07 DE=-3.60D-11 OVMax= 6.42D-07

 Cycle  16  Pass 1  IDiag  1:
 RMSU=  1.15D-08    CP:  1.00D+00  1.84D+00  2.39D+00  1.77D+00  1.80D+00
                    CP:  1.18D+00  1.43D+00
 E= -492.674598298106     Delta-E=        0.000000000013 Rises=F Damp=F
 DIIS: error= 9.29D-09 at cycle   8 NSaved=   8.
 NSaved= 8 IEnMin= 7 EnMin= -492.674598298119     IErMin= 8 ErrMin= 9.29D-09
 ErrMax= 9.29D-09  0.00D+00 EMaxC= 1.00D-01 BMatC= 3.51D-14 BMatP= 2.46D-13
 IDIUse=1 WtCom= 1.00D+00 WtEn= 0.00D+00
 Coeff-Com: -0.119D-01-0.800D-02 0.370D-01 0.309D-01-0.847D-01-0.132D+00
 Coeff-Com:  0.122D+00 0.105D+01
 Coeff:     -0.119D-01-0.800D-02 0.370D-01 0.309D-01-0.847D-01-0.132D+00
 Coeff:      0.122D+00 0.105D+01
 Gap=     0.292 Goal=   None    Shift=    0.000
 RMSDP=7.88D-09 MaxDP=2.51D-07 DE= 1.30D-11 OVMax= 1.77D-07

 SCF Done:  E(RHF) =  -492.674598298     A.U. after   16 cycles
            NFock= 16  Conv=0.79D-08     -V/T= 2.0013
 KE= 4.920593808653D+02 PE=-2.138624476471D+03 EE= 6.695435776244D+02
 Leave Link  502 at Mon Jul 12 13:05:07 2021, MaxMem=   262144000 cpu:             523.6 elap:             132.2
 (Enter /dades/curu/g16A03_MST/g16/l801.exe)
 ExpMin= 2.97D-02 ExpMax= 1.17D+04 ExpMxC= 4.01D+02 IAcc=3 IRadAn=         5 AccDes= 0.00D+00
 HarFok:  IExCor=  205 AccDes= 0.00D+00 IRadAn=         5 IDoV=-2 UseB2=F ITyADJ=14
 ICtDFT= 12500011 ScaDFX=  1.000000  1.000000  1.000000  1.000000
 Largest valence mixing into a core orbital is  1.18D-04
 Largest core mixing into a valence orbital is  4.25D-05
 Range of M.O.s used for correlation:    11   275
 NBasis=   275 NAE=    36 NBE=    36 NFC=    10 NFV=     0
 NROrb=    265 NOA=    26 NOB=    26 NVA=   239 NVB=   239

 **** Warning!!: The largest alpha MO coefficient is  0.11351506D+03

 Leave Link  801 at Mon Jul 12 13:05:07 2021, MaxMem=   262144000 cpu:               0.8 elap:               0.2
 (Enter /dades/curu/g16A03_MST/g16/l906.exe)
 FulOut=F Deriv=F AODrv=F NAtomX=    15
   MMem=          33  MDisk=          26 MDiskD=          26
  W3Min=     1833130 MinDsk=     2275006 NBas6D=         295
 NBas2D=       44080    NTT=       43660    LW2=     2000000
    MDV=   261550115 MDiskM=       12219 NBas2p=       43197
 Fully direct method using O(OVN) memory.
 IMap=   1   2   3   4   5   6   7   8   9  10  11  12  13  14  15  16  17  18  19  20
 IMap=  21  22  23  24  25  26
 JobTyp=1 Pass  1:  I=   1 to  26 NPSUse=  4 ParTrn=T ParDer=T DoDerP=F.
 Spin components of T(2) and E(2):
     alpha-alpha T2 =       0.7614636786D-01 E2=     -0.2131291790D+00
     alpha-beta  T2 =       0.3762528320D+00 E2=     -0.1115445972D+01
     beta-beta   T2 =       0.7614636786D-01 E2=     -0.2131291790D+00
 The integrals were generated   1 times.
 ANorm=    0.1236343629D+01
 E2 =    -0.1541704330D+01 EUMP2 =    -0.49421630262839D+03
 Leave Link  906 at Mon Jul 12 13:05:56 2021, MaxMem=   262144000 cpu:             195.7 elap:              49.0
 (Enter /dades/curu/g16A03_MST/g16/l601.exe)
 Copying SCF densities to generalized density rwf, IOpCl= 0 IROHF=0.

 **********************************************************************

            Population analysis using the SCF density.

 **********************************************************************

 Orbital symmetries:
       Occupied  (A) (A) (A) (A) (A) (A) (A) (A) (A) (A) (A) (A)
                 (A) (A) (A) (A) (A) (A) (A) (A) (A) (A) (A) (A)
                 (A) (A) (A) (A) (A) (A) (A) (A) (A) (A) (A) (A)
       Virtual   (A) (A) (A) (A) (A) (A) (A) (A) (A) (A) (A) (A)
                 (A) (A) (A) (A) (A) (A) (A) (A) (A) (A) (A) (A)
                 (A) (A) (A) (A) (A) (A) (A) (A) (A) (A) (A) (A)
                 (A) (A) (A) (A) (A) (A) (A) (A) (A) (A) (A) (A)
                 (A) (A) (A) (A) (A) (A) (A) (A) (A) (A) (A) (A)
                 (A) (A) (A) (A) (A) (A) (A) (A) (A) (A) (A) (A)
                 (A) (A) (A) (A) (A) (A) (A) (A) (A) (A) (A) (A)
                 (A) (A) (A) (A) (A) (A) (A) (A) (A) (A) (A) (A)
                 (A) (A) (A) (A) (A) (A) (A) (A) (A) (A) (A) (A)
                 (A) (A) (A) (A) (A) (A) (A) (A) (A) (A) (A) (A)
                 (A) (A) (A) (A) (A) (A) (A) (A) (A) (A) (A) (A)
                 (A) (A) (A) (A) (A) (A) (A) (A) (A) (A) (A) (A)
                 (A) (A) (A) (A) (A) (A) (A) (A) (A) (A) (A) (A)
                 (A) (A) (A) (A) (A) (A) (A) (A) (A) (A) (A) (A)
                 (A) (A) (A) (A) (A) (A) (A) (A) (A) (A) (A) (A)
                 (A) (A) (A) (A) (A) (A) (A) (A) (A) (A) (A) (A)
                 (A) (A) (A) (A) (A) (A) (A) (A) (A) (A) (A) (A)
                 (A) (A) (A) (A) (A) (A) (A) (A) (A) (A) (A) (A)
                 (A) (A) (A) (A) (A) (A) (A) (A) (A) (A) (A) (A)
                 (A) (A) (A) (A) (A) (A) (A) (A) (A) (A) (A)
 The electronic state is 1-A.
 Alpha  occ. eigenvalues --  -20.47054 -20.30906 -20.30743 -11.18504 -11.16023
 Alpha  occ. eigenvalues --  -11.13199 -11.12060 -11.11270 -11.10994 -11.09820
 Alpha  occ. eigenvalues --   -1.27856  -1.17807  -1.07378  -1.02180  -0.89545
 Alpha  occ. eigenvalues --   -0.88007  -0.72034  -0.70685  -0.60585  -0.59088
 Alpha  occ. eigenvalues --   -0.53432  -0.51345  -0.47134  -0.46320  -0.45844
 Alpha  occ. eigenvalues --   -0.43343  -0.40418  -0.39296  -0.37322  -0.36728
 Alpha  occ. eigenvalues --   -0.34630  -0.22452  -0.21569  -0.20371  -0.19501
 Alpha  occ. eigenvalues --   -0.18453
 Alpha virt. eigenvalues --    0.10784   0.11534   0.12628   0.14776   0.15971
 Alpha virt. eigenvalues --    0.20717   0.21311   0.21554   0.21982   0.22483
 Alpha virt. eigenvalues --    0.22527   0.22828   0.23309   0.24137   0.24767
 Alpha virt. eigenvalues --    0.25221   0.25515   0.26111   0.27203   0.28367
 Alpha virt. eigenvalues --    0.28502   0.29220   0.29375   0.29933   0.31050
 Alpha virt. eigenvalues --    0.32358   0.33376   0.34025   0.35296   0.36489
 Alpha virt. eigenvalues --    0.38711   0.39928   0.40585   0.41582   0.41743
 Alpha virt. eigenvalues --    0.42217   0.43594   0.44094   0.44477   0.45002
 Alpha virt. eigenvalues --    0.46493   0.46852   0.47215   0.48235   0.48679
 Alpha virt. eigenvalues --    0.49181   0.49665   0.50864   0.51091   0.51869
 Alpha virt. eigenvalues --    0.52571   0.53387   0.54518   0.55445   0.55751
 Alpha virt. eigenvalues --    0.58216   0.59407   0.59797   0.60490   0.60850
 Alpha virt. eigenvalues --    0.61632   0.64535   0.65684   0.66869   0.67958
 Alpha virt. eigenvalues --    0.69356   0.70160   0.70970   0.71364   0.72051
 Alpha virt. eigenvalues --    0.72979   0.73797   0.75329   0.75842   0.77537
 Alpha virt. eigenvalues --    0.78047   0.79405   0.80222   0.81031   0.81667
 Alpha virt. eigenvalues --    0.82821   0.83333   0.85769   0.86196   0.86763
 Alpha virt. eigenvalues --    0.86991   0.88045   0.89690   0.92061   0.92352
 Alpha virt. eigenvalues --    0.93974   0.96095   0.96586   0.97052   0.98134
 Alpha virt. eigenvalues --    0.99114   1.00153   1.01674   1.02073   1.03451
 Alpha virt. eigenvalues --    1.04643   1.05960   1.07956   1.08002   1.08288
 Alpha virt. eigenvalues --    1.09829   1.10772   1.11425   1.12343   1.14170
 Alpha virt. eigenvalues --    1.14394   1.17331   1.18174   1.18842   1.22361
 Alpha virt. eigenvalues --    1.22476   1.23492   1.25380   1.28726   1.29418
 Alpha virt. eigenvalues --    1.31020   1.32159   1.36124   1.36365   1.39211
 Alpha virt. eigenvalues --    1.41131   1.42031   1.44483   1.49744   1.51338
 Alpha virt. eigenvalues --    1.53602   1.54224   1.56444   1.57519   1.58309
 Alpha virt. eigenvalues --    1.60898   1.62257   1.63058   1.63350   1.64926
 Alpha virt. eigenvalues --    1.66909   1.67945   1.70419   1.70761   1.71424
 Alpha virt. eigenvalues --    1.73610   1.74494   1.76465   1.79718   1.80338
 Alpha virt. eigenvalues --    1.81521   1.83354   1.84143   1.85243   1.86410
 Alpha virt. eigenvalues --    1.87065   1.89860   1.90879   1.91760   1.94196
 Alpha virt. eigenvalues --    1.96112   1.99257   2.00578   2.02165   2.02604
 Alpha virt. eigenvalues --    2.05026   2.06165   2.07314   2.09310   2.10490
 Alpha virt. eigenvalues --    2.11357   2.11741   2.13923   2.16475   2.17379
 Alpha virt. eigenvalues --    2.19773   2.22302   2.23976   2.26908   2.27902
 Alpha virt. eigenvalues --    2.30060   2.32609   2.33700   2.35559   2.36187
 Alpha virt. eigenvalues --    2.36734   2.38788   2.39663   2.43873   2.44679
 Alpha virt. eigenvalues --    2.47437   2.48870   2.49081   2.50561   2.52439
 Alpha virt. eigenvalues --    2.55131   2.56764   2.59374   2.62466   2.70991
 Alpha virt. eigenvalues --    2.72028   2.75407   2.77577   2.85167   2.89996
 Alpha virt. eigenvalues --    2.91872   2.93311   2.96945   3.05495   3.08688
 Alpha virt. eigenvalues --    3.12182   3.14290   3.21886   3.27367   3.33127
 Alpha virt. eigenvalues --    3.38235   3.41096   3.44830   3.46928   3.54098
 Alpha virt. eigenvalues --    3.73260   3.77666   3.89644   3.90579   3.91570
 Alpha virt. eigenvalues --    3.97898   3.99821   4.01559   4.02805   4.07167
 Alpha virt. eigenvalues --    4.09075   4.14045   4.14445   4.15451   4.20287
 Alpha virt. eigenvalues --    4.36376   4.43402   4.54918   4.83449
          Condensed to atoms (all electrons):
               1          2          3          4          5          6
     1  O    8.949983   0.130179  -0.096049   0.063538  -0.006019  -0.004078
     2  C    0.130179   6.702897   0.214326  -0.702898  -0.409373   0.004418
     3  O   -0.096049   0.214326   8.876152   0.104550   0.059556  -0.059355
     4  C    0.063538  -0.702898   0.104550  10.874400  -3.399640   0.274528
     5  C   -0.006019  -0.409373   0.059556  -3.399640  14.165603  -0.995048
     6  O   -0.004078   0.004418  -0.059355   0.274528  -0.995048   9.155218
     7  H    0.000745   0.007555   0.009550  -0.026912   0.053165   0.269930
     8  C   -0.015523  -0.192582  -0.063026   2.177688  -5.976113   0.548084
     9  H    0.000157   0.011790  -0.000712  -0.199758   0.922752  -0.135888
    10  C    0.001591   0.189205  -0.017623  -2.659585   2.452568  -0.163570
    11  H    0.000184  -0.007387  -0.000288   0.055245  -0.120569  -0.002311
    12  C   -0.102948  -0.324624  -0.003526   2.019879  -3.580935   0.157894
    13  H    0.000348   0.010846   0.000931  -0.108004   0.086894   0.002186
    14  C    0.075068  -0.546099  -0.077225  -3.436497   1.871165  -0.126086
    15  H   -0.025731   0.110136  -0.003349   0.404800  -0.138588  -0.000592
               7          8          9         10         11         12
     1  O    0.000745  -0.015523   0.000157   0.001591   0.000184  -0.102948
     2  C    0.007555  -0.192582   0.011790   0.189205  -0.007387  -0.324624
     3  O    0.009550  -0.063026  -0.000712  -0.017623  -0.000288  -0.003526
     4  C   -0.026912   2.177688  -0.199758  -2.659585   0.055245   2.019879
     5  C    0.053165  -5.976113   0.922752   2.452568  -0.120569  -3.580935
     6  O    0.269930   0.548084  -0.135888  -0.163570  -0.002311   0.157894
     7  H    0.639615  -0.177169   0.000614   0.054400  -0.001394  -0.026973
     8  C   -0.177169  13.527344  -1.121284  -2.952862   0.396757   3.586261
     9  H    0.000614  -1.121284   1.977033   0.381147  -0.064564  -0.271620
    10  C    0.054400  -2.952862   0.381147   9.238414  -0.628161  -2.982372
    11  H   -0.001394   0.396757  -0.064564  -0.628161   1.645328   0.378629
    12  C   -0.026973   3.586261  -0.271620  -2.982372   0.378629  10.936096
    13  H    0.000101  -0.177732  -0.019705   0.318786  -0.053053  -0.758383
    14  C    0.031582  -4.242674   0.174337   2.673500  -0.134749  -3.659822
    15  H   -0.001062   0.109756   0.010947  -0.125880  -0.011760   0.361171
              13         14         15
     1  O    0.000348   0.075068  -0.025731
     2  C    0.010846  -0.546099   0.110136
     3  O    0.000931  -0.077225  -0.003349
     4  C   -0.108004  -3.436497   0.404800
     5  C    0.086894   1.871165  -0.138588
     6  O    0.002186  -0.126086  -0.000592
     7  H    0.000101   0.031582  -0.001062
     8  C   -0.177732  -4.242674   0.109756
     9  H   -0.019705   0.174337   0.010947
    10  C    0.318786   2.673500  -0.125880
    11  H   -0.053053  -0.134749  -0.011760
    12  C   -0.758383  -3.659822   0.361171
    13  H    1.667948   0.563530  -0.082538
    14  C    0.563530  13.261819  -0.845764
    15  H   -0.082538  -0.845764   1.852272
 Mulliken charges:
               1
     1  O   -0.971445
     2  C    0.801610
     3  O   -0.943914
     4  C    0.558667
     5  C    1.014580
     6  O   -0.925330
     7  H    0.166253
     8  C    0.573076
     9  H   -0.665248
    10  C    0.220441
    11  H   -0.451907
    12  C    0.271275
    13  H   -0.452155
    14  C    0.417916
    15  H   -0.613818
 Sum of Mulliken charges =  -1.00000
 Mulliken charges with hydrogens summed into heavy atoms:
               1
     1  O   -0.971445
     2  C    0.801610
     3  O   -0.943914
     4  C    0.558667
     5  C    1.014580
     6  O   -0.759077
     8  C   -0.092172
    10  C   -0.231466
    12  C   -0.180880
    14  C   -0.195902
 Electronic spatial extent (au):  <R**2>=           1374.3306
 Charge=             -1.0000 electrons
 Dipole moment (field-independent basis, Debye):
    X=            -11.1715    Y=              1.9264    Z=              0.2485  Tot=             11.3391
 Quadrupole moment (field-independent basis, Debye-Ang):
   XX=            -91.5246   YY=            -62.7164   ZZ=            -64.8493
   XY=             -0.6908   XZ=              0.4034   YZ=              3.9954
 Traceless Quadrupole moment (field-independent basis, Debye-Ang):
   XX=            -18.4945   YY=             10.3137   ZZ=              8.1808
   XY=             -0.6908   XZ=              0.4034   YZ=              3.9954
 Octapole moment (field-independent basis, Debye-Ang**2):
  XXX=            -70.8316  YYY=             29.8861  ZZZ=              1.3472  XYY=            -27.0121
  XXY=             14.8925  XXZ=              2.2185  XZZ=              7.8766  YZZ=              5.2889
  YYZ=             -0.4523  XYZ=              6.5731
 Hexadecapole moment (field-independent basis, Debye-Ang**3):
 XXXX=          -1356.8911 YYYY=           -539.6635 ZZZZ=            -91.4927 XXXY=             18.6841
 XXXZ=              7.7248 YYYX=            -14.4085 YYYZ=             13.5270 ZZZX=             -1.0654
 ZZZY=              1.4153 XXYY=           -335.9153 XXZZ=           -232.8645 YYZZ=           -126.0643
 XXYZ=             20.3176 YYXZ=             -6.9257 ZZXY=             -3.4416
 N-N= 4.843469196829D+02 E-N=-2.138624478263D+03  KE= 4.920593808653D+02
 Leave Link  601 at Mon Jul 12 13:05:56 2021, MaxMem=   262144000 cpu:               0.2 elap:               0.1
 (Enter /dades/curu/g16A03_MST/g16/l9999.exe)
 1\1\GINC-PIRINEUS23\SP\RMP2-FC\Aug-CC-pVDZ\C7H5O3(1-)\UBATOR02\12-Jul-
 2021\0\\#p mp2/aug-cc-pVDZ scf=tight maxdisk=180GB geom=allcheck\\SET_
 328_BBB299_conf1.geo_165_180 geometry\\-1,1\O,0,1.5153949601,-1.802480
 6637,-1.8164934933\C,0,1.234620694,-1.6895468232,-0.5891934732\O,0,1.6
 098556051,-2.4527037054,0.3387800331\C,0,0.3866697028,-0.4660584725,-0
 .2145523164\C,0,-0.4245138705,-0.3641671029,0.9349273783\O,0,-0.550713
 4813,-1.4336366617,1.7758155938\H,0,-1.1790181377,-1.1929516906,2.4737
 504472\C,0,-1.1267452447,0.8204056155,1.2014447345\H,0,-1.7520925474,0
 .8764435893,2.090109891\C,0,-1.0333953789,1.9155310544,0.3470250371\H,
 0,-1.5813838385,2.8238131842,0.5787658112\C,0,-0.2441800203,1.83211892
 94,-0.800290397\H,0,-0.1658176673,2.6750522339,-1.4793572809\C,0,0.438
 6807367,0.6466423717,-1.063728589\H,0,1.043638488,0.5385381415,-1.9560
 033763\\Version=ES64L-G16RevA.03\State=1-A\HF=-492.6745983\MP2=-494.21
 63026\RMSD=7.881e-09\PG=C01 [X(C7H5O3)]\\@


 A COMPLEXITY IS MERELY A DISARRANGEMENT OF SIMPLICITIES.

                                    -- G. O. ABELL IN "EXPLORATION OF THE UNIVERSE"
 Job cpu time:       0 days  0 hours 12 minutes 12.1 seconds.
 Elapsed time:       0 days  0 hours  3 minutes  4.8 seconds.
 File lengths (MBytes):  RWF=     46 Int=      0 D2E=      0 Chk=      9 Scr=      1
 Normal termination of Gaussian 16 at Mon Jul 12 13:05:56 2021.
