 Entering Gaussian System, Link 0=g16
 Input=SET_328_BBB65_conf1.geo_060_150_OCTANOL.dat
 Output=SET_328_BBB65_conf1.geo_060_150_OCTANOL.log
 Initial command:
 /dades/curu/g16A03_MST/g16/l1.exe "/tmp/ubator02/1835312/Gau-3933.inp" -scrdir="/tmp/ubator02/1835312/"
 Entering Link 1 = /dades/curu/g16A03_MST/g16/l1.exe PID=      3934.
  
 Copyright (c) 1988,1990,1992,1993,1995,1998,2003,2009,2016,
            Gaussian, Inc.  All Rights Reserved.
  
 This is part of the Gaussian(R) 16 program.  It is based on
 the Gaussian(R) 09 system (copyright 2009, Gaussian, Inc.),
 the Gaussian(R) 03 system (copyright 2003, Gaussian, Inc.),
 the Gaussian(R) 98 system (copyright 1998, Gaussian, Inc.),
 the Gaussian(R) 94 system (copyright 1995, Gaussian, Inc.),
 the Gaussian 92(TM) system (copyright 1992, Gaussian, Inc.),
 the Gaussian 90(TM) system (copyright 1990, Gaussian, Inc.),
 the Gaussian 88(TM) system (copyright 1988, Gaussian, Inc.),
 the Gaussian 86(TM) system (copyright 1986, Carnegie Mellon
 University), and the Gaussian 82(TM) system (copyright 1983,
 Carnegie Mellon University). Gaussian is a federally registered
 trademark of Gaussian, Inc.
  
 This software contains proprietary and confidential information,
 including trade secrets, belonging to Gaussian, Inc.
  
 This software is provided under written license and may be
 used, copied, transmitted, or stored only in accord with that
 written license.
  
 The following legend is applicable only to US Government
 contracts under FAR:
  
                    RESTRICTED RIGHTS LEGEND
  
 Use, reproduction and disclosure by the US Government is
 subject to restrictions as set forth in subparagraphs (a)
 and (c) of the Commercial Computer Software - Restricted
 Rights clause in FAR 52.227-19.
  
 Gaussian, Inc.
 340 Quinnipiac St., Bldg. 40, Wallingford CT 06492
  
  
 ---------------------------------------------------------------
 Warning -- This program may not be used in any manner that
 competes with the business of Gaussian, Inc. or will provide
 assistance to any competitor of Gaussian, Inc.  The licensee
 of this program is prohibited from giving any competitor of
 Gaussian, Inc. access to this program.  By using this program,
 the user acknowledges that Gaussian, Inc. is engaged in the
 business of creating and licensing software in the field of
 computational chemistry and represents and warrants to the
 licensee that it is not a competitor of Gaussian, Inc. and that
 it will not use this program in any manner prohibited above.
 ---------------------------------------------------------------
  

 Cite this work as:
 Gaussian 16, Revision A.03,
 M. J. Frisch, G. W. Trucks, H. B. Schlegel, G. E. Scuseria, 
 M. A. Robb, J. R. Cheeseman, G. Scalmani, V. Barone, 
 G. A. Petersson, H. Nakatsuji, X. Li, M. Caricato, A. V. Marenich, 
 J. Bloino, B. G. Janesko, R. Gomperts, B. Mennucci, H. P. Hratchian, 
 J. V. Ortiz, A. F. Izmaylov, J. L. Sonnenberg, D. Williams-Young, 
 F. Ding, F. Lipparini, F. Egidi, J. Goings, B. Peng, A. Petrone, 
 T. Henderson, D. Ranasinghe, V. G. Zakrzewski, J. Gao, N. Rega, 
 G. Zheng, W. Liang, M. Hada, M. Ehara, K. Toyota, R. Fukuda, 
 J. Hasegawa, M. Ishida, T. Nakajima, Y. Honda, O. Kitao, H. Nakai, 
 T. Vreven, K. Throssell, J. A. Montgomery, Jr., J. E. Peralta, 
 F. Ogliaro, M. J. Bearpark, J. J. Heyd, E. N. Brothers, K. N. Kudin, 
 V. N. Staroverov, T. A. Keith, R. Kobayashi, J. Normand, 
 K. Raghavachari, A. P. Rendell, J. C. Burant, S. S. Iyengar, 
 J. Tomasi, M. Cossi, J. M. Millam, M. Klene, C. Adamo, R. Cammi, 
 J. W. Ochterski, R. L. Martin, K. Morokuma, O. Farkas, 
 J. B. Foresman, and D. J. Fox, Gaussian, Inc., Wallingford CT, 2016.
 
 ******************************************
 Gaussian 16:  ES64L-G16RevA.03 25-Dec-2016
                12-Jul-2021 
 ******************************************
 %mem=800MB
 %nproc=4
 Will use up to    4 processors via shared memory.
 %chk=SET_328_BBB65_conf1.geo_060_150.chk
 ---------------------------------------------------------------
 #p b3lyp/6-31G(d) opt freq scrf=(iefpcm,read,solvent=n-octanol)
 ---------------------------------------------------------------
 1/18=20,19=15,26=3,38=1,40=2/1,3;
 2/9=110,12=2,17=6,18=5,40=1/2;
 3/5=1,6=6,7=1,11=2,25=1,30=1,70=2203,71=1,72=25,74=-5/1,2,3;
 4//1;
 5/5=2,38=5,53=25/2;
 6/7=2,8=2,9=2,10=2,28=1/1;
 7//1,2,3,16;
 1/18=20,19=15,26=3/3(2);
 2/9=110/2;
 99//99;
 2/9=110/2;
 3/5=1,6=6,7=1,11=2,25=1,30=1,70=2205,71=1,72=25,74=-5/1,2,3;
 4/5=5,16=3,69=1/1;
 5/5=2,38=5,53=25/2;
 7//1,2,3,16;
 1/18=20,19=15,26=3/3(-5);
 2/9=110/2;
 6/7=2,8=2,9=2,10=2,19=2,28=1/1;
 99/9=1/99;
 Leave Link    1 at Mon Jul 12 12:48:45 2021, MaxMem=   104857600 cpu:               0.0 elap:               0.0
 (Enter /dades/curu/g16A03_MST/g16/l101.exe)
 ----------------------------------------
 SET_328_BBB65_conf1.geo_060_150 geometry
 ----------------------------------------
 Symbolic Z-matrix:
 Charge =  1 Multiplicity = 1
 C                    -0.776     0.69     -3.478 
 C                     0.412     1.364    -2.824 
 C                     0.2       1.429    -1.262 
 H                     1.002     2.105    -0.955 
 H                    -0.709     2.011    -1.084 
 H                     1.271     0.7      -2.947 
 H                     0.587     2.378    -3.189 
 H                    -1.549     1.405    -3.187 
 H                    -0.542     0.63     -4.542 
 C                    -1.186    -0.702    -2.873 
 H                    -0.374    -1.373    -3.164 
 H                    -2.172    -0.891    -3.303 
 C                    -1.236    -0.675    -1.377 
 H                    -1.327    -1.731    -1.11 
 H                    -2.133    -0.176    -1.001 
 N                     0.032    -0.027    -0.797 
 C                     0.301    -0.243     0.67 
 C                     0.433    -1.795     0.865 
 C                     1.481    -2.379    -0.093 
 C                     2.906    -1.679     0.067 
 C                     2.91     -0.171     0.221 
 C                     1.764     0.351     1.057 
 H                     1.817     1.44      1.125 
 H                     1.904    -0.027     2.072 
 H                     2.776     0.304    -0.753 
 H                     3.88      0.211     0.546 
 H                     3.475    -2.018    -0.801 
 H                     3.415    -2.157     0.907 
 H                     1.201    -2.423    -1.148 
 H                     1.508    -3.448     0.127 
 H                    -0.519    -2.322     0.769 
 H                     0.69     -1.98      1.91 
 C                    -0.811     0.326     1.61 
 C                    -0.751     1.634     2.113 
 H                     0.062     2.272     1.774 
 C                    -1.668     2.235     3.02 
 H                    -1.629     3.318     3.113 
 C                    -2.704     1.5       3.484 
 H                    -3.545     1.955     4.001 
 C                    -2.836     0.246     2.97 
 H                    -3.658    -0.412     3.241 
 C                    -1.855    -0.415     2.226 
 H                    -2.045    -1.461     1.998 
 H                     0.779    -0.514    -1.25 
 
 ITRead=  0  0  0  0  0  0  0  0  0  0  0  0  0  0  0  0  0  0  0  0
 ITRead=  0  0  0  0  0  0  0  0  0  0  0  0  0  0  0  0  0  0  0  0
 ITRead=  0  0  0  0
 MicOpt= -1 -1 -1 -1 -1 -1 -1 -1 -1 -1 -1 -1 -1 -1 -1 -1 -1 -1 -1 -1
 MicOpt= -1 -1 -1 -1 -1 -1 -1 -1 -1 -1 -1 -1 -1 -1 -1 -1 -1 -1 -1 -1
 MicOpt= -1 -1 -1 -1
 NAtoms=     44 NQM=       44 NQMF=       0 NMMI=      0 NMMIF=      0
                NMic=       0 NMicF=      0.
                    Isotopes and Nuclear Properties:
 (Nuclear quadrupole moments (NQMom) in fm**2, nuclear magnetic moments (NMagM)
  in nuclear magnetons)

  Atom         1           2           3           4           5           6           7           8           9          10
 IAtWgt=          12          12          12           1           1           1           1           1           1          12
 AtmWgt=  12.0000000  12.0000000  12.0000000   1.0078250   1.0078250   1.0078250   1.0078250   1.0078250   1.0078250  12.0000000
 NucSpn=           0           0           0           1           1           1           1           1           1           0
 AtZEff=  -0.0000000  -0.0000000  -0.0000000  -0.0000000  -0.0000000  -0.0000000  -0.0000000  -0.0000000  -0.0000000  -0.0000000
 NQMom=    0.0000000   0.0000000   0.0000000   0.0000000   0.0000000   0.0000000   0.0000000   0.0000000   0.0000000   0.0000000
 NMagM=    0.0000000   0.0000000   0.0000000   2.7928460   2.7928460   2.7928460   2.7928460   2.7928460   2.7928460   0.0000000
 AtZNuc=   6.0000000   6.0000000   6.0000000   1.0000000   1.0000000   1.0000000   1.0000000   1.0000000   1.0000000   6.0000000

  Atom        11          12          13          14          15          16          17          18          19          20
 IAtWgt=           1           1          12           1           1          14          12          12          12          12
 AtmWgt=   1.0078250   1.0078250  12.0000000   1.0078250   1.0078250  14.0030740  12.0000000  12.0000000  12.0000000  12.0000000
 NucSpn=           1           1           0           1           1           2           0           0           0           0
 AtZEff=  -0.0000000  -0.0000000  -0.0000000  -0.0000000  -0.0000000  -0.0000000  -0.0000000  -0.0000000  -0.0000000  -0.0000000
 NQMom=    0.0000000   0.0000000   0.0000000   0.0000000   0.0000000   2.0440000   0.0000000   0.0000000   0.0000000   0.0000000
 NMagM=    2.7928460   2.7928460   0.0000000   2.7928460   2.7928460   0.4037610   0.0000000   0.0000000   0.0000000   0.0000000
 AtZNuc=   1.0000000   1.0000000   6.0000000   1.0000000   1.0000000   7.0000000   6.0000000   6.0000000   6.0000000   6.0000000

  Atom        21          22          23          24          25          26          27          28          29          30
 IAtWgt=          12          12           1           1           1           1           1           1           1           1
 AtmWgt=  12.0000000  12.0000000   1.0078250   1.0078250   1.0078250   1.0078250   1.0078250   1.0078250   1.0078250   1.0078250
 NucSpn=           0           0           1           1           1           1           1           1           1           1
 AtZEff=  -0.0000000  -0.0000000  -0.0000000  -0.0000000  -0.0000000  -0.0000000  -0.0000000  -0.0000000  -0.0000000  -0.0000000
 NQMom=    0.0000000   0.0000000   0.0000000   0.0000000   0.0000000   0.0000000   0.0000000   0.0000000   0.0000000   0.0000000
 NMagM=    0.0000000   0.0000000   2.7928460   2.7928460   2.7928460   2.7928460   2.7928460   2.7928460   2.7928460   2.7928460
 AtZNuc=   6.0000000   6.0000000   1.0000000   1.0000000   1.0000000   1.0000000   1.0000000   1.0000000   1.0000000   1.0000000

  Atom        31          32          33          34          35          36          37          38          39          40
 IAtWgt=           1           1          12          12           1          12           1          12           1          12
 AtmWgt=   1.0078250   1.0078250  12.0000000  12.0000000   1.0078250  12.0000000   1.0078250  12.0000000   1.0078250  12.0000000
 NucSpn=           1           1           0           0           1           0           1           0           1           0
 AtZEff=  -0.0000000  -0.0000000  -0.0000000  -0.0000000  -0.0000000  -0.0000000  -0.0000000  -0.0000000  -0.0000000  -0.0000000
 NQMom=    0.0000000   0.0000000   0.0000000   0.0000000   0.0000000   0.0000000   0.0000000   0.0000000   0.0000000   0.0000000
 NMagM=    2.7928460   2.7928460   0.0000000   0.0000000   2.7928460   0.0000000   2.7928460   0.0000000   2.7928460   0.0000000
 AtZNuc=   1.0000000   1.0000000   6.0000000   6.0000000   1.0000000   6.0000000   1.0000000   6.0000000   1.0000000   6.0000000

  Atom        41          42          43          44
 IAtWgt=           1          12           1           1
 AtmWgt=   1.0078250  12.0000000   1.0078250   1.0078250
 NucSpn=           1           0           1           1
 AtZEff=  -0.0000000  -0.0000000  -0.0000000  -0.0000000
 NQMom=    0.0000000   0.0000000   0.0000000   0.0000000
 NMagM=    2.7928460   0.0000000   2.7928460   2.7928460
 AtZNuc=   1.0000000   6.0000000   1.0000000   1.0000000
 Leave Link  101 at Mon Jul 12 12:48:45 2021, MaxMem=   104857600 cpu:               0.1 elap:               0.1
 (Enter /dades/curu/g16A03_MST/g16/l103.exe)

 GradGradGradGradGradGradGradGradGradGradGradGradGradGradGradGradGradGrad
 Berny optimization.
 Initialization pass.
                           ----------------------------
                           !    Initial Parameters    !
                           ! (Angstroms and Degrees)  !
 --------------------------                            --------------------------
 ! Name  Definition              Value          Derivative Info.                !
 --------------------------------------------------------------------------------
 ! R1    R(1,2)                  1.5144         estimate D2E/DX2                !
 ! R2    R(1,8)                  1.0924         estimate D2E/DX2                !
 ! R3    R(1,9)                  1.0911         estimate D2E/DX2                !
 ! R4    R(1,10)                 1.5722         estimate D2E/DX2                !
 ! R5    R(2,3)                  1.5777         estimate D2E/DX2                !
 ! R6    R(2,6)                  1.0927         estimate D2E/DX2                !
 ! R7    R(2,7)                  1.0918         estimate D2E/DX2                !
 ! R8    R(3,4)                  1.0929         estimate D2E/DX2                !
 ! R9    R(3,5)                  1.0939         estimate D2E/DX2                !
 ! R10   R(3,16)                 1.5377         estimate D2E/DX2                !
 ! R11   R(10,11)                1.0928         estimate D2E/DX2                !
 ! R12   R(10,12)                1.0922         estimate D2E/DX2                !
 ! R13   R(10,13)                1.4971         estimate D2E/DX2                !
 ! R14   R(13,14)                1.093          estimate D2E/DX2                !
 ! R15   R(13,15)                1.0932         estimate D2E/DX2                !
 ! R16   R(13,16)                1.5376         estimate D2E/DX2                !
 ! R17   R(16,17)                1.507          estimate D2E/DX2                !
 ! R18   R(16,44)                1.0002         estimate D2E/DX2                !
 ! R19   R(17,18)                1.5698         estimate D2E/DX2                !
 ! R20   R(17,22)                1.6257         estimate D2E/DX2                !
 ! R21   R(17,33)                1.5633         estimate D2E/DX2                !
 ! R22   R(18,19)                1.5353         estimate D2E/DX2                !
 ! R23   R(18,31)                1.0924         estimate D2E/DX2                !
 ! R24   R(18,32)                1.0919         estimate D2E/DX2                !
 ! R25   R(19,20)                1.5957         estimate D2E/DX2                !
 ! R26   R(19,29)                1.0924         estimate D2E/DX2                !
 ! R27   R(19,30)                1.0917         estimate D2E/DX2                !
 ! R28   R(20,21)                1.5158         estimate D2E/DX2                !
 ! R29   R(20,27)                1.0918         estimate D2E/DX2                !
 ! R30   R(20,28)                1.0923         estimate D2E/DX2                !
 ! R31   R(21,22)                1.5115         estimate D2E/DX2                !
 ! R32   R(21,25)                1.0919         estimate D2E/DX2                !
 ! R33   R(21,26)                1.092          estimate D2E/DX2                !
 ! R34   R(22,23)                1.0924         estimate D2E/DX2                !
 ! R35   R(22,24)                1.0921         estimate D2E/DX2                !
 ! R36   R(33,34)                1.4027         estimate D2E/DX2                !
 ! R37   R(33,42)                1.4207         estimate D2E/DX2                !
 ! R38   R(34,35)                1.0876         estimate D2E/DX2                !
 ! R39   R(34,36)                1.4229         estimate D2E/DX2                !
 ! R40   R(36,37)                1.0877         estimate D2E/DX2                !
 ! R41   R(36,38)                1.3523         estimate D2E/DX2                !
 ! R42   R(38,39)                1.087          estimate D2E/DX2                !
 ! R43   R(38,40)                1.3617         estimate D2E/DX2                !
 ! R44   R(40,41)                1.0872         estimate D2E/DX2                !
 ! R45   R(40,42)                1.3974         estimate D2E/DX2                !
 ! R46   R(42,43)                1.0873         estimate D2E/DX2                !
 ! A1    A(2,1,8)               98.5549         estimate D2E/DX2                !
 ! A2    A(2,1,9)              106.1035         estimate D2E/DX2                !
 ! A3    A(2,1,10)             115.6232         estimate D2E/DX2                !
 ! A4    A(8,1,9)              116.584          estimate D2E/DX2                !
 ! A5    A(8,1,10)             107.0048         estimate D2E/DX2                !
 ! A6    A(9,1,10)             112.4888         estimate D2E/DX2                !
 ! A7    A(1,2,3)              109.9071         estimate D2E/DX2                !
 ! A8    A(1,2,6)              107.3163         estimate D2E/DX2                !
 ! A9    A(1,2,7)              113.2482         estimate D2E/DX2                !
 ! A10   A(3,2,6)              104.0123         estimate D2E/DX2                !
 ! A11   A(3,2,7)              108.3164         estimate D2E/DX2                !
 ! A12   A(6,2,7)              113.6246         estimate D2E/DX2                !
 ! A13   A(2,3,4)              101.829          estimate D2E/DX2                !
 ! A14   A(2,3,5)              107.1383         estimate D2E/DX2                !
 ! A15   A(2,3,16)             105.9665         estimate D2E/DX2                !
 ! A16   A(4,3,5)              103.5908         estimate D2E/DX2                !
 ! A17   A(4,3,16)             125.5152         estimate D2E/DX2                !
 ! A18   A(5,3,16)             111.3325         estimate D2E/DX2                !
 ! A19   A(1,10,11)            104.3234         estimate D2E/DX2                !
 ! A20   A(1,10,12)            103.7181         estimate D2E/DX2                !
 ! A21   A(1,10,13)            112.1651         estimate D2E/DX2                !
 ! A22   A(11,10,12)           117.3684         estimate D2E/DX2                !
 ! A23   A(11,10,13)           107.5766         estimate D2E/DX2                !
 ! A24   A(12,10,13)           111.4938         estimate D2E/DX2                !
 ! A25   A(10,13,14)           103.2651         estimate D2E/DX2                !
 ! A26   A(10,13,15)           112.2934         estimate D2E/DX2                !
 ! A27   A(10,13,16)           110.9163         estimate D2E/DX2                !
 ! A28   A(14,13,15)           106.7788         estimate D2E/DX2                !
 ! A29   A(14,13,16)           112.5619         estimate D2E/DX2                !
 ! A30   A(15,13,16)           110.7671         estimate D2E/DX2                !
 ! A31   A(3,16,13)            112.03           estimate D2E/DX2                !
 ! A32   A(3,16,17)            114.2421         estimate D2E/DX2                !
 ! A33   A(3,16,44)            104.0333         estimate D2E/DX2                !
 ! A34   A(13,16,17)           117.0005         estimate D2E/DX2                !
 ! A35   A(13,16,44)           103.8785         estimate D2E/DX2                !
 ! A36   A(17,16,44)           103.7559         estimate D2E/DX2                !
 ! A37   A(16,17,18)           106.1195         estimate D2E/DX2                !
 ! A38   A(16,17,22)           109.8762         estimate D2E/DX2                !
 ! A39   A(16,17,33)           113.9656         estimate D2E/DX2                !
 ! A40   A(18,17,22)           104.8327         estimate D2E/DX2                !
 ! A41   A(18,17,33)           110.1803         estimate D2E/DX2                !
 ! A42   A(22,17,33)           111.3457         estimate D2E/DX2                !
 ! A43   A(17,18,19)           110.8527         estimate D2E/DX2                !
 ! A44   A(17,18,31)           113.1277         estimate D2E/DX2                !
 ! A45   A(17,18,32)           107.8294         estimate D2E/DX2                !
 ! A46   A(19,18,31)           110.8882         estimate D2E/DX2                !
 ! A47   A(19,18,32)           111.8429         estimate D2E/DX2                !
 ! A48   A(31,18,32)           101.9753         estimate D2E/DX2                !
 ! A49   A(18,19,20)           112.3432         estimate D2E/DX2                !
 ! A50   A(18,19,29)           116.2939         estimate D2E/DX2                !
 ! A51   A(18,19,30)           105.2839         estimate D2E/DX2                !
 ! A52   A(20,19,29)           110.0843         estimate D2E/DX2                !
 ! A53   A(20,19,30)           112.7837         estimate D2E/DX2                !
 ! A54   A(29,19,30)            99.2947         estimate D2E/DX2                !
 ! A55   A(19,20,21)           116.6766         estimate D2E/DX2                !
 ! A56   A(19,20,27)           104.4465         estimate D2E/DX2                !
 ! A57   A(19,20,28)           107.5342         estimate D2E/DX2                !
 ! A58   A(21,20,27)           112.8468         estimate D2E/DX2                !
 ! A59   A(21,20,28)           110.8535         estimate D2E/DX2                !
 ! A60   A(27,20,28)           103.4527         estimate D2E/DX2                !
 ! A61   A(20,21,22)           113.4375         estimate D2E/DX2                !
 ! A62   A(20,21,25)           109.9878         estimate D2E/DX2                !
 ! A63   A(20,21,26)           112.3701         estimate D2E/DX2                !
 ! A64   A(22,21,25)           104.4826         estimate D2E/DX2                !
 ! A65   A(22,21,26)           112.8337         estimate D2E/DX2                !
 ! A66   A(25,21,26)           102.8451         estimate D2E/DX2                !
 ! A67   A(17,22,21)           115.1156         estimate D2E/DX2                !
 ! A68   A(17,22,23)           115.0061         estimate D2E/DX2                !
 ! A69   A(17,22,24)           102.1304         estimate D2E/DX2                !
 ! A70   A(21,22,23)           109.9936         estimate D2E/DX2                !
 ! A71   A(21,22,24)           107.2961         estimate D2E/DX2                !
 ! A72   A(23,22,24)           106.3179         estimate D2E/DX2                !
 ! A73   A(17,33,34)           121.6418         estimate D2E/DX2                !
 ! A74   A(17,33,42)           126.4109         estimate D2E/DX2                !
 ! A75   A(34,33,42)           111.2423         estimate D2E/DX2                !
 ! A76   A(33,34,35)           117.8534         estimate D2E/DX2                !
 ! A77   A(33,34,36)           126.5036         estimate D2E/DX2                !
 ! A78   A(35,34,36)           115.6349         estimate D2E/DX2                !
 ! A79   A(34,36,37)           116.8683         estimate D2E/DX2                !
 ! A80   A(34,36,38)           118.8711         estimate D2E/DX2                !
 ! A81   A(37,36,38)           122.6356         estimate D2E/DX2                !
 ! A82   A(36,38,39)           121.8968         estimate D2E/DX2                !
 ! A83   A(36,38,40)           116.441          estimate D2E/DX2                !
 ! A84   A(39,38,40)           119.3416         estimate D2E/DX2                !
 ! A85   A(38,40,41)           122.4492         estimate D2E/DX2                !
 ! A86   A(38,40,42)           124.6477         estimate D2E/DX2                !
 ! A87   A(41,40,42)           112.1592         estimate D2E/DX2                !
 ! A88   A(33,42,40)           119.9993         estimate D2E/DX2                !
 ! A89   A(33,42,43)           122.6323         estimate D2E/DX2                !
 ! A90   A(40,42,43)           116.3605         estimate D2E/DX2                !
 ! D1    D(8,1,2,3)             62.0054         estimate D2E/DX2                !
 ! D2    D(8,1,2,6)            174.5032         estimate D2E/DX2                !
 ! D3    D(8,1,2,7)            -59.2829         estimate D2E/DX2                !
 ! D4    D(9,1,2,3)           -177.0335         estimate D2E/DX2                !
 ! D5    D(9,1,2,6)            -64.5357         estimate D2E/DX2                !
 ! D6    D(9,1,2,7)             61.6782         estimate D2E/DX2                !
 ! D7    D(10,1,2,3)           -51.582          estimate D2E/DX2                !
 ! D8    D(10,1,2,6)            60.9158         estimate D2E/DX2                !
 ! D9    D(10,1,2,7)          -172.8703         estimate D2E/DX2                !
 ! D10   D(2,1,10,11)          -69.8039         estimate D2E/DX2                !
 ! D11   D(2,1,10,12)          166.7798         estimate D2E/DX2                !
 ! D12   D(2,1,10,13)           46.3355         estimate D2E/DX2                !
 ! D13   D(8,1,10,11)         -178.4186         estimate D2E/DX2                !
 ! D14   D(8,1,10,12)           58.1651         estimate D2E/DX2                !
 ! D15   D(8,1,10,13)          -62.2792         estimate D2E/DX2                !
 ! D16   D(9,1,10,11)           52.3029         estimate D2E/DX2                !
 ! D17   D(9,1,10,12)          -71.1134         estimate D2E/DX2                !
 ! D18   D(9,1,10,13)          168.4423         estimate D2E/DX2                !
 ! D19   D(1,2,3,4)           -168.7126         estimate D2E/DX2                !
 ! D20   D(1,2,3,5)            -60.3019         estimate D2E/DX2                !
 ! D21   D(1,2,3,16)            58.6573         estimate D2E/DX2                !
 ! D22   D(6,2,3,4)             76.6646         estimate D2E/DX2                !
 ! D23   D(6,2,3,5)           -174.9247         estimate D2E/DX2                !
 ! D24   D(6,2,3,16)           -55.9655         estimate D2E/DX2                !
 ! D25   D(7,2,3,4)            -44.5126         estimate D2E/DX2                !
 ! D26   D(7,2,3,5)             63.8981         estimate D2E/DX2                !
 ! D27   D(7,2,3,16)          -177.1427         estimate D2E/DX2                !
 ! D28   D(2,3,16,13)          -64.5345         estimate D2E/DX2                !
 ! D29   D(2,3,16,17)          159.4664         estimate D2E/DX2                !
 ! D30   D(2,3,16,44)           47.0488         estimate D2E/DX2                !
 ! D31   D(4,3,16,13)          177.6811         estimate D2E/DX2                !
 ! D32   D(4,3,16,17)           41.6819         estimate D2E/DX2                !
 ! D33   D(4,3,16,44)          -70.7356         estimate D2E/DX2                !
 ! D34   D(5,3,16,13)           51.6196         estimate D2E/DX2                !
 ! D35   D(5,3,16,17)          -84.3796         estimate D2E/DX2                !
 ! D36   D(5,3,16,44)          163.2028         estimate D2E/DX2                !
 ! D37   D(1,10,13,14)        -168.9034         estimate D2E/DX2                !
 ! D38   D(1,10,13,15)          76.4383         estimate D2E/DX2                !
 ! D39   D(1,10,13,16)         -48.0992         estimate D2E/DX2                !
 ! D40   D(11,10,13,14)        -54.7448         estimate D2E/DX2                !
 ! D41   D(11,10,13,15)       -169.4031         estimate D2E/DX2                !
 ! D42   D(11,10,13,16)         66.0595         estimate D2E/DX2                !
 ! D43   D(12,10,13,14)         75.2713         estimate D2E/DX2                !
 ! D44   D(12,10,13,15)        -39.3869         estimate D2E/DX2                !
 ! D45   D(12,10,13,16)       -163.9244         estimate D2E/DX2                !
 ! D46   D(10,13,16,3)          60.7824         estimate D2E/DX2                !
 ! D47   D(10,13,16,17)       -164.5257         estimate D2E/DX2                !
 ! D48   D(10,13,16,44)        -50.8979         estimate D2E/DX2                !
 ! D49   D(14,13,16,3)         175.92           estimate D2E/DX2                !
 ! D50   D(14,13,16,17)        -49.3881         estimate D2E/DX2                !
 ! D51   D(14,13,16,44)         64.2397         estimate D2E/DX2                !
 ! D52   D(15,13,16,3)         -64.6161         estimate D2E/DX2                !
 ! D53   D(15,13,16,17)         70.0759         estimate D2E/DX2                !
 ! D54   D(15,13,16,44)       -176.2963         estimate D2E/DX2                !
 ! D55   D(3,16,17,18)        -166.1666         estimate D2E/DX2                !
 ! D56   D(3,16,17,22)         -53.3466         estimate D2E/DX2                !
 ! D57   D(3,16,17,33)          72.4048         estimate D2E/DX2                !
 ! D58   D(13,16,17,18)         60.1134         estimate D2E/DX2                !
 ! D59   D(13,16,17,22)        172.9333         estimate D2E/DX2                !
 ! D60   D(13,16,17,33)        -61.3153         estimate D2E/DX2                !
 ! D61   D(44,16,17,18)        -53.5833         estimate D2E/DX2                !
 ! D62   D(44,16,17,22)         59.2366         estimate D2E/DX2                !
 ! D63   D(44,16,17,33)       -175.012          estimate D2E/DX2                !
 ! D64   D(16,17,18,19)         53.8268         estimate D2E/DX2                !
 ! D65   D(16,17,18,31)        -71.4531         estimate D2E/DX2                !
 ! D66   D(16,17,18,32)        176.561          estimate D2E/DX2                !
 ! D67   D(22,17,18,19)        -62.4454         estimate D2E/DX2                !
 ! D68   D(22,17,18,31)        172.2746         estimate D2E/DX2                !
 ! D69   D(22,17,18,32)         60.2887         estimate D2E/DX2                !
 ! D70   D(33,17,18,19)        177.6536         estimate D2E/DX2                !
 ! D71   D(33,17,18,31)         52.3736         estimate D2E/DX2                !
 ! D72   D(33,17,18,32)        -59.6122         estimate D2E/DX2                !
 ! D73   D(16,17,22,21)        -54.2188         estimate D2E/DX2                !
 ! D74   D(16,17,22,23)         75.2253         estimate D2E/DX2                !
 ! D75   D(16,17,22,24)       -170.1065         estimate D2E/DX2                !
 ! D76   D(18,17,22,21)         59.431          estimate D2E/DX2                !
 ! D77   D(18,17,22,23)       -171.1249         estimate D2E/DX2                !
 ! D78   D(18,17,22,24)        -56.4567         estimate D2E/DX2                !
 ! D79   D(33,17,22,21)        178.5513         estimate D2E/DX2                !
 ! D80   D(33,17,22,23)        -52.0046         estimate D2E/DX2                !
 ! D81   D(33,17,22,24)         62.6636         estimate D2E/DX2                !
 ! D82   D(16,17,33,34)        -90.7343         estimate D2E/DX2                !
 ! D83   D(16,17,33,42)         99.7511         estimate D2E/DX2                !
 ! D84   D(18,17,33,34)        150.1168         estimate D2E/DX2                !
 ! D85   D(18,17,33,42)        -19.3978         estimate D2E/DX2                !
 ! D86   D(22,17,33,34)         34.2383         estimate D2E/DX2                !
 ! D87   D(22,17,33,42)       -135.2763         estimate D2E/DX2                !
 ! D88   D(17,18,19,20)         56.1472         estimate D2E/DX2                !
 ! D89   D(17,18,19,29)        -71.965          estimate D2E/DX2                !
 ! D90   D(17,18,19,30)        179.2645         estimate D2E/DX2                !
 ! D91   D(31,18,19,20)       -177.3225         estimate D2E/DX2                !
 ! D92   D(31,18,19,29)         54.5653         estimate D2E/DX2                !
 ! D93   D(31,18,19,30)        -54.2052         estimate D2E/DX2                !
 ! D94   D(32,18,19,20)        -64.2289         estimate D2E/DX2                !
 ! D95   D(32,18,19,29)        167.6589         estimate D2E/DX2                !
 ! D96   D(32,18,19,30)         58.8884         estimate D2E/DX2                !
 ! D97   D(18,19,20,21)        -42.3624         estimate D2E/DX2                !
 ! D98   D(18,19,20,27)       -167.6828         estimate D2E/DX2                !
 ! D99   D(18,19,20,28)         82.8455         estimate D2E/DX2                !
 ! D100  D(29,19,20,21)         88.9546         estimate D2E/DX2                !
 ! D101  D(29,19,20,27)        -36.3658         estimate D2E/DX2                !
 ! D102  D(29,19,20,28)       -145.8375         estimate D2E/DX2                !
 ! D103  D(30,19,20,21)       -161.1624         estimate D2E/DX2                !
 ! D104  D(30,19,20,27)         73.5172         estimate D2E/DX2                !
 ! D105  D(30,19,20,28)        -35.9545         estimate D2E/DX2                !
 ! D106  D(19,20,21,22)         37.6977         estimate D2E/DX2                !
 ! D107  D(19,20,21,25)        -78.9003         estimate D2E/DX2                !
 ! D108  D(19,20,21,26)        167.1764         estimate D2E/DX2                !
 ! D109  D(27,20,21,22)        158.6719         estimate D2E/DX2                !
 ! D110  D(27,20,21,25)         42.0739         estimate D2E/DX2                !
 ! D111  D(27,20,21,26)        -71.8494         estimate D2E/DX2                !
 ! D112  D(28,20,21,22)        -85.82           estimate D2E/DX2                !
 ! D113  D(28,20,21,25)        157.5821         estimate D2E/DX2                !
 ! D114  D(28,20,21,26)         43.6587         estimate D2E/DX2                !
 ! D115  D(20,21,22,17)        -47.7222         estimate D2E/DX2                !
 ! D116  D(20,21,22,23)       -179.5853         estimate D2E/DX2                !
 ! D117  D(20,21,22,24)         65.1726         estimate D2E/DX2                !
 ! D118  D(25,21,22,17)         72.0636         estimate D2E/DX2                !
 ! D119  D(25,21,22,23)        -59.7995         estimate D2E/DX2                !
 ! D120  D(25,21,22,24)       -175.0415         estimate D2E/DX2                !
 ! D121  D(26,21,22,17)       -176.9656         estimate D2E/DX2                !
 ! D122  D(26,21,22,23)         51.1713         estimate D2E/DX2                !
 ! D123  D(26,21,22,24)        -64.0708         estimate D2E/DX2                !
 ! D124  D(17,33,34,35)          4.1712         estimate D2E/DX2                !
 ! D125  D(17,33,34,36)       -176.9095         estimate D2E/DX2                !
 ! D126  D(42,33,34,35)        175.1306         estimate D2E/DX2                !
 ! D127  D(42,33,34,36)         -5.9501         estimate D2E/DX2                !
 ! D128  D(17,33,42,40)       -175.5448         estimate D2E/DX2                !
 ! D129  D(17,33,42,43)         -7.4512         estimate D2E/DX2                !
 ! D130  D(34,33,42,40)         14.0236         estimate D2E/DX2                !
 ! D131  D(34,33,42,43)       -177.8828         estimate D2E/DX2                !
 ! D132  D(33,34,36,37)       -164.7635         estimate D2E/DX2                !
 ! D133  D(33,34,36,38)          1.098          estimate D2E/DX2                !
 ! D134  D(35,34,36,37)         14.1768         estimate D2E/DX2                !
 ! D135  D(35,34,36,38)       -179.9617         estimate D2E/DX2                !
 ! D136  D(34,36,38,39)       -166.6622         estimate D2E/DX2                !
 ! D137  D(34,36,38,40)         -4.0894         estimate D2E/DX2                !
 ! D138  D(37,36,38,39)         -1.6581         estimate D2E/DX2                !
 ! D139  D(37,36,38,40)        160.9148         estimate D2E/DX2                !
 ! D140  D(36,38,40,41)       -177.2581         estimate D2E/DX2                !
 ! D141  D(36,38,40,42)         13.407          estimate D2E/DX2                !
 ! D142  D(39,38,40,41)        -14.2173         estimate D2E/DX2                !
 ! D143  D(39,38,40,42)        176.4478         estimate D2E/DX2                !
 ! D144  D(38,40,42,33)        -19.364          estimate D2E/DX2                !
 ! D145  D(38,40,42,43)        171.817          estimate D2E/DX2                !
 ! D146  D(41,40,42,33)        170.3441         estimate D2E/DX2                !
 ! D147  D(41,40,42,43)          1.5251         estimate D2E/DX2                !
 --------------------------------------------------------------------------------
 Trust Radius=3.00D-01 FncErr=1.00D-07 GrdErr=1.00D-06 EigMax=2.50D+02 EigMin=1.00D-04
 Number of steps in this run=    264 maximum allowed number of steps=    264.
 GradGradGradGradGradGradGradGradGradGradGradGradGradGradGradGradGradGrad

 Leave Link  103 at Mon Jul 12 12:48:45 2021, MaxMem=   104857600 cpu:               0.1 elap:               0.0
 (Enter /dades/curu/g16A03_MST/g16/l202.exe)
                          Input orientation:                          
 ---------------------------------------------------------------------
 Center     Atomic      Atomic             Coordinates (Angstroms)
 Number     Number       Type             X           Y           Z
 ---------------------------------------------------------------------
      1          6           0       -0.776000    0.690000   -3.478000
      2          6           0        0.412000    1.364000   -2.824000
      3          6           0        0.200000    1.429000   -1.262000
      4          1           0        1.002000    2.105000   -0.955000
      5          1           0       -0.709000    2.011000   -1.084000
      6          1           0        1.271000    0.700000   -2.947000
      7          1           0        0.587000    2.378000   -3.189000
      8          1           0       -1.549000    1.405000   -3.187000
      9          1           0       -0.542000    0.630000   -4.542000
     10          6           0       -1.186000   -0.702000   -2.873000
     11          1           0       -0.374000   -1.373000   -3.164000
     12          1           0       -2.172000   -0.891000   -3.303000
     13          6           0       -1.236000   -0.675000   -1.377000
     14          1           0       -1.327000   -1.731000   -1.110000
     15          1           0       -2.133000   -0.176000   -1.001000
     16          7           0        0.032000   -0.027000   -0.797000
     17          6           0        0.301000   -0.243000    0.670000
     18          6           0        0.433000   -1.795000    0.865000
     19          6           0        1.481000   -2.379000   -0.093000
     20          6           0        2.906000   -1.679000    0.067000
     21          6           0        2.910000   -0.171000    0.221000
     22          6           0        1.764000    0.351000    1.057000
     23          1           0        1.817000    1.440000    1.125000
     24          1           0        1.904000   -0.027000    2.072000
     25          1           0        2.776000    0.304000   -0.753000
     26          1           0        3.880000    0.211000    0.546000
     27          1           0        3.475000   -2.018000   -0.801000
     28          1           0        3.415000   -2.157000    0.907000
     29          1           0        1.201000   -2.423000   -1.148000
     30          1           0        1.508000   -3.448000    0.127000
     31          1           0       -0.519000   -2.322000    0.769000
     32          1           0        0.690000   -1.980000    1.910000
     33          6           0       -0.811000    0.326000    1.610000
     34          6           0       -0.751000    1.634000    2.113000
     35          1           0        0.062000    2.272000    1.774000
     36          6           0       -1.668000    2.235000    3.020000
     37          1           0       -1.629000    3.318000    3.113000
     38          6           0       -2.704000    1.500000    3.484000
     39          1           0       -3.545000    1.955000    4.001000
     40          6           0       -2.836000    0.246000    2.970000
     41          1           0       -3.658000   -0.412000    3.241000
     42          6           0       -1.855000   -0.415000    2.226000
     43          1           0       -2.045000   -1.461000    1.998000
     44          1           0        0.779000   -0.514000   -1.250000
 ---------------------------------------------------------------------
                    Distance matrix (angstroms):
                    1          2          3          4          5
     1  C    0.000000
     2  C    1.514376   0.000000
     3  C    2.531670   1.577661   0.000000
     4  H    3.395444   2.095314   1.092899   0.000000
     5  H    2.735099   2.168606   1.093933   1.718429   0.000000
     6  H    2.114774   1.092660   2.125490   2.452438   3.018259
     7  H    2.188752   1.091809   2.182590   2.288561   2.499066
     8  H    1.092445   1.994736   2.601000   3.461131   2.344237
     9  H    1.091078   2.097712   3.456496   4.174462   3.727307
    10  C    1.572192   2.612348   3.009564   4.042934   3.284573
    11  H    2.125128   2.867850   3.434863   4.343908   3.986236
    12  H    2.116365   3.462878   3.895442   4.956147   3.935217
    13  C    2.547357   2.994534   2.549929   3.593762   2.752848
    14  H    3.431074   3.942200   3.512895   4.490341   3.792778
    15  H    2.954138   3.488833   2.843771   3.877280   2.611060
    16  N    2.890452   2.487571   1.537656   2.347613   2.187440
    17  C    4.385923   3.847441   2.557031   2.940260   3.029378
    18  C    5.147675   4.856793   3.869444   4.341217   4.425879
    19  C    5.096178   4.755121   4.184302   4.591159   5.005026
    20  C    5.633499   4.882393   4.329935   4.357563   5.292365
    21  C    5.292496   4.227086   3.478993   3.194310   4.422817
    22  C    5.208910   4.232757   2.997656   2.775843   3.668134
    23  H    5.336081   4.192183   2.883154   2.330847   3.403880
    24  H    6.204755   5.303938   4.017351   3.810742   4.576194
    25  H    4.493476   3.316796   2.856656   2.536036   3.894693
    26  H    6.172548   4.971251   4.277241   3.758074   5.191900
    27  H    5.707065   4.991235   4.777024   4.810257   5.815392
    28  H    6.700606   5.944393   5.282062   5.239681   6.192227
    29  H    4.362132   4.215788   3.981570   4.536478   4.828307
    30  H    5.944386   5.750214   5.236918   5.680015   6.015172
    31  H    5.212984   5.230966   4.325728   4.988381   4.716418
    32  H    6.189394   5.802618   4.682197   4.999279   5.181633
    33  C    5.101124   4.715244   3.238381   3.609852   3.179193
    34  C    5.670189   5.079315   3.512414   3.564754   3.219426
    35  H    5.548736   4.699848   3.153885   2.891181   2.971654
    36  C    6.738449   6.263975   4.740737   4.790243   4.220506
    37  H    7.146697   6.575087   5.104330   4.994212   4.491042
    38  C    7.269300   7.036961   5.564420   5.814222   5.010765
    39  H    8.074839   7.911242   6.480808   6.727529   5.822650
    40  C    6.783616   6.735716   5.341031   5.795839   4.906554
    41  H    7.393598   7.516868   6.208901   6.757019   5.768289
    42  C    5.909389   5.814347   4.448540   4.963024   4.260856
    43  H    6.018616   6.104847   4.900992   5.542632   4.830984
    44  H    2.971805   2.477710   2.027470   2.644979   2.935528
                    6          7          8          9         10
     6  H    0.000000
     7  H    1.828142   0.000000
     8  H    2.916680   2.347175   0.000000
     9  H    2.415760   2.482087   1.857606   0.000000
    10  C    2.829828   3.567882   2.160975   2.230363   0.000000
    11  H    2.655267   3.872228   3.016362   2.437030   1.092825
    12  H    3.809497   4.279187   2.381848   2.550581   1.092162
    13  C    3.261989   3.990925   2.774972   3.493120   1.497079
    14  H    4.004240   4.986935   3.767985   4.239006   2.046189
    15  H    4.017650   4.325351   2.760292   3.964795   2.162838
    16  N    2.585759   3.437108   3.203480   3.845276   2.499785
    17  C    3.861714   4.673684   4.584196   5.351422   3.869716
    18  C    4.632344   5.820014   5.530554   6.005572   4.217636
    19  C    4.203529   5.745738   5.750860   5.739356   4.201621
    20  C    4.173375   5.695485   6.320332   6.201860   5.132504
    21  C    3.671673   4.849931   5.829316   5.936672   5.160621
    22  C    4.049304   4.850008   5.486203   6.061706   5.025556
    23  H    4.174554   4.582940   5.470331   6.191597   5.439685
    24  H    5.110732   5.932675   6.452202   7.082341   5.869987
    25  H    2.689884   3.876505   5.083521   5.046971   4.604767
    26  H    4.387146   5.430466   6.695892   6.754065   6.179602
    27  H    4.104931   5.776496   6.530735   6.094528   5.267823
    28  H    5.254760   6.733574   7.354589   7.288129   6.129815
    29  H    3.604779   5.252835   5.135524   4.886522   3.411046
    30  H    5.168322   6.766563   6.624157   6.529330   4.878335
    31  H    5.113242   6.243316   5.531850   6.076311   4.041467
    32  H    5.577671   6.708396   6.515424   7.068113   5.294313
    33  C    5.024027   5.403287   4.971931   6.165378   4.614618
    34  C    5.528512   5.518603   5.364629   6.733552   5.523252
    35  H    5.120616   4.991816   5.287583   6.553841   5.656570
    36  C    6.826349   6.607356   6.263378   7.812026   6.601950
    37  H    7.210237   6.746070   6.584525   8.185715   7.224185
    38  C    7.602525   7.492029   6.770915   8.357501   6.896708
    39  H    8.546554   8.303521   7.480231   9.151857   7.737985
    40  C    7.216956   7.361768   6.395960   7.863844   6.145067
    41  H    7.988925   8.194451   7.004895   8.448095   6.601203
    42  C    6.146139   6.564026   5.718969   6.972935   5.150702
    43  H    6.333940   6.969241   5.945099   7.028719   5.004059
    44  H    2.143751   3.487155   3.585263   3.727069   2.555523
                   11         12         13         14         15
    11  H    0.000000
    12  H    1.866668   0.000000
    13  C    2.103240   2.152261   0.000000
    14  H    2.292442   2.495771   1.093026   0.000000
    15  H    3.034050   2.410799   1.093154   1.754862   0.000000
    16  N    2.753042   3.447339   1.537572   2.201923   2.179689
    17  C    4.053650   4.724443   2.595997   2.834242   2.953148
    18  C    4.130638   4.997546   3.011067   2.646190   3.561948
    19  C    3.726138   5.085534   3.454614   3.055987   4.328818
    20  C    4.614260   6.145236   4.499924   4.393896   5.365739
    21  C    4.867000   6.226050   4.471793   4.707157   5.188946
    22  C    5.035877   6.003687   3.997128   4.311020   4.438435
    23  H    5.577542   6.399443   4.478174   4.993516   4.768001
    24  H    5.866574   6.800801   4.709045   4.844389   5.075717
    25  H    4.306710   5.693262   4.176597   4.593831   4.938642
    26  H    5.862565   7.256439   5.536820   5.798840   6.220864
    27  H    4.562302   6.278435   4.932438   4.820483   5.906152
    28  H    5.616424   7.109249   5.389321   5.170718   6.192344
    29  H    2.765390   4.285811   3.007809   2.621277   4.023204
    30  H    4.321832   5.643186   4.181038   3.537723   5.023470
    31  H    4.048471   4.621834   2.798574   2.129034   3.216086
    32  H    5.219772   6.045853   4.027018   3.640150   4.438205
    33  C    5.086123   5.241276   3.178804   3.449044   2.969345
    34  C    6.085303   6.142306   4.212696   4.694969   3.857852
    35  H    6.153045   6.385237   4.505376   5.125503   4.302482
    36  C    7.275573   7.071508   5.290400   5.736056   4.711432
    37  H    7.936072   7.692567   6.021511   6.589183   5.420982
    38  C    7.607821   7.215488   5.524036   5.782761   4.821850
    39  H    8.512817   7.958220   6.416484   6.680452   5.617376
    40  C    6.805039   6.409695   4.722780   4.778285   4.054767
    41  H    7.261694   6.727672   5.221224   5.109259   4.513966
    42  C    5.671263   5.558499   3.665020   3.624850   3.247758
    43  H    5.426438   5.333069   3.558497   3.201264   3.263889
    44  H    2.393885   3.614601   2.025407   2.436375   2.942106
                   16         17         18         19         20
    16  N    0.000000
    17  C    1.507019   0.000000
    18  C    2.459445   1.569762   0.000000
    19  C    2.850811   2.556768   1.535293   0.000000
    20  C    3.425708   3.035083   2.601151   1.595690   0.000000
    21  C    3.056132   2.648333   3.031112   2.648755   1.515848
    22  C    2.565156   1.625723   2.532536   2.975817   2.530843
    23  H    3.005395   2.310361   3.528212   4.022584   3.468926
    24  H    3.425718   2.140530   2.597405   3.224602   2.784445
    25  H    2.764242   2.906848   3.537425   3.051412   2.149788
    26  H    4.082572   3.609811   4.000951   3.587704   2.179499
    27  H    3.977228   3.922849   3.475493   2.146537   1.091836
    28  H    4.345711   3.662862   3.004186   2.188525   1.092321
    29  H    2.688973   2.977839   2.244187   1.092411   2.221888
    30  H    3.838697   3.467524   2.105393   1.091737   2.255519
    31  H    2.832487   2.237061   1.092359   2.178599   3.554839
    32  H    3.402208   2.169352   1.091924   2.190181   2.897914
    33  C    2.574666   1.563299   2.569280   3.933255   4.496328
    34  C    3.440946   2.590769   3.836326   5.094353   5.341885
    35  H    3.449107   2.757020   4.183827   5.208748   5.158739
    36  C    4.751435   3.942074   5.029824   6.394995   6.705302
    37  H    5.407037   4.730103   5.953832   7.239223   7.403671
    38  C    5.305128   4.470645   5.249472   6.734671   7.297536
    39  H    6.304289   5.542426   6.302498   7.797760   8.384373
    40  C    4.742388   3.920445   4.391249   5.908391   6.715921
    41  H    5.483591   4.723588   4.928929   6.433814   7.400382
    42  C    3.584668   2.664405   2.998611   4.512644   5.378299
    43  H    3.765941   2.958179   2.745128   4.200914   5.318711
    44  H    1.000193   1.997079   2.496778   2.304274   2.759682
                   21         22         23         24         25
    21  C    0.000000
    22  C    1.511521   0.000000
    23  H    2.146436   1.092407   0.000000
    24  H    2.111628   1.092112   1.748275   0.000000
    25  H    1.091905   2.074236   2.395216   2.974991   0.000000
    26  H    1.091993   2.181325   2.470152   2.507967   1.707298
    27  H    2.185204   3.462924   4.291410   3.832264   2.425405
    28  H    2.160976   3.006387   3.942022   2.859588   3.036518
    29  H    3.141074   3.588045   4.524241   4.074730   3.173827
    30  H    3.565553   3.919546   4.998403   3.955134   4.057059
    31  H    4.084746   3.527033   4.442553   3.582703   4.479887
    32  H    3.324696   2.704560   3.685479   2.305265   4.081620
    33  C    4.002770   2.633830   2.895273   2.776559   4.295442
    34  C    4.498957   3.014374   2.758334   3.132032   4.735249
    35  H    4.060931   2.664795   2.047791   2.960941   4.198160
    36  C    5.880588   4.379663   4.045772   4.332959   6.141126
    37  H    6.413993   4.954056   4.399312   4.975419   6.590461
    38  C    6.704954   5.212826   5.099796   5.055605   7.029437
    39  H    7.776587   6.278968   6.106361   6.110725   8.079688
    40  C    6.383369   4.983031   5.145879   4.832032   6.734882
    41  H    7.233056   5.894922   6.154916   5.696545   7.606645
    42  C    5.175402   3.879495   4.258733   3.782108   5.553158
    43  H    5.419765   4.321725   4.908459   4.201956   5.824540
    44  H    2.612020   2.653432   3.245949   3.540971   2.214530
                   26         27         28         29         30
    26  H    0.000000
    27  H    2.635693   0.000000
    28  H    2.440076   1.714697   0.000000
    29  H    4.121242   2.335703   3.032421   0.000000
    30  H    4.380665   2.602916   2.431405   1.664482   0.000000
    31  H    5.081045   4.302250   3.939876   2.577497   2.405986
    32  H    4.103301   3.886797   2.909117   3.131890   2.450150
    33  C    4.811528   5.447665   4.951623   4.383116   4.671202
    34  C    5.091815   6.299808   5.760354   5.559107   5.905421
    35  H    4.509194   6.056674   5.622307   5.646099   6.125514
    36  C    6.402933   7.690156   7.042111   6.877525   7.124108
    37  H    6.825835   8.357219   7.764277   7.689220   8.033413
    38  C    7.324099   8.301662   7.580022   7.217644   7.313898
    39  H    8.373123   9.387456   8.655806   8.258547   8.350634
    40  C    7.140144   7.692520   7.007523   6.354436   6.371705
    41  H    8.029483   8.354441   7.649831   6.849622   6.752914
    42  C    6.008702   6.335711   5.705018   4.975447   4.991459
    43  H    6.325307   6.214101   5.611265   4.621610   4.480248
    44  H    3.656151   3.119621   3.781613   1.957746   3.322036
                   31         32         33         34         35
    31  H    0.000000
    32  H    1.697211   0.000000
    33  C    2.793644   2.767786   0.000000
    34  C    4.184507   3.895983   1.402666   0.000000
    35  H    4.738399   4.300277   2.139145   1.087628   0.000000
    36  C    5.210897   4.955652   2.523258   1.422933   2.132319
    37  H    6.207740   5.907095   3.446766   2.146332   2.397190
    38  C    5.172343   5.109512   2.910945   2.389938   3.342281
    39  H    6.155910   6.147498   3.980613   3.387332   4.250937
    40  C    4.099697   4.302482   2.440620   2.647304   3.732760
    41  H    4.428567   4.809916   3.363066   3.729497   4.816051
    42  C    2.746706   3.004348   1.420730   2.330233   3.331540
    43  H    2.140196   2.785198   2.206053   3.356588   4.292425
    44  H    3.005001   3.484634   3.378358   4.273707   4.173783
                   36         37         38         39         40
    36  C    0.000000
    37  H    1.087685   0.000000
    38  C    1.352338   2.144386   0.000000
    39  H    2.136326   2.513438   1.087012   0.000000
    40  C    2.307129   3.303707   1.361667   2.118094   0.000000
    41  H    3.318968   4.248073   2.150560   2.488586   1.087239
    42  C    2.772707   3.843583   2.443479   3.409344   1.397433
    43  H    3.853184   4.924949   3.377869   4.234509   2.117620
    44  H    5.637172   6.286371   6.212748   7.236431   5.608407
                   41         42         43         44
    41  H    0.000000
    42  C    2.069068   0.000000
    43  H    2.290681   1.087290   0.000000
    44  H    6.313989   4.362377   4.406959   0.000000
 Stoichiometry    C17H26N(1+)
 Framework group  C1[X(C17H26N)]
 Deg. of freedom   126
 Full point group                 C1      NOp   1
 Largest Abelian subgroup         C1      NOp   1
 Largest concise Abelian subgroup C1      NOp   1
                         Standard orientation:                         
 ---------------------------------------------------------------------
 Center     Atomic      Atomic             Coordinates (Angstroms)
 Number     Number       Type             X           Y           Z
 ---------------------------------------------------------------------
      1          6           0        2.580699   -2.762803   -0.084889
      2          6           0        2.457530   -1.843941   -1.282327
      3          6           0        1.034296   -1.163275   -1.292988
      4          1           0        1.009093   -0.712289   -2.288179
      5          1           0        0.293595   -1.965850   -1.355631
      6          1           0        3.147759   -1.011475   -1.125833
      7          1           0        2.599692   -2.356898   -2.235590
      8          1           0        1.780404   -3.463256   -0.334546
      9          1           0        3.598335   -3.155641   -0.108274
     10          6           0        2.214926   -2.122734    1.303747
     11          1           0        3.023714   -1.413367    1.495911
     12          1           0        2.132241   -2.982881    1.971674
     13          6           0        0.936159   -1.346238    1.248475
     14          1           0        0.927555   -0.809105    2.200378
     15          1           0        0.056652   -1.995420    1.244488
     16          7           0        0.920633   -0.399739    0.036854
     17          6           0       -0.116595    0.693542    0.035955
     18          6           0        0.166781    1.564203    1.311024
     19          6           0        1.627103    2.037438    1.336157
     20          6           0        2.026672    2.842449    0.017625
     21          6           0        1.530335    2.280167   -1.299677
     22          6           0        0.138486    1.696415   -1.217901
     23          1           0       -0.159131    1.302386   -2.192334
     24          1           0       -0.545903    2.518385   -0.997251
     25          1           0        2.159710    1.443258   -1.609076
     26          1           0        1.645318    2.987868   -2.123319
     27          1           0        3.114977    2.917262    0.063458
     28          1           0        1.695211    3.874907    0.149266
     29          1           0        2.379128    1.275251    1.552697
     30          1           0        1.719232    2.638638    2.242778
     31          1           0       -0.094682    1.057978    2.243023
     32          1           0       -0.532106    2.403143    1.305091
     33          6           0       -1.589878    0.171112    0.056174
     34          6           0       -2.300472   -0.072741   -1.128336
     35          1           0       -1.772256    0.046723   -2.071549
     36          6           0       -3.657656   -0.487751   -1.231080
     37          1           0       -3.981571   -0.875433   -2.194325
     38          6           0       -4.376585   -0.655970   -0.098092
     39          1           0       -5.335178   -1.168507   -0.096892
     40          6           0       -3.705670   -0.492915    1.075544
     41          1           0       -4.176730   -0.647641    2.043145
     42          6           0       -2.438034    0.083469    1.192582
     43          1           0       -2.085300    0.272922    2.203466
     44          1           0        1.787224    0.094645    0.107502
 ---------------------------------------------------------------------
 Rotational constants (GHZ):           0.5478786           0.3319136           0.2725784
 Leave Link  202 at Mon Jul 12 12:48:45 2021, MaxMem=   104857600 cpu:               0.0 elap:               0.0
 (Enter /dades/curu/g16A03_MST/g16/l301.exe)
 Standard basis: 6-31G(d) (6D, 7F)
 Ernie: Thresh=  0.10000D-02 Tol=  0.10000D-05 Strict=F.
 There are   322 symmetry adapted cartesian basis functions of A   symmetry.
 There are   322 symmetry adapted basis functions of A   symmetry.
   322 basis functions,   608 primitive gaussians,   322 cartesian basis functions
    67 alpha electrons       67 beta electrons
       nuclear repulsion energy      1422.4807132104 Hartrees.
 IExCor=  402 DFT=T Ex+Corr=B3LYP ExCW=0 ScaHFX=  0.200000
 ScaDFX=  0.800000  0.720000  1.000000  0.810000 ScalE2=  1.000000  1.000000
 IRadAn=      5 IRanWt=     -1 IRanGd=            0 ICorTp=0 IEmpDi=  4
 NAtoms=   44 NActive=   44 NUniq=   44 SFac= 1.00D+00 NAtFMM=   60 NAOKFM=F Big=F
 Integral buffers will be    131072 words long.
 Raffenetti 2 integral format.
 Two-electron integral symmetry is turned on.
 Using the following non-standard input for PCM:
 MSTModel=DFT cav MSTCharged
 --- end of non-standard input.
 MST model for solvation energy: B3LYP parametrization.
 MST cavity parameters:
 ISph   IAn     Re0     Alpha   Atom Type   QCorr
 ------------------------------------------------
   1      6     1.50     1.50      CH2        F
   2      6     1.50     1.50      CH2        F
   3      6     1.50     1.50      CN+        F
   4      1     1.20     1.50      CN+        F
   5      1     1.20     1.50      CN+        F
   6      1     1.20     1.50      CH2        F
   7      1     1.20     1.50      CH2        F
   8      1     1.20     1.50      CH2        F
   9      1     1.20     1.50      CH2        F
  10      6     1.50     1.50      CH2        F
  11      1     1.20     1.50      CH2        F
  12      1     1.20     1.50      CH2        F
  13      6     1.50     1.50      CN+        F
  14      1     1.20     1.50      CN+        F
  15      1     1.20     1.50      CN+        F
  16      7     1.50     1.15      NH+        T
  17      6     1.50     1.50      CN+        F
  18      6     1.50     1.50      CH2        F
  19      6     1.50     1.50      CH2        F
  20      6     1.50     1.50      CH2        F
  21      6     1.50     1.50      CH2        F
  22      6     1.50     1.50      CH2        F
  23      1     1.20     1.50      CH2        F
  24      1     1.20     1.50      CH2        F
  25      1     1.20     1.50      CH2        F
  26      1     1.20     1.50      CH2        F
  27      1     1.20     1.50      CH2        F
  28      1     1.20     1.50      CH2        F
  29      1     1.20     1.50      CH2        F
  30      1     1.20     1.50      CH2        F
  31      1     1.20     1.50      CH2        F
  32      1     1.20     1.50      CH2        F
  33      6     1.50     1.50      C          F
  34      6     1.50     1.50      CH         F
  35      1     1.20     1.50      CH         F
  36      6     1.50     1.50      CH         F
  37      1     1.20     1.50      CH         F
  38      6     1.50     1.50      CH         F
  39      1     1.20     1.50      CH         F
  40      6     1.50     1.50      CH         F
  41      1     1.20     1.50      CH         F
  42      6     1.50     1.50      CH         F
  43      1     1.20     1.50      CH         F
  44      1     0.90     1.15      NH+        T
 ------------------------------------------------------------------------------
 Polarizable Continuum Model (PCM)
 =================================
 Model                : PCM.
 Atomic radii         : MST.
 Polarization charges : Total charges.
 Charge compensation  : None.
 Solution method      : On-the-fly selection.
 Cavity type          : Scaled VdW (van der Waals Surface) (Alpha=1.500).
 Cavity algorithm     : GePol (No added spheres)
                        Default sphere list used, NSphG=   44.
                        Lebedev-Laikov grids with approx.  5.0 points / Ang**2.
                        Smoothing algorithm: York/Karplus (Gamma=1.0000).
                        Polarization charges: spherical gaussians, with
                                              point-specific exponents (IZeta= 3).
                        Self-potential: point-specific (ISelfS= 7).
                        Self-field    : sphere-specific E.n sum rule (ISelfD= 2).
 1st derivatives      : Analytical E(r).r(x)/FMM algorithm (CHGder, D1EAlg=3).
                        Cavity 1st derivative terms included.
 Solvent              : n-Octanol, Eps=   9.862900 Eps(inf)=   2.043470
 ------------------------------------------------------------------------------
 GePol: Number of generator spheres                  =      44
 GePol: Total number of spheres                      =      44
 GePol: Number of exposed spheres                    =      42 ( 95.45%)
 GePol: Number of points                             =    3442
 GePol: Average weight of points                     =       0.11
 GePol: Minimum weight of points                     =   0.36D-11
 GePol: Maximum weight of points                     =    0.16211
 GePol: Number of points with low weight             =     187
 GePol: Fraction of low-weight points (<1% of avg)   =       5.43%
 GePol: Cavity surface area                          =    362.233 Ang**2
 GePol: Cavity volume                                =    453.815 Ang**3
 Surface areas from nonelectrostatic (unscaled) cavity and vdw tensions:
 Sphere =    1 Type =  CH2 Surf =        3.818 Tension =       -0.194
 Sphere =    2 Type =  CH2 Surf =        3.547 Tension =       -0.194
 Sphere =    3 Type =  CN+ Surf =        3.999 Tension =       -0.227
 Sphere =    4 Type =  CN+ Surf =        9.635 Tension =       -0.227
 Sphere =    5 Type =  CN+ Surf =        9.830 Tension =       -0.227
 Sphere =    6 Type =  CH2 Surf =        9.789 Tension =       -0.194
 Sphere =    7 Type =  CH2 Surf =       10.076 Tension =       -0.194
 Sphere =    8 Type =  CH2 Surf =        9.487 Tension =       -0.194
 Sphere =    9 Type =  CH2 Surf =       10.063 Tension =       -0.194
 Sphere =   10 Type =  CH2 Surf =        3.875 Tension =       -0.194
 Sphere =   11 Type =  CH2 Surf =        9.931 Tension =       -0.194
 Sphere =   12 Type =  CH2 Surf =       10.002 Tension =       -0.194
 Sphere =   13 Type =  CN+ Surf =        3.704 Tension =       -0.227
 Sphere =   14 Type =  CN+ Surf =        8.813 Tension =       -0.227
 Sphere =   15 Type =  CN+ Surf =       10.081 Tension =       -0.227
 Sphere =   16 Type =  NH+ Surf =        3.451 Tension =       -0.274
 Sphere =   17 Type =  CN+ Surf =        1.971 Tension =       -0.227
 Sphere =   18 Type =  CH2 Surf =        3.068 Tension =       -0.194
 Sphere =   19 Type =  CH2 Surf =        3.648 Tension =       -0.194
 Sphere =   20 Type =  CH2 Surf =        4.063 Tension =       -0.194
 Sphere =   21 Type =  CH2 Surf =        3.826 Tension =       -0.194
 Sphere =   22 Type =  CH2 Surf =        3.424 Tension =       -0.194
 Sphere =   23 Type =  CH2 Surf =        8.598 Tension =       -0.194
 Sphere =   24 Type =  CH2 Surf =        9.481 Tension =       -0.194
 Sphere =   25 Type =  CH2 Surf =        9.799 Tension =       -0.194
 Sphere =   26 Type =  CH2 Surf =       10.057 Tension =       -0.194
 Sphere =   27 Type =  CH2 Surf =        9.935 Tension =       -0.194
 Sphere =   28 Type =  CH2 Surf =        9.996 Tension =       -0.194
 Sphere =   29 Type =  CH2 Surf =        9.590 Tension =       -0.194
 Sphere =   30 Type =  CH2 Surf =        9.899 Tension =       -0.194
 Sphere =   31 Type =  CH2 Surf =        8.147 Tension =       -0.194
 Sphere =   32 Type =  CH2 Surf =        9.696 Tension =       -0.194
 Sphere =   33 Type =  C   Surf =        6.526 Tension =       -0.205
 Sphere =   34 Type =  CH  Surf =        7.567 Tension =       -0.195
 Sphere =   35 Type =  CH  Surf =        8.831 Tension =       -0.195
 Sphere =   36 Type =  CH  Surf =        7.768 Tension =       -0.195
 Sphere =   37 Type =  CH  Surf =       10.227 Tension =       -0.195
 Sphere =   38 Type =  CH  Surf =        7.696 Tension =       -0.195
 Sphere =   39 Type =  CH  Surf =       10.237 Tension =       -0.195
 Sphere =   40 Type =  CH  Surf =        7.487 Tension =       -0.195
 Sphere =   41 Type =  CH  Surf =       10.133 Tension =       -0.195
 Sphere =   42 Type =  CH  Surf =        7.719 Tension =       -0.195
 Sphere =   43 Type =  CH  Surf =        9.254 Tension =       -0.195
 Sphere =   44 Type =  NH+ Surf =        3.234 Tension =       -0.274
 PCM non-electrostatic energy =        -0.0175002282 Hartrees.
 Nuclear repulsion after PCM non-electrostatic terms =     1422.4632129822 Hartrees.
 Leave Link  301 at Mon Jul 12 12:48:45 2021, MaxMem=   104857600 cpu:               0.1 elap:               0.1
 (Enter /dades/curu/g16A03_MST/g16/l302.exe)
 NPDir=0 NMtPBC=     1 NCelOv=     1 NCel=       1 NClECP=     1 NCelD=      1
         NCelK=      1 NCelE2=     1 NClLst=     1 CellRange=     0.0.
 One-electron integrals computed using PRISM.
 One-electron integral symmetry used in STVInt
 NBasis=   322 RedAO= T EigKep=  6.74D-04  NBF=   322
 NBsUse=   322 1.00D-06 EigRej= -1.00D+00 NBFU=   322
 Precomputing XC quadrature grid using
 IXCGrd= 4 IRadAn=           5 IRanWt=          -1 IRanGd=           0 AccXCQ= 0.00D+00.
 Generated NRdTot=       0 NPtTot=           0 NUsed=           0 NTot=          32
 NSgBfM=   321   321   321   321   321 MxSgAt=    44 MxSgA2=    44.
 Leave Link  302 at Mon Jul 12 12:48:47 2021, MaxMem=   104857600 cpu:               7.3 elap:               1.9
 (Enter /dades/curu/g16A03_MST/g16/l303.exe)
 DipDrv:  MaxL=1.
 Leave Link  303 at Mon Jul 12 12:48:47 2021, MaxMem=   104857600 cpu:               0.1 elap:               0.1
 (Enter /dades/curu/g16A03_MST/g16/l401.exe)
 ExpMin= 1.61D-01 ExpMax= 4.17D+03 ExpMxC= 6.27D+02 IAcc=3 IRadAn=         5 AccDes= 0.00D+00
 Harris functional with IExCor=  402 and IRadAn=       5 diagonalized for initial guess.
 HarFok:  IExCor=  402 AccDes= 0.00D+00 IRadAn=         5 IDoV= 1 UseB2=F ITyADJ=14
 ICtDFT=  3500011 ScaDFX=  1.000000  1.000000  1.000000  1.000000
 FoFCou: FMM=F IPFlag=           0 FMFlag=      100000 FMFlg1=           0
         NFxFlg=           0 DoJE=T BraDBF=F KetDBF=T FulRan=T
         wScrn=  0.000000 ICntrl=       500 IOpCl=  0 I1Cent=   200000004 NGrid=           0
         NMat0=    1 NMatS0=      1 NMatT0=    0 NMatD0=    1 NMtDS0=    0 NMtDT0=    0
 Petite list used in FoFCou.
 Harris En= -718.009568387145    
 JPrj=0 DoOrth=F DoCkMO=F.
 Leave Link  401 at Mon Jul 12 12:48:59 2021, MaxMem=   104857600 cpu:              48.9 elap:              12.3
 (Enter /dades/curu/g16A03_MST/g16/l502.exe)
 Integral symmetry usage will be decided dynamically.
 Closed shell SCF:
 Using DIIS extrapolation, IDIIS=  1040.
 NGot=   104857600 LenX=   104644386 LenY=   104540261
 Requested convergence on RMS density matrix=1.00D-08 within 128 cycles.
 Requested convergence on MAX density matrix=1.00D-06.
 Requested convergence on             energy=1.00D-06.
 No special actions if energy rises.
 Fock matrices will be formed incrementally for  20 cycles.

 Cycle   1  Pass 1  IDiag  1:
 FoFJK:  IHMeth= 1 ICntrl=       0 DoSepK=F KAlg= 0 I1Cent=           0 FoldK=F
 IRaf= 870000000 NMat=       1 IRICut=       1 DoRegI=T DoRafI=F ISym2E= 0 IDoP0=0 IntGTp=1.
 FoFCou: FMM=F IPFlag=           0 FMFlag=      100000 FMFlg1=           0
         NFxFlg=           0 DoJE=F BraDBF=F KetDBF=F FulRan=T
         wScrn=  0.000000 ICntrl=         0 IOpCl=  0 I1Cent=           0 NGrid=           0
         NMat0=    1 NMatS0=      1 NMatT0=    0 NMatD0=    1 NMtDS0=    0 NMtDT0=    0
 Symmetry not used in FoFCou.
 Inv3:  Mode=1 IEnd=    35542092.
 Iteration    1 A*A^-1 deviation from unit magnitude is 7.77D-15 for    854.
 Iteration    1 A*A^-1 deviation from orthogonality  is 2.53D-15 for   3140   1716.
 Iteration    1 A^-1*A deviation from unit magnitude is 7.33D-15 for    854.
 Iteration    1 A^-1*A deviation from orthogonality  is 2.12D-15 for   2620    851.
 E= -717.540858974812    
 DIIS: error= 2.58D-02 at cycle   1 NSaved=   1.
 NSaved= 1 IEnMin= 1 EnMin= -717.540858974812     IErMin= 1 ErrMin= 2.58D-02
 ErrMax= 2.58D-02  0.00D+00 EMaxC= 1.00D-01 BMatC= 4.44D-01 BMatP= 4.44D-01
 IDIUse=3 WtCom= 7.42D-01 WtEn= 2.58D-01
 Coeff-Com:  0.100D+01
 Coeff-En:   0.100D+01
 Coeff:      0.100D+01
 Gap=     0.225 Goal=   None    Shift=    0.000
 GapD=    0.225 DampG=1.000 DampE=0.500 DampFc=0.5000 IDamp=-1.
 Damping current iteration by 5.00D-01
 RMSDP=4.72D-03 MaxDP=1.19D-01              OVMax= 1.87D-01

 Cycle   2  Pass 1  IDiag  1:
 RMSU=  2.32D-03    CP:  9.76D-01
 E= -717.748631425311     Delta-E=       -0.207772450499 Rises=F Damp=T
 DIIS: error= 5.80D-03 at cycle   2 NSaved=   2.
 NSaved= 2 IEnMin= 2 EnMin= -717.748631425311     IErMin= 2 ErrMin= 5.80D-03
 ErrMax= 5.80D-03  0.00D+00 EMaxC= 1.00D-01 BMatC= 3.36D-02 BMatP= 4.44D-01
 IDIUse=3 WtCom= 9.42D-01 WtEn= 5.80D-02
 Coeff-Com:  0.731D-01 0.927D+00
 Coeff-En:   0.115D+00 0.885D+00
 Coeff:      0.756D-01 0.924D+00
 Gap=     0.254 Goal=   None    Shift=    0.000
 RMSDP=1.16D-03 MaxDP=4.73D-02 DE=-2.08D-01 OVMax= 1.52D-01

 Cycle   3  Pass 1  IDiag  1:
 RMSU=  1.12D-03    CP:  9.70D-01  8.80D-01
 E= -717.997024107690     Delta-E=       -0.248392682379 Rises=F Damp=F
 DIIS: error= 5.83D-03 at cycle   3 NSaved=   3.
 NSaved= 3 IEnMin= 3 EnMin= -717.997024107690     IErMin= 2 ErrMin= 5.80D-03
 ErrMax= 5.83D-03  0.00D+00 EMaxC= 1.00D-01 BMatC= 1.97D-02 BMatP= 3.36D-02
 IDIUse=3 WtCom= 9.42D-01 WtEn= 5.83D-02
 Coeff-Com: -0.165D-01 0.424D+00 0.593D+00
 Coeff-En:   0.000D+00 0.000D+00 0.100D+01
 Coeff:     -0.156D-01 0.399D+00 0.616D+00
 Gap=     0.224 Goal=   None    Shift=    0.000
 RMSDP=7.39D-04 MaxDP=3.36D-02 DE=-2.48D-01 OVMax= 6.99D-02

 Cycle   4  Pass 1  IDiag  1:
 RMSU=  5.69D-04    CP:  9.71D-01  9.53D-01  6.08D-01
 E= -718.009613291785     Delta-E=       -0.012589184096 Rises=F Damp=F
 DIIS: error= 3.07D-03 at cycle   4 NSaved=   4.
 NSaved= 4 IEnMin= 4 EnMin= -718.009613291785     IErMin= 4 ErrMin= 3.07D-03
 ErrMax= 3.07D-03  0.00D+00 EMaxC= 1.00D-01 BMatC= 6.25D-03 BMatP= 1.97D-02
 IDIUse=3 WtCom= 9.69D-01 WtEn= 3.07D-02
 Coeff-Com: -0.143D-01 0.118D+00 0.380D+00 0.516D+00
 Coeff-En:   0.000D+00 0.000D+00 0.283D+00 0.717D+00
 Coeff:     -0.139D-01 0.114D+00 0.377D+00 0.522D+00
 Gap=     0.227 Goal=   None    Shift=    0.000
 RMSDP=3.48D-04 MaxDP=1.67D-02 DE=-1.26D-02 OVMax= 3.64D-02

 Cycle   5  Pass 1  IDiag  1:
 RMSU=  1.38D-04    CP:  9.70D-01  9.36D-01  7.10D-01  4.82D-01
 E= -718.016046462101     Delta-E=       -0.006433170315 Rises=F Damp=F
 DIIS: error= 7.11D-04 at cycle   5 NSaved=   5.
 NSaved= 5 IEnMin= 5 EnMin= -718.016046462101     IErMin= 5 ErrMin= 7.11D-04
 ErrMax= 7.11D-04  0.00D+00 EMaxC= 1.00D-01 BMatC= 3.15D-04 BMatP= 6.25D-03
 IDIUse=3 WtCom= 9.93D-01 WtEn= 7.11D-03
 Coeff-Com: -0.504D-02 0.171D-01 0.128D+00 0.263D+00 0.597D+00
 Coeff-En:   0.000D+00 0.000D+00 0.000D+00 0.000D+00 0.100D+01
 Coeff:     -0.500D-02 0.170D-01 0.127D+00 0.261D+00 0.600D+00
 Gap=     0.226 Goal=   None    Shift=    0.000
 RMSDP=6.90D-05 MaxDP=3.04D-03 DE=-6.43D-03 OVMax= 8.41D-03

 Cycle   6  Pass 1  IDiag  1:
 RMSU=  4.06D-05    CP:  9.70D-01  9.39D-01  7.10D-01  5.39D-01  6.77D-01
 E= -718.016353153657     Delta-E=       -0.000306691556 Rises=F Damp=F
 DIIS: error= 2.02D-04 at cycle   6 NSaved=   6.
 NSaved= 6 IEnMin= 6 EnMin= -718.016353153657     IErMin= 6 ErrMin= 2.02D-04
 ErrMax= 2.02D-04  0.00D+00 EMaxC= 1.00D-01 BMatC= 3.35D-05 BMatP= 3.15D-04
 IDIUse=3 WtCom= 9.98D-01 WtEn= 2.02D-03
 Coeff-Com: -0.195D-02 0.302D-02 0.494D-01 0.118D+00 0.343D+00 0.489D+00
 Coeff-En:   0.000D+00 0.000D+00 0.000D+00 0.000D+00 0.351D-02 0.996D+00
 Coeff:     -0.194D-02 0.302D-02 0.493D-01 0.117D+00 0.342D+00 0.490D+00
 Gap=     0.226 Goal=   None    Shift=    0.000
 RMSDP=2.09D-05 MaxDP=7.29D-04 DE=-3.07D-04 OVMax= 2.29D-03

 Cycle   7  Pass 1  IDiag  1:
 RMSU=  9.57D-06    CP:  9.70D-01  9.39D-01  7.15D-01  5.44D-01  6.90D-01
                    CP:  5.67D-01
 E= -718.016385918690     Delta-E=       -0.000032765033 Rises=F Damp=F
 DIIS: error= 3.73D-05 at cycle   7 NSaved=   7.
 NSaved= 7 IEnMin= 7 EnMin= -718.016385918690     IErMin= 7 ErrMin= 3.73D-05
 ErrMax= 3.73D-05  0.00D+00 EMaxC= 1.00D-01 BMatC= 1.12D-06 BMatP= 3.35D-05
 IDIUse=1 WtCom= 1.00D+00 WtEn= 0.00D+00
 Coeff-Com: -0.607D-03 0.366D-03 0.155D-01 0.395D-01 0.124D+00 0.231D+00
 Coeff-Com:  0.590D+00
 Coeff:     -0.607D-03 0.366D-03 0.155D-01 0.395D-01 0.124D+00 0.231D+00
 Coeff:      0.590D+00
 Gap=     0.226 Goal=   None    Shift=    0.000
 RMSDP=4.67D-06 MaxDP=1.83D-04 DE=-3.28D-05 OVMax= 3.58D-04

 Cycle   8  Pass 1  IDiag  1:
 RMSU=  2.67D-06    CP:  9.70D-01  9.38D-01  7.14D-01  5.46D-01  6.94D-01
                    CP:  5.77D-01  6.34D-01
 E= -718.016386897943     Delta-E=       -0.000000979254 Rises=F Damp=F
 DIIS: error= 1.03D-05 at cycle   8 NSaved=   8.
 NSaved= 8 IEnMin= 8 EnMin= -718.016386897943     IErMin= 8 ErrMin= 1.03D-05
 ErrMax= 1.03D-05  0.00D+00 EMaxC= 1.00D-01 BMatC= 1.11D-07 BMatP= 1.12D-06
 IDIUse=1 WtCom= 1.00D+00 WtEn= 0.00D+00
 Coeff-Com: -0.451D-04-0.228D-03 0.151D-02 0.475D-02 0.189D-01 0.531D-01
 Coeff-Com:  0.280D+00 0.642D+00
 Coeff:     -0.451D-04-0.228D-03 0.151D-02 0.475D-02 0.189D-01 0.531D-01
 Coeff:      0.280D+00 0.642D+00
 Gap=     0.226 Goal=   None    Shift=    0.000
 RMSDP=1.31D-06 MaxDP=5.65D-05 DE=-9.79D-07 OVMax= 8.07D-05

 Cycle   9  Pass 1  IDiag  1:
 RMSU=  6.28D-07    CP:  9.70D-01  9.38D-01  7.14D-01  5.46D-01  6.95D-01
                    CP:  5.85D-01  6.97D-01  6.68D-01
 E= -718.016387005992     Delta-E=       -0.000000108049 Rises=F Damp=F
 DIIS: error= 1.82D-06 at cycle   9 NSaved=   9.
 NSaved= 9 IEnMin= 9 EnMin= -718.016387005992     IErMin= 9 ErrMin= 1.82D-06
 ErrMax= 1.82D-06  0.00D+00 EMaxC= 1.00D-01 BMatC= 3.99D-09 BMatP= 1.11D-07
 IDIUse=1 WtCom= 1.00D+00 WtEn= 0.00D+00
 Coeff-Com:  0.174D-04-0.104D-03-0.272D-03-0.481D-03 0.163D-03 0.693D-02
 Coeff-Com:  0.678D-01 0.238D+00 0.688D+00
 Coeff:      0.174D-04-0.104D-03-0.272D-03-0.481D-03 0.163D-03 0.693D-02
 Coeff:      0.678D-01 0.238D+00 0.688D+00
 Gap=     0.226 Goal=   None    Shift=    0.000
 RMSDP=2.96D-07 MaxDP=9.76D-06 DE=-1.08D-07 OVMax= 2.55D-05

 Cycle  10  Pass 1  IDiag  1:
 RMSU=  1.94D-07    CP:  9.70D-01  9.38D-01  7.14D-01  5.46D-01  6.95D-01
                    CP:  5.86D-01  7.04D-01  7.05D-01  7.13D-01
 E= -718.016387009315     Delta-E=       -0.000000003323 Rises=F Damp=F
 DIIS: error= 1.12D-06 at cycle  10 NSaved=  10.
 NSaved=10 IEnMin=10 EnMin= -718.016387009315     IErMin=10 ErrMin= 1.12D-06
 ErrMax= 1.12D-06  0.00D+00 EMaxC= 1.00D-01 BMatC= 7.43D-10 BMatP= 3.99D-09
 IDIUse=1 WtCom= 1.00D+00 WtEn= 0.00D+00
 Coeff-Com:  0.123D-04-0.416D-04-0.236D-03-0.570D-03-0.108D-02 0.579D-03
 Coeff-Com:  0.188D-01 0.897D-01 0.376D+00 0.517D+00
 Coeff:      0.123D-04-0.416D-04-0.236D-03-0.570D-03-0.108D-02 0.579D-03
 Coeff:      0.188D-01 0.897D-01 0.376D+00 0.517D+00
 Gap=     0.226 Goal=   None    Shift=    0.000
 RMSDP=1.12D-07 MaxDP=5.89D-06 DE=-3.32D-09 OVMax= 1.37D-05

 Cycle  11  Pass 1  IDiag  1:
 RMSU=  6.45D-08    CP:  9.70D-01  9.38D-01  7.14D-01  5.46D-01  6.95D-01
                    CP:  5.85D-01  7.03D-01  7.08D-01  7.68D-01  5.73D-01
 E= -718.016387010107     Delta-E=       -0.000000000792 Rises=F Damp=F
 DIIS: error= 3.36D-07 at cycle  11 NSaved=  11.
 NSaved=11 IEnMin=11 EnMin= -718.016387010107     IErMin=11 ErrMin= 3.36D-07
 ErrMax= 3.36D-07  0.00D+00 EMaxC= 1.00D-01 BMatC= 5.67D-11 BMatP= 7.43D-10
 IDIUse=1 WtCom= 1.00D+00 WtEn= 0.00D+00
 Coeff-Com:  0.431D-05-0.990D-05-0.856D-04-0.235D-03-0.527D-03-0.315D-03
 Coeff-Com:  0.232D-02 0.207D-01 0.118D+00 0.264D+00 0.597D+00
 Coeff:      0.431D-05-0.990D-05-0.856D-04-0.235D-03-0.527D-03-0.315D-03
 Coeff:      0.232D-02 0.207D-01 0.118D+00 0.264D+00 0.597D+00
 Gap=     0.226 Goal=   None    Shift=    0.000
 RMSDP=3.12D-08 MaxDP=1.69D-06 DE=-7.92D-10 OVMax= 3.78D-06

 Cycle  12  Pass 1  IDiag  1:
 RMSU=  1.70D-08    CP:  9.70D-01  9.38D-01  7.14D-01  5.46D-01  6.95D-01
                    CP:  5.86D-01  7.03D-01  7.10D-01  7.72D-01  6.39D-01
                    CP:  6.79D-01
 E= -718.016387010159     Delta-E=       -0.000000000052 Rises=F Damp=F
 DIIS: error= 7.02D-08 at cycle  12 NSaved=  12.
 NSaved=12 IEnMin=12 EnMin= -718.016387010159     IErMin=12 ErrMin= 7.02D-08
 ErrMax= 7.02D-08  0.00D+00 EMaxC= 1.00D-01 BMatC= 4.14D-12 BMatP= 5.67D-11
 IDIUse=1 WtCom= 1.00D+00 WtEn= 0.00D+00
 Coeff-Com:  0.115D-05-0.174D-05-0.234D-04-0.718D-04-0.174D-03-0.189D-03
 Coeff-Com: -0.433D-03 0.300D-02 0.270D-01 0.865D-01 0.287D+00 0.597D+00
 Coeff:      0.115D-05-0.174D-05-0.234D-04-0.718D-04-0.174D-03-0.189D-03
 Coeff:     -0.433D-03 0.300D-02 0.270D-01 0.865D-01 0.287D+00 0.597D+00
 Gap=     0.226 Goal=   None    Shift=    0.000
 RMSDP=7.86D-09 MaxDP=2.52D-07 DE=-5.18D-11 OVMax= 6.91D-07

 Error on total polarization charges =  0.00769
 SCF Done:  E(RB3LYP) =  -718.016387010     A.U. after   12 cycles
            NFock= 12  Conv=0.79D-08     -V/T= 2.0100
 KE= 7.109224007776D+02 PE=-4.485504304464D+03 EE= 1.634102303694D+03
 Leave Link  502 at Mon Jul 12 12:54:38 2021, MaxMem=   104857600 cpu:            1321.2 elap:             338.8
 (Enter /dades/curu/g16A03_MST/g16/l601.exe)
 Copying SCF densities to generalized density rwf, IOpCl= 0 IROHF=0.

 **********************************************************************

            Population analysis using the SCF density.

 **********************************************************************

 Orbital symmetries:
       Occupied  (A) (A) (A) (A) (A) (A) (A) (A) (A) (A) (A) (A)
                 (A) (A) (A) (A) (A) (A) (A) (A) (A) (A) (A) (A)
                 (A) (A) (A) (A) (A) (A) (A) (A) (A) (A) (A) (A)
                 (A) (A) (A) (A) (A) (A) (A) (A) (A) (A) (A) (A)
                 (A) (A) (A) (A) (A) (A) (A) (A) (A) (A) (A) (A)
[...]
    17  C   -0.896353   0.353406  -0.968836  -2.260435   0.097064   0.444949
    18  C    0.352222  -0.540794   0.200078   0.679627   0.190932  -0.216190
    19  C    6.068882   0.490663  -0.246481   0.156435   0.013813  -0.039018
    20  C    0.490663   5.177288   0.505277  -0.508911   0.063600  -0.042620
    21  C   -0.246481   0.505277   5.989094   0.449162   0.209719  -0.280301
    22  C    0.156435  -0.508911   0.449162   8.344285  -0.211234  -0.269688
    23  H    0.013813   0.063600   0.209719  -0.211234   2.593946  -0.823760
    24  H   -0.039018  -0.042620  -0.280301  -0.269688  -0.823760   2.049264
    25  H   -0.031277  -0.084467   0.143550   0.008521  -0.107052   0.095395
    26  H    0.064711  -0.006574  -0.133460  -0.024134  -0.071374  -0.043327
    27  H    0.004857  -0.005059   0.020305   0.183709  -0.001365   0.006881
    28  H   -0.034639   0.167328  -0.053862   0.062368   0.027258  -0.027975
    29  H    0.171682  -0.082105  -0.039111  -0.057531   0.016949  -0.022224
    30  H   -0.158657  -0.005744   0.066212  -0.031034  -0.009891   0.014225
    31  H    0.197981   0.064397   0.016484   0.183043   0.010974   0.000962
    32  H   -0.269163  -0.035801  -0.044402  -0.192347   0.004108  -0.045375
    33  C   -0.226820   0.114772  -0.283103  -1.090965  -0.000064  -0.116061
    34  C   -0.026469  -0.060496   0.008747   0.637650   0.106384   0.162287
    35  H   -0.003929   0.009491  -0.022592  -0.184224  -0.177536  -0.052186
    36  C   -0.019089   0.011617   0.012784  -0.359385   0.010809   0.023791
    37  H    0.000178   0.000093  -0.001962  -0.003476   0.004546   0.000476
    38  C   -0.003892  -0.006060  -0.004660   0.013177   0.006763   0.019368
    39  H    0.000075  -0.000095   0.000082   0.005075  -0.000689  -0.000276
    40  C    0.007595   0.008035  -0.017586  -0.037623  -0.019936  -0.018172
    41  H   -0.002257   0.000040   0.000188   0.013809   0.001350  -0.001513
    42  C   -0.022027  -0.073432  -0.044062  -0.558912  -0.078342  -0.020389
    43  H   -0.014783   0.010557  -0.002934   0.037507  -0.005946   0.020890
    44  H   -0.032047   0.058439  -0.022904  -0.041785  -0.001475  -0.002672
              25         26         27         28         29         30
     1  C   -0.001625  -0.000353   0.000176  -0.000230  -0.000680  -0.000720
     2  C   -0.013768  -0.000948   0.003065  -0.002241  -0.020787   0.003359
     3  C   -0.107703   0.056720   0.004404  -0.002076   0.057349  -0.009104
     4  H   -0.077730   0.021321   0.003646  -0.005151  -0.000499  -0.001432
     5  H   -0.000785   0.005330   0.000394   0.000202   0.000761  -0.001382
     6  H   -0.008204   0.003905   0.000945  -0.000020  -0.006242  -0.000366
     7  H    0.007332  -0.001127  -0.000226   0.000066   0.001623   0.000149
     8  H   -0.002739   0.000076   0.000152  -0.000021  -0.002857   0.000088
     9  H    0.001116   0.000083   0.000029  -0.000088   0.001357   0.000038
    10  C   -0.020562   0.003538   0.002962  -0.002335  -0.014616  -0.000010
    11  H   -0.005203  -0.000197   0.000839  -0.000111  -0.008266   0.004520
    12  H    0.001557   0.000105  -0.000192   0.000090   0.006660  -0.001204
    13  C    0.064933  -0.010123   0.003971  -0.002556  -0.104949   0.058566
    14  H   -0.002781  -0.001448   0.003928  -0.005610  -0.074913   0.021092
    15  H    0.001498  -0.001173   0.000164   0.000224   0.003477   0.004796
    16  N    0.083511   0.020559   0.060134  -0.051027   0.040318   0.033818
    17  C    0.009921   0.181343  -0.257610  -0.027086  -0.005722   0.191188
    18  C   -0.060335  -0.024513   0.193824   0.057759   0.006777  -0.007490
    19  C   -0.031277   0.064711   0.004857  -0.034639   0.171682  -0.158657
    20  C   -0.084467  -0.006574  -0.005059   0.167328  -0.082105  -0.005744
    21  C    0.143550  -0.133460   0.020305  -0.053862  -0.039111   0.066212
    22  C    0.008521  -0.024134   0.183709   0.062368  -0.057531  -0.031034
    23  H   -0.107052  -0.071374  -0.001365   0.027258   0.016949  -0.009891
    24  H    0.095395  -0.043327   0.006881  -0.027975  -0.022224   0.014225
    25  H    1.663609  -0.437538  -0.125929   0.107623  -0.003481   0.008383
    26  H   -0.437538   1.542310   0.034598  -0.119624   0.007814   0.002547
    27  H   -0.125929   0.034598   1.441154  -0.333060  -0.126582   0.036879
    28  H    0.107623  -0.119624  -0.333060   1.386898   0.106952  -0.122003
    29  H   -0.003481   0.007814  -0.126582   0.106952   1.650301  -0.440024
    30  H    0.008383   0.002547   0.036879  -0.122003  -0.440024   1.538402
    31  H    0.016469  -0.009619  -0.000696   0.027361  -0.112704  -0.072106
    32  H   -0.023652   0.014159   0.007114  -0.029503   0.098727  -0.043073
    33  C    0.025411   0.014397  -0.030504   0.001989   0.037597   0.007282
    34  C   -0.017074   0.040978  -0.001672  -0.007159   0.014218   0.004022
    35  H   -0.002271   0.010497  -0.000868  -0.001790  -0.001892   0.002543
    36  C   -0.014968   0.005651   0.001364  -0.001421   0.002039  -0.003649
    37  H   -0.000052  -0.000273   0.000058   0.000085   0.000011  -0.000178
    38  C    0.000514   0.002114  -0.000466  -0.001230   0.000962   0.001709
    39  H   -0.000003   0.000088  -0.000006  -0.000006   0.000012   0.000070
    40  C    0.002643  -0.003917   0.001140  -0.002225  -0.015394   0.007515
    41  H    0.000034  -0.000194   0.000066   0.000063  -0.000148  -0.000184
    42  C    0.016936   0.003977  -0.003302  -0.007163  -0.013564   0.040751
    43  H   -0.002003   0.002918  -0.001141  -0.001423  -0.001334   0.010232
    44  H   -0.010185   0.009016   0.017505  -0.013771   0.003031   0.006586
              31         32         33         34         35         36
     1  C   -0.006659   0.000852   0.039865   0.027611   0.001275  -0.017930
     2  C    0.005721  -0.003305  -0.067746  -0.014413   0.015929  -0.046570
     3  C   -0.095076   0.078889   0.017260   0.345148   0.080528   0.057762
     4  H    0.004461   0.001077   0.213339   0.033137  -0.003569   0.033941
     5  H   -0.007502   0.004538  -0.124146   0.161016  -0.080364  -0.043488
     6  H   -0.001963   0.001049   0.001164   0.002953  -0.000312   0.002033
     7  H   -0.000404  -0.000016   0.002164  -0.005792   0.002990  -0.005858
     8  H    0.001155  -0.000374   0.002222  -0.001488  -0.000111   0.005856
     9  H    0.000024   0.000227  -0.003743   0.002504  -0.000609  -0.001250
    10  C   -0.084931   0.026131  -0.060625   0.002019   0.001640  -0.040819
    11  H    0.015575  -0.002416   0.000454  -0.006428   0.000662  -0.001535
    12  H   -0.003019   0.001745   0.000468   0.003677   0.000031  -0.001834
    13  C    0.162884  -0.060476   0.175748  -0.174732   0.028134   0.038519
    14  H   -0.061168   0.016814   0.187834  -0.011111  -0.000879   0.023109
    15  H   -0.000947   0.004880  -0.057777  -0.122267   0.023884  -0.030609
    16  N   -0.513208   0.215828  -2.684887   0.281581  -0.126669  -0.347179
    17  C    0.155244   0.446515  -1.515584  -6.619692   0.356744   2.025537
    18  C   -0.281797  -0.267667  -0.999652  -0.292682   0.042384  -0.102824
    19  C    0.197981  -0.269163  -0.226820  -0.026469  -0.003929  -0.019089
    20  C    0.064397  -0.035801   0.114772  -0.060496   0.009491   0.011617
    21  C    0.016484  -0.044402  -0.283103   0.008747  -0.022592   0.012784
    22  C    0.183043  -0.192347  -1.090965   0.637650  -0.184224  -0.359385
    23  H    0.010974   0.004108  -0.000064   0.106384  -0.177536   0.010809
    24  H    0.000962  -0.045375  -0.116061   0.162287  -0.052186   0.023791
    25  H    0.016469  -0.023652   0.025411  -0.017074  -0.002271  -0.014968
    26  H   -0.009619   0.014159   0.014397   0.040978   0.010497   0.005651
    27  H   -0.000696   0.007114  -0.030504  -0.001672  -0.000868   0.001364
    28  H    0.027361  -0.029503   0.001989  -0.007159  -0.001790  -0.001421
    29  H   -0.112704   0.098727   0.037597   0.014218  -0.001892   0.002039
    30  H   -0.072106  -0.043073   0.007282   0.004022   0.002543  -0.003649
    31  H    2.665946  -0.832879  -0.019345  -0.074187  -0.004506  -0.021391
    32  H   -0.832879   2.051839  -0.132156  -0.014099   0.016574  -0.024666
    33  C   -0.019345  -0.132156  24.377512  -6.623470   0.637446   0.711233
    34  C   -0.074187  -0.014099  -6.623470  22.207790  -1.733830  -4.287104
    35  H   -0.004506   0.016574   0.637446  -1.733830   2.903467   0.250679
    36  C   -0.021391  -0.024666   0.711233  -4.287104   0.250679  12.480523
    37  H    0.001415  -0.001309   0.193358   0.460145  -0.104441  -0.903155
    38  C    0.009659   0.023093  -3.497125   3.082604  -0.140850  -2.994921
    39  H   -0.000942  -0.000098   0.003873   0.059965  -0.010240   0.218071
    40  C    0.017463   0.028738   0.488071  -3.859997   0.088139   3.415218
    41  H    0.004992   0.001138   0.259713   0.130740   0.006690  -0.220129
    42  C    0.115723   0.160673  -6.056897   1.304774  -0.005288  -3.850675
    43  H   -0.161935  -0.074120   0.570973   0.013740  -0.034233   0.075699
    44  H   -0.004052   0.001415   0.116699  -0.015572   0.000102   0.002985
              37         38         39         40         41         42
     1  C   -0.000580   0.001798   0.000150  -0.019792  -0.000566   0.027382
     2  C   -0.000014   0.027204   0.000393  -0.020545  -0.000636   0.007260
     3  C   -0.009357   0.030051  -0.001228   0.008628   0.009611  -0.201916
     4  H   -0.002691  -0.006209   0.000176   0.012413   0.000090   0.015565
     5  H    0.005804   0.079488  -0.003558  -0.034798   0.001672  -0.131108
     6  H    0.000166   0.000224  -0.000017  -0.000035  -0.000022  -0.008003
     7  H   -0.000236   0.001702   0.000057  -0.001534  -0.000077   0.004368
     8  H   -0.000281  -0.005041   0.000228   0.005333  -0.000220  -0.003019
     9  H    0.000084   0.000353   0.000004  -0.001478   0.000068   0.001796
    10  C   -0.000902   0.041407   0.000499  -0.052252  -0.000026   0.020788
    11  H   -0.000091   0.001332   0.000011   0.000949   0.000075   0.004553
    12  H   -0.000040   0.001810   0.000023  -0.005781  -0.000106  -0.006808
    13  C    0.011517   0.016175  -0.001995   0.080942  -0.007094   0.388719
    14  H    0.000217  -0.016032   0.000330   0.052612  -0.002388   0.042788
    15  H    0.000502   0.078167  -0.003784  -0.035652   0.004569   0.112918
    16  N   -0.012027   0.060286   0.005409  -0.285097  -0.013224   0.174833
    17  C   -0.018572  -1.183508  -0.063562   2.064535  -0.025566  -6.852723
    18  C    0.012129   0.086513   0.006410  -0.549899   0.002109   0.799834
    19  C    0.000178  -0.003892   0.000075   0.007595  -0.002257  -0.022027
    20  C    0.000093  -0.006060  -0.000095   0.008035   0.000040  -0.073432
    21  C   -0.001962  -0.004660   0.000082  -0.017586   0.000188  -0.044062
    22  C   -0.003476   0.013177   0.005075  -0.037623   0.013809  -0.558912
    23  H    0.004546   0.006763  -0.000689  -0.019936   0.001350  -0.078342
    24  H    0.000476   0.019368  -0.000276  -0.018172  -0.001513  -0.020389
    25  H   -0.000052   0.000514  -0.000003   0.002643   0.000034   0.016936
    26  H   -0.000273   0.002114   0.000088  -0.003917  -0.000194   0.003977
    27  H    0.000058  -0.000466  -0.000006   0.001140   0.000066  -0.003302
    28  H    0.000085  -0.001230  -0.000006  -0.002225   0.000063  -0.007163
    29  H    0.000011   0.000962   0.000012  -0.015394  -0.000148  -0.013564
    30  H   -0.000178   0.001709   0.000070   0.007515  -0.000184   0.040751
    31  H    0.001415   0.009659  -0.000942   0.017463   0.004992   0.115723
    32  H   -0.001309   0.023093  -0.000098   0.028738   0.001138   0.160673
    33  C    0.193358  -3.497125   0.003873   0.488071   0.259713  -6.056897
    34  C    0.460145   3.082604   0.059965  -3.859997   0.130740   1.304774
    35  H   -0.104441  -0.140850  -0.010240   0.088139   0.006690  -0.005288
    36  C   -0.903155  -2.994921   0.218071   3.415218  -0.220129  -3.850675
    37  H    1.776287   0.268845  -0.046813  -0.229552  -0.018218   0.151940
    38  C    0.268845   9.376885  -0.561555  -2.896530   0.232063   3.018477
    39  H   -0.046813  -0.561555   1.599574   0.206318  -0.046269   0.060152
    40  C   -0.229552  -2.896530   0.206318  12.457049  -0.900951  -4.010738
    41  H   -0.018218   0.232063  -0.046269  -0.900951   1.778956   0.439344
    42  C    0.151940   3.018477   0.060152  -4.010738   0.439344  21.842710
    43  H    0.007244  -0.122769  -0.009967   0.130472  -0.101863  -1.657640
    44  H    0.000830  -0.005563   0.000081  -0.000564   0.000733  -0.020679
              43         44
     1  C    0.001274   0.066943
     2  C   -0.002341  -0.029424
     3  C    0.029992  -0.032050
     4  H    0.001853   0.014971
     5  H    0.019396   0.038845
     6  H   -0.000261   0.032061
     7  H    0.000154  -0.006299
     8  H   -0.000247   0.013821
     9  H   -0.000510  -0.014173
    10  C    0.017143  -0.021078
    11  H    0.000706   0.023388
    12  H    0.002561  -0.003535
    13  C    0.082167  -0.042861
    14  H   -0.032752   0.018600
    15  H   -0.065874   0.032936
    16  N   -0.051817  -0.147271
    17  C    0.409917   0.103425
    18  C   -0.225643  -0.041661
    19  C   -0.014783  -0.032047
    20  C    0.010557   0.058439
    21  C   -0.002934  -0.022904
    22  C    0.037507  -0.041785
    23  H   -0.005946  -0.001475
    24  H    0.020890  -0.002672
    25  H   -0.002003  -0.010185
    26  H    0.002918   0.009016
    27  H   -0.001141   0.017505
    28  H   -0.001423  -0.013771
    29  H   -0.001334   0.003031
    30  H    0.010232   0.006586
    31  H   -0.161935  -0.004052
    32  H   -0.074120   0.001415
    33  C    0.570973   0.116699
    34  C    0.013740  -0.015572
    35  H   -0.034233   0.000102
    36  C    0.075699   0.002985
    37  H    0.007244   0.000830
    38  C   -0.122769  -0.005563
    39  H   -0.009967   0.000081
    40  C    0.130472  -0.000564
    41  H   -0.101863   0.000733
    42  C   -1.657640  -0.020679
    43  H    2.905718  -0.000329
    44  H   -0.000329   0.647145
 Mulliken charges:
               1
     1  C    0.433086
     2  C    0.570341
     3  C    0.651243
     4  H   -0.273521
     5  H   -0.183700
     6  H   -0.030185
     7  H   -0.087483
     8  H   -0.062602
     9  H   -0.125554
    10  C    0.589338
    11  H   -0.026836
    12  H   -0.087769
    13  C    0.587720
    14  H   -0.254054
    15  H   -0.157538
    16  N   -1.122519
    17  C   -2.694464
    18  C    1.052991
    19  C    0.477512
    20  C    0.588586
    21  C    0.515044
    22  C    1.002918
    23  H   -0.289854
    24  H   -0.131760
    25  H   -0.097569
    26  H   -0.158841
    27  H   -0.145583
    28  H   -0.090858
    29  H   -0.072995
    30  H   -0.156721
    31  H   -0.306897
    32  H   -0.109223
    33  C    1.389827
    34  C    0.876044
    35  H   -0.786641
    36  C   -0.068772
    37  H   -0.541708
    38  C    0.963670
    39  H   -0.416022
    40  C   -0.063762
    41  H   -0.546463
    42  C    0.870425
    43  H   -0.779244
    44  H    0.300393
 Sum of Mulliken charges =   1.00000
 Mulliken charges with hydrogens summed into heavy atoms:
               1
     1  C    0.244930
     2  C    0.452673
     3  C    0.194022
    10  C    0.474733
    13  C    0.176129
    16  N   -0.822126
    17  C   -2.694464
    18  C    0.636872
    19  C    0.247795
    20  C    0.352144
    21  C    0.258634
    22  C    0.581303
    33  C    1.389827
    34  C    0.089403
    36  C   -0.610480
    38  C    0.547648
    40  C   -0.610225
    42  C    0.091180
 Electronic spatial extent (au):  <R**2>=           4521.6920
 Charge=              1.0000 electrons
 Dipole moment (field-independent basis, Debye):
    X=              2.4135    Y=             -1.9322    Z=              0.0358  Tot=              3.0918
 Quadrupole moment (field-independent basis, Debye-Ang):
   XX=            -86.5304   YY=            -92.6873   ZZ=            -95.8151
   XY=             -0.3902   XZ=             -0.1083   YZ=              0.2389
 Traceless Quadrupole moment (field-independent basis, Debye-Ang):
   XX=              5.1472   YY=             -1.0097   ZZ=             -4.1375
   XY=             -0.3902   XZ=             -0.1083   YZ=              0.2389
 Octapole moment (field-independent basis, Debye-Ang**2):
  XXX=            -39.4718  YYY=            -24.6260  ZZZ=             -0.1132  XYY=             43.4925
  XXY=             -8.7391  XXZ=              0.0616  XZZ=             -3.7617  YZZ=             -4.3748
  YYZ=              0.5575  XYZ=             -0.8619
 Hexadecapole moment (field-independent basis, Debye-Ang**3):
 XXXX=          -2498.7555 YYYY=          -2092.9432 ZZZZ=           -888.0220 XXXY=             39.8567
 XXXZ=             -0.8583 YYYX=            -17.9241 YYYZ=             -1.0876 ZZZX=             -0.8655
 ZZZY=              1.6937 XXYY=           -859.9461 XXZZ=           -587.8596 YYZZ=           -502.4281
 XXYZ=              3.5576 YYXZ=             -0.8626 ZZXY=             -0.7187
 N-N= 1.429620265993D+03 E-N=-4.499428450303D+03  KE= 7.124674495160D+02
 Leave Link  601 at Mon Jul 12 19:57:21 2021, MaxMem=   262144000 cpu:               0.5 elap:               0.4
 (Enter /dades/curu/g16A03_MST/g16/l9999.exe)
 1\1\GINC-PIRINEUS23\SP\RMP2-FC\Aug-CC-pVDZ\C17H26N1(1+)\UBATOR02\12-Ju
 l-2021\0\\#p mp2/aug-cc-pVDZ scf=tight maxdisk=180GB geom=allcheck\\SE
 T_328_BBB65_conf1.geo_060_150 geometry\\1,1\C,0,-1.278245418,0.9711232
 333,-3.2824962795\C,0,0.0147029489,1.6085441171,-2.7712221722\C,0,0.18
 77349004,1.4195570311,-1.2667594604\H,0,1.1427402235,1.8202659454,-0.9
 36646035\H,0,-0.6099770695,1.898151106,-0.6985123518\H,0,0.8830709883,
 1.1912010377,-3.2947228371\H,0,0.0261105999,2.6849296148,-2.9639900285
 \H,0,-2.1409549086,1.5131997637,-2.8781535317\H,0,-1.3347623971,1.0475
 403936,-4.3711051988\C,0,-1.3455775343,-0.4934190303,-2.8498489823\H,0
 ,-0.5825625362,-1.0826571749,-3.3712845757\H,0,-2.3116099448,-0.937629
 991,-3.1097429\C,0,-1.1625639536,-0.6530380493,-1.3444003802\H,0,-1.15
 54724856,-1.7052293633,-1.0647998248\H,0,-1.9440388247,-0.1449497245,-
 0.7779927694\N,0,0.1461823124,-0.0452221536,-0.8774865637\C,0,0.454504
 8596,-0.309157023,0.653874304\C,0,0.531684198,-1.8377994027,0.88234902
 2\C,0,1.6949190428,-2.5494069355,0.1769085713\C,0,3.0479488023,-1.9139
 407886,0.5176820789\C,0,3.0328835405,-0.3973992668,0.283689221\C,0,1.8
 471219214,0.2801413307,0.9948087349\H,0,1.8808736607,1.3587075798,0.83
 49870943\H,0,1.9539176513,0.1378702019,2.0751956323\H,0,3.023705613,-0
 .1783948152,-0.7915991742\H,0,3.9574575696,0.0537794601,0.6591605075\H
 ,0,3.8461259544,-2.3817100317,-0.0661585641\H,0,3.2737344033,-2.107967
 8494,1.573636234\H,0,1.5402163659,-2.5671605599,-0.909612603\H,0,1.682
 6756901,-3.5998315895,0.4820587038\H,0,-0.4080255387,-2.3273054857,0.6
 333131062\H,0,0.6473753197,-1.9568886599,1.9640514743\C,0,-0.669251000
 8,0.3356807187,1.4748120216\C,0,-0.5907523665,1.6713000186,1.902160488
 8\H,0,0.2760700235,2.2768487322,1.6671027578\C,0,-1.614846466,2.249489
 6945,2.6508859113\H,0,-1.5241396538,3.282058315,2.9683794575\C,0,-2.74
 21900962,1.5065309464,2.9946055272\H,0,-3.5368841212,1.9558974824,3.57
 972379\C,0,-2.8341351801,0.1778215184,2.5847530467\H,0,-3.7008087669,-
 0.4184715859,2.8496010881\C,0,-1.8099933081,-0.3982719167,1.8359169985
 \H,0,-1.908974622,-1.4366101999,1.5460978758\H,0,0.895009603,-0.513176
 6439,-1.4112194154\\Version=ES64L-G16RevA.03\State=1-A\HF=-713.2369365
 \MP2=-715.8555314\RMSD=4.052e-09\PG=C01 [X(C17H26N1)]\\@


 CONTRAIWISE...CONTINUED TWEEDLEDEE, IF IT WAS SO, IT MIGHT BE,
 AND IF IT WERE SO, IT WOULD BE.....
 BUT AS IT ISN'T, IT AIN'T....
 THAT'S LOGIC.....
 ALICE THROUGH THE LOOKING GLASS
 Job cpu time:       0 days  6 hours 49 minutes  3.3 seconds.
 Elapsed time:       0 days  1 hours 57 minutes  5.2 seconds.
 File lengths (MBytes):  RWF= 145380 Int=      0 D2E=      0 Chk=     35 Scr=      1
 Normal termination of Gaussian 16 at Mon Jul 12 19:57:23 2021.
