 Entering Gaussian System, Link 0=g16
 Input=SET_328_BBB282_conf1.geo_000_090_OCTANOL.dat
 Output=SET_328_BBB282_conf1.geo_000_090_OCTANOL.log
 Initial command:
 /dades/curu/g16A03_MST/g16/l1.exe "/tmp/ubator02/1835283/Gau-44371.inp" -scrdir="/tmp/ubator02/1835283/"
 Entering Link 1 = /dades/curu/g16A03_MST/g16/l1.exe PID=     44372.
  
 Copyright (c) 1988,1990,1992,1993,1995,1998,2003,2009,2016,
            Gaussian, Inc.  All Rights Reserved.
  
 This is part of the Gaussian(R) 16 program.  It is based on
 the Gaussian(R) 09 system (copyright 2009, Gaussian, Inc.),
 the Gaussian(R) 03 system (copyright 2003, Gaussian, Inc.),
 the Gaussian(R) 98 system (copyright 1998, Gaussian, Inc.),
 the Gaussian(R) 94 system (copyright 1995, Gaussian, Inc.),
 the Gaussian 92(TM) system (copyright 1992, Gaussian, Inc.),
 the Gaussian 90(TM) system (copyright 1990, Gaussian, Inc.),
 the Gaussian 88(TM) system (copyright 1988, Gaussian, Inc.),
 the Gaussian 86(TM) system (copyright 1986, Carnegie Mellon
 University), and the Gaussian 82(TM) system (copyright 1983,
 Carnegie Mellon University). Gaussian is a federally registered
 trademark of Gaussian, Inc.
  
 This software contains proprietary and confidential information,
 including trade secrets, belonging to Gaussian, Inc.
  
 This software is provided under written license and may be
 used, copied, transmitted, or stored only in accord with that
 written license.
  
 The following legend is applicable only to US Government
 contracts under FAR:
  
                    RESTRICTED RIGHTS LEGEND
  
 Use, reproduction and disclosure by the US Government is
 subject to restrictions as set forth in subparagraphs (a)
 and (c) of the Commercial Computer Software - Restricted
 Rights clause in FAR 52.227-19.
  
 Gaussian, Inc.
 340 Quinnipiac St., Bldg. 40, Wallingford CT 06492
  
  
 ---------------------------------------------------------------
 Warning -- This program may not be used in any manner that
 competes with the business of Gaussian, Inc. or will provide
 assistance to any competitor of Gaussian, Inc.  The licensee
 of this program is prohibited from giving any competitor of
 Gaussian, Inc. access to this program.  By using this program,
 the user acknowledges that Gaussian, Inc. is engaged in the
 business of creating and licensing software in the field of
 computational chemistry and represents and warrants to the
 licensee that it is not a competitor of Gaussian, Inc. and that
 it will not use this program in any manner prohibited above.
 ---------------------------------------------------------------
  

 Cite this work as:
 Gaussian 16, Revision A.03,
 M. J. Frisch, G. W. Trucks, H. B. Schlegel, G. E. Scuseria, 
 M. A. Robb, J. R. Cheeseman, G. Scalmani, V. Barone, 
 G. A. Petersson, H. Nakatsuji, X. Li, M. Caricato, A. V. Marenich, 
 J. Bloino, B. G. Janesko, R. Gomperts, B. Mennucci, H. P. Hratchian, 
 J. V. Ortiz, A. F. Izmaylov, J. L. Sonnenberg, D. Williams-Young, 
 F. Ding, F. Lipparini, F. Egidi, J. Goings, B. Peng, A. Petrone, 
 T. Henderson, D. Ranasinghe, V. G. Zakrzewski, J. Gao, N. Rega, 
 G. Zheng, W. Liang, M. Hada, M. Ehara, K. Toyota, R. Fukuda, 
 J. Hasegawa, M. Ishida, T. Nakajima, Y. Honda, O. Kitao, H. Nakai, 
 T. Vreven, K. Throssell, J. A. Montgomery, Jr., J. E. Peralta, 
 F. Ogliaro, M. J. Bearpark, J. J. Heyd, E. N. Brothers, K. N. Kudin, 
 V. N. Staroverov, T. A. Keith, R. Kobayashi, J. Normand, 
 K. Raghavachari, A. P. Rendell, J. C. Burant, S. S. Iyengar, 
 J. Tomasi, M. Cossi, J. M. Millam, M. Klene, C. Adamo, R. Cammi, 
 J. W. Ochterski, R. L. Martin, K. Morokuma, O. Farkas, 
 J. B. Foresman, and D. J. Fox, Gaussian, Inc., Wallingford CT, 2016.
 
 ******************************************
 Gaussian 16:  ES64L-G16RevA.03 25-Dec-2016
                12-Jul-2021 
 ******************************************
 %mem=800MB
 %nproc=4
 Will use up to    4 processors via shared memory.
 %chk=SET_328_BBB282_conf1.geo_000_090.chk
 ---------------------------------------------------------------
 #p b3lyp/6-31G(d) opt freq scrf=(iefpcm,read,solvent=n-octanol)
 ---------------------------------------------------------------
 1/18=20,19=15,26=3,38=1,40=2/1,3;
 2/9=110,12=2,17=6,18=5,40=1/2;
 3/5=1,6=6,7=1,11=2,25=1,30=1,70=2203,71=1,72=25,74=-5/1,2,3;
 4//1;
 5/5=2,38=5,53=25/2;
 6/7=2,8=2,9=2,10=2,28=1/1;
 7//1,2,3,16;
 1/18=20,19=15,26=3/3(2);
 2/9=110/2;
 99//99;
 2/9=110/2;
 3/5=1,6=6,7=1,11=2,25=1,30=1,70=2205,71=1,72=25,74=-5/1,2,3;
 4/5=5,16=3,69=1/1;
 5/5=2,38=5,53=25/2;
 7//1,2,3,16;
 1/18=20,19=15,26=3/3(-5);
 2/9=110/2;
 6/7=2,8=2,9=2,10=2,19=2,28=1/1;
 99/9=1/99;
 Leave Link    1 at Mon Jul 12 12:19:34 2021, MaxMem=   104857600 cpu:               0.0 elap:               0.0
 (Enter /dades/curu/g16A03_MST/g16/l101.exe)
 -----------------------------------------
 SET_328_BBB282_conf1.geo_000_090 geometry
 -----------------------------------------
 Symbolic Z-matrix:
 Charge = -1 Multiplicity = 1
 C                     2.687    -1.705    -0.732 
 H                     3.049    -1.398     0.252 
 H                     2.979    -1.018    -1.529 
 H                     3.121    -2.679    -0.97 
 C                     1.146    -1.959    -0.705 
 H                     1.004    -2.964    -0.298 
 H                     0.675    -1.922    -1.69 
 N                     0.384    -1.034     0.181 
 C                     0.239    -1.319     1.525 
 H                     0.982    -2.074     1.754 
 C                    -0.698    -0.636     2.284 
 C                    -0.828    -1.132     3.62 
 O                    -1.556    -0.618     4.484 
 O                    -0.234    -2.171     3.965 
 C                    -1.393     0.499     1.817 
 O                    -2.072     1.216     2.486 
 C                    -1.086     0.892     0.448 
 C                    -1.696     2.013    -0.152 
 H                    -2.566     2.523     0.254 
 C                    -1.368     2.304    -1.48 
 H                    -1.998     2.994    -2.034 
 C                    -0.357     1.681    -2.125 
 C                     0.166     2.152    -3.423 
 H                     0.155     1.314    -4.123 
 H                     1.136     2.618    -3.241 
 H                    -0.506     2.842    -3.938 
 N                     0.203     0.602    -1.573 
 C                    -0.14      0.195    -0.299 
 
 ITRead=  0  0  0  0  0  0  0  0  0  0  0  0  0  0  0  0  0  0  0  0
 ITRead=  0  0  0  0  0  0  0  0
 MicOpt= -1 -1 -1 -1 -1 -1 -1 -1 -1 -1 -1 -1 -1 -1 -1 -1 -1 -1 -1 -1
 MicOpt= -1 -1 -1 -1 -1 -1 -1 -1
 NAtoms=     28 NQM=       28 NQMF=       0 NMMI=      0 NMMIF=      0
                NMic=       0 NMicF=      0.
                    Isotopes and Nuclear Properties:
 (Nuclear quadrupole moments (NQMom) in fm**2, nuclear magnetic moments (NMagM)
  in nuclear magnetons)

  Atom         1           2           3           4           5           6           7           8           9          10
 IAtWgt=          12           1           1           1          12           1           1          14          12           1
 AtmWgt=  12.0000000   1.0078250   1.0078250   1.0078250  12.0000000   1.0078250   1.0078250  14.0030740  12.0000000   1.0078250
 NucSpn=           0           1           1           1           0           1           1           2           0           1
 AtZEff=  -0.0000000  -0.0000000  -0.0000000  -0.0000000  -0.0000000  -0.0000000  -0.0000000  -0.0000000  -0.0000000  -0.0000000
 NQMom=    0.0000000   0.0000000   0.0000000   0.0000000   0.0000000   0.0000000   0.0000000   2.0440000   0.0000000   0.0000000
 NMagM=    0.0000000   2.7928460   2.7928460   2.7928460   0.0000000   2.7928460   2.7928460   0.4037610   0.0000000   2.7928460
 AtZNuc=   6.0000000   1.0000000   1.0000000   1.0000000   6.0000000   1.0000000   1.0000000   7.0000000   6.0000000   1.0000000

  Atom        11          12          13          14          15          16          17          18          19          20
 IAtWgt=          12          12          16          16          12          16          12          12           1          12
 AtmWgt=  12.0000000  12.0000000  15.9949146  15.9949146  12.0000000  15.9949146  12.0000000  12.0000000   1.0078250  12.0000000
 NucSpn=           0           0           0           0           0           0           0           0           1           0
 AtZEff=  -0.0000000  -0.0000000  -0.0000000  -0.0000000  -0.0000000  -0.0000000  -0.0000000  -0.0000000  -0.0000000  -0.0000000
 NQMom=    0.0000000   0.0000000   0.0000000   0.0000000   0.0000000   0.0000000   0.0000000   0.0000000   0.0000000   0.0000000
 NMagM=    0.0000000   0.0000000   0.0000000   0.0000000   0.0000000   0.0000000   0.0000000   0.0000000   2.7928460   0.0000000
 AtZNuc=   6.0000000   6.0000000   8.0000000   8.0000000   6.0000000   8.0000000   6.0000000   6.0000000   1.0000000   6.0000000

  Atom        21          22          23          24          25          26          27          28
 IAtWgt=           1          12          12           1           1           1          14          12
 AtmWgt=   1.0078250  12.0000000  12.0000000   1.0078250   1.0078250   1.0078250  14.0030740  12.0000000
 NucSpn=           1           0           0           1           1           1           2           0
 AtZEff=  -0.0000000  -0.0000000  -0.0000000  -0.0000000  -0.0000000  -0.0000000  -0.0000000  -0.0000000
 NQMom=    0.0000000   0.0000000   0.0000000   0.0000000   0.0000000   0.0000000   2.0440000   0.0000000
 NMagM=    2.7928460   0.0000000   0.0000000   2.7928460   2.7928460   2.7928460   0.4037610   0.0000000
 AtZNuc=   1.0000000   6.0000000   6.0000000   1.0000000   1.0000000   1.0000000   7.0000000   6.0000000
 Leave Link  101 at Mon Jul 12 12:19:34 2021, MaxMem=   104857600 cpu:               0.1 elap:               0.1
 (Enter /dades/curu/g16A03_MST/g16/l103.exe)

 GradGradGradGradGradGradGradGradGradGradGradGradGradGradGradGradGradGrad
 Berny optimization.
 Initialization pass.
                           ----------------------------
                           !    Initial Parameters    !
                           ! (Angstroms and Degrees)  !
 --------------------------                            --------------------------
 ! Name  Definition              Value          Derivative Info.                !
 --------------------------------------------------------------------------------
 ! R1    R(1,2)                  1.0925         estimate D2E/DX2                !
 ! R2    R(1,3)                  1.092          estimate D2E/DX2                !
 ! R3    R(1,4)                  1.0926         estimate D2E/DX2                !
 ! R4    R(1,5)                  1.562          estimate D2E/DX2                !
 ! R5    R(5,6)                  1.0935         estimate D2E/DX2                !
 ! R6    R(5,7)                  1.0924         estimate D2E/DX2                !
 ! R7    R(5,8)                  1.4904         estimate D2E/DX2                !
 ! R8    R(8,9)                  1.3815         estimate D2E/DX2                !
 ! R9    R(8,28)                 1.4197         estimate D2E/DX2                !
 ! R10   R(9,10)                 1.0838         estimate D2E/DX2                !
 ! R11   R(9,11)                 1.3858         estimate D2E/DX2                !
 ! R12   R(11,12)                1.431          estimate D2E/DX2                !
 ! R13   R(11,15)                1.4104         estimate D2E/DX2                !
 ! R14   R(12,13)                1.2412         estimate D2E/DX2                !
 ! R15   R(12,14)                1.2455         estimate D2E/DX2                !
 ! R16   R(15,16)                1.1928         estimate D2E/DX2                !
 ! R17   R(15,17)                1.457          estimate D2E/DX2                !
 ! R18   R(17,18)                1.4102         estimate D2E/DX2                !
 ! R19   R(17,28)                1.3924         estimate D2E/DX2                !
 ! R20   R(18,19)                1.0871         estimate D2E/DX2                !
 ! R21   R(18,20)                1.3985         estimate D2E/DX2                !
 ! R22   R(20,21)                1.0862         estimate D2E/DX2                !
 ! R23   R(20,22)                1.3514         estimate D2E/DX2                !
 ! R24   R(22,23)                1.4765         estimate D2E/DX2                !
 ! R25   R(22,27)                1.3351         estimate D2E/DX2                !
 ! R26   R(23,24)                1.092          estimate D2E/DX2                !
 ! R27   R(23,25)                1.0914         estimate D2E/DX2                !
 ! R28   R(23,26)                1.0922         estimate D2E/DX2                !
 ! R29   R(27,28)                1.3807         estimate D2E/DX2                !
 ! A1    A(2,1,3)              113.078          estimate D2E/DX2                !
 ! A2    A(2,1,4)              108.3666         estimate D2E/DX2                !
 ! A3    A(2,1,5)              110.9171         estimate D2E/DX2                !
 ! A4    A(3,1,4)              107.1963         estimate D2E/DX2                !
 ! A5    A(3,1,5)              112.2544         estimate D2E/DX2                !
 ! A6    A(4,1,5)              104.5182         estimate D2E/DX2                !
 ! A7    A(1,5,6)              106.498          estimate D2E/DX2                !
 ! A8    A(1,5,7)              113.8439         estimate D2E/DX2                !
 ! A9    A(1,5,8)              114.4404         estimate D2E/DX2                !
 ! A10   A(6,5,7)              108.1027         estimate D2E/DX2                !
 ! A11   A(6,5,8)              106.4241         estimate D2E/DX2                !
 ! A12   A(7,5,8)              107.1308         estimate D2E/DX2                !
 ! A13   A(5,8,9)              120.2622         estimate D2E/DX2                !
 ! A14   A(5,8,28)             121.6688         estimate D2E/DX2                !
 ! A15   A(9,8,28)             117.9551         estimate D2E/DX2                !
 ! A16   A(8,9,10)             106.1006         estimate D2E/DX2                !
 ! A17   A(8,9,11)             120.1393         estimate D2E/DX2                !
 ! A18   A(10,9,11)            133.7216         estimate D2E/DX2                !
 ! A19   A(9,11,12)            113.6981         estimate D2E/DX2                !
 ! A20   A(9,11,15)            123.2589         estimate D2E/DX2                !
 ! A21   A(12,11,15)           122.9067         estimate D2E/DX2                !
 ! A22   A(11,12,13)           124.0289         estimate D2E/DX2                !
 ! A23   A(11,12,14)           120.2916         estimate D2E/DX2                !
 ! A24   A(13,12,14)           115.6158         estimate D2E/DX2                !
 ! A25   A(11,15,16)           125.3473         estimate D2E/DX2                !
 ! A26   A(11,15,17)           115.1085         estimate D2E/DX2                !
 ! A27   A(16,15,17)           119.0            estimate D2E/DX2                !
 ! A28   A(15,17,18)           121.536          estimate D2E/DX2                !
 ! A29   A(15,17,28)           120.8118         estimate D2E/DX2                !
 ! A30   A(18,17,28)           117.6158         estimate D2E/DX2                !
 ! A31   A(17,18,19)           124.0684         estimate D2E/DX2                !
 ! A32   A(17,18,20)           117.9022         estimate D2E/DX2                !
 ! A33   A(19,18,20)           116.4047         estimate D2E/DX2                !
 ! A34   A(18,20,21)           118.7147         estimate D2E/DX2                !
 ! A35   A(18,20,22)           122.1916         estimate D2E/DX2                !
 ! A36   A(21,20,22)           118.9018         estimate D2E/DX2                !
 ! A37   A(20,22,23)           122.5138         estimate D2E/DX2                !
 ! A38   A(20,22,27)           119.2765         estimate D2E/DX2                !
 ! A39   A(23,22,27)           118.2085         estimate D2E/DX2                !
 ! A40   A(22,23,24)           108.3709         estimate D2E/DX2                !
 ! A41   A(22,23,25)           107.7226         estimate D2E/DX2                !
 ! A42   A(22,23,26)           113.4592         estimate D2E/DX2                !
 ! A43   A(24,23,25)           116.3289         estimate D2E/DX2                !
 ! A44   A(24,23,26)           100.1575         estimate D2E/DX2                !
 ! A45   A(25,23,26)           110.8374         estimate D2E/DX2                !
 ! A46   A(22,27,28)           121.0323         estimate D2E/DX2                !
 ! A47   A(8,28,17)            120.1811         estimate D2E/DX2                !
 ! A48   A(8,28,27)            118.3901         estimate D2E/DX2                !
 ! A49   A(17,28,27)           121.0808         estimate D2E/DX2                !
 ! D1    D(2,1,5,6)            -81.3096         estimate D2E/DX2                !
 ! D2    D(2,1,5,7)            159.6647         estimate D2E/DX2                !
 ! D3    D(2,1,5,8)             35.9816         estimate D2E/DX2                !
 ! D4    D(3,1,5,6)            151.1145         estimate D2E/DX2                !
 ! D5    D(3,1,5,7)             32.0888         estimate D2E/DX2                !
 ! D6    D(3,1,5,8)            -91.5943         estimate D2E/DX2                !
 ! D7    D(4,1,5,6)             35.2691         estimate D2E/DX2                !
 ! D8    D(4,1,5,7)            -83.7566         estimate D2E/DX2                !
 ! D9    D(4,1,5,8)            152.5603         estimate D2E/DX2                !
 ! D10   D(1,5,8,9)            -86.018          estimate D2E/DX2                !
 ! D11   D(1,5,8,28)            90.0221         estimate D2E/DX2                !
 ! D12   D(6,5,8,9)             31.3154         estimate D2E/DX2                !
 ! D13   D(6,5,8,28)          -152.6444         estimate D2E/DX2                !
 ! D14   D(7,5,8,9)            146.7725         estimate D2E/DX2                !
 ! D15   D(7,5,8,28)           -37.1873         estimate D2E/DX2                !
 ! D16   D(5,8,9,10)            16.165          estimate D2E/DX2                !
 ! D17   D(5,8,9,11)          -165.7926         estimate D2E/DX2                !
 ! D18   D(28,8,9,10)         -160.0198         estimate D2E/DX2                !
 ! D19   D(28,8,9,11)           18.0226         estimate D2E/DX2                !
 ! D20   D(5,8,28,17)          165.7346         estimate D2E/DX2                !
 ! D21   D(5,8,28,27)           -7.5662         estimate D2E/DX2                !
 ! D22   D(9,8,28,17)          -18.1373         estimate D2E/DX2                !
 ! D23   D(9,8,28,27)          168.5619         estimate D2E/DX2                !
 ! D24   D(8,9,11,12)          173.9567         estimate D2E/DX2                !
 ! D25   D(8,9,11,15)          -10.1804         estimate D2E/DX2                !
 ! D26   D(10,9,11,12)          -8.6461         estimate D2E/DX2                !
 ! D27   D(10,9,11,15)         167.2167         estimate D2E/DX2                !
 ! D28   D(9,11,12,13)         175.9286         estimate D2E/DX2                !
 ! D29   D(9,11,12,14)          -7.1039         estimate D2E/DX2                !
 ! D30   D(15,11,12,13)          0.0492         estimate D2E/DX2                !
 ! D31   D(15,11,12,14)        177.0167         estimate D2E/DX2                !
 ! D32   D(9,11,15,16)        -169.6983         estimate D2E/DX2                !
 ! D33   D(9,11,15,17)           1.7117         estimate D2E/DX2                !
 ! D34   D(12,11,15,16)          5.7887         estimate D2E/DX2                !
 ! D35   D(12,11,15,17)        177.1987         estimate D2E/DX2                !
 ! D36   D(11,15,17,18)       -179.5267         estimate D2E/DX2                !
 ! D37   D(11,15,17,28)         -1.7737         estimate D2E/DX2                !
 ! D38   D(16,15,17,18)         -7.5336         estimate D2E/DX2                !
 ! D39   D(16,15,17,28)        170.2194         estimate D2E/DX2                !
 ! D40   D(15,17,18,19)        -13.6849         estimate D2E/DX2                !
 ! D41   D(15,17,18,20)       -178.6034         estimate D2E/DX2                !
 ! D42   D(28,17,18,19)        168.493          estimate D2E/DX2                !
 ! D43   D(28,17,18,20)          3.5745         estimate D2E/DX2                !
 ! D44   D(15,17,28,8)          10.0954         estimate D2E/DX2                !
 ! D45   D(15,17,28,27)       -176.7868         estimate D2E/DX2                !
 ! D46   D(18,17,28,8)        -172.0659         estimate D2E/DX2                !
 ! D47   D(18,17,28,27)          1.0519         estimate D2E/DX2                !
 ! D48   D(17,18,20,21)        164.8064         estimate D2E/DX2                !
 ! D49   D(17,18,20,22)        -10.1012         estimate D2E/DX2                !
 ! D50   D(19,18,20,21)         -1.2692         estimate D2E/DX2                !
 ! D51   D(19,18,20,22)       -176.1769         estimate D2E/DX2                !
 ! D52   D(18,20,22,23)       -167.9284         estimate D2E/DX2                !
 ! D53   D(18,20,22,27)         11.6705         estimate D2E/DX2                !
 ! D54   D(21,20,22,23)         17.1731         estimate D2E/DX2                !
 ! D55   D(21,20,22,27)       -163.228          estimate D2E/DX2                !
 ! D56   D(20,22,23,24)       -127.1067         estimate D2E/DX2                !
 ! D57   D(20,22,23,25)        106.2556         estimate D2E/DX2                !
 ! D58   D(20,22,23,26)        -16.8219         estimate D2E/DX2                !
 ! D59   D(27,22,23,24)         53.2903         estimate D2E/DX2                !
 ! D60   D(27,22,23,25)        -73.3474         estimate D2E/DX2                !
 ! D61   D(27,22,23,26)        163.5751         estimate D2E/DX2                !
 ! D62   D(20,22,27,28)         -6.6146         estimate D2E/DX2                !
 ! D63   D(23,22,27,28)        173.0016         estimate D2E/DX2                !
 ! D64   D(22,27,28,8)         173.6008         estimate D2E/DX2                !
 ! D65   D(22,27,28,17)          0.3629         estimate D2E/DX2                !
 --------------------------------------------------------------------------------
 Trust Radius=3.00D-01 FncErr=1.00D-07 GrdErr=1.00D-06 EigMax=2.50D+02 EigMin=1.00D-04
 Number of steps in this run=    153 maximum allowed number of steps=    168.
 GradGradGradGradGradGradGradGradGradGradGradGradGradGradGradGradGradGrad

 Leave Link  103 at Mon Jul 12 12:19:34 2021, MaxMem=   104857600 cpu:               0.0 elap:               0.0
 (Enter /dades/curu/g16A03_MST/g16/l202.exe)
                          Input orientation:                          
 ---------------------------------------------------------------------
 Center     Atomic      Atomic             Coordinates (Angstroms)
 Number     Number       Type             X           Y           Z
 ---------------------------------------------------------------------
      1          6           0        2.687000   -1.705000   -0.732000
      2          1           0        3.049000   -1.398000    0.252000
      3          1           0        2.979000   -1.018000   -1.529000
      4          1           0        3.121000   -2.679000   -0.970000
      5          6           0        1.146000   -1.959000   -0.705000
      6          1           0        1.004000   -2.964000   -0.298000
      7          1           0        0.675000   -1.922000   -1.690000
      8          7           0        0.384000   -1.034000    0.181000
      9          6           0        0.239000   -1.319000    1.525000
     10          1           0        0.982000   -2.074000    1.754000
     11          6           0       -0.698000   -0.636000    2.284000
     12          6           0       -0.828000   -1.132000    3.620000
     13          8           0       -1.556000   -0.618000    4.484000
     14          8           0       -0.234000   -2.171000    3.965000
     15          6           0       -1.393000    0.499000    1.817000
     16          8           0       -2.072000    1.216000    2.486000
     17          6           0       -1.086000    0.892000    0.448000
     18          6           0       -1.696000    2.013000   -0.152000
     19          1           0       -2.566000    2.523000    0.254000
     20          6           0       -1.368000    2.304000   -1.480000
     21          1           0       -1.998000    2.994000   -2.034000
     22          6           0       -0.357000    1.681000   -2.125000
     23          6           0        0.166000    2.152000   -3.423000
     24          1           0        0.155000    1.314000   -4.123000
     25          1           0        1.136000    2.618000   -3.241000
     26          1           0       -0.506000    2.842000   -3.938000
     27          7           0        0.203000    0.602000   -1.573000
     28          6           0       -0.140000    0.195000   -0.299000
 ---------------------------------------------------------------------
                    Distance matrix (angstroms):
                    1          2          3          4          5
     1  C    0.000000
     2  H    1.092497   0.000000
     3  H    1.091990   1.822433   0.000000
     4  H    1.092555   1.771843   1.758285   0.000000
     5  C    1.562026   2.202721   2.219087   2.118785   0.000000
     6  H    2.146142   2.633796   3.033629   2.239307   1.093544
     7  H    2.238972   3.111562   2.480232   2.659768   1.092445
     8  N    2.566636   2.690681   3.107794   3.394406   1.490391
     9  C    3.351977   3.085915   4.114015   4.047289   2.491014
    10  H    3.037002   2.643004   3.985127   3.515896   2.467145
    11  C    4.658030   4.330090   5.310859   5.417299   3.752970
    12  C    5.623474   5.142500   6.404564   6.249473   4.825581
    13  O    6.811114   6.302718   7.542042   7.474501   6.002067
    14  O    5.550784   5.016173   6.468138   5.989016   4.874243
    15  C    5.291637   5.077322   5.710638   6.184113   4.341517
    16  O    6.444831   6.168338   6.828146   7.354061   5.533410
    17  C    4.729941   4.730829   4.907225   5.697509   3.799926
    18  C    5.776730   5.857744   5.739226   6.774030   4.915237
    19  H    6.814851   6.848538   6.816509   7.803906   5.898046
    20  C    5.751053   6.017850   5.471242   6.726181   5.009390
    21  H    6.762029   7.070196   6.412620   7.714868   6.015246
    22  C    4.761447   5.170223   4.332287   5.695622   4.186288
    23  C    5.336045   5.866840   4.642101   6.171531   5.024763
    24  H    5.198487   5.905151   4.487988   5.889195   4.835011
    25  H    5.233451   5.655871   4.421322   6.095562   5.232621
    26  H    6.414740   6.940585   5.731327   7.241933   6.019219
    27  N    3.492819   3.928147   3.214422   4.432076   2.863808
    28  C    3.433572   3.607072   3.565449   4.398208   2.541328
                    6          7          8          9         10
     6  H    0.000000
     7  H    1.769652   0.000000
     8  N    2.082964   2.091379   0.000000
     9  C    2.571882   3.299989   1.381516   0.000000
    10  H    2.236803   3.460995   1.978265   1.083750   0.000000
    11  C    3.870803   4.396772   2.398278   1.385835   2.274015
    12  C    4.697145   5.574873   3.647639   2.358492   2.765035
    13  O    5.909724   6.692985   4.738403   3.531162   4.001785
    14  O    4.509397   5.733002   3.999169   2.627400   2.525190
    15  C    4.712876   4.736762   2.860824   2.460450   3.502131
    16  O    5.889383   5.901867   4.050612   3.562368   4.548279
    17  C    4.448972   3.948514   2.437553   2.793577   3.844401
    18  C    5.664084   4.844720   3.704254   4.202235   5.244815
    19  H    6.569381   5.834487   4.621696   4.923863   5.997559
    20  C    5.897061   4.698619   4.119547   4.973792   5.928587
    21  H    6.893726   5.606275   5.177348   6.022675   6.993852
    22  C    5.173613   3.773044   3.638398   4.762113   5.562336
    23  C    6.053208   4.456439   4.815282   6.044491   6.732478
    24  H    5.801096   4.081860   4.908153   6.232146   6.833857
    25  H    6.311687   4.819722   5.060898   6.246546   6.854823
    26  H    7.017075   5.398515   5.725525   6.907483   7.666816
    27  N    3.870863   2.570418   2.405363   3.645427   4.340132
    28  C    3.359765   2.660976   1.419654   2.400586   3.259149
                   11         12         13         14         15
    11  C    0.000000
    12  C    1.431018   0.000000
    13  O    2.361459   1.241240   0.000000
    14  O    2.323205   1.245545   2.104484   0.000000
    15  C    1.410439   2.496036   2.896057   3.617469   0.000000
    16  O    2.314862   2.889048   2.760764   4.127645   1.192766
    17  C    2.419964   3.771568   4.334778   4.741009   1.457003
    18  C    3.734609   4.987227   5.332378   6.049214   2.502192
    19  H    4.193996   5.263993   5.364595   6.422101   2.813445
    20  C    4.822883   6.173143   6.643999   7.138600   3.758837
    21  H    5.788957   7.096513   7.465000   8.110297   4.628310
    22  C    4.992399   6.414034   7.099428   7.207020   4.243794
    23  C    6.410093   7.834318   8.553294   8.569182   5.711435
    24  H    6.751278   8.179441   8.985577   8.815457   6.192264
    25  H    6.669160   8.061831   8.797396   8.760015   6.038987
    26  H    7.130682   8.545158   9.165380   9.362775   6.276659
    27  N    4.149807   5.571083   6.424152   6.208860   3.748323
    28  C    2.770165   4.194381   5.054020   4.877344   2.477878
                   16         17         18         19         20
    16  O    0.000000
    17  C    2.287054   0.000000
    18  C    2.781300   1.410227   0.000000
    19  H    2.633270   2.210927   1.087123   0.000000
    20  C    4.172351   2.406336   1.398517   2.118943   0.000000
    21  H    4.857691   3.377939   2.143709   2.404040   1.086239
    22  C    4.941535   2.788242   2.407462   3.353846   1.351397
    23  C    6.387568   4.259078   3.766405   4.595845   2.480224
    24  H    6.974813   4.755229   4.436625   5.293737   3.207036
    25  H    6.712332   4.639513   4.234167   5.092038   3.077293
    26  H    6.809112   4.834863   4.054274   4.681690   2.659747
    27  N    4.693410   2.414552   2.759776   3.833475   2.318080
    28  C    3.539956   1.392384   2.397471   3.407473   2.711204
                   21         22         23         24         25
    21  H    0.000000
    22  C    2.103600   0.000000
    23  C    2.705768   1.476541   0.000000
    24  H    3.438274   2.094955   1.091955   0.000000
    25  H    3.379376   2.086258   1.091412   1.854913   0.000000
    26  H    2.423713   2.158029   1.092204   1.675091   1.797818
    27  N    3.283076   1.335120   2.413787   2.647971   2.777943
    28  C    3.781110   2.364225   3.699035   3.995267   4.019262
                   26         27         28
    26  H    0.000000
    27  N    3.333693   0.000000
    28  C    4.514741   1.380715   0.000000
 Stoichiometry    C12H11N2O3(1-)
 Framework group  C1[X(C12H11N2O3)]
 Deg. of freedom    78
 Full point group                 C1      NOp   1
 Largest Abelian subgroup         C1      NOp   1
 Largest concise Abelian subgroup C1      NOp   1
                         Standard orientation:                         
 ---------------------------------------------------------------------
 Center     Atomic      Atomic             Coordinates (Angstroms)
 Number     Number       Type             X           Y           Z
 ---------------------------------------------------------------------
      1          6           0       -0.903497    3.531453    0.619246
      2          1           0       -0.173399    3.378590    1.417455
      3          1           0       -1.935761    3.411301    0.954561
      4          1           0       -0.800808    4.554608    0.250079
      5          6           0       -0.574716    2.634426   -0.616542
      6          1           0        0.205139    3.154887   -1.179379
      7          1           0       -1.424568    2.473101   -1.283745
      8          7           0       -0.023623    1.292393   -0.275208
      9          6           0        1.332032    1.129364   -0.064952
     10          1           0        1.734488    2.124180    0.086331
     11          6           0        1.884489   -0.141351   -0.040209
     12          6           0        3.312663   -0.145941    0.049846
     13          8           0        3.998523   -1.174800    0.158111
     14          8           0        3.950926    0.920294   -0.034683
     15          6           0        1.111211   -1.320607   -0.013110
     16          8           0        1.533967   -2.418659    0.182468
     17          6           0       -0.330744   -1.115427   -0.052169
     18          6           0       -1.231240   -2.200278   -0.021421
     19          1           0       -0.942595   -3.236053   -0.181701
     20          6           0       -2.599052   -1.917669   -0.092632
     21          1           0       -3.287800   -2.726066   -0.320750
     22          6           0       -3.080677   -0.659404    0.012626
     23          6           0       -4.516950   -0.372412    0.199521
     24          1           0       -4.828972    0.337381   -0.569376
     25          1           0       -4.661113   -0.058849    1.234932
     26          1           0       -5.164523   -1.217476   -0.044252
     27          7           0       -2.233573    0.370931   -0.045423
     28          6           0       -0.868029    0.168922   -0.074688
 ---------------------------------------------------------------------
 Rotational constants (GHZ):           0.7745481           0.3565981           0.2490028
 Leave Link  202 at Mon Jul 12 12:19:34 2021, MaxMem=   104857600 cpu:               0.0 elap:               0.0
 (Enter /dades/curu/g16A03_MST/g16/l301.exe)
 Standard basis: 6-31G(d) (6D, 7F)
 Ernie: Thresh=  0.10000D-02 Tol=  0.10000D-05 Strict=F.
 There are   277 symmetry adapted cartesian basis functions of A   symmetry.
 There are   277 symmetry adapted basis functions of A   symmetry.
   277 basis functions,   520 primitive gaussians,   277 cartesian basis functions
    61 alpha electrons       61 beta electrons
       nuclear repulsion energy      1169.0064073332 Hartrees.
 IExCor=  402 DFT=T Ex+Corr=B3LYP ExCW=0 ScaHFX=  0.200000
 ScaDFX=  0.800000  0.720000  1.000000  0.810000 ScalE2=  1.000000  1.000000
 IRadAn=      5 IRanWt=     -1 IRanGd=            0 ICorTp=0 IEmpDi=  4
 NAtoms=   28 NActive=   28 NUniq=   28 SFac= 1.00D+00 NAtFMM=   60 NAOKFM=F Big=F
 Integral buffers will be    131072 words long.
 Raffenetti 2 integral format.
 Two-electron integral symmetry is turned on.
 Using the following non-standard input for PCM:
 MSTModel=DFT cav MSTCharged
 --- end of non-standard input.
 MST model for solvation energy: B3LYP parametrization.
 MST cavity parameters:
 ISph   IAn     Re0     Alpha   Atom Type   QCorr
 ------------------------------------------------
   1      6     1.50     1.50      CH3        F
   2      1     1.20     1.50      CH3        F
   3      1     1.20     1.50      CH3        F
   4      1     1.20     1.50      CH3        F
   5      6     1.50     1.50      CH2        F
   6      1     1.20     1.50      CH2        F
   7      1     1.20     1.50      CH2        F
   8      7     1.50     1.50      Nc         F
   9      6     1.50     1.50      CH         F
  10      1     1.20     1.50      CH         F
  11      6     1.50     1.50      C          F
  12      6     1.50     1.15      C          T
  13      8     1.40     1.15      O          T
  14      8     1.40     1.15      O          T
  15      6     1.50     1.50      C          F
  16      8     1.40     1.50      O          F
  17      6     1.50     1.50      C          F
  18      6     1.50     1.50      CH         F
  19      1     1.20     1.50      CH         F
  20      6     1.50     1.50      CH         F
  21      1     1.20     1.50      CH         F
  22      6     1.50     1.50      C          F
  23      6     1.50     1.50      CH3        F
  24      1     1.20     1.50      CH3        F
  25      1     1.20     1.50      CH3        F
  26      1     1.20     1.50      CH3        F
  27      7     1.50     1.50      Nc         F
  28      6     1.50     1.50      C          F
 ------------------------------------------------------------------------------
 Polarizable Continuum Model (PCM)
 =================================
 Model                : PCM.
 Atomic radii         : MST.
 Polarization charges : Total charges.
 Charge compensation  : None.
 Solution method      : On-the-fly selection.
 Cavity type          : Scaled VdW (van der Waals Surface) (Alpha=1.500).
 Cavity algorithm     : GePol (No added spheres)
                        Default sphere list used, NSphG=   28.
                        Lebedev-Laikov grids with approx.  5.0 points / Ang**2.
                        Smoothing algorithm: York/Karplus (Gamma=1.0000).
                        Polarization charges: spherical gaussians, with
                                              point-specific exponents (IZeta= 3).
                        Self-potential: point-specific (ISelfS= 7).
                        Self-field    : sphere-specific E.n sum rule (ISelfD= 2).
 1st derivatives      : Analytical E(r).r(x)/FMM algorithm (CHGder, D1EAlg=3).
                        Cavity 1st derivative terms included.
 Solvent              : n-Octanol, Eps=   9.862900 Eps(inf)=   2.043470
 ------------------------------------------------------------------------------
 GePol: Number of generator spheres                  =      28
 GePol: Total number of spheres                      =      28
 GePol: Number of exposed spheres                    =      28 (100.00%)
 GePol: Number of points                             =    2748
 GePol: Average weight of points                     =       0.11
 GePol: Minimum weight of points                     =   0.10D-10
 GePol: Maximum weight of points                     =    0.20790
 GePol: Number of points with low weight             =     157
 GePol: Fraction of low-weight points (<1% of avg)   =       5.71%
 GePol: Cavity surface area                          =    303.319 Ang**2
 GePol: Cavity volume                                =    341.210 Ang**3
 Surface areas from nonelectrostatic (unscaled) cavity and vdw tensions:
 Sphere =    1 Type =  CH3 Surf =        5.495 Tension =       -0.183
 Sphere =    2 Type =  CH3 Surf =       10.168 Tension =       -0.183
 Sphere =    3 Type =  CH3 Surf =       10.186 Tension =       -0.183
 Sphere =    4 Type =  CH3 Surf =        9.954 Tension =       -0.183
 Sphere =    5 Type =  CH2 Surf =        3.737 Tension =       -0.194
 Sphere =    6 Type =  CH2 Surf =        9.448 Tension =       -0.194
 Sphere =    7 Type =  CH2 Surf =        9.615 Tension =       -0.194
 Sphere =    8 Type =  Nc  Surf =        5.781 Tension =       -0.161
 Sphere =    9 Type =  CH  Surf =        7.199 Tension =       -0.195
 Sphere =   10 Type =  CH  Surf =        9.302 Tension =       -0.195
 Sphere =   11 Type =  C   Surf =        6.109 Tension =       -0.205
 Sphere =   12 Type =  C   Surf =        6.776 Tension =       -0.205
 Sphere =   13 Type =  O   Surf =       16.246 Tension =       -0.185
 Sphere =   14 Type =  O   Surf =       15.852 Tension =       -0.185
 Sphere =   15 Type =  C   Surf =        6.513 Tension =       -0.205
 Sphere =   16 Type =  O   Surf =       15.821 Tension =       -0.185
 Sphere =   17 Type =  C   Surf =        6.117 Tension =       -0.205
 Sphere =   18 Type =  CH  Surf =        7.789 Tension =       -0.195
 Sphere =   19 Type =  CH  Surf =       10.198 Tension =       -0.195
 Sphere =   20 Type =  CH  Surf =        7.442 Tension =       -0.195
 Sphere =   21 Type =  CH  Surf =       10.139 Tension =       -0.195
 Sphere =   22 Type =  C   Surf =        5.731 Tension =       -0.205
 Sphere =   23 Type =  CH3 Surf =        5.238 Tension =       -0.183
 Sphere =   24 Type =  CH3 Surf =       10.009 Tension =       -0.183
 Sphere =   25 Type =  CH3 Surf =       10.128 Tension =       -0.183
 Sphere =   26 Type =  CH3 Surf =        9.991 Tension =       -0.183
 Sphere =   27 Type =  Nc  Surf =       11.811 Tension =       -0.161
 Sphere =   28 Type =  C   Surf =        5.868 Tension =       -0.205
 PCM non-electrostatic energy =        -0.0108076092 Hartrees.
 Nuclear repulsion after PCM non-electrostatic terms =     1168.9955997240 Hartrees.
 Leave Link  301 at Mon Jul 12 12:19:34 2021, MaxMem=   104857600 cpu:               0.1 elap:               0.1
 (Enter /dades/curu/g16A03_MST/g16/l302.exe)
 NPDir=0 NMtPBC=     1 NCelOv=     1 NCel=       1 NClECP=     1 NCelD=      1
         NCelK=      1 NCelE2=     1 NClLst=     1 CellRange=     0.0.
 One-electron integrals computed using PRISM.
 One-electron integral symmetry used in STVInt
 NBasis=   277 RedAO= T EigKep=  5.46D-04  NBF=   277
 NBsUse=   277 1.00D-06 EigRej= -1.00D+00 NBFU=   277
 Precomputing XC quadrature grid using
 IXCGrd= 4 IRadAn=           5 IRanWt=          -1 IRanGd=           0 AccXCQ= 0.00D+00.
 Generated NRdTot=       0 NPtTot=           0 NUsed=           0 NTot=          32
 NSgBfM=   275   275   275   275   275 MxSgAt=    28 MxSgA2=    28.
 Leave Link  302 at Mon Jul 12 12:19:35 2021, MaxMem=   104857600 cpu:               2.6 elap:               0.7
 (Enter /dades/curu/g16A03_MST/g16/l303.exe)
 DipDrv:  MaxL=1.
 Leave Link  303 at Mon Jul 12 12:19:35 2021, MaxMem=   104857600 cpu:               0.1 elap:               0.0
 (Enter /dades/curu/g16A03_MST/g16/l401.exe)
 ExpMin= 1.61D-01 ExpMax= 5.48D+03 ExpMxC= 8.25D+02 IAcc=3 IRadAn=         5 AccDes= 0.00D+00
 Harris functional with IExCor=  402 and IRadAn=       5 diagonalized for initial guess.
 HarFok:  IExCor=  402 AccDes= 0.00D+00 IRadAn=         5 IDoV= 1 UseB2=F ITyADJ=14
 ICtDFT=  3500011 ScaDFX=  1.000000  1.000000  1.000000  1.000000
 FoFCou: FMM=F IPFlag=           0 FMFlag=      100000 FMFlg1=           0
         NFxFlg=           0 DoJE=T BraDBF=F KetDBF=T FulRan=T
         wScrn=  0.000000 ICntrl=       500 IOpCl=  0 I1Cent=   200000004 NGrid=           0
         NMat0=    1 NMatS0=      1 NMatT0=    0 NMatD0=    1 NMtDS0=    0 NMtDT0=    0
 Petite list used in FoFCou.
 Harris En= -799.327709618061    
 JPrj=0 DoOrth=F DoCkMO=F.
 Leave Link  401 at Mon Jul 12 12:19:41 2021, MaxMem=   104857600 cpu:              23.3 elap:               5.9
 (Enter /dades/curu/g16A03_MST/g16/l502.exe)
 Integral symmetry usage will be decided dynamically.
 Closed shell SCF:
 Using DIIS extrapolation, IDIIS=  1040.
 NGot=   104857600 LenX=   104699411 LenY=   104622241
 Requested convergence on RMS density matrix=1.00D-08 within 128 cycles.
 Requested convergence on MAX density matrix=1.00D-06.
 Requested convergence on             energy=1.00D-06.
 No special actions if energy rises.
 Fock matrices will be formed incrementally for  20 cycles.

 Cycle   1  Pass 1  IDiag  1:
 FoFJK:  IHMeth= 1 ICntrl=       0 DoSepK=F KAlg= 0 I1Cent=           0 FoldK=F
 IRaf= 830000000 NMat=       1 IRICut=       1 DoRegI=T DoRafI=F ISym2E= 0 IDoP0=0 IntGTp=1.
 FoFCou: FMM=F IPFlag=           0 FMFlag=      100000 FMFlg1=           0
         NFxFlg=           0 DoJE=F BraDBF=F KetDBF=F FulRan=T
         wScrn=  0.000000 ICntrl=         0 IOpCl=  0 I1Cent=           0 NGrid=           0
         NMat0=    1 NMatS0=      1 NMatT0=    0 NMatD0=    1 NMtDS0=    0 NMtDT0=    0
 Symmetry not used in FoFCou.
 Inv3:  Mode=1 IEnd=    22654512.
 Iteration    1 A*A^-1 deviation from unit magnitude is 6.99D-15 for    673.
 Iteration    1 A*A^-1 deviation from orthogonality  is 1.91D-15 for   2170    676.
 Iteration    1 A^-1*A deviation from unit magnitude is 6.88D-15 for    655.
 Iteration    1 A^-1*A deviation from orthogonality  is 2.27D-15 for   2725   1537.
 E= -798.697037734105    
 DIIS: error= 3.45D-02 at cycle   1 NSaved=   1.
 NSaved= 1 IEnMin= 1 EnMin= -798.697037734105     IErMin= 1 ErrMin= 3.45D-02
 ErrMax= 3.45D-02  0.00D+00 EMaxC= 1.00D-01 BMatC= 5.66D-01 BMatP= 5.66D-01
 IDIUse=3 WtCom= 6.55D-01 WtEn= 3.45D-01
 Coeff-Com:  0.100D+01
 Coeff-En:   0.100D+01
 Coeff:      0.100D+01
 Gap=     0.178 Goal=   None    Shift=    0.000
 GapD=    0.178 DampG=1.000 DampE=0.500 DampFc=0.5000 IDamp=-1.
 Damping current iteration by 5.00D-01
 RMSDP=9.72D-03 MaxDP=4.00D-01              OVMax= 8.95D-01

 Cycle   2  Pass 1  IDiag  1:
 RMSU=  4.83D-03    CP:  9.75D-01
 E= -798.617173055497     Delta-E=        0.079864678608 Rises=F Damp=T
 DIIS: error= 2.12D-02 at cycle   2 NSaved=   2.
 NSaved= 2 IEnMin= 1 EnMin= -798.697037734105     IErMin= 2 ErrMin= 2.12D-02
 ErrMax= 2.12D-02  0.00D+00 EMaxC= 1.00D-01 BMatC= 1.78D-01 BMatP= 5.66D-01
 IDIUse=3 WtCom= 7.88D-01 WtEn= 2.12D-01
 Coeff-Com:  0.308D+00 0.692D+00
 Coeff-En:   0.561D+00 0.439D+00
 Coeff:      0.361D+00 0.639D+00
 Gap=    -0.165 Goal=   None    Shift=    0.000
 RMSDP=4.00D-03 MaxDP=1.66D-01 DE= 7.99D-02 OVMax= 6.86D-01

 Cycle   3  Pass 1  IDiag  1:
 RMSU=  2.99D-03    CP:  9.65D-01  4.52D-01
 E= -799.040466491236     Delta-E=       -0.423293435738 Rises=F Damp=F
 DIIS: error= 1.52D-02 at cycle   3 NSaved=   3.
 NSaved= 3 IEnMin= 3 EnMin= -799.040466491236     IErMin= 3 ErrMin= 1.52D-02
 ErrMax= 1.52D-02  0.00D+00 EMaxC= 1.00D-01 BMatC= 1.57D-01 BMatP= 1.78D-01
 IDIUse=3 WtCom= 8.48D-01 WtEn= 1.52D-01
 Coeff-Com:  0.116D+00 0.457D+00 0.427D+00
 Coeff-En:   0.000D+00 0.722D-01 0.928D+00
 Coeff:      0.983D-01 0.399D+00 0.503D+00
 Gap=     0.153 Goal=   None    Shift=    0.000
 RMSDP=1.95D-03 MaxDP=6.59D-02 DE=-4.23D-01 OVMax= 1.21D-01

 Cycle   4  Pass 1  IDiag  1:
 RMSU=  1.54D-03    CP:  9.74D-01  5.10D-01  6.16D-01
 E= -799.193311385445     Delta-E=       -0.152844894209 Rises=F Damp=F
 DIIS: error= 4.65D-03 at cycle   4 NSaved=   4.
 NSaved= 4 IEnMin= 4 EnMin= -799.193311385445     IErMin= 4 ErrMin= 4.65D-03
 ErrMax= 4.65D-03  0.00D+00 EMaxC= 1.00D-01 BMatC= 7.85D-03 BMatP= 1.57D-01
 IDIUse=3 WtCom= 9.53D-01 WtEn= 4.65D-02
 Coeff-Com: -0.523D-03 0.164D+00 0.175D+00 0.661D+00
 Coeff-En:   0.000D+00 0.000D+00 0.000D+00 0.100D+01
 Coeff:     -0.499D-03 0.156D+00 0.167D+00 0.677D+00
 Gap=     0.117 Goal=   None    Shift=    0.000
 RMSDP=6.17D-04 MaxDP=2.71D-02 DE=-1.53D-01 OVMax= 5.06D-02

 Cycle   5  Pass 1  IDiag  1:
 RMSU=  5.92D-04    CP:  9.74D-01  5.24D-01  6.55D-01  9.31D-01
 E= -799.194818618474     Delta-E=       -0.001507233029 Rises=F Damp=F
 DIIS: error= 6.45D-03 at cycle   5 NSaved=   5.
 NSaved= 5 IEnMin= 5 EnMin= -799.194818618474     IErMin= 4 ErrMin= 4.65D-03
 ErrMax= 6.45D-03  0.00D+00 EMaxC= 1.00D-01 BMatC= 6.39D-03 BMatP= 7.85D-03
 IDIUse=3 WtCom= 9.36D-01 WtEn= 6.45D-02
 Coeff-Com: -0.270D-01 0.517D-01 0.121D-01 0.468D+00 0.495D+00
 Coeff-En:   0.000D+00 0.000D+00 0.000D+00 0.435D+00 0.565D+00
 Coeff:     -0.252D-01 0.484D-01 0.113D-01 0.466D+00 0.500D+00
 Gap=     0.113 Goal=   None    Shift=    0.000
 RMSDP=3.53D-04 MaxDP=1.46D-02 DE=-1.51D-03 OVMax= 3.08D-02

 Cycle   6  Pass 1  IDiag  1:
 RMSU=  1.69D-04    CP:  9.74D-01  5.40D-01  6.41D-01  1.05D+00  6.05D-01
 E= -799.200103784117     Delta-E=       -0.005285165643 Rises=F Damp=F
 DIIS: error= 7.40D-04 at cycle   6 NSaved=   6.
 NSaved= 6 IEnMin= 6 EnMin= -799.200103784117     IErMin= 6 ErrMin= 7.40D-04
 ErrMax= 7.40D-04  0.00D+00 EMaxC= 1.00D-01 BMatC= 2.32D-04 BMatP= 6.39D-03
 IDIUse=3 WtCom= 9.93D-01 WtEn= 7.40D-03
 Coeff-Com: -0.112D-01 0.987D-02-0.195D-01 0.128D+00 0.236D+00 0.657D+00
 Coeff-En:   0.000D+00 0.000D+00 0.000D+00 0.000D+00 0.000D+00 0.100D+01
 Coeff:     -0.111D-01 0.980D-02-0.193D-01 0.127D+00 0.234D+00 0.659D+00
 Gap=     0.111 Goal=   None    Shift=    0.000
 RMSDP=8.49D-05 MaxDP=5.03D-03 DE=-5.29D-03 OVMax= 4.19D-03

 Cycle   7  Pass 1  IDiag  1:
 RMSU=  5.81D-05    CP:  9.74D-01  5.45D-01  6.40D-01  1.06D+00  6.91D-01
                    CP:  9.00D-01
 E= -799.200283979354     Delta-E=       -0.000180195237 Rises=F Damp=F
 DIIS: error= 1.85D-04 at cycle   7 NSaved=   7.
 NSaved= 7 IEnMin= 7 EnMin= -799.200283979354     IErMin= 7 ErrMin= 1.85D-04
 ErrMax= 1.85D-04  0.00D+00 EMaxC= 1.00D-01 BMatC= 2.90D-05 BMatP= 2.32D-04
 IDIUse=3 WtCom= 9.98D-01 WtEn= 1.85D-03
 Coeff-Com: -0.195D-02 0.188D-03-0.107D-01 0.455D-02 0.578D-01 0.332D+00
 Coeff-Com:  0.618D+00
 Coeff-En:   0.000D+00 0.000D+00 0.000D+00 0.000D+00 0.000D+00 0.000D+00
 Coeff-En:   0.100D+01
 Coeff:     -0.195D-02 0.187D-03-0.107D-01 0.454D-02 0.577D-01 0.332D+00
 Coeff:      0.618D+00
 Gap=     0.111 Goal=   None    Shift=    0.000
 RMSDP=2.88D-05 MaxDP=9.98D-04 DE=-1.80D-04 OVMax= 2.68D-03

 Cycle   8  Pass 1  IDiag  1:
 RMSU=  1.95D-05    CP:  9.74D-01  5.45D-01  6.38D-01  1.07D+00  6.99D-01
                    CP:  9.37D-01  7.18D-01
 E= -799.200310993838     Delta-E=       -0.000027014484 Rises=F Damp=F
 DIIS: error= 7.21D-05 at cycle   8 NSaved=   8.
 NSaved= 8 IEnMin= 8 EnMin= -799.200310993838     IErMin= 8 ErrMin= 7.21D-05
 ErrMax= 7.21D-05  0.00D+00 EMaxC= 1.00D-01 BMatC= 3.34D-06 BMatP= 2.90D-05
 IDIUse=1 WtCom= 1.00D+00 WtEn= 0.00D+00
 Coeff-Com:  0.160D-04-0.724D-03-0.338D-02-0.746D-02 0.122D-01 0.113D+00
 Coeff-Com:  0.315D+00 0.571D+00
 Coeff:      0.160D-04-0.724D-03-0.338D-02-0.746D-02 0.122D-01 0.113D+00
 Coeff:      0.315D+00 0.571D+00
 Gap=     0.111 Goal=   None    Shift=    0.000
 RMSDP=9.96D-06 MaxDP=4.54D-04 DE=-2.70D-05 OVMax= 6.28D-04

 Cycle   9  Pass 1  IDiag  1:
 RMSU=  8.07D-06    CP:  9.74D-01  5.44D-01  6.38D-01  1.07D+00  6.99D-01
                    CP:  9.39D-01  7.76D-01  8.02D-01
 E= -799.200313599591     Delta-E=       -0.000002605753 Rises=F Damp=F
 DIIS: error= 3.42D-05 at cycle   9 NSaved=   9.
 NSaved= 9 IEnMin= 9 EnMin= -799.200313599591     IErMin= 9 ErrMin= 3.42D-05
 ErrMax= 3.42D-05  0.00D+00 EMaxC= 1.00D-01 BMatC= 8.43D-07 BMatP= 3.34D-06
 IDIUse=1 WtCom= 1.00D+00 WtEn= 0.00D+00
 Coeff-Com:  0.343D-03-0.283D-03 0.302D-04-0.363D-02 0.663D-03 0.187D-01
 Coeff-Com:  0.959D-01 0.348D+00 0.540D+00
 Coeff:      0.343D-03-0.283D-03 0.302D-04-0.363D-02 0.663D-03 0.187D-01
 Coeff:      0.959D-01 0.348D+00 0.540D+00
 Gap=     0.112 Goal=   None    Shift=    0.000
 RMSDP=4.35D-06 MaxDP=2.07D-04 DE=-2.61D-06 OVMax= 3.57D-04

 Cycle  10  Pass 1  IDiag  1:
 RMSU=  3.05D-06    CP:  9.74D-01  5.44D-01  6.38D-01  1.07D+00  6.99D-01
                    CP:  9.40D-01  7.79D-01  8.74D-01  7.36D-01
 E= -799.200314288067     Delta-E=       -0.000000688476 Rises=F Damp=F
 DIIS: error= 1.29D-05 at cycle  10 NSaved=  10.
 NSaved=10 IEnMin=10 EnMin= -799.200314288067     IErMin=10 ErrMin= 1.29D-05
 ErrMax= 1.29D-05  0.00D+00 EMaxC= 1.00D-01 BMatC= 8.24D-08 BMatP= 8.43D-07
 IDIUse=1 WtCom= 1.00D+00 WtEn= 0.00D+00
 Coeff-Com:  0.213D-03-0.237D-03 0.378D-03-0.121D-02-0.686D-03-0.155D-02
 Coeff-Com:  0.160D-01 0.110D+00 0.278D+00 0.599D+00
 Coeff:      0.213D-03-0.237D-03 0.378D-03-0.121D-02-0.686D-03-0.155D-02
 Coeff:      0.160D-01 0.110D+00 0.278D+00 0.599D+00
 Gap=     0.112 Goal=   None    Shift=    0.000
 RMSDP=1.26D-06 MaxDP=4.44D-05 DE=-6.88D-07 OVMax= 7.75D-05

 Cycle  11  Pass 1  IDiag  1:
 RMSU=  7.54D-07    CP:  9.74D-01  5.44D-01  6.38D-01  1.07D+00  6.99D-01
                    CP:  9.41D-01  7.82D-01  8.94D-01  8.09D-01  8.62D-01
 E= -799.200314360759     Delta-E=       -0.000000072691 Rises=F Damp=F
 DIIS: error= 5.64D-06 at cycle  11 NSaved=  11.
 NSaved=11 IEnMin=11 EnMin= -799.200314360759     IErMin=11 ErrMin= 5.64D-06
 ErrMax= 5.64D-06  0.00D+00 EMaxC= 1.00D-01 BMatC= 1.28D-08 BMatP= 8.24D-08
 IDIUse=1 WtCom= 1.00D+00 WtEn= 0.00D+00
 Coeff-Com:  0.560D-04-0.615D-04 0.256D-03 0.271D-03-0.275D-05-0.337D-02
 Coeff-Com: -0.877D-02-0.107D-01 0.482D-01 0.283D+00 0.691D+00
 Coeff:      0.560D-04-0.615D-04 0.256D-03 0.271D-03-0.275D-05-0.337D-02
 Coeff:     -0.877D-02-0.107D-01 0.482D-01 0.283D+00 0.691D+00
 Gap=     0.112 Goal=   None    Shift=    0.000
 RMSDP=6.33D-07 MaxDP=2.10D-05 DE=-7.27D-08 OVMax= 4.68D-05

 Cycle  12  Pass 1  IDiag  1:
 RMSU=  3.24D-07    CP:  9.74D-01  5.44D-01  6.38D-01  1.07D+00  6.99D-01
                    CP:  9.40D-01  7.82D-01  9.01D-01  8.30D-01  9.55D-01
                    CP:  8.36D-01
 E= -799.200314370969     Delta-E=       -0.000000010210 Rises=F Damp=F
 DIIS: error= 1.83D-06 at cycle  12 NSaved=  12.
 NSaved=12 IEnMin=12 EnMin= -799.200314370969     IErMin=12 ErrMin= 1.83D-06
 ErrMax= 1.83D-06  0.00D+00 EMaxC= 1.00D-01 BMatC= 1.79D-09 BMatP= 1.28D-08
 IDIUse=1 WtCom= 1.00D+00 WtEn= 0.00D+00
 Coeff-Com:  0.133D-04-0.194D-04 0.111D-03 0.271D-03 0.157D-03-0.147D-02
 Coeff-Com: -0.611D-02-0.169D-01 0.196D-02 0.962D-01 0.405D+00 0.520D+00
 Coeff:      0.133D-04-0.194D-04 0.111D-03 0.271D-03 0.157D-03-0.147D-02
 Coeff:     -0.611D-02-0.169D-01 0.196D-02 0.962D-01 0.405D+00 0.520D+00
 Gap=     0.112 Goal=   None    Shift=    0.000
 RMSDP=2.32D-07 MaxDP=7.58D-06 DE=-1.02D-08 OVMax= 1.25D-05

 Cycle  13  Pass 1  IDiag  1:
 RMSU=  1.23D-07    CP:  9.74D-01  5.44D-01  6.38D-01  1.07D+00  6.99D-01
                    CP:  9.40D-01  7.82D-01  9.03D-01  8.39D-01  9.63D-01
                    CP:  9.09D-01  6.35D-01
 E= -799.200314372561     Delta-E=       -0.000000001592 Rises=F Damp=F
 DIIS: error= 6.45D-07 at cycle  13 NSaved=  13.
 NSaved=13 IEnMin=13 EnMin= -799.200314372561     IErMin=13 ErrMin= 6.45D-07
 ErrMax= 6.45D-07  0.00D+00 EMaxC= 1.00D-01 BMatC= 1.51D-10 BMatP= 1.79D-09
 IDIUse=1 WtCom= 1.00D+00 WtEn= 0.00D+00
 Coeff-Com: -0.415D-06 0.602D-06 0.258D-04 0.106D-03 0.109D-03-0.207D-03
 Coeff-Com: -0.182D-02-0.729D-02-0.562D-02 0.473D-02 0.110D+00 0.254D+00
 Coeff-Com:  0.646D+00
 Coeff:     -0.415D-06 0.602D-06 0.258D-04 0.106D-03 0.109D-03-0.207D-03
 Coeff:     -0.182D-02-0.729D-02-0.562D-02 0.473D-02 0.110D+00 0.254D+00
 Coeff:      0.646D+00
 Gap=     0.112 Goal=   None    Shift=    0.000
 RMSDP=7.96D-08 MaxDP=2.52D-06 DE=-1.59D-09 OVMax= 5.83D-06

 Cycle  14  Pass 1  IDiag  1:
 RMSU=  4.35D-08    CP:  9.74D-01  5.44D-01  6.38D-01  1.07D+00  6.99D-01
                    CP:  9.40D-01  7.82D-01  9.03D-01  8.41D-01  9.69D-01
                    CP:  9.30D-01  7.37D-01  7.72D-01
 E= -799.200314372708     Delta-E=       -0.000000000147 Rises=F Damp=F
 DIIS: error= 1.94D-07 at cycle  14 NSaved=  14.
 NSaved=14 IEnMin=14 EnMin= -799.200314372708     IErMin=14 ErrMin= 1.94D-07
 ErrMax= 1.94D-07  0.00D+00 EMaxC= 1.00D-01 BMatC= 2.47D-11 BMatP= 1.51D-10
 IDIUse=1 WtCom= 1.00D+00 WtEn= 0.00D+00
 Coeff-Com: -0.839D-06-0.124D-05 0.102D-05 0.168D-04 0.380D-04 0.550D-04
 Coeff-Com: -0.289D-03-0.197D-02-0.249D-02-0.661D-02 0.197D-01 0.778D-01
 Coeff-Com:  0.373D+00 0.541D+00
 Coeff:     -0.839D-06-0.124D-05 0.102D-05 0.168D-04 0.380D-04 0.550D-04
 Coeff:     -0.289D-03-0.197D-02-0.249D-02-0.661D-02 0.197D-01 0.778D-01
 Coeff:      0.373D+00 0.541D+00
 Gap=     0.112 Goal=   None    Shift=    0.000
 RMSDP=2.59D-08 MaxDP=7.77D-07 DE=-1.47D-10 OVMax= 1.69D-06

 Cycle  15  Pass 1  IDiag  1:
 RMSU=  1.48D-08    CP:  9.74D-01  5.44D-01  6.38D-01  1.07D+00  6.99D-01
                    CP:  9.40D-01  7.82D-01  9.03D-01  8.41D-01  9.69D-01
                    CP:  9.36D-01  7.33D-01  8.65D-01  7.21D-01
 E= -799.200314372733     Delta-E=       -0.000000000025 Rises=F Damp=F
 DIIS: error= 3.98D-08 at cycle  15 NSaved=  15.
 NSaved=15 IEnMin=15 EnMin= -799.200314372733     IErMin=15 ErrMin= 3.98D-08
 ErrMax= 3.98D-08  0.00D+00 EMaxC= 1.00D-01 BMatC= 1.33D-12 BMatP= 2.47D-11
 IDIUse=1 WtCom= 1.00D+00 WtEn= 0.00D+00
 Coeff-Com: -0.468D-06 0.117D-06-0.209D-05-0.365D-05 0.351D-05 0.434D-04
 Coeff-Com:  0.430D-04-0.214D-03-0.772D-03-0.447D-02-0.417D-02 0.561D-02
 Coeff-Com:  0.100D+00 0.243D+00 0.660D+00
 Coeff:     -0.468D-06 0.117D-06-0.209D-05-0.365D-05 0.351D-05 0.434D-04
 Coeff:      0.430D-04-0.214D-03-0.772D-03-0.447D-02-0.417D-02 0.561D-02
 Coeff:      0.100D+00 0.243D+00 0.660D+00
 Gap=     0.112 Goal=   None    Shift=    0.000
 RMSDP=8.25D-09 MaxDP=2.83D-07 DE=-2.50D-11 OVMax= 8.98D-07

 Error on total polarization charges =  0.00551
 SCF Done:  E(RB3LYP) =  -799.200314373     A.U. after   15 cycles
            NFock= 15  Conv=0.82D-08     -V/T= 2.0083
 KE= 7.926214757698D+02 PE=-4.219227168229D+03 EE= 1.458409778362D+03
 Leave Link  502 at Mon Jul 12 12:23:03 2021, MaxMem=   104857600 cpu:             779.0 elap:             201.9
 (Enter /dades/curu/g16A03_MST/g16/l601.exe)
 Copying SCF densities to generalized density rwf, IOpCl= 0 IROHF=0.

 **********************************************************************

            Population analysis using the SCF density.

 **********************************************************************

 Orbital symmetries:
       Occupied  (A) (A) (A) (A) (A) (A) (A) (A) (A) (A) (A) (A)
                 (A) (A) (A) (A) (A) (A) (A) (A) (A) (A) (A) (A)
                 (A) (A) (A) (A) (A) (A) (A) (A) (A) (A) (A) (A)
                 (A) (A) (A) (A) (A) (A) (A) (A) (A) (A) (A) (A)
                 (A) (A) (A) (A) (A) (A) (A) (A) (A) (A) (A) (A)
                 (A)
       Virtual   (A) (A) (A) (A) (A) (A) (A) (A) (A) (A) (A) (A)
                 (A) (A) (A) (A) (A) (A) (A) (A) (A) (A) (A) (A)
                 (A) (A) (A) (A) (A) (A) (A) (A) (A) (A) (A) (A)
                 (A) (A) (A) (A) (A) (A) (A) (A) (A) (A) (A) (A)
                 (A) (A) (A) (A) (A) (A) (A) (A) (A) (A) (A) (A)
                 (A) (A) (A) (A) (A) (A) (A) (A) (A) (A) (A) (A)
                 (A) (A) (A) (A) (A) (A) (A) (A) (A) (A) (A) (A)
                 (A) (A) (A) (A) (A) (A) (A) (A) (A) (A) (A) (A)
                 (A) (A) (A) (A) (A) (A) (A) (A) (A) (A) (A) (A)
                 (A) (A) (A) (A) (A) (A) (A) (A) (A) (A) (A) (A)
                 (A) (A) (A) (A) (A) (A) (A) (A) (A) (A) (A) (A)
                 (A) (A) (A) (A) (A) (A) (A) (A) (A) (A) (A) (A)
                 (A) (A) (A) (A) (A) (A) (A) (A) (A) (A) (A) (A)
                 (A) (A) (A) (A) (A) (A) (A) (A) (A) (A) (A) (A)
                 (A) (A) (A) (A) (A) (A) (A) (A) (A) (A) (A) (A)
                 (A) (A) (A) (A) (A) (A) (A) (A) (A) (A) (A) (A)
                 (A) (A) (A) (A) (A) (A) (A) (A) (A) (A) (A) (A)
                 (A) (A) (A) (A) (A) (A) (A) (A) (A) (A) (A) (A)
 The electronic state is 1-A.
 Alpha  occ. eigenvalues --  -19.08380 -19.02248 -19.02171 -14.38284 -14.32241
 Alpha  occ. eigenvalues --  -10.26067 -10.23331 -10.23044 -10.22630 -10.22311
 Alpha  occ. eigenvalues --  -10.21357 -10.20016 -10.18460 -10.17913 -10.17795
 Alpha  occ. eigenvalues --  -10.17729 -10.15752  -1.01518  -0.98432  -0.97719
 Alpha  occ. eigenvalues --   -0.92193  -0.86904  -0.80650  -0.78539  -0.77610
 Alpha  occ. eigenvalues --   -0.73563  -0.71084  -0.65339  -0.64073  -0.62084
 Alpha  occ. eigenvalues --   -0.58081  -0.54107  -0.52020  -0.51147  -0.47314
 Alpha  occ. eigenvalues --   -0.45503  -0.45130  -0.43849  -0.43675  -0.43289
 Alpha  occ. eigenvalues --   -0.42786  -0.40292  -0.39482  -0.38744  -0.38378
 Alpha  occ. eigenvalues --   -0.37700  -0.37113  -0.36750  -0.35398  -0.35018
 Alpha  occ. eigenvalues --   -0.34476  -0.34072  -0.31959  -0.26889  -0.25733
 Alpha  occ. eigenvalues --   -0.24739  -0.22776  -0.20022  -0.19514  -0.18993
 Alpha  occ. eigenvalues --   -0.15615
 Alpha virt. eigenvalues --   -0.04448  -0.00941   0.00958   0.07844   0.10010
 Alpha virt. eigenvalues --    0.11456   0.12761   0.13271   0.14077   0.15180
 Alpha virt. eigenvalues --    0.15232   0.16224   0.17083   0.19243   0.19357
 Alpha virt. eigenvalues --    0.20257   0.21648   0.22241   0.24105   0.24738
 Alpha virt. eigenvalues --    0.26792   0.27032   0.28994   0.30500   0.32234
 Alpha virt. eigenvalues --    0.33493   0.35747   0.37447   0.38662   0.43357
 Alpha virt. eigenvalues --    0.44375   0.46898   0.48689   0.48843   0.50090
 Alpha virt. eigenvalues --    0.50698   0.52182   0.52889   0.53057   0.53821
 Alpha virt. eigenvalues --    0.55124   0.56441   0.57742   0.58492   0.59731
 Alpha virt. eigenvalues --    0.61503   0.61750   0.62710   0.63335   0.64046
 Alpha virt. eigenvalues --    0.65516   0.65796   0.67100   0.67549   0.68841
 Alpha virt. eigenvalues --    0.69949   0.72182   0.72737   0.74259   0.75968
 Alpha virt. eigenvalues --    0.77289   0.77533   0.78248   0.80186   0.80493
 Alpha virt. eigenvalues --    0.82831   0.83472   0.84142   0.85560   0.86379
 Alpha virt. eigenvalues --    0.87588   0.88800   0.89192   0.90354   0.90773
 Alpha virt. eigenvalues --    0.92487   0.93901   0.94124   0.95441   0.95767
 Alpha virt. eigenvalues --    0.96705   0.98907   0.99314   1.00883   1.01811
 Alpha virt. eigenvalues --    1.02633   1.03352   1.04171   1.05200   1.06963
 Alpha virt. eigenvalues --    1.08468   1.10980   1.11770   1.12154   1.15257
 Alpha virt. eigenvalues --    1.16360   1.18502   1.20573   1.23989   1.24473
 Alpha virt. eigenvalues --    1.27457   1.29610   1.31854   1.32557   1.35014
 Alpha virt. eigenvalues --    1.36155   1.37531   1.40025   1.41532   1.43741
 Alpha virt. eigenvalues --    1.45041   1.47087   1.49635   1.53130   1.53843
 Alpha virt. eigenvalues --    1.56762   1.57353   1.59901   1.61082   1.65877
 Alpha virt. eigenvalues --    1.67685   1.70002   1.73736   1.75195   1.76606
 Alpha virt. eigenvalues --    1.77770   1.78906   1.79502   1.81468   1.83592
 Alpha virt. eigenvalues --    1.85208   1.87229   1.88324   1.89297   1.89876
 Alpha virt. eigenvalues --    1.90499   1.91979   1.92059   1.93602   1.94122
 Alpha virt. eigenvalues --    1.94409   1.94793   1.97435   2.00991   2.01268
 Alpha virt. eigenvalues --    2.03477   2.05287   2.09028   2.10852   2.12432
 Alpha virt. eigenvalues --    2.13254   2.14798   2.16945   2.19366   2.19682
 Alpha virt. eigenvalues --    2.21020   2.22248   2.24280   2.26209   2.26945
 Alpha virt. eigenvalues --    2.28454   2.30282   2.30572   2.33523   2.33768
 Alpha virt. eigenvalues --    2.35768   2.36743   2.37100   2.42560   2.42802
 Alpha virt. eigenvalues --    2.46490   2.48560   2.49830   2.56344   2.58188
 Alpha virt. eigenvalues --    2.61108   2.62006   2.66068   2.69167   2.70601
 Alpha virt. eigenvalues --    2.73132   2.73982   2.75544   2.78366   2.79283
 Alpha virt. eigenvalues --    2.81034   2.84156   2.86769   2.89896   2.96089
 Alpha virt. eigenvalues --    2.98350   3.00417   3.04324   3.08370   3.10800
 Alpha virt. eigenvalues --    3.23605   3.34824   3.48705   3.51972   3.91390
 Alpha virt. eigenvalues --    4.02414   4.06278   4.08990   4.15327   4.17913
 Alpha virt. eigenvalues --    4.23099   4.27185   4.27896   4.37066   4.39635
 Alpha virt. eigenvalues --    4.46722   4.49701   4.50900   4.61641   4.71777
 Alpha virt. eigenvalues --    4.88051
          Condensed to atoms (all electrons):
               1          2          3          4          5          6
     1  C    5.119496   0.379724   0.374977   0.362534   0.353199  -0.049509
     2  H    0.379724   0.535276  -0.023247  -0.026770  -0.033406  -0.000541
     3  H    0.374977  -0.023247   0.532110  -0.029014  -0.027499   0.004557
     4  H    0.362534  -0.026770  -0.029014   0.569917  -0.032522  -0.005596
     5  C    0.353199  -0.033406  -0.027499  -0.032522   4.905521   0.384658
     6  H   -0.049509  -0.000541   0.004557  -0.005596   0.384658   0.561566
     7  H   -0.033282   0.003411  -0.005102   0.002224   0.375345  -0.029515
     8  N   -0.050543  -0.003990  -0.000726   0.003871   0.284122  -0.041674
     9  C   -0.002443   0.002478  -0.000074  -0.000086  -0.035263  -0.002592
    10  H    0.001659   0.001572  -0.000055  -0.000227  -0.004420   0.002880
    11  C   -0.000040  -0.000055   0.000008  -0.000002   0.004501   0.000421
    12  C    0.000008  -0.000009   0.000000   0.000000  -0.000006  -0.000008
    13  O   -0.000000  -0.000000   0.000000   0.000000   0.000000  -0.000000
    14  O    0.000001  -0.000001  -0.000000   0.000000  -0.000014  -0.000009
    15  C   -0.000020   0.000016  -0.000002   0.000000  -0.000536  -0.000002
    16  O   -0.000000  -0.000000   0.000000   0.000000   0.000001  -0.000000
    17  C   -0.000206  -0.000055   0.000041   0.000005   0.005192  -0.000029
    18  C    0.000007  -0.000000   0.000001  -0.000000   0.000039   0.000002
    19  H   -0.000000  -0.000000   0.000000   0.000000   0.000002  -0.000000
    20  C   -0.000005   0.000000   0.000005   0.000000   0.000000   0.000001
    21  H    0.000000   0.000000  -0.000000  -0.000000  -0.000001  -0.000000
    22  C    0.000009  -0.000000  -0.000075   0.000000   0.000099  -0.000004
    23  C    0.000011  -0.000000  -0.000006  -0.000000  -0.000022  -0.000001
    24  H   -0.000007   0.000000   0.000020   0.000000  -0.000003   0.000000
    25  H   -0.000001  -0.000000   0.000013  -0.000000   0.000002   0.000000
    26  H   -0.000000  -0.000000   0.000000   0.000000   0.000000   0.000000
    27  N   -0.001453  -0.000105   0.003309   0.000070  -0.002334   0.000492
    28  C   -0.001242   0.000152   0.001241  -0.000005  -0.030876   0.003984
               7          8          9         10         11         12
     1  C   -0.033282  -0.050543  -0.002443   0.001659  -0.000040   0.000008
     2  H    0.003411  -0.003990   0.002478   0.001572  -0.000055  -0.000009
     3  H   -0.005102  -0.000726  -0.000074  -0.000055   0.000008   0.000000
     4  H    0.002224   0.003871  -0.000086  -0.000227  -0.000002   0.000000
     5  C    0.375345   0.284122  -0.035263  -0.004420   0.004501  -0.000006
     6  H   -0.029515  -0.041674  -0.002592   0.002880   0.000421  -0.000008
     7  H    0.526433  -0.034304   0.003336   0.000105  -0.000182  -0.000002
     8  N   -0.034304   7.035388   0.257869  -0.057041  -0.032258   0.004331
     9  C    0.003336   0.257869   5.119204   0.364309   0.377568  -0.026882
    10  H    0.000105  -0.057041   0.364309   0.522974  -0.036630  -0.000361
    11  C   -0.000182  -0.032258   0.377568  -0.036630   5.972292   0.102303
    12  C   -0.000002   0.004331  -0.026882  -0.000361   0.102303   4.350578
    13  O   -0.000000  -0.000024   0.008476   0.000400  -0.145964   0.581140
    14  O   -0.000000   0.001090   0.021909   0.017404  -0.187415   0.580411
    15  C    0.000031  -0.023617  -0.059091   0.001761   0.200585  -0.013881
    16  O    0.000000  -0.000025   0.005928  -0.000029  -0.107701  -0.003951
    17  C    0.000230  -0.062268  -0.039282  -0.000283  -0.064485   0.007780
    18  C   -0.000021   0.005598  -0.000494   0.000018   0.021056  -0.000104
    19  H    0.000000  -0.000048  -0.000052   0.000000   0.000902   0.000012
    20  C    0.000015   0.000300   0.000002   0.000001  -0.000168   0.000001
    21  H   -0.000001   0.000015   0.000000   0.000000   0.000002  -0.000000
    22  C    0.000068   0.002498   0.000008   0.000001  -0.000067  -0.000000
    23  C   -0.000057  -0.000156   0.000002  -0.000000  -0.000000   0.000000
    24  H    0.000075  -0.000005  -0.000000  -0.000000   0.000000   0.000000
    25  H    0.000001  -0.000003  -0.000000   0.000000  -0.000000  -0.000000
    26  H   -0.000000   0.000001  -0.000000   0.000000   0.000000   0.000000
    27  N    0.010841  -0.079302   0.002473  -0.000194  -0.001103  -0.000004
    28  C   -0.003561   0.269847  -0.031681   0.003849  -0.049428  -0.000008
              13         14         15         16         17         18
     1  C   -0.000000   0.000001  -0.000020  -0.000000  -0.000206   0.000007
     2  H   -0.000000  -0.000001   0.000016  -0.000000  -0.000055  -0.000000
     3  H    0.000000  -0.000000  -0.000002   0.000000   0.000041   0.000001
     4  H    0.000000   0.000000   0.000000   0.000000   0.000005  -0.000000
     5  C    0.000000  -0.000014  -0.000536   0.000001   0.005192   0.000039
     6  H   -0.000000  -0.000009  -0.000002  -0.000000  -0.000029   0.000002
     7  H   -0.000000  -0.000000   0.000031   0.000000   0.000230  -0.000021
     8  N   -0.000024   0.001090  -0.023617  -0.000025  -0.062268   0.005598
     9  C    0.008476   0.021909  -0.059091   0.005928  -0.039282  -0.000494
    10  H    0.000400   0.017404   0.001761  -0.000029  -0.000283   0.000018
    11  C   -0.145964  -0.187415   0.200585  -0.107701  -0.064485   0.021056
    12  C    0.581140   0.580411  -0.013881  -0.003951   0.007780  -0.000104
    13  O    8.402833  -0.170585   0.002902  -0.010116   0.000508   0.000010
    14  O   -0.170585   8.428675   0.002998  -0.000011  -0.000144   0.000000
    15  C    0.002902   0.002998   4.736490   0.640945   0.203419  -0.054122
    16  O   -0.010116  -0.000011   0.640945   8.105552  -0.137139   0.010221
    17  C    0.000508  -0.000144   0.203419  -0.137139   5.343819   0.427644
    18  C    0.000010   0.000000  -0.054122   0.010221   0.427644   5.118521
    19  H    0.000001   0.000000  -0.006605   0.011057  -0.045603   0.363093
    20  C    0.000000   0.000000   0.008096   0.001326  -0.023338   0.460338
    21  H    0.000000   0.000000  -0.000072   0.000002   0.004300  -0.043240
    22  C    0.000000  -0.000000   0.000061  -0.000025  -0.033690  -0.023136
    23  C    0.000000   0.000000   0.000014  -0.000000   0.001227   0.005337
    24  H   -0.000000   0.000000  -0.000000   0.000000  -0.000016  -0.000177
    25  H    0.000000  -0.000000  -0.000000  -0.000000   0.000037  -0.000245
    26  H    0.000000  -0.000000  -0.000000   0.000000  -0.000008   0.000325
    27  N   -0.000000   0.000000   0.007618  -0.000053  -0.041648  -0.063945
    28  C   -0.000033   0.000015   0.006374   0.004157   0.422446  -0.081531
              19         20         21         22         23         24
     1  C   -0.000000  -0.000005   0.000000   0.000009   0.000011  -0.000007
     2  H   -0.000000   0.000000   0.000000  -0.000000  -0.000000   0.000000
     3  H    0.000000   0.000005  -0.000000  -0.000075  -0.000006   0.000020
     4  H    0.000000   0.000000  -0.000000   0.000000  -0.000000   0.000000
     5  C    0.000002   0.000000  -0.000001   0.000099  -0.000022  -0.000003
     6  H   -0.000000   0.000001  -0.000000  -0.000004  -0.000001   0.000000
     7  H    0.000000   0.000015  -0.000001   0.000068  -0.000057   0.000075
     8  N   -0.000048   0.000300   0.000015   0.002498  -0.000156  -0.000005
     9  C   -0.000052   0.000002   0.000000   0.000008   0.000002  -0.000000
    10  H    0.000000   0.000001   0.000000   0.000001  -0.000000  -0.000000
    11  C    0.000902  -0.000168   0.000002  -0.000067  -0.000000   0.000000
    12  C    0.000012   0.000001  -0.000000  -0.000000   0.000000   0.000000
    13  O    0.000001   0.000000   0.000000   0.000000   0.000000  -0.000000
    14  O    0.000000   0.000000   0.000000  -0.000000   0.000000   0.000000
    15  C   -0.006605   0.008096  -0.000072   0.000061   0.000014  -0.000000
    16  O    0.011057   0.001326   0.000002  -0.000025  -0.000000   0.000000
    17  C   -0.045603  -0.023338   0.004300  -0.033690   0.001227  -0.000016
    18  C    0.363093   0.460338  -0.043240  -0.023136   0.005337  -0.000177
    19  H    0.555108  -0.042975  -0.005427   0.004821  -0.000237   0.000005
    20  C   -0.042975   5.041826   0.351079   0.531722  -0.075160   0.002839
    21  H   -0.005427   0.351079   0.591348  -0.039497  -0.005933   0.000016
    22  C    0.004821   0.531722  -0.039497   4.552087   0.369302  -0.027593
    23  C   -0.000237  -0.075160  -0.005933   0.369302   5.214769   0.355794
    24  H    0.000005   0.002839   0.000016  -0.027593   0.355794   0.549041
    25  H    0.000005   0.000283   0.000063  -0.024853   0.366112  -0.016282
    26  H   -0.000002   0.001761   0.003424  -0.030307   0.362868  -0.037001
    27  N   -0.000236  -0.032686   0.006469   0.434437  -0.086301   0.001449
    28  C    0.004720  -0.030419   0.000994  -0.045431   0.002531   0.000440
              25         26         27         28
     1  C   -0.000001  -0.000000  -0.001453  -0.001242
     2  H   -0.000000  -0.000000  -0.000105   0.000152
     3  H    0.000013   0.000000   0.003309   0.001241
     4  H   -0.000000   0.000000   0.000070  -0.000005
     5  C    0.000002   0.000000  -0.002334  -0.030876
     6  H    0.000000   0.000000   0.000492   0.003984
     7  H    0.000001  -0.000000   0.010841  -0.003561
     8  N   -0.000003   0.000001  -0.079302   0.269847
     9  C   -0.000000  -0.000000   0.002473  -0.031681
    10  H    0.000000   0.000000  -0.000194   0.003849
    11  C   -0.000000   0.000000  -0.001103  -0.049428
    12  C   -0.000000   0.000000  -0.000004  -0.000008
    13  O    0.000000   0.000000  -0.000000  -0.000033
    14  O   -0.000000  -0.000000   0.000000   0.000015
    15  C   -0.000000  -0.000000   0.007618   0.006374
    16  O   -0.000000   0.000000  -0.000053   0.004157
    17  C    0.000037  -0.000008  -0.041648   0.422446
    18  C   -0.000245   0.000325  -0.063945  -0.081531
    19  H    0.000005  -0.000002  -0.000236   0.004720
    20  C    0.000283   0.001761  -0.032686  -0.030419
    21  H    0.000063   0.003424   0.006469   0.000994
    22  C   -0.024853  -0.030307   0.434437  -0.045431
    23  C    0.366112   0.362868  -0.086301   0.002531
    24  H   -0.016282  -0.037001   0.001449   0.000440
    25  H    0.519403  -0.024484  -0.002001   0.000073
    26  H   -0.024484   0.555626   0.004032  -0.000122
    27  N   -0.002001   0.004032   7.012354   0.409992
    28  C    0.000073  -0.000122   0.409992   4.699158
 Mulliken charges:
               1
     1  C   -0.452872
     2  H    0.165552
     3  H    0.169520
     4  H    0.155599
     5  C   -0.145781
     6  H    0.170919
     7  H    0.183913
     8  N   -0.478943
     9  C    0.034377
    10  H    0.182308
    11  C   -0.054140
    12  C    0.418653
    13  O   -0.669546
    14  O   -0.694324
    15  C    0.346639
    16  O   -0.520138
    17  C    0.031545
    18  C   -0.145192
    19  H    0.161460
    20  C   -0.194845
    21  H    0.136458
    22  C    0.329566
    23  C   -0.510095
    24  H    0.171406
    25  H    0.181878
    26  H    0.163887
    27  N   -0.582170
    28  C    0.444365
 Sum of Mulliken charges =  -1.00000
 Mulliken charges with hydrogens summed into heavy atoms:
               1
     1  C    0.037799
     5  C    0.209052
     8  N   -0.478943
     9  C    0.216684
    11  C   -0.054140
    12  C    0.418653
    13  O   -0.669546
    14  O   -0.694324
    15  C    0.346639
    16  O   -0.520138
    17  C    0.031545
    18  C    0.016268
    20  C   -0.058386
    22  C    0.329566
    23  C    0.007076
    27  N   -0.582170
    28  C    0.444365
 Electronic spatial extent (au):  <R**2>=           4273.8210
 Charge=             -1.0000 electrons
 Dipole moment (field-independent basis, Debye):
    X=            -22.8478    Y=              5.3479    Z=             -1.2003  Tot=             23.4960
 Quadrupole moment (field-independent basis, Debye-Ang):
   XX=           -178.6060   YY=           -103.4144   ZZ=            -96.9903
   XY=             14.8039   XZ=             -1.1454   YZ=              1.3616
 Traceless Quadrupole moment (field-independent basis, Debye-Ang):
   XX=            -52.2691   YY=             22.9225   ZZ=             29.3466
   XY=             14.8039   XZ=             -1.1454   YZ=              1.3616
 Octapole moment (field-independent basis, Debye-Ang**2):
  XXX=           -386.3988  YYY=             43.0223  ZZZ=              0.9481  XYY=            -50.3772
  XXY=              7.7729  XXZ=             -8.6032  XZZ=              5.1590  YZZ=              2.5301
  YYZ=            -11.1276  XYZ=              4.4888
 Hexadecapole moment (field-independent basis, Debye-Ang**3):
 XXXX=          -4942.0813 YYYY=          -1739.2874 ZZZZ=           -154.8842 XXXY=            107.5201
 XXXZ=            -13.8968 YYYX=             75.0196 YYYZ=             -2.9274 ZZZX=              0.2545
 ZZZY=             -4.9497 XXYY=          -1034.7773 XXZZ=           -617.5651 YYZZ=           -324.5332
 XXYZ=             21.2141 YYXZ=              4.4888 ZZXY=            -11.8522
 N-N= 1.168995599724D+03 E-N=-4.219227172122D+03  KE= 7.926214757698D+02
 No NMR shielding tensors so no spin-rotation constants.
 Leave Link  601 at Mon Jul 12 12:23:03 2021, MaxMem=   104857600 cpu:               0.5 elap:               0.2
 (Enter /dades/curu/g16A03_MST/g16/l701.exe)
 ... and contract with generalized density number  0.
 Compute integral first derivatives.
 D1PCM: PCM CHGder 1st derivatives, ID1Alg=3 FixD1E=F DoIter=F DoCFld=F I1PDM=0.
 GePol: Maximum number of non-zero 1st derivatives   =     215
 Leave Link  701 at Mon Jul 12 12:23:07 2021, MaxMem=   104857600 cpu:              15.2 elap:               3.9
 (Enter /dades/curu/g16A03_MST/g16/l702.exe)
 L702 exits ... SP integral derivatives will be done elsewhere.
 Leave Link  702 at Mon Jul 12 12:23:07 2021, MaxMem=   104857600 cpu:               0.0 elap:               0.0
 (Enter /dades/curu/g16A03_MST/g16/l703.exe)
 Integral derivatives from FoFJK, PRISM(SPDF).
 Compute integral first derivatives, UseDBF=F ICtDFT=           0.
 Calling FoFJK, ICntrl=      2127 FMM=F ISym2X=0 I1Cent= 0 IOpClX= 0 NMat=1 NMatS=1 NMatT=0.
 FoFJK:  IHMeth= 1 ICntrl=    2127 DoSepK=F KAlg= 0 I1Cent=           0 FoldK=F
 IRaf=         0 NMat=       1 IRICut=       1 DoRegI=T DoRafI=F ISym2E= 0 IDoP0=0 IntGTp=1.
 FoFCou: FMM=F IPFlag=           0 FMFlag=      100000 FMFlg1=         800
         NFxFlg=           0 DoJE=F BraDBF=F KetDBF=F FulRan=T
         wScrn=  0.000000 ICntrl=      2127 IOpCl=  0 I1Cent=           0 NGrid=           0
         NMat0=    1 NMatS0=      1 NMatT0=    0 NMatD0=    1 NMtDS0=    0 NMtDT0=    0
 Symmetry not used in FoFCou.
 Leave Link  703 at Mon Jul 12 12:23:34 2021, MaxMem=   104857600 cpu:             105.8 elap:              26.5
 (Enter /dades/curu/g16A03_MST/g16/l716.exe)
 Dipole        =-8.98903103D+00 2.10402085D+00-4.72249160D-01
 ***** Axes restored to original set *****
 -------------------------------------------------------------------
 Center     Atomic                   Forces (Hartrees/Bohr)
 Number     Number              X              Y              Z
 -------------------------------------------------------------------
      1        6          -0.017724759   -0.011676763   -0.009858872
      2        1           0.000689774    0.002577436   -0.002583657
      3        1          -0.000248148    0.004971545    0.005846237
      4        1           0.005897632    0.001088672    0.000378866
      5        6           0.010107515    0.010592364    0.012930151
      6        1          -0.004961901    0.003149143    0.001055596
      7        1           0.004400677    0.001787377    0.000614352
      8        7           0.001678469    0.025485360   -0.010006363
      9        6          -0.010170182    0.017761437   -0.042005742
     10        1          -0.015404670   -0.004158507    0.021517466
     11        6           0.041882809   -0.035573792   -0.013318894
     12        6          -0.012052452   -0.020998298    0.062148602
     13        8          -0.037382613    0.047568577    0.010880292
     14        8           0.044891660   -0.048415895   -0.018451059
     15        6           0.030947854   -0.007305833   -0.037941130
     16        8          -0.053711192    0.044411498    0.043023449
     17        6           0.000353108    0.014306875   -0.003902330
     18        6          -0.004322546   -0.015501464   -0.026581025
     19        1           0.007019967   -0.003198817    0.010839490
     20        6          -0.045200461    0.031254536    0.027620586
     21        1           0.004466387    0.008013506    0.002710224
     22        6           0.017799939   -0.031086582    0.009412237
     23        6          -0.011535106   -0.005321912   -0.018424294
     24        1           0.018349111   -0.003587592    0.000200418
     25        1           0.003622173   -0.003204015   -0.010477565
     26        1           0.000271314    0.009860232    0.009397480
     27        7           0.017242634   -0.024450545    0.023794267
     28        6           0.003093004   -0.008348542   -0.048818781
 -------------------------------------------------------------------
 Cartesian Forces:  Max     0.062148602 RMS     0.022290021
[...]
 Alpha virt. eigenvalues --    0.76638   0.77226   0.77632   0.77836   0.78733
 Alpha virt. eigenvalues --    0.79209   0.79445   0.79987   0.80299   0.80775
 Alpha virt. eigenvalues --    0.81187   0.81986   0.82549   0.83333   0.83945
 Alpha virt. eigenvalues --    0.84274   0.84540   0.85004   0.85837   0.86452
 Alpha virt. eigenvalues --    0.86689   0.86756   0.87574   0.88249   0.89153
 Alpha virt. eigenvalues --    0.90108   0.90205   0.91116   0.91151   0.92061
 Alpha virt. eigenvalues --    0.92481   0.93748   0.94472   0.94823   0.95850
 Alpha virt. eigenvalues --    0.96435   0.97274   0.97843   0.98811   0.99219
 Alpha virt. eigenvalues --    0.99827   0.99911   1.00826   1.01699   1.01928
 Alpha virt. eigenvalues --    1.02274   1.02704   1.03025   1.04322   1.04678
 Alpha virt. eigenvalues --    1.05064   1.06148   1.06681   1.07078   1.07465
 Alpha virt. eigenvalues --    1.08568   1.08957   1.09800   1.10662   1.11605
 Alpha virt. eigenvalues --    1.12336   1.12898   1.13194   1.13526   1.13919
 Alpha virt. eigenvalues --    1.14744   1.16167   1.16851   1.17927   1.18354
 Alpha virt. eigenvalues --    1.19123   1.20031   1.20635   1.22332   1.22697
 Alpha virt. eigenvalues --    1.23039   1.24832   1.25151   1.25575   1.26405
 Alpha virt. eigenvalues --    1.27145   1.27909   1.27991   1.30076   1.30725
 Alpha virt. eigenvalues --    1.31148   1.31608   1.33899   1.34053   1.36541
 Alpha virt. eigenvalues --    1.37083   1.37937   1.38191   1.40282   1.40388
 Alpha virt. eigenvalues --    1.41414   1.43054   1.44006   1.45560   1.46754
 Alpha virt. eigenvalues --    1.48058   1.49024   1.50927   1.52333   1.52650
 Alpha virt. eigenvalues --    1.52875   1.53944   1.54483   1.55550   1.56543
 Alpha virt. eigenvalues --    1.57495   1.58830   1.59633   1.60456   1.61562
 Alpha virt. eigenvalues --    1.62305   1.63892   1.65594   1.66165   1.66723
 Alpha virt. eigenvalues --    1.67921   1.68881   1.70018   1.70989   1.72139
 Alpha virt. eigenvalues --    1.73166   1.74892   1.75712   1.76373   1.77287
 Alpha virt. eigenvalues --    1.78917   1.79901   1.80500   1.81284   1.82183
 Alpha virt. eigenvalues --    1.82814   1.82894   1.84651   1.85238   1.86044
 Alpha virt. eigenvalues --    1.86503   1.88013   1.88037   1.88901   1.90771
 Alpha virt. eigenvalues --    1.91528   1.92808   1.93145   1.94272   1.95959
 Alpha virt. eigenvalues --    1.96143   1.97035   1.97362   1.97795   1.98606
 Alpha virt. eigenvalues --    1.98973   1.99880   2.00417   2.01969   2.02831
 Alpha virt. eigenvalues --    2.03312   2.03976   2.04637   2.05343   2.06326
 Alpha virt. eigenvalues --    2.08191   2.08697   2.10114   2.10784   2.12244
 Alpha virt. eigenvalues --    2.13627   2.14347   2.15828   2.16670   2.17739
 Alpha virt. eigenvalues --    2.18933   2.20814   2.20986   2.22199   2.23202
 Alpha virt. eigenvalues --    2.24620   2.25061   2.25590   2.26109   2.27206
 Alpha virt. eigenvalues --    2.27836   2.29277   2.30589   2.31170   2.33583
 Alpha virt. eigenvalues --    2.34123   2.34681   2.35257   2.35861   2.36677
 Alpha virt. eigenvalues --    2.37437   2.38018   2.39727   2.40466   2.40723
 Alpha virt. eigenvalues --    2.42768   2.43486   2.45576   2.45880   2.47255
 Alpha virt. eigenvalues --    2.48367   2.49121   2.51120   2.52116   2.52870
 Alpha virt. eigenvalues --    2.54219   2.54404   2.55341   2.56376   2.58836
 Alpha virt. eigenvalues --    2.59104   2.60775   2.61912   2.62667   2.64260
 Alpha virt. eigenvalues --    2.65084   2.66026   2.68495   2.69342   2.70304
 Alpha virt. eigenvalues --    2.71723   2.73671   2.74268   2.75881   2.77410
 Alpha virt. eigenvalues --    2.78803   2.81834   2.82097   2.82622   2.85810
 Alpha virt. eigenvalues --    2.86718   2.89031   2.91192   2.92564   2.94018
 Alpha virt. eigenvalues --    2.94829   2.96945   2.97802   2.98524   2.99697
 Alpha virt. eigenvalues --    3.01569   3.02447   3.03790   3.05284   3.09772
 Alpha virt. eigenvalues --    3.12281   3.13982   3.14679   3.16557   3.20740
 Alpha virt. eigenvalues --    3.21265   3.22314   3.23771   3.26771   3.30688
 Alpha virt. eigenvalues --    3.33454   3.34614   3.37164   3.40144   3.44529
 Alpha virt. eigenvalues --    3.48615   3.53017   3.53863   3.56221   3.63033
 Alpha virt. eigenvalues --    3.70306   3.78925   3.80907   3.89124   3.93312
 Alpha virt. eigenvalues --    3.94988   3.97445   3.98605   4.00449   4.02774
 Alpha virt. eigenvalues --    4.03211   4.05340   4.07058   4.10597   4.13621
 Alpha virt. eigenvalues --    4.16704   4.23213   4.23743   4.28756   4.34846
 Alpha virt. eigenvalues --    4.40080   4.42367   4.50386   4.82724
          Condensed to atoms (all electrons):
               1          2          3          4          5          6
     1  C    4.321045   0.346497   0.389534   0.323390   0.315805  -0.154873
     2  H    0.346497   1.184218  -0.136417  -0.192135  -0.134755  -0.065374
     3  H    0.389534  -0.136417   0.989326  -0.163086  -0.012931   0.087780
     4  H    0.323390  -0.192135  -0.163086   1.206971  -0.002888  -0.083217
     5  C    0.315805  -0.134755  -0.012931  -0.002888   5.290387   0.282240
     6  H   -0.154873  -0.065374   0.087780  -0.083217   0.282240   1.788219
     7  H   -0.050083   0.090733  -0.060849  -0.062658   0.164890  -0.372983
     8  N    0.054632  -0.033262  -0.067815   0.114187   0.195185  -0.425935
     9  C   -0.280071  -0.082912   0.026501   0.049092  -0.395263   0.660252
    10  H   -0.013726  -0.023803   0.001919   0.010361  -0.004755  -0.033798
    11  C    0.044176   0.002375  -0.007496   0.008889  -0.096661  -0.201908
    12  C   -0.012427   0.002161  -0.000083  -0.001124  -0.024762   0.003387
    13  O   -0.000410  -0.000163   0.000006   0.000004   0.003467   0.000797
    14  O   -0.006203   0.002429  -0.000570  -0.000527  -0.002041   0.004797
    15  C    0.013975   0.002331   0.013133  -0.002045   0.112067   0.029281
    16  O    0.000500   0.000507  -0.000279  -0.000000  -0.003114  -0.000397
    17  C   -0.023989  -0.011804  -0.023764   0.005354  -0.263972   0.120910
    18  C   -0.006146  -0.005450   0.025623  -0.001315   0.272593   0.042120
    19  H    0.000284  -0.000251   0.000344  -0.000031  -0.002383   0.000462
    20  C    0.029620   0.003348  -0.020744   0.006114  -0.159254  -0.026200
    21  H   -0.000876   0.000149  -0.000233   0.000042   0.007293   0.000251
    22  C    0.040678  -0.011308   0.079535  -0.025935   0.014460   0.011848
    23  C   -0.012162  -0.002806   0.007781  -0.003476  -0.005175   0.004461
    24  H    0.000832  -0.000275   0.002210  -0.000227  -0.003084   0.000365
    25  H    0.001109  -0.000225  -0.000707  -0.000279  -0.001931  -0.000452
    26  H   -0.000792   0.000022   0.000128  -0.000232   0.000598   0.000278
    27  N    0.083938   0.001061   0.057519  -0.028631  -0.152222   0.058347
    28  C    0.045096   0.156362  -0.116540  -0.060091   0.004479  -0.458419
               7          8          9         10         11         12
     1  C   -0.050083   0.054632  -0.280071  -0.013726   0.044176  -0.012427
     2  H    0.090733  -0.033262  -0.082912  -0.023803   0.002375   0.002161
     3  H   -0.060849  -0.067815   0.026501   0.001919  -0.007496  -0.000083
     4  H   -0.062658   0.114187   0.049092   0.010361   0.008889  -0.001124
     5  C    0.164890   0.195185  -0.395263  -0.004755  -0.096661  -0.024762
     6  H   -0.372983  -0.425935   0.660252  -0.033798  -0.201908   0.003387
     7  H    1.541430  -0.347322  -0.358080  -0.004092   0.111467  -0.000982
     8  N   -0.347322  10.430182  -0.098424  -0.269914   0.065676  -0.146814
     9  C   -0.358080  -0.098424  23.325400  -0.735813  -4.211325  -0.444892
    10  H   -0.004092  -0.269914  -0.735813   2.362336   0.339458   0.139702
    11  C    0.111467   0.065676  -4.211325   0.339458  12.028550  -0.866678
    12  C   -0.000982  -0.146814  -0.444892   0.139702  -0.866678   7.055819
    13  O    0.000037  -0.000632  -0.110827   0.003803  -0.020944   0.265235
    14  O    0.000419  -0.133552   0.291584  -0.010934  -0.019429   0.143259
    15  C    0.001022  -0.479927  -2.044722   0.160228  -2.703521  -0.641592
    16  O    0.000179   0.014278   0.069085  -0.006409   0.041738  -0.097828
    17  C   -0.225781   0.212720   4.830552   0.030496  -1.408689   0.202543
    18  C   -0.021341  -0.063963  -0.648922  -0.055621  -1.048596  -0.059220
    19  H   -0.000382  -0.018144   0.014934   0.001666  -0.051876   0.001260
    20  C    0.003075   0.539992   1.296255   0.035894  -0.790523   0.017796
    21  H    0.001459  -0.024588  -0.023993  -0.000766   0.012477  -0.000221
    22  C    0.102958  -1.421697  -2.409956  -0.031281   0.683881  -0.021279
    23  C   -0.015274  -0.004270  -0.016585   0.002301   0.035171   0.001049
    24  H   -0.003043  -0.018496  -0.011342   0.000089   0.002236   0.000016
    25  H    0.001613  -0.010817  -0.007922   0.000165   0.000884   0.000015
    26  H    0.000101   0.014723   0.007675   0.000197  -0.000376   0.000062
    27  N    0.047542  -0.363178  -0.824266  -0.057794   0.075748  -0.036965
    28  C    0.639740  -0.379747 -12.543113  -0.094413   3.594367  -0.329973
              13         14         15         16         17         18
     1  C   -0.000410  -0.006203   0.013975   0.000500  -0.023989  -0.006146
     2  H   -0.000163   0.002429   0.002331   0.000507  -0.011804  -0.005450
     3  H    0.000006  -0.000570   0.013133  -0.000279  -0.023764   0.025623
     4  H    0.000004  -0.000527  -0.002045  -0.000000   0.005354  -0.001315
     5  C    0.003467  -0.002041   0.112067  -0.003114  -0.263972   0.272593
     6  H    0.000797   0.004797   0.029281  -0.000397   0.120910   0.042120
     7  H    0.000037   0.000419   0.001022   0.000179  -0.225781  -0.021341
     8  N   -0.000632  -0.133552  -0.479927   0.014278   0.212720  -0.063963
     9  C   -0.110827   0.291584  -2.044722   0.069085   4.830552  -0.648922
    10  H    0.003803  -0.010934   0.160228  -0.006409   0.030496  -0.055621
    11  C   -0.020944  -0.019429  -2.703521   0.041738  -1.408689  -1.048596
    12  C    0.265235   0.143259  -0.641592  -0.097828   0.202543  -0.059220
    13  O    8.899023  -0.119260   0.136372  -0.059569  -0.078269   0.000770
    14  O   -0.119260   9.054955  -0.042273  -0.004266   0.032698  -0.002344
    15  C    0.136372  -0.042273  17.095583   0.038713  -2.885615  -3.005096
    16  O   -0.059569  -0.004266   0.038713   9.214757   0.047323   0.003101
    17  C   -0.078269   0.032698  -2.885615   0.047323  22.869994  -8.517305
    18  C    0.000770  -0.002344  -3.005096   0.003101  -8.517305  26.450288
    19  H    0.004327   0.000363   0.034782  -0.084231   1.170697  -1.802683
    20  C   -0.010553   0.000811  -0.094802  -0.191990  -0.479583  -4.955022
    21  H   -0.000268  -0.000022  -0.039460  -0.002494  -0.060756   1.237169
    22  C    0.005145  -0.004892  -0.002441   0.062310  -2.152492   1.457645
    23  C    0.000022   0.000097  -0.106859   0.008273   0.454490  -0.218639
    24  H    0.000010  -0.000016  -0.000921   0.000141   0.028499  -0.030387
    25  H    0.000008  -0.000007   0.001594   0.000237   0.057540  -0.035237
    26  H   -0.000000   0.000008  -0.001066   0.000768  -0.034804  -0.033948
    27  N    0.001800  -0.005773   0.285432  -0.006136   0.206988  -0.516689
    28  C    0.058167  -0.147910  -0.035750  -0.071698  -9.702895  -2.098939
              19         20         21         22         23         24
     1  C    0.000284   0.029620  -0.000876   0.040678  -0.012162   0.000832
     2  H   -0.000251   0.003348   0.000149  -0.011308  -0.002806  -0.000275
     3  H    0.000344  -0.020744  -0.000233   0.079535   0.007781   0.002210
     4  H   -0.000031   0.006114   0.000042  -0.025935  -0.003476  -0.000227
     5  C   -0.002383  -0.159254   0.007293   0.014460  -0.005175  -0.003084
     6  H    0.000462  -0.026200   0.000251   0.011848   0.004461   0.000365
     7  H   -0.000382   0.003075   0.001459   0.102958  -0.015274  -0.003043
     8  N   -0.018144   0.539992  -0.024588  -1.421697  -0.004270  -0.018496
     9  C    0.014934   1.296255  -0.023993  -2.409956  -0.016585  -0.011342
    10  H    0.001666   0.035894  -0.000766  -0.031281   0.002301   0.000089
    11  C   -0.051876  -0.790523   0.012477   0.683881   0.035171   0.002236
    12  C    0.001260   0.017796  -0.000221  -0.021279   0.001049   0.000016
    13  O    0.004327  -0.010553  -0.000268   0.005145   0.000022   0.000010
    14  O    0.000363   0.000811  -0.000022  -0.004892   0.000097  -0.000016
    15  C    0.034782  -0.094802  -0.039460  -0.002441  -0.106859  -0.000921
    16  O   -0.084231  -0.191990  -0.002494   0.062310   0.008273   0.000141
    17  C    1.170697  -0.479583  -0.060756  -2.152492   0.454490   0.028499
    18  C   -1.802683  -4.955022   1.237169   1.457645  -0.218639  -0.030387
    19  H    2.108760   0.814715  -0.122704  -0.227690   0.043241   0.001426
    20  C    0.814715  17.289536  -1.530641  -3.692925  -0.455168   0.048226
    21  H   -0.122704  -1.530641   2.107747   0.220908  -0.028205  -0.004823
    22  C   -0.227690  -3.692925   0.220908  12.583252   0.042037   0.120105
    23  C    0.043241  -0.455168  -0.028205   0.042037   5.569561   0.342243
    24  H    0.001426   0.048226  -0.004823   0.120105   0.342243   0.786424
    25  H    0.001434   0.067015  -0.004747   0.053825   0.361355  -0.090720
    26  H    0.001761  -0.180632  -0.045644   0.124655   0.014793  -0.109945
    27  N    0.020763  -0.045398  -0.083098   0.403145  -0.142905  -0.083870
    28  C   -0.228658  -2.190640  -0.027626   0.207357  -0.552828  -0.063613
              25         26         27         28
     1  C    0.001109  -0.000792   0.083938   0.045096
     2  H   -0.000225   0.000022   0.001061   0.156362
     3  H   -0.000707   0.000128   0.057519  -0.116540
     4  H   -0.000279  -0.000232  -0.028631  -0.060091
     5  C   -0.001931   0.000598  -0.152222   0.004479
     6  H   -0.000452   0.000278   0.058347  -0.458419
     7  H    0.001613   0.000101   0.047542   0.639740
     8  N   -0.010817   0.014723  -0.363178  -0.379747
     9  C   -0.007922   0.007675  -0.824266 -12.543113
    10  H    0.000165   0.000197  -0.057794  -0.094413
    11  C    0.000884  -0.000376   0.075748   3.594367
    12  C    0.000015   0.000062  -0.036965  -0.329973
    13  O    0.000008  -0.000000   0.001800   0.058167
    14  O   -0.000007   0.000008  -0.005773  -0.147910
    15  C    0.001594  -0.001066   0.285432  -0.035750
    16  O    0.000237   0.000768  -0.006136  -0.071698
    17  C    0.057540  -0.034804   0.206988  -9.702895
    18  C   -0.035237  -0.033948  -0.516689  -2.098939
    19  H    0.001434   0.001761   0.020763  -0.228658
    20  C    0.067015  -0.180632  -0.045398  -2.190640
    21  H   -0.004747  -0.045644  -0.083098  -0.027626
    22  C    0.053825   0.124655   0.403145   0.207357
    23  C    0.361355   0.014793  -0.142905  -0.552828
    24  H   -0.090720  -0.109945  -0.083870  -0.063613
    25  H    0.766401  -0.108130  -0.033313  -0.102980
    26  H   -0.108130   1.107255   0.203421   0.168855
    27  N   -0.033313   0.203421   8.784729  -0.140033
    28  C   -0.102980   0.168855  -0.140033  30.358338
 Mulliken charges:
               1
     1  C    0.550647
     2  H   -0.091254
     3  H   -0.069826
     4  H   -0.096506
     5  C    0.601725
     6  H   -0.272239
     7  H   -0.183794
     8  N   -0.333079
     9  C    0.677099
    10  H   -0.745498
    11  C    0.380930
    12  C    0.852538
    13  O   -0.978100
    14  O   -1.031401
    15  C    0.161577
    16  O   -0.973497
    17  C    1.598915
    18  C   -0.362445
    19  H   -0.682190
    20  C    0.671677
    21  H   -0.586332
    22  C   -0.211845
    23  C    0.677476
    24  H    0.087941
    25  H    0.084274
    26  H   -0.129732
    27  N   -0.710164
    28  C    0.113108
 Sum of Mulliken charges =  -1.00000
 Mulliken charges with hydrogens summed into heavy atoms:
               1
     1  C    0.293060
     5  C    0.145691
     8  N   -0.333079
     9  C   -0.068399
    11  C    0.380930
    12  C    0.852538
    13  O   -0.978100
    14  O   -1.031401
    15  C    0.161577
    16  O   -0.973497
    17  C    1.598915
    18  C   -1.044636
    20  C    0.085344
    22  C   -0.211845
    23  C    0.719958
    27  N   -0.710164
    28  C    0.113108
 Electronic spatial extent (au):  <R**2>=           4312.2887
 Charge=             -1.0000 electrons
 Dipole moment (field-independent basis, Debye):
    X=            -19.4483    Y=              4.3723    Z=             -0.3562  Tot=             19.9369
 Quadrupole moment (field-independent basis, Debye-Ang):
   XX=           -183.0284   YY=           -113.3611   ZZ=           -103.7757
   XY=             11.5839   XZ=             -0.7758   YZ=              1.7393
 Traceless Quadrupole moment (field-independent basis, Debye-Ang):
   XX=            -49.6401   YY=             20.0273   ZZ=             29.6127
   XY=             11.5839   XZ=             -0.7758   YZ=              1.7393
 Octapole moment (field-independent basis, Debye-Ang**2):
  XXX=           -352.0674  YYY=             35.2327  ZZZ=             -0.5268  XYY=            -50.8174
  XXY=              5.2384  XXZ=              0.4539  XZZ=              5.1042  YZZ=              3.4087
  YYZ=             -5.1621  XYZ=             11.2027
 Hexadecapole moment (field-independent basis, Debye-Ang**3):
 XXXX=          -5316.0137 YYYY=          -1806.2496 ZZZZ=           -204.2597 XXXY=             46.6668
 XXXZ=              2.8642 YYYX=             76.7430 YYYZ=            -17.0795 ZZZX=              6.1615
 ZZZY=             -3.6057 XXYY=          -1104.1369 XXZZ=           -697.5361 YYZZ=           -342.7271
 XXYZ=             34.6142 YYXZ=             -7.2652 ZZXY=            -15.3372
 N-N= 1.162789174509D+03 E-N=-4.203103990346D+03  KE= 7.934636353468D+02
 Leave Link  601 at Mon Jul 12 14:37:24 2021, MaxMem=   262144000 cpu:               0.4 elap:               1.4
 (Enter /dades/curu/g16A03_MST/g16/l9999.exe)
 1\1\GINC-PIRINEUS27\SP\RMP2-FC\Aug-CC-pVDZ\C12H11N2O3(1-)\UBATOR02\12-
 Jul-2021\0\\#p mp2/aug-cc-pVDZ scf=tight maxdisk=180GB geom=allcheck\\
 SET_328_BBB282_conf1.geo_000_090 geometry\\-1,1\C,0,2.6935977894,-1.40
 01074223,-0.6283564136\H,0,3.0754733467,-1.3802575445,0.3960233002\H,0
 ,2.7745805609,-0.3973425521,-1.0526655876\H,0,3.3238310913,-2.07398845
 51,-1.2144857374\C,0,1.2468236178,-1.8852287362,-0.6663875899\H,0,1.16
 78993363,-2.895007137,-0.2612448283\H,0,0.872585056,-1.8925706002,-1.6
 90335631\N,0,0.3390540887,-1.0472152392,0.1340891493\C,0,0.0417843075,
 -1.3991999291,1.4166781444\H,0,0.4738037608,-2.3311333351,1.7590481945
 \C,0,-0.7432752511,-0.7032119177,2.2952864972\C,0,-0.8938469078,-1.330
 9721908,3.6877978848\O,0,-1.4925040471,-0.673800854,4.575267766\O,0,-0
 .377240979,-2.4795481587,3.8287167784\C,0,-1.352469597,0.5469502054,1.
 847065505\O,0,-2.0955639422,1.290854044,2.5019913195\C,0,-1.0192311884
 ,0.9108178876,0.4425829824\C,0,-1.5332960638,2.0802561866,-0.126530923
 6\H,0,-2.1771677322,2.6953885497,0.4932829329\C,0,-1.2158331006,2.4153
 712427,-1.4323330774\H,0,-1.6032542467,3.3179925913,-1.8923398373\C,0,
 -0.3724221629,1.5631477729,-2.1664865615\C,0,0.0085484017,1.8759315427
 ,-3.5894363386\H,0,-0.3113795976,1.0708126698,-4.2582880574\H,0,1.0953
 788385,1.9602375695,-3.6857000184\H,0,-0.4450555111,2.8100047847,-3.92
 67658783\N,0,0.1331324985,0.4406847912,-1.6465515065\C,0,-0.1859523666
 ,0.1271342337,-0.3819224681\\Version=ES64L-G16RevA.03\State=1-A\HF=-79
 4.4693611\MP2=-797.0461138\RMSD=5.712e-09\PG=C01 [X(C12H11N2O3)]\\@


 COMMON SENSE IS NOT SO COMMON.   -- VOLTAIRE
 Job cpu time:       0 days  2 hours 15 minutes 25.4 seconds.
 Elapsed time:       0 days  0 hours 41 minutes  4.8 seconds.
 File lengths (MBytes):  RWF=  55804 Int=      0 D2E=      0 Chk=     20 Scr=      1
 Normal termination of Gaussian 16 at Mon Jul 12 14:37:27 2021.
