 Entering Gaussian System, Link 0=g16
 Input=SET_328_BBB282_conf1.geo_000_270_OCTANOL.dat
 Output=SET_328_BBB282_conf1.geo_000_270_OCTANOL.log
 Initial command:
 /dades/curu/g16A03_MST/g16/l1.exe "/tmp/ubator02/1835284/Gau-44442.inp" -scrdir="/tmp/ubator02/1835284/"
 Entering Link 1 = /dades/curu/g16A03_MST/g16/l1.exe PID=     44443.
  
 Copyright (c) 1988,1990,1992,1993,1995,1998,2003,2009,2016,
            Gaussian, Inc.  All Rights Reserved.
  
 This is part of the Gaussian(R) 16 program.  It is based on
 the Gaussian(R) 09 system (copyright 2009, Gaussian, Inc.),
 the Gaussian(R) 03 system (copyright 2003, Gaussian, Inc.),
 the Gaussian(R) 98 system (copyright 1998, Gaussian, Inc.),
 the Gaussian(R) 94 system (copyright 1995, Gaussian, Inc.),
 the Gaussian 92(TM) system (copyright 1992, Gaussian, Inc.),
 the Gaussian 90(TM) system (copyright 1990, Gaussian, Inc.),
 the Gaussian 88(TM) system (copyright 1988, Gaussian, Inc.),
 the Gaussian 86(TM) system (copyright 1986, Carnegie Mellon
 University), and the Gaussian 82(TM) system (copyright 1983,
 Carnegie Mellon University). Gaussian is a federally registered
 trademark of Gaussian, Inc.
  
 This software contains proprietary and confidential information,
 including trade secrets, belonging to Gaussian, Inc.
  
 This software is provided under written license and may be
 used, copied, transmitted, or stored only in accord with that
 written license.
  
 The following legend is applicable only to US Government
 contracts under FAR:
  
                    RESTRICTED RIGHTS LEGEND
  
 Use, reproduction and disclosure by the US Government is
 subject to restrictions as set forth in subparagraphs (a)
 and (c) of the Commercial Computer Software - Restricted
 Rights clause in FAR 52.227-19.
  
 Gaussian, Inc.
 340 Quinnipiac St., Bldg. 40, Wallingford CT 06492
  
  
 ---------------------------------------------------------------
 Warning -- This program may not be used in any manner that
 competes with the business of Gaussian, Inc. or will provide
 assistance to any competitor of Gaussian, Inc.  The licensee
 of this program is prohibited from giving any competitor of
 Gaussian, Inc. access to this program.  By using this program,
 the user acknowledges that Gaussian, Inc. is engaged in the
 business of creating and licensing software in the field of
 computational chemistry and represents and warrants to the
 licensee that it is not a competitor of Gaussian, Inc. and that
 it will not use this program in any manner prohibited above.
 ---------------------------------------------------------------
  

 Cite this work as:
 Gaussian 16, Revision A.03,
 M. J. Frisch, G. W. Trucks, H. B. Schlegel, G. E. Scuseria, 
 M. A. Robb, J. R. Cheeseman, G. Scalmani, V. Barone, 
 G. A. Petersson, H. Nakatsuji, X. Li, M. Caricato, A. V. Marenich, 
 J. Bloino, B. G. Janesko, R. Gomperts, B. Mennucci, H. P. Hratchian, 
 J. V. Ortiz, A. F. Izmaylov, J. L. Sonnenberg, D. Williams-Young, 
 F. Ding, F. Lipparini, F. Egidi, J. Goings, B. Peng, A. Petrone, 
 T. Henderson, D. Ranasinghe, V. G. Zakrzewski, J. Gao, N. Rega, 
 G. Zheng, W. Liang, M. Hada, M. Ehara, K. Toyota, R. Fukuda, 
 J. Hasegawa, M. Ishida, T. Nakajima, Y. Honda, O. Kitao, H. Nakai, 
 T. Vreven, K. Throssell, J. A. Montgomery, Jr., J. E. Peralta, 
 F. Ogliaro, M. J. Bearpark, J. J. Heyd, E. N. Brothers, K. N. Kudin, 
 V. N. Staroverov, T. A. Keith, R. Kobayashi, J. Normand, 
 K. Raghavachari, A. P. Rendell, J. C. Burant, S. S. Iyengar, 
 J. Tomasi, M. Cossi, J. M. Millam, M. Klene, C. Adamo, R. Cammi, 
 J. W. Ochterski, R. L. Martin, K. Morokuma, O. Farkas, 
 J. B. Foresman, and D. J. Fox, Gaussian, Inc., Wallingford CT, 2016.
 
 ******************************************
 Gaussian 16:  ES64L-G16RevA.03 25-Dec-2016
                12-Jul-2021 
 ******************************************
 %mem=800MB
 %nproc=4
 Will use up to    4 processors via shared memory.
 %chk=SET_328_BBB282_conf1.geo_000_270.chk
 ---------------------------------------------------------------
 #p b3lyp/6-31G(d) opt freq scrf=(iefpcm,read,solvent=n-octanol)
 ---------------------------------------------------------------
 1/18=20,19=15,26=3,38=1,40=2/1,3;
 2/9=110,12=2,17=6,18=5,40=1/2;
 3/5=1,6=6,7=1,11=2,25=1,30=1,70=2203,71=1,72=25,74=-5/1,2,3;
 4//1;
 5/5=2,38=5,53=25/2;
 6/7=2,8=2,9=2,10=2,28=1/1;
 7//1,2,3,16;
 1/18=20,19=15,26=3/3(2);
 2/9=110/2;
 99//99;
 2/9=110/2;
 3/5=1,6=6,7=1,11=2,25=1,30=1,70=2205,71=1,72=25,74=-5/1,2,3;
 4/5=5,16=3,69=1/1;
 5/5=2,38=5,53=25/2;
 7//1,2,3,16;
 1/18=20,19=15,26=3/3(-5);
 2/9=110/2;
 6/7=2,8=2,9=2,10=2,19=2,28=1/1;
 99/9=1/99;
 Leave Link    1 at Mon Jul 12 12:19:35 2021, MaxMem=   104857600 cpu:               0.0 elap:               0.0
 (Enter /dades/curu/g16A03_MST/g16/l101.exe)
 -----------------------------------------
 SET_328_BBB282_conf1.geo_000_270 geometry
 -----------------------------------------
 Symbolic Z-matrix:
 Charge = -1 Multiplicity = 1
 C                     0.595     2.17      2.285 
 H                    -0.223     2.813     2.617 
 H                     1.468     2.702     2.669 
 H                     0.402     1.183     2.711 
 C                     0.791     2.073     0.801 
 H                     1.843     1.8       0.682 
 H                     0.792     3.012     0.243 
 N                    -0.053     1.107     0.077 
 C                    -1.183     1.618    -0.573 
 H                    -1.19      2.683    -0.769 
 C                    -2.179     0.639    -0.792 
 C                    -3.493     1.198    -1.172 
 O                    -4.479     0.379    -1.348 
 O                    -3.711     2.38     -1.245 
 C                    -1.954    -0.828    -0.606 
 O                    -2.764    -1.668    -0.823 
 C                    -0.567    -1.179    -0.301 
 C                    -0.187    -2.518    -0.336 
 H                    -0.84     -3.369    -0.512 
 C                     1.187    -2.723    -0.433 
 H                     1.579    -3.721    -0.613 
 C                     2.085    -1.719    -0.352 
 C                     3.518    -2.004    -0.115 
 H                     4.175    -1.451    -0.79 
 H                     3.646    -3.081    -0.243 
 H                     3.84     -1.835     0.914 
 N                     1.651    -0.478    -0.037 
 C                     0.333    -0.161    -0.115 
 
 ITRead=  0  0  0  0  0  0  0  0  0  0  0  0  0  0  0  0  0  0  0  0
 ITRead=  0  0  0  0  0  0  0  0
 MicOpt= -1 -1 -1 -1 -1 -1 -1 -1 -1 -1 -1 -1 -1 -1 -1 -1 -1 -1 -1 -1
 MicOpt= -1 -1 -1 -1 -1 -1 -1 -1
 NAtoms=     28 NQM=       28 NQMF=       0 NMMI=      0 NMMIF=      0
                NMic=       0 NMicF=      0.
                    Isotopes and Nuclear Properties:
 (Nuclear quadrupole moments (NQMom) in fm**2, nuclear magnetic moments (NMagM)
  in nuclear magnetons)

  Atom         1           2           3           4           5           6           7           8           9          10
 IAtWgt=          12           1           1           1          12           1           1          14          12           1
 AtmWgt=  12.0000000   1.0078250   1.0078250   1.0078250  12.0000000   1.0078250   1.0078250  14.0030740  12.0000000   1.0078250
 NucSpn=           0           1           1           1           0           1           1           2           0           1
 AtZEff=  -0.0000000  -0.0000000  -0.0000000  -0.0000000  -0.0000000  -0.0000000  -0.0000000  -0.0000000  -0.0000000  -0.0000000
 NQMom=    0.0000000   0.0000000   0.0000000   0.0000000   0.0000000   0.0000000   0.0000000   2.0440000   0.0000000   0.0000000
 NMagM=    0.0000000   2.7928460   2.7928460   2.7928460   0.0000000   2.7928460   2.7928460   0.4037610   0.0000000   2.7928460
 AtZNuc=   6.0000000   1.0000000   1.0000000   1.0000000   6.0000000   1.0000000   1.0000000   7.0000000   6.0000000   1.0000000

  Atom        11          12          13          14          15          16          17          18          19          20
 IAtWgt=          12          12          16          16          12          16          12          12           1          12
 AtmWgt=  12.0000000  12.0000000  15.9949146  15.9949146  12.0000000  15.9949146  12.0000000  12.0000000   1.0078250  12.0000000
 NucSpn=           0           0           0           0           0           0           0           0           1           0
 AtZEff=  -0.0000000  -0.0000000  -0.0000000  -0.0000000  -0.0000000  -0.0000000  -0.0000000  -0.0000000  -0.0000000  -0.0000000
 NQMom=    0.0000000   0.0000000   0.0000000   0.0000000   0.0000000   0.0000000   0.0000000   0.0000000   0.0000000   0.0000000
 NMagM=    0.0000000   0.0000000   0.0000000   0.0000000   0.0000000   0.0000000   0.0000000   0.0000000   2.7928460   0.0000000
 AtZNuc=   6.0000000   6.0000000   8.0000000   8.0000000   6.0000000   8.0000000   6.0000000   6.0000000   1.0000000   6.0000000

  Atom        21          22          23          24          25          26          27          28
 IAtWgt=           1          12          12           1           1           1          14          12
 AtmWgt=   1.0078250  12.0000000  12.0000000   1.0078250   1.0078250   1.0078250  14.0030740  12.0000000
 NucSpn=           1           0           0           1           1           1           2           0
 AtZEff=  -0.0000000  -0.0000000  -0.0000000  -0.0000000  -0.0000000  -0.0000000  -0.0000000  -0.0000000
 NQMom=    0.0000000   0.0000000   0.0000000   0.0000000   0.0000000   0.0000000   2.0440000   0.0000000
 NMagM=    2.7928460   0.0000000   0.0000000   2.7928460   2.7928460   2.7928460   0.4037610   0.0000000
 AtZNuc=   1.0000000   6.0000000   6.0000000   1.0000000   1.0000000   1.0000000   7.0000000   6.0000000
 Leave Link  101 at Mon Jul 12 12:19:36 2021, MaxMem=   104857600 cpu:               0.1 elap:               0.1
 (Enter /dades/curu/g16A03_MST/g16/l103.exe)

 GradGradGradGradGradGradGradGradGradGradGradGradGradGradGradGradGradGrad
 Berny optimization.
 Initialization pass.
                           ----------------------------
                           !    Initial Parameters    !
                           ! (Angstroms and Degrees)  !
 --------------------------                            --------------------------
 ! Name  Definition              Value          Derivative Info.                !
 --------------------------------------------------------------------------------
 ! R1    R(1,2)                  1.0922         estimate D2E/DX2                !
 ! R2    R(1,3)                  1.0921         estimate D2E/DX2                !
 ! R3    R(1,4)                  1.0922         estimate D2E/DX2                !
 ! R4    R(1,5)                  1.5            estimate D2E/DX2                !
 ! R5    R(5,6)                  1.0933         estimate D2E/DX2                !
 ! R6    R(5,7)                  1.0923         estimate D2E/DX2                !
 ! R7    R(5,8)                  1.473          estimate D2E/DX2                !
 ! R8    R(8,9)                  1.4002         estimate D2E/DX2                !
 ! R9    R(8,28)                 1.3393         estimate D2E/DX2                !
 ! R10   R(9,10)                 1.0829         estimate D2E/DX2                !
 ! R11   R(9,11)                 1.4137         estimate D2E/DX2                !
 ! R12   R(11,12)                1.4777         estimate D2E/DX2                !
 ! R13   R(11,15)                1.4958         estimate D2E/DX2                !
 ! R14   R(12,13)                1.2938         estimate D2E/DX2                !
 ! R15   R(12,14)                1.2041         estimate D2E/DX2                !
 ! R16   R(15,16)                1.1869         estimate D2E/DX2                !
 ! R17   R(15,17)                1.4629         estimate D2E/DX2                !
 ! R18   R(17,18)                1.3923         estimate D2E/DX2                !
 ! R19   R(17,28)                1.3715         estimate D2E/DX2                !
 ! R20   R(18,19)                1.087          estimate D2E/DX2                !
 ! R21   R(18,20)                1.3926         estimate D2E/DX2                !
 ! R22   R(20,21)                1.0872         estimate D2E/DX2                !
 ! R23   R(20,22)                1.3494         estimate D2E/DX2                !
 ! R24   R(22,23)                1.4802         estimate D2E/DX2                !
 ! R25   R(22,27)                1.3519         estimate D2E/DX2                !
 ! R26   R(23,24)                1.0923         estimate D2E/DX2                !
 ! R27   R(23,25)                1.0921         estimate D2E/DX2                !
 ! R28   R(23,26)                1.0914         estimate D2E/DX2                !
 ! R29   R(27,28)                1.3578         estimate D2E/DX2                !
 ! A1    A(2,1,3)              101.8318         estimate D2E/DX2                !
 ! A2    A(2,1,4)              106.3272         estimate D2E/DX2                !
 ! A3    A(2,1,5)              115.8919         estimate D2E/DX2                !
 ! A4    A(3,1,4)              116.3812         estimate D2E/DX2                !
 ! A5    A(3,1,5)              105.9572         estimate D2E/DX2                !
 ! A6    A(4,1,5)              110.5194         estimate D2E/DX2                !
 ! A7    A(1,5,6)              104.4508         estimate D2E/DX2                !
 ! A8    A(1,5,7)              116.739          estimate D2E/DX2                !
 ! A9    A(1,5,8)              116.9883         estimate D2E/DX2                !
 ! A10   A(6,5,7)               99.1007         estimate D2E/DX2                !
 ! A11   A(6,5,8)              109.5162         estimate D2E/DX2                !
 ! A12   A(7,5,8)              108.2527         estimate D2E/DX2                !
 ! A13   A(5,8,9)              116.8244         estimate D2E/DX2                !
 ! A14   A(5,8,28)             121.751          estimate D2E/DX2                !
 ! A15   A(9,8,28)             120.7687         estimate D2E/DX2                !
 ! A16   A(8,9,10)             116.6254         estimate D2E/DX2                !
 ! A17   A(8,9,11)             112.8164         estimate D2E/DX2                !
 ! A18   A(10,9,11)            130.4275         estimate D2E/DX2                !
 ! A19   A(9,11,12)            113.8521         estimate D2E/DX2                !
 ! A20   A(9,11,15)            123.6396         estimate D2E/DX2                !
 ! A21   A(12,11,15)           122.464          estimate D2E/DX2                !
 ! A22   A(11,12,13)           118.2421         estimate D2E/DX2                !
 ! A23   A(11,12,14)           123.2246         estimate D2E/DX2                !
 ! A24   A(13,12,14)           118.3695         estimate D2E/DX2                !
 ! A25   A(11,15,16)           124.6605         estimate D2E/DX2                !
 ! A26   A(11,15,17)           113.8206         estimate D2E/DX2                !
 ! A27   A(16,15,17)           121.021          estimate D2E/DX2                !
 ! A28   A(15,17,18)           118.9654         estimate D2E/DX2                !
 ! A29   A(15,17,28)           118.1884         estimate D2E/DX2                !
 ! A30   A(18,17,28)           122.558          estimate D2E/DX2                !
 ! A31   A(17,18,19)           126.3715         estimate D2E/DX2                !
 ! A32   A(17,18,20)           114.3685         estimate D2E/DX2                !
 ! A33   A(19,18,20)           117.7871         estimate D2E/DX2                !
 ! A34   A(18,20,21)           120.1585         estimate D2E/DX2                !
 ! A35   A(18,20,22)           122.8794         estimate D2E/DX2                !
 ! A36   A(21,20,22)           116.9336         estimate D2E/DX2                !
 ! A37   A(20,22,23)           120.7046         estimate D2E/DX2                !
 ! A38   A(20,22,27)           118.9031         estimate D2E/DX2                !
 ! A39   A(23,22,27)           116.7591         estimate D2E/DX2                !
 ! A40   A(22,23,24)           112.6994         estimate D2E/DX2                !
 ! A41   A(22,23,25)           106.5341         estimate D2E/DX2                !
 ! A42   A(22,23,26)           114.0035         estimate D2E/DX2                !
 ! A43   A(24,23,25)           110.8761         estimate D2E/DX2                !
 ! A44   A(24,23,26)           109.0742         estimate D2E/DX2                !
 ! A45   A(25,23,26)           103.2168         estimate D2E/DX2                !
 ! A46   A(22,27,28)           120.8328         estimate D2E/DX2                !
 ! A47   A(8,28,17)            122.2132         estimate D2E/DX2                !
 ! A48   A(8,28,27)            119.5089         estimate D2E/DX2                !
 ! A49   A(17,28,27)           118.1306         estimate D2E/DX2                !
 ! D1    D(2,1,5,6)            155.3515         estimate D2E/DX2                !
 ! D2    D(2,1,5,7)             47.1279         estimate D2E/DX2                !
 ! D3    D(2,1,5,8)            -83.4244         estimate D2E/DX2                !
 ! D4    D(3,1,5,6)             43.2749         estimate D2E/DX2                !
 ! D5    D(3,1,5,7)            -64.9486         estimate D2E/DX2                !
 ! D6    D(3,1,5,8)            164.4991         estimate D2E/DX2                !
 ! D7    D(4,1,5,6)            -83.629          estimate D2E/DX2                !
 ! D8    D(4,1,5,7)            168.1475         estimate D2E/DX2                !
 ! D9    D(4,1,5,8)             37.5952         estimate D2E/DX2                !
 ! D10   D(1,5,8,9)             99.0752         estimate D2E/DX2                !
 ! D11   D(1,5,8,28)           -90.144          estimate D2E/DX2                !
 ! D12   D(6,5,8,9)           -142.3948         estimate D2E/DX2                !
 ! D13   D(6,5,8,28)            28.386          estimate D2E/DX2                !
 ! D14   D(7,5,8,9)            -35.3214         estimate D2E/DX2                !
 ! D15   D(7,5,8,28)           135.4594         estimate D2E/DX2                !
 ! D16   D(5,8,9,10)            18.9474         estimate D2E/DX2                !
 ! D17   D(5,8,9,11)          -157.3331         estimate D2E/DX2                !
 ! D18   D(28,8,9,10)         -151.9297         estimate D2E/DX2                !
 ! D19   D(28,8,9,11)           31.7898         estimate D2E/DX2                !
 ! D20   D(5,8,28,17)          154.423          estimate D2E/DX2                !
 ! D21   D(5,8,28,27)          -21.0807         estimate D2E/DX2                !
 ! D22   D(9,8,28,17)          -35.1552         estimate D2E/DX2                !
 ! D23   D(9,8,28,27)          149.3411         estimate D2E/DX2                !
 ! D24   D(8,9,11,12)          166.0844         estimate D2E/DX2                !
 ! D25   D(8,9,11,15)          -11.5426         estimate D2E/DX2                !
 ! D26   D(10,9,11,12)          -9.5464         estimate D2E/DX2                !
 ! D27   D(10,9,11,15)         172.8265         estimate D2E/DX2                !
 ! D28   D(9,11,12,13)        -177.6622         estimate D2E/DX2                !
 ! D29   D(9,11,12,14)          -2.3962         estimate D2E/DX2                !
 ! D30   D(15,11,12,13)         -0.0036         estimate D2E/DX2                !
 ! D31   D(15,11,12,14)        175.2624         estimate D2E/DX2                !
 ! D32   D(9,11,15,16)        -177.6203         estimate D2E/DX2                !
 ! D33   D(9,11,15,17)          -5.6777         estimate D2E/DX2                !
 ! D34   D(12,11,15,16)          4.9521         estimate D2E/DX2                !
 ! D35   D(12,11,15,17)        176.8947         estimate D2E/DX2                !
 ! D36   D(11,15,17,18)       -168.9534         estimate D2E/DX2                !
 ! D37   D(11,15,17,28)          5.0407         estimate D2E/DX2                !
 ! D38   D(16,15,17,18)          3.3151         estimate D2E/DX2                !
 ! D39   D(16,15,17,28)        177.3091         estimate D2E/DX2                !
 ! D40   D(15,17,18,19)         -4.0905         estimate D2E/DX2                !
 ! D41   D(15,17,18,20)        161.6539         estimate D2E/DX2                !
 ! D42   D(28,17,18,19)       -177.8087         estimate D2E/DX2                !
 ! D43   D(28,17,18,20)        -12.0644         estimate D2E/DX2                !
 ! D44   D(15,17,28,8)          14.3832         estimate D2E/DX2                !
 ! D45   D(15,17,28,27)       -170.0538         estimate D2E/DX2                !
 ! D46   D(18,17,28,8)        -171.8521         estimate D2E/DX2                !
 ! D47   D(18,17,28,27)          3.7109         estimate D2E/DX2                !
 ! D48   D(17,18,20,21)       -171.0664         estimate D2E/DX2                !
 ! D49   D(17,18,20,22)          6.9336         estimate D2E/DX2                !
 ! D50   D(19,18,20,21)         -4.0176         estimate D2E/DX2                !
 ! D51   D(19,18,20,22)        173.9824         estimate D2E/DX2                !
 ! D52   D(18,20,22,23)        164.3185         estimate D2E/DX2                !
 ! D53   D(18,20,22,27)          6.4942         estimate D2E/DX2                !
 ! D54   D(21,20,22,23)        -17.6211         estimate D2E/DX2                !
 ! D55   D(21,20,22,27)       -175.4454         estimate D2E/DX2                !
 ! D56   D(20,22,23,24)        133.1823         estimate D2E/DX2                !
 ! D57   D(20,22,23,25)         11.3722         estimate D2E/DX2                !
 ! D58   D(20,22,23,26)       -101.7859         estimate D2E/DX2                !
 ! D59   D(27,22,23,24)        -68.5373         estimate D2E/DX2                !
 ! D60   D(27,22,23,25)        169.6526         estimate D2E/DX2                !
 ! D61   D(27,22,23,26)         56.4946         estimate D2E/DX2                !
 ! D62   D(20,22,27,28)        -15.7701         estimate D2E/DX2                !
 ! D63   D(23,22,27,28)       -174.4574         estimate D2E/DX2                !
 ! D64   D(22,27,28,8)        -173.5675         estimate D2E/DX2                !
 ! D65   D(22,27,28,17)         10.7459         estimate D2E/DX2                !
 --------------------------------------------------------------------------------
 Trust Radius=3.00D-01 FncErr=1.00D-07 GrdErr=1.00D-06 EigMax=2.50D+02 EigMin=1.00D-04
 Number of steps in this run=    153 maximum allowed number of steps=    168.
 GradGradGradGradGradGradGradGradGradGradGradGradGradGradGradGradGradGrad

 Leave Link  103 at Mon Jul 12 12:19:36 2021, MaxMem=   104857600 cpu:               0.0 elap:               0.0
 (Enter /dades/curu/g16A03_MST/g16/l202.exe)
                          Input orientation:                          
 ---------------------------------------------------------------------
 Center     Atomic      Atomic             Coordinates (Angstroms)
 Number     Number       Type             X           Y           Z
 ---------------------------------------------------------------------
      1          6           0        0.595000    2.170000    2.285000
      2          1           0       -0.223000    2.813000    2.617000
      3          1           0        1.468000    2.702000    2.669000
      4          1           0        0.402000    1.183000    2.711000
      5          6           0        0.791000    2.073000    0.801000
      6          1           0        1.843000    1.800000    0.682000
      7          1           0        0.792000    3.012000    0.243000
      8          7           0       -0.053000    1.107000    0.077000
      9          6           0       -1.183000    1.618000   -0.573000
     10          1           0       -1.190000    2.683000   -0.769000
     11          6           0       -2.179000    0.639000   -0.792000
     12          6           0       -3.493000    1.198000   -1.172000
     13          8           0       -4.479000    0.379000   -1.348000
     14          8           0       -3.711000    2.380000   -1.245000
     15          6           0       -1.954000   -0.828000   -0.606000
     16          8           0       -2.764000   -1.668000   -0.823000
     17          6           0       -0.567000   -1.179000   -0.301000
     18          6           0       -0.187000   -2.518000   -0.336000
     19          1           0       -0.840000   -3.369000   -0.512000
     20          6           0        1.187000   -2.723000   -0.433000
     21          1           0        1.579000   -3.721000   -0.613000
     22          6           0        2.085000   -1.719000   -0.352000
     23          6           0        3.518000   -2.004000   -0.115000
     24          1           0        4.175000   -1.451000   -0.790000
     25          1           0        3.646000   -3.081000   -0.243000
     26          1           0        3.840000   -1.835000    0.914000
     27          7           0        1.651000   -0.478000   -0.037000
     28          6           0        0.333000   -0.161000   -0.115000
 ---------------------------------------------------------------------
                    Distance matrix (angstroms):
                    1          2          3          4          5
     1  C    0.000000
     2  H    1.092152   0.000000
     3  H    1.092066   1.695437   0.000000
     4  H    1.092197   1.748245   1.856201   0.000000
     5  C    1.500027   2.207635   2.084081   2.142783   0.000000
     6  H    2.064949   3.006451   2.214136   2.563983   1.093341
     7  H    2.217552   2.589537   2.537430   3.096509   1.092285
     8  N    2.534785   3.064463   3.402342   2.674090   1.472979
     9  C    3.410887   3.539170   4.325901   3.672343   2.447770
    10  H    3.574396   3.523774   4.345707   4.110336   2.600262
    11  C    4.416669   4.491491   5.434620   4.385032   3.662636
    12  C    5.441266   5.259054   6.451885   5.499904   4.796979
    13  O    6.492445   6.305483   7.543171   6.398911   5.938075
    14  O    5.571951   5.221942   6.499625   5.830910   4.954631
    15  C    4.882959   5.161489   5.907335   4.538430   4.234439
    16  O    5.972670   6.194323   7.014327   5.535423   5.410220
    17  C    4.387874   4.956725   5.293797   3.948436   3.692434
    18  C    5.427569   6.094347   6.246395   4.829962   4.829755
    19  H    6.368905   6.956181   7.232058   5.714105   5.830909
    20  C    5.628449   6.475947   6.255557   5.075214   4.968017
    21  H    6.638565   7.508213   7.213791   6.040159   6.015877
    22  C    4.929319   5.889045   5.390025   4.542693   4.169306
    23  C    5.632602   6.682993   5.839486   5.277566   4.989741
    24  H    5.948417   7.009404   6.044827   5.781910   5.138221
    25  H    6.578175   7.608416   6.831290   6.118116   5.983701
    26  H    5.333825   6.404068   5.412096   4.915015   4.957987
    27  N    3.676782   4.624529   4.179513   3.445348   2.819476
    28  C    3.355921   4.076473   4.151584   3.130076   2.457555
                    6          7          8          9         10
     6  H    0.000000
     7  H    1.663210   0.000000
     8  N    2.107389   2.090599   0.000000
     9  C    3.280979   2.551415   1.400186   0.000000
    10  H    3.476231   2.249602   2.119495   1.082908   0.000000
    11  C    4.438139   3.940710   2.343941   1.413654   2.270812
    12  C    5.680899   4.863543   3.660858   2.423077   2.769737
    13  O    6.790274   6.103066   4.706388   3.605463   4.057238
    14  O    5.907338   4.784410   4.092576   2.724521   2.583375
    15  C    4.794011   4.796553   2.797233   2.564848   3.596858
    16  O    5.959572   5.973600   3.982480   3.655114   4.627266
    17  C    3.955860   4.439290   2.373368   2.876917   3.939822
    18  C    4.878765   5.645758   3.650911   4.260831   5.314499
    19  H    5.944971   6.629526   4.582670   4.999154   6.067557
    20  C    4.704369   5.788197   4.057906   4.947806   5.915054
    21  H    5.676985   6.832671   5.142870   6.011253   6.978747
    22  C    3.675742   4.940469   3.569504   4.675921   5.502465
    23  C    4.232168   5.720096   4.739961   5.952147   6.675399
    24  H    4.263099   5.694747   5.017075   6.178512   6.773007
    25  H    5.284940   6.745825   5.596816   6.746017   7.542365
    26  H    4.153921   5.764890   4.950897   6.274146   6.967475
    27  N    2.396478   3.605049   2.329986   3.565399   4.312659
    28  C    2.600160   3.225953   1.339285   2.381777   3.291744
                   11         12         13         14         15
    11  C    0.000000
    12  C    1.477659   0.000000
    13  O    2.380491   1.293806   0.000000
    14  O    2.362904   1.204150   2.145794   0.000000
    15  C    1.495764   2.606445   2.895348   3.713036   0.000000
    16  O    2.380217   2.977784   2.721591   4.178660   1.186924
    17  C    2.478860   3.869140   4.339046   4.841730   1.462872
    18  C    3.760671   5.043529   5.276174   6.102070   2.459937
    19  H    4.235019   5.322734   5.290437   6.467684   2.776061
    20  C    4.770941   6.150021   6.524047   7.119716   3.672443
    21  H    5.758837   7.087611   7.351843   8.099736   4.566354
    22  C    4.892388   6.347864   6.962738   7.154919   4.143901
    23  C    6.316612   7.779728   8.435104   8.529642   5.618438
    24  H    6.688903   8.121659   8.862955   8.779099   6.163329
    25  H    6.933284   8.374855   8.899902   9.216940   6.047130
    26  H    6.727516   8.205082   8.900798   8.913198   6.074116
    27  N    4.060371   5.527923   6.326932   6.195036   3.666372
    28  C    2.721851   4.195522   4.996722   4.907904   2.432353
                   16         17         18         19         20
    16  O    0.000000
    17  C    2.310501   0.000000
    18  C    2.756918   1.392317   0.000000
    19  H    2.586870   2.217014   1.087008   0.000000
    20  C    4.107983   2.340486   1.392591   2.128917   0.000000
    21  H    4.808384   3.341321   2.154691   2.446562   1.087230
    22  C    4.872088   2.706900   2.408452   3.362101   1.349437
    23  C    6.330694   4.171624   3.747007   4.583994   2.460009
    24  H    6.942471   4.774900   4.513496   5.376452   3.267044
    25  H    6.589467   4.622806   3.875243   4.503277   2.492177
    26  H    6.830657   4.618248   4.271501   5.127283   3.105054
    27  N    4.639625   2.341073   2.762109   3.845593   2.326400
    28  C    3.516208   1.371466   2.423776   3.438721   2.719243
                   21         22         23         24         25
    21  H    0.000000
    22  C    2.081384   0.000000
    23  C    2.637388   1.480163   0.000000
    24  H    3.453034   2.152154   1.092283   0.000000
    25  H    2.195220   2.074523   1.092107   1.798875   0.000000
    26  H    3.316752   2.167080   1.091369   1.778566   1.711374
    27  N    3.294542   1.351910   2.412561   2.807902   3.286042
    28  C    3.804487   2.356488   3.679793   4.108612   4.418003
                   26         27         28
    26  H    0.000000
    27  N    2.745464   0.000000
    28  C    4.019971   1.357828   0.000000
 Stoichiometry    C12H11N2O3(1-)
 Framework group  C1[X(C12H11N2O3)]
 Deg. of freedom    78
 Full point group                 C1      NOp   1
 Largest Abelian subgroup         C1      NOp   1
 Largest concise Abelian subgroup C1      NOp   1
                         Standard orientation:                         
 ---------------------------------------------------------------------
 Center     Atomic      Atomic             Coordinates (Angstroms)
 Number     Number       Type             X           Y           Z
 ---------------------------------------------------------------------
      1          6           0        0.543991    3.279039    1.289449
      2          1           0       -0.396781    3.698395    1.652608
      3          1           0        1.171356    4.169631    1.212846
      4          1           0        0.850598    2.531136    2.023974
      5          6           0        0.507025    2.681115   -0.085761
      6          1           0        1.540927    2.739459   -0.436525
      7          1           0        0.025907    3.274159   -0.866729
      8          7           0        0.026714    1.293221   -0.198532
      9          6           0       -1.305906    1.115616   -0.589816
     10          1           0       -1.784563    1.955656   -1.077576
     11          6           0       -1.831019   -0.136071   -0.194908
     12          6           0       -3.302198   -0.226672   -0.299326
     13          8           0       -3.877009   -1.320384    0.084494
     14          8           0       -3.997026    0.693940   -0.645251
     15          6           0       -0.993213   -1.256257    0.334785
     16          8           0       -1.408811   -2.327137    0.633590
     17          6           0        0.444798   -0.991841    0.287856
     18          6           0        1.330982   -2.037530    0.532313
     19          1           0        1.067415   -3.051177    0.823238
     20          6           0        2.628799   -1.807861    0.082609
     21          1           0        3.360483   -2.611987    0.092062
     22          6           0        3.032421   -0.620011   -0.414464
     23          6           0        4.472831   -0.310263   -0.556447
     24          1           0        4.718102    0.116402   -1.531579
     25          1           0        5.009633   -1.247645   -0.395650
     26          1           0        4.866369    0.340139    0.226618
     27          7           0        2.185926    0.432677   -0.360096
     28          6           0        0.862296    0.249601   -0.118882
 ---------------------------------------------------------------------
 Rotational constants (GHZ):           0.7779145           0.3540132           0.2599876
 Leave Link  202 at Mon Jul 12 12:19:36 2021, MaxMem=   104857600 cpu:               0.0 elap:               0.0
 (Enter /dades/curu/g16A03_MST/g16/l301.exe)
 Standard basis: 6-31G(d) (6D, 7F)
 Ernie: Thresh=  0.10000D-02 Tol=  0.10000D-05 Strict=F.
 There are   277 symmetry adapted cartesian basis functions of A   symmetry.
 There are   277 symmetry adapted basis functions of A   symmetry.
   277 basis functions,   520 primitive gaussians,   277 cartesian basis functions
    61 alpha electrons       61 beta electrons
       nuclear repulsion energy      1172.9434699545 Hartrees.
 IExCor=  402 DFT=T Ex+Corr=B3LYP ExCW=0 ScaHFX=  0.200000
 ScaDFX=  0.800000  0.720000  1.000000  0.810000 ScalE2=  1.000000  1.000000
 IRadAn=      5 IRanWt=     -1 IRanGd=            0 ICorTp=0 IEmpDi=  4
 NAtoms=   28 NActive=   28 NUniq=   28 SFac= 1.00D+00 NAtFMM=   60 NAOKFM=F Big=F
 Integral buffers will be    131072 words long.
 Raffenetti 2 integral format.
 Two-electron integral symmetry is turned on.
 Using the following non-standard input for PCM:
 MSTModel=DFT cav MSTCharged
 --- end of non-standard input.
 MST model for solvation energy: B3LYP parametrization.
 MST cavity parameters:
 ISph   IAn     Re0     Alpha   Atom Type   QCorr
 ------------------------------------------------
   1      6     1.50     1.50      CH3        F
   2      1     1.20     1.50      CH3        F
   3      1     1.20     1.50      CH3        F
   4      1     1.20     1.50      CH3        F
   5      6     1.50     1.50      CH2        F
   6      1     1.20     1.50      CH2        F
   7      1     1.20     1.50      CH2        F
   8      7     1.50     1.50      Nc         F
   9      6     1.50     1.50      CH         F
  10      1     1.20     1.50      CH         F
  11      6     1.50     1.50      C          F
  12      6     1.50     1.15      C          T
  13      8     1.40     1.15      O          T
  14      8     1.40     1.15      O          T
  15      6     1.50     1.50      C          F
  16      8     1.40     1.50      O          F
  17      6     1.50     1.50      C          F
  18      6     1.50     1.50      CH         F
  19      1     1.20     1.50      CH         F
  20      6     1.50     1.50      CH         F
  21      1     1.20     1.50      CH         F
  22      6     1.50     1.50      C          F
  23      6     1.50     1.50      CH3        F
  24      1     1.20     1.50      CH3        F
  25      1     1.20     1.50      CH3        F
  26      1     1.20     1.50      CH3        F
  27      7     1.50     1.50      Nc         F
  28      6     1.50     1.50      C          F
 ------------------------------------------------------------------------------
 Polarizable Continuum Model (PCM)
 =================================
 Model                : PCM.
 Atomic radii         : MST.
 Polarization charges : Total charges.
 Charge compensation  : None.
 Solution method      : On-the-fly selection.
 Cavity type          : Scaled VdW (van der Waals Surface) (Alpha=1.500).
 Cavity algorithm     : GePol (No added spheres)
                        Default sphere list used, NSphG=   28.
                        Lebedev-Laikov grids with approx.  5.0 points / Ang**2.
                        Smoothing algorithm: York/Karplus (Gamma=1.0000).
                        Polarization charges: spherical gaussians, with
                                              point-specific exponents (IZeta= 3).
                        Self-potential: point-specific (ISelfS= 7).
                        Self-field    : sphere-specific E.n sum rule (ISelfD= 2).
 1st derivatives      : Analytical E(r).r(x)/FMM algorithm (CHGder, D1EAlg=3).
                        Cavity 1st derivative terms included.
 Solvent              : n-Octanol, Eps=   9.862900 Eps(inf)=   2.043470
 ------------------------------------------------------------------------------
 GePol: Number of generator spheres                  =      28
 GePol: Total number of spheres                      =      28
 GePol: Number of exposed spheres                    =      28 (100.00%)
 GePol: Number of points                             =    2775
 GePol: Average weight of points                     =       0.11
 GePol: Minimum weight of points                     =   0.71D-10
 GePol: Maximum weight of points                     =    0.20802
 GePol: Number of points with low weight             =     175
 GePol: Fraction of low-weight points (<1% of avg)   =       6.31%
 GePol: Cavity surface area                          =    304.520 Ang**2
 GePol: Cavity volume                                =    339.873 Ang**3
 Surface areas from nonelectrostatic (unscaled) cavity and vdw tensions:
 Sphere =    1 Type =  CH3 Surf =        5.254 Tension =       -0.183
 Sphere =    2 Type =  CH3 Surf =       10.100 Tension =       -0.183
 Sphere =    3 Type =  CH3 Surf =        9.944 Tension =       -0.183
 Sphere =    4 Type =  CH3 Surf =       10.132 Tension =       -0.183
 Sphere =    5 Type =  CH2 Surf =        3.594 Tension =       -0.194
 Sphere =    6 Type =  CH2 Surf =        8.730 Tension =       -0.194
 Sphere =    7 Type =  CH2 Surf =        9.501 Tension =       -0.194
 Sphere =    8 Type =  Nc  Surf =        5.530 Tension =       -0.161
 Sphere =    9 Type =  CH  Surf =        7.524 Tension =       -0.195
 Sphere =   10 Type =  CH  Surf =        9.703 Tension =       -0.195
 Sphere =   11 Type =  C   Surf =        6.546 Tension =       -0.205
 Sphere =   12 Type =  C   Surf =        7.022 Tension =       -0.205
 Sphere =   13 Type =  O   Surf =       16.362 Tension =       -0.185
 Sphere =   14 Type =  O   Surf =       15.980 Tension =       -0.185
 Sphere =   15 Type =  C   Surf =        6.777 Tension =       -0.205
 Sphere =   16 Type =  O   Surf =       15.662 Tension =       -0.185
 Sphere =   17 Type =  C   Surf =        5.949 Tension =       -0.205
 Sphere =   18 Type =  CH  Surf =        7.764 Tension =       -0.195
 Sphere =   19 Type =  CH  Surf =       10.159 Tension =       -0.195
 Sphere =   20 Type =  CH  Surf =        7.293 Tension =       -0.195
 Sphere =   21 Type =  CH  Surf =        9.671 Tension =       -0.195
 Sphere =   22 Type =  C   Surf =        5.939 Tension =       -0.205
 Sphere =   23 Type =  CH3 Surf =        5.190 Tension =       -0.183
 Sphere =   24 Type =  CH3 Surf =       10.175 Tension =       -0.183
 Sphere =   25 Type =  CH3 Surf =        9.344 Tension =       -0.183
 Sphere =   26 Type =  CH3 Surf =       10.103 Tension =       -0.183
 Sphere =   27 Type =  Nc  Surf =       11.245 Tension =       -0.161
 Sphere =   28 Type =  C   Surf =        5.439 Tension =       -0.205
 PCM non-electrostatic energy =        -0.0107912904 Hartrees.
 Nuclear repulsion after PCM non-electrostatic terms =     1172.9326786640 Hartrees.
 Leave Link  301 at Mon Jul 12 12:19:36 2021, MaxMem=   104857600 cpu:               0.1 elap:               0.1
 (Enter /dades/curu/g16A03_MST/g16/l302.exe)
 NPDir=0 NMtPBC=     1 NCelOv=     1 NCel=       1 NClECP=     1 NCelD=      1
         NCelK=      1 NCelE2=     1 NClLst=     1 CellRange=     0.0.
 One-electron integrals computed using PRISM.
 One-electron integral symmetry used in STVInt
 NBasis=   277 RedAO= T EigKep=  5.93D-04  NBF=   277
 NBsUse=   277 1.00D-06 EigRej= -1.00D+00 NBFU=   277
 Precomputing XC quadrature grid using
 IXCGrd= 4 IRadAn=           5 IRanWt=          -1 IRanGd=           0 AccXCQ= 0.00D+00.
 Generated NRdTot=       0 NPtTot=           0 NUsed=           0 NTot=          32
 NSgBfM=   276   276   276   276   276 MxSgAt=    28 MxSgA2=    28.
 Leave Link  302 at Mon Jul 12 12:19:36 2021, MaxMem=   104857600 cpu:               2.7 elap:               0.7
 (Enter /dades/curu/g16A03_MST/g16/l303.exe)
 DipDrv:  MaxL=1.
 Leave Link  303 at Mon Jul 12 12:19:36 2021, MaxMem=   104857600 cpu:               0.1 elap:               0.0
 (Enter /dades/curu/g16A03_MST/g16/l401.exe)
 ExpMin= 1.61D-01 ExpMax= 5.48D+03 ExpMxC= 8.25D+02 IAcc=3 IRadAn=         5 AccDes= 0.00D+00
 Harris functional with IExCor=  402 and IRadAn=       5 diagonalized for initial guess.
 HarFok:  IExCor=  402 AccDes= 0.00D+00 IRadAn=         5 IDoV= 1 UseB2=F ITyADJ=14
 ICtDFT=  3500011 ScaDFX=  1.000000  1.000000  1.000000  1.000000
 FoFCou: FMM=F IPFlag=           0 FMFlag=      100000 FMFlg1=           0
         NFxFlg=           0 DoJE=T BraDBF=F KetDBF=T FulRan=T
         wScrn=  0.000000 ICntrl=       500 IOpCl=  0 I1Cent=   200000004 NGrid=           0
         NMat0=    1 NMatS0=      1 NMatT0=    0 NMatD0=    1 NMtDS0=    0 NMtDT0=    0
 Petite list used in FoFCou.
 Harris En= -799.303593659981    
 JPrj=0 DoOrth=F DoCkMO=F.
 Leave Link  401 at Mon Jul 12 12:19:42 2021, MaxMem=   104857600 cpu:              23.6 elap:               5.9
 (Enter /dades/curu/g16A03_MST/g16/l502.exe)
 Integral symmetry usage will be decided dynamically.
 Closed shell SCF:
 Using DIIS extrapolation, IDIIS=  1040.
 NGot=   104857600 LenX=   104699411 LenY=   104622241
 Requested convergence on RMS density matrix=1.00D-08 within 128 cycles.
 Requested convergence on MAX density matrix=1.00D-06.
 Requested convergence on             energy=1.00D-06.
 No special actions if energy rises.
 Fock matrices will be formed incrementally for  20 cycles.

 Cycle   1  Pass 1  IDiag  1:
 FoFJK:  IHMeth= 1 ICntrl=       0 DoSepK=F KAlg= 0 I1Cent=           0 FoldK=F
 IRaf= 830000000 NMat=       1 IRICut=       1 DoRegI=T DoRafI=F ISym2E= 0 IDoP0=0 IntGTp=1.
 FoFCou: FMM=F IPFlag=           0 FMFlag=      100000 FMFlg1=           0
         NFxFlg=           0 DoJE=F BraDBF=F KetDBF=F FulRan=T
         wScrn=  0.000000 ICntrl=         0 IOpCl=  0 I1Cent=           0 NGrid=           0
         NMat0=    1 NMatS0=      1 NMatT0=    0 NMatD0=    1 NMtDS0=    0 NMtDT0=    0
 Symmetry not used in FoFCou.
 Inv3:  Mode=1 IEnd=    23101875.
 Iteration    1 A*A^-1 deviation from unit magnitude is 1.07D-14 for   2754.
 Iteration    1 A*A^-1 deviation from orthogonality  is 3.52D-15 for   2291    974.
 Iteration    1 A^-1*A deviation from unit magnitude is 1.07D-14 for   2754.
 Iteration    1 A^-1*A deviation from orthogonality  is 2.12D-15 for   2769    366.
 E= -798.684384144171    
 DIIS: error= 2.42D-02 at cycle   1 NSaved=   1.
 NSaved= 1 IEnMin= 1 EnMin= -798.684384144171     IErMin= 1 ErrMin= 2.42D-02
 ErrMax= 2.42D-02  0.00D+00 EMaxC= 1.00D-01 BMatC= 5.59D-01 BMatP= 5.59D-01
 IDIUse=3 WtCom= 7.58D-01 WtEn= 2.42D-01
 Coeff-Com:  0.100D+01
 Coeff-En:   0.100D+01
 Coeff:      0.100D+01
 Gap=     0.167 Goal=   None    Shift=    0.000
 GapD=    0.167 DampG=1.000 DampE=0.500 DampFc=0.5000 IDamp=-1.
 Damping current iteration by 5.00D-01
 RMSDP=8.91D-03 MaxDP=3.89D-01              OVMax= 8.50D-01

 Cycle   2  Pass 1  IDiag  1:
 RMSU=  4.42D-03    CP:  9.74D-01
 E= -798.588036144462     Delta-E=        0.096347999709 Rises=F Damp=T
 DIIS: error= 1.74D-02 at cycle   2 NSaved=   2.
 NSaved= 2 IEnMin= 1 EnMin= -798.684384144171     IErMin= 2 ErrMin= 1.74D-02
 ErrMax= 1.74D-02  0.00D+00 EMaxC= 1.00D-01 BMatC= 1.89D-01 BMatP= 5.59D-01
 IDIUse=3 WtCom= 8.26D-01 WtEn= 1.74D-01
 Coeff-Com:  0.315D+00 0.685D+00
 Coeff-En:   0.572D+00 0.428D+00
 Coeff:      0.360D+00 0.640D+00
 Gap=    -0.155 Goal=   None    Shift=    0.000
 RMSDP=3.77D-03 MaxDP=1.57D-01 DE= 9.63D-02 OVMax= 6.07D-01

 Cycle   3  Pass 1  IDiag  1:
 RMSU=  3.00D-03    CP:  9.66D-01  4.86D-01
 E= -798.964835702816     Delta-E=       -0.376799558353 Rises=F Damp=F
 DIIS: error= 2.23D-02 at cycle   3 NSaved=   3.
 NSaved= 3 IEnMin= 3 EnMin= -798.964835702816     IErMin= 2 ErrMin= 1.74D-02
 ErrMax= 2.23D-02  0.00D+00 EMaxC= 1.00D-01 BMatC= 2.23D-01 BMatP= 1.89D-01
 IDIUse=2 WtCom= 0.00D+00 WtEn= 1.00D+00
 EnCoef did     1 forward-backward iterations
 Coeff-En:   0.580D-02 0.190D+00 0.804D+00
 Coeff:      0.580D-02 0.190D+00 0.804D+00
 Gap=     0.159 Goal=   None    Shift=    0.000
 RMSDP=5.70D-03 MaxDP=3.49D-01 DE=-3.77D-01 OVMax= 8.92D-01

 Cycle   4  Pass 1  IDiag  1:
 RMSU=  2.74D-03    CP:  9.61D-01  1.13D+00 -3.64D-01
 E= -797.570183504310     Delta-E=        1.394652198505 Rises=F Damp=F
 DIIS: error= 6.68D-02 at cycle   4 NSaved=   4.
 NSaved= 4 IEnMin= 3 EnMin= -798.964835702816     IErMin= 2 ErrMin= 1.74D-02
 ErrMax= 6.68D-02  0.00D+00 EMaxC= 1.00D-01 BMatC= 1.18D+00 BMatP= 1.89D-01
 IDIUse=2 WtCom= 0.00D+00 WtEn= 1.00D+00
 Coeff-En:   0.000D+00 0.000D+00 0.818D+00 0.182D+00
 Coeff:      0.000D+00 0.000D+00 0.818D+00 0.182D+00
 Gap=    -0.047 Goal=   None    Shift=    0.000
 RMSDP=4.85D-03 MaxDP=2.65D-01 DE= 1.39D+00 OVMax= 9.50D-01

 Cycle   5  Pass 1  IDiag  1:
 RMSU=  2.24D-03    CP:  9.78D-01  5.77D-01  3.67D-01 -3.11D-03
 E= -799.116513550958     Delta-E=       -1.546330046648 Rises=F Damp=F
 DIIS: error= 7.86D-03 at cycle   5 NSaved=   5.
 NSaved= 5 IEnMin= 5 EnMin= -799.116513550958     IErMin= 5 ErrMin= 7.86D-03
 ErrMax= 7.86D-03  0.00D+00 EMaxC= 1.00D-01 BMatC= 6.63D-02 BMatP= 1.89D-01
 IDIUse=3 WtCom= 9.21D-01 WtEn= 7.86D-02
 Coeff-Com:  0.380D-01 0.119D+00 0.367D+00 0.334D-01 0.443D+00
 Coeff-En:   0.000D+00 0.000D+00 0.239D+00 0.000D+00 0.761D+00
 Coeff:      0.350D-01 0.110D+00 0.357D+00 0.308D-01 0.468D+00
 Gap=     0.124 Goal=   None    Shift=    0.000
 RMSDP=1.49D-03 MaxDP=5.50D-02 DE=-1.55D+00 OVMax= 1.34D-01

 Cycle   6  Pass 1  IDiag  1:
 RMSU=  8.06D-04    CP:  9.73D-01  4.82D-01  6.08D-01  1.15D-02  5.88D-01
 E= -799.164113016767     Delta-E=       -0.047599465809 Rises=F Damp=F
 DIIS: error= 5.39D-03 at cycle   6 NSaved=   6.
 NSaved= 6 IEnMin= 6 EnMin= -799.164113016767     IErMin= 6 ErrMin= 5.39D-03
 ErrMax= 5.39D-03  0.00D+00 EMaxC= 1.00D-01 BMatC= 1.60D-02 BMatP= 6.63D-02
 IDIUse=3 WtCom= 9.46D-01 WtEn= 5.39D-02
 Coeff-Com: -0.204D-01 0.566D-01 0.109D+00-0.111D-01 0.344D+00 0.522D+00
 Coeff-En:   0.000D+00 0.000D+00 0.000D+00 0.000D+00 0.218D+00 0.782D+00
 Coeff:     -0.193D-01 0.535D-01 0.103D+00-0.105D-01 0.337D+00 0.536D+00
 Gap=     0.110 Goal=   None    Shift=    0.000
 RMSDP=5.74D-04 MaxDP=2.93D-02 DE=-4.76D-02 OVMax= 4.15D-02

 Cycle   7  Pass 1  IDiag  1:
 RMSU=  1.97D-04    CP:  9.74D-01  5.38D-01  5.63D-01 -1.18D-02  7.40D-01
                    CP:  6.27D-01
 E= -799.178494828089     Delta-E=       -0.014381811321 Rises=F Damp=F
 DIIS: error= 7.56D-04 at cycle   7 NSaved=   7.
 NSaved= 7 IEnMin= 7 EnMin= -799.178494828089     IErMin= 7 ErrMin= 7.56D-04
 ErrMax= 7.56D-04  0.00D+00 EMaxC= 1.00D-01 BMatC= 4.44D-04 BMatP= 1.60D-02
 IDIUse=3 WtCom= 9.92D-01 WtEn= 7.56D-03
 Coeff-Com: -0.969D-02 0.262D-01 0.221D-01-0.629D-02 0.110D+00 0.254D+00
 Coeff-Com:  0.603D+00
 Coeff-En:   0.000D+00 0.000D+00 0.000D+00 0.000D+00 0.000D+00 0.000D+00
 Coeff-En:   0.100D+01
 Coeff:     -0.962D-02 0.260D-01 0.220D-01-0.624D-02 0.109D+00 0.252D+00
 Coeff:      0.606D+00
 Gap=     0.112 Goal=   None    Shift=    0.000
 RMSDP=1.11D-04 MaxDP=3.55D-03 DE=-1.44D-02 OVMax= 5.63D-03

 Cycle   8  Pass 1  IDiag  1:
 RMSU=  8.37D-05    CP:  9.74D-01  5.35D-01  5.63D-01 -1.46D-02  7.37D-01
                    CP:  6.85D-01  7.33D-01
 E= -799.178798059810     Delta-E=       -0.000303231722 Rises=F Damp=F
 DIIS: error= 3.35D-04 at cycle   8 NSaved=   8.
 NSaved= 8 IEnMin= 8 EnMin= -799.178798059810     IErMin= 8 ErrMin= 3.35D-04
 ErrMax= 3.35D-04  0.00D+00 EMaxC= 1.00D-01 BMatC= 7.41D-05 BMatP= 4.44D-04
 IDIUse=3 WtCom= 9.97D-01 WtEn= 3.35D-03
 Coeff-Com: -0.194D-02 0.150D-02-0.799D-02 0.101D-03-0.396D-02 0.423D-01
 Coeff-Com:  0.345D+00 0.625D+00
 Coeff-En:   0.000D+00 0.000D+00 0.000D+00 0.000D+00 0.000D+00 0.000D+00
 Coeff-En:   0.146D+00 0.854D+00
 Coeff:     -0.193D-02 0.149D-02-0.797D-02 0.101D-03-0.394D-02 0.422D-01
 Coeff:      0.344D+00 0.626D+00
 Gap=     0.112 Goal=   None    Shift=    0.000
 RMSDP=4.09D-05 MaxDP=2.13D-03 DE=-3.03D-04 OVMax= 3.42D-03

 Cycle   9  Pass 1  IDiag  1:
 RMSU=  2.19D-05    CP:  9.74D-01  5.35D-01  5.63D-01 -1.30D-02  7.41D-01
                    CP:  6.95D-01  8.54D-01  7.32D-01
 E= -799.178869785316     Delta-E=       -0.000071725505 Rises=F Damp=F
 DIIS: error= 9.09D-05 at cycle   9 NSaved=   9.
 NSaved= 9 IEnMin= 9 EnMin= -799.178869785316     IErMin= 9 ErrMin= 9.09D-05
 ErrMax= 9.09D-05  0.00D+00 EMaxC= 1.00D-01 BMatC= 5.41D-06 BMatP= 7.41D-05
 IDIUse=1 WtCom= 1.00D+00 WtEn= 0.00D+00
 Coeff-Com: -0.744D-03-0.251D-03-0.587D-02 0.317D-03-0.708D-02 0.148D-01
 Coeff-Com:  0.174D+00 0.366D+00 0.459D+00
 Coeff:     -0.744D-03-0.251D-03-0.587D-02 0.317D-03-0.708D-02 0.148D-01
 Coeff:      0.174D+00 0.366D+00 0.459D+00
 Gap=     0.112 Goal=   None    Shift=    0.000
 RMSDP=1.06D-05 MaxDP=3.94D-04 DE=-7.17D-05 OVMax= 7.78D-04

 Cycle  10  Pass 1  IDiag  1:
 RMSU=  9.04D-06    CP:  9.74D-01  5.35D-01  5.63D-01 -1.31D-02  7.40D-01
                    CP:  6.96D-01  8.54D-01  7.74D-01  8.25D-01
 E= -799.178874523597     Delta-E=       -0.000004738282 Rises=F Damp=F
 DIIS: error= 2.61D-05 at cycle  10 NSaved=  10.
 NSaved=10 IEnMin=10 EnMin= -799.178874523597     IErMin=10 ErrMin= 2.61D-05
 ErrMax= 2.61D-05  0.00D+00 EMaxC= 1.00D-01 BMatC= 4.94D-07 BMatP= 5.41D-06
 IDIUse=1 WtCom= 1.00D+00 WtEn= 0.00D+00
 Coeff-Com:  0.312D-04-0.321D-03-0.133D-02 0.114D-03-0.252D-02-0.155D-03
 Coeff-Com:  0.151D-01 0.612D-01 0.232D+00 0.696D+00
 Coeff:      0.312D-04-0.321D-03-0.133D-02 0.114D-03-0.252D-02-0.155D-03
 Coeff:      0.151D-01 0.612D-01 0.232D+00 0.696D+00
 Gap=     0.112 Goal=   None    Shift=    0.000
 RMSDP=4.59D-06 MaxDP=1.29D-04 DE=-4.74D-06 OVMax= 4.47D-04

 Cycle  11  Pass 1  IDiag  1:
 RMSU=  2.93D-06    CP:  9.74D-01  5.35D-01  5.63D-01 -1.31D-02  7.40D-01
                    CP:  6.97D-01  8.60D-01  7.89D-01  9.32D-01  7.89D-01
 E= -799.178875048162     Delta-E=       -0.000000524565 Rises=F Damp=F
 DIIS: error= 1.27D-05 at cycle  11 NSaved=  11.
 NSaved=11 IEnMin=11 EnMin= -799.178875048162     IErMin=11 ErrMin= 1.27D-05
 ErrMax= 1.27D-05  0.00D+00 EMaxC= 1.00D-01 BMatC= 7.21D-08 BMatP= 4.94D-07
 IDIUse=1 WtCom= 1.00D+00 WtEn= 0.00D+00
 Coeff-Com:  0.885D-04-0.518D-04 0.412D-04 0.949D-05-0.336D-03-0.102D-02
 Coeff-Com: -0.108D-01-0.757D-02 0.356D-01 0.323D+00 0.661D+00
 Coeff:      0.885D-04-0.518D-04 0.412D-04 0.949D-05-0.336D-03-0.102D-02
 Coeff:     -0.108D-01-0.757D-02 0.356D-01 0.323D+00 0.661D+00
 Gap=     0.112 Goal=   None    Shift=    0.000
 RMSDP=1.59D-06 MaxDP=4.02D-05 DE=-5.25D-07 OVMax= 1.63D-04

 Cycle  12  Pass 1  IDiag  1:
 RMSU=  9.67D-07    CP:  9.74D-01  5.34D-01  5.63D-01 -1.31D-02  7.40D-01
                    CP:  6.97D-01  8.60D-01  7.94D-01  9.54D-01  8.91D-01
                    CP:  8.97D-01
 E= -799.178875125415     Delta-E=       -0.000000077253 Rises=F Damp=F
 DIIS: error= 3.01D-06 at cycle  12 NSaved=  12.
 NSaved=12 IEnMin=12 EnMin= -799.178875125415     IErMin=12 ErrMin= 3.01D-06
 ErrMax= 3.01D-06  0.00D+00 EMaxC= 1.00D-01 BMatC= 8.58D-09 BMatP= 7.21D-08
 IDIUse=1 WtCom= 1.00D+00 WtEn= 0.00D+00
 Coeff-Com:  0.506D-04-0.118D-04 0.151D-03-0.789D-05 0.461D-04-0.517D-03
 Coeff-Com: -0.760D-02-0.980D-02-0.785D-02 0.109D+00 0.340D+00 0.577D+00
 Coeff:      0.506D-04-0.118D-04 0.151D-03-0.789D-05 0.461D-04-0.517D-03
 Coeff:     -0.760D-02-0.980D-02-0.785D-02 0.109D+00 0.340D+00 0.577D+00
 Gap=     0.112 Goal=   None    Shift=    0.000
 RMSDP=5.22D-07 MaxDP=1.79D-05 DE=-7.73D-08 OVMax= 5.35D-05

 Cycle  13  Pass 1  IDiag  1:
 RMSU=  3.56D-07    CP:  9.74D-01  5.34D-01  5.63D-01 -1.31D-02  7.40D-01
                    CP:  6.97D-01  8.60D-01  7.96D-01  9.63D-01  9.05D-01
                    CP:  9.50D-01  8.49D-01
 E= -799.178875134103     Delta-E=       -0.000000008687 Rises=F Damp=F
 DIIS: error= 1.28D-06 at cycle  13 NSaved=  13.
 NSaved=13 IEnMin=13 EnMin= -799.178875134103     IErMin=13 ErrMin= 1.28D-06
 ErrMax= 1.28D-06  0.00D+00 EMaxC= 1.00D-01 BMatC= 1.14D-09 BMatP= 8.58D-09
 IDIUse=1 WtCom= 1.00D+00 WtEn= 0.00D+00
 Coeff-Com:  0.149D-04-0.132D-04 0.712D-04-0.310D-05 0.510D-04-0.121D-03
 Coeff-Com: -0.236D-02-0.342D-02-0.978D-02 0.136D-01 0.786D-01 0.286D+00
 Coeff-Com:  0.638D+00
 Coeff:      0.149D-04-0.132D-04 0.712D-04-0.310D-05 0.510D-04-0.121D-03
 Coeff:     -0.236D-02-0.342D-02-0.978D-02 0.136D-01 0.786D-01 0.286D+00
 Coeff:      0.638D+00
 Gap=     0.112 Goal=   None    Shift=    0.000
 RMSDP=2.13D-07 MaxDP=6.04D-06 DE=-8.69D-09 OVMax= 2.42D-05

 Cycle  14  Pass 1  IDiag  1:
 RMSU=  1.21D-07    CP:  9.74D-01  5.34D-01  5.63D-01 -1.31D-02  7.40D-01
                    CP:  6.97D-01  8.60D-01  7.97D-01  9.65D-01  9.11D-01
                    CP:  9.70D-01  9.36D-01  7.84D-01
 E= -799.178875135291     Delta-E=       -0.000000001188 Rises=F Damp=F
 DIIS: error= 6.21D-07 at cycle  14 NSaved=  14.
 NSaved=14 IEnMin=14 EnMin= -799.178875135291     IErMin=14 ErrMin= 6.21D-07
 ErrMax= 6.21D-07  0.00D+00 EMaxC= 1.00D-01 BMatC= 2.27D-10 BMatP= 1.14D-09
 IDIUse=1 WtCom= 1.00D+00 WtEn= 0.00D+00
 Coeff-Com:  0.150D-05-0.850D-05 0.162D-04 0.509D-06 0.956D-05 0.175D-04
 Coeff-Com: -0.473D-04-0.465D-04-0.386D-02-0.716D-02-0.932D-02 0.632D-01
 Coeff-Com:  0.360D+00 0.597D+00
 Coeff:      0.150D-05-0.850D-05 0.162D-04 0.509D-06 0.956D-05 0.175D-04
 Coeff:     -0.473D-04-0.465D-04-0.386D-02-0.716D-02-0.932D-02 0.632D-01
 Coeff:      0.360D+00 0.597D+00
 Gap=     0.112 Goal=   None    Shift=    0.000
 RMSDP=8.83D-08 MaxDP=3.49D-06 DE=-1.19D-09 OVMax= 8.87D-06

 Cycle  15  Pass 1  IDiag  1:
 RMSU=  4.79D-08    CP:  9.74D-01  5.34D-01  5.63D-01 -1.31D-02  7.40D-01
                    CP:  6.97D-01  8.61D-01  7.97D-01  9.66D-01  9.13D-01
                    CP:  9.78D-01  9.47D-01  8.89D-01  6.87D-01
 E= -799.178875135550     Delta-E=       -0.000000000259 Rises=F Damp=F
 DIIS: error= 2.34D-07 at cycle  15 NSaved=  15.
 NSaved=15 IEnMin=15 EnMin= -799.178875135550     IErMin=15 ErrMin= 2.34D-07
 ErrMax= 2.34D-07  0.00D+00 EMaxC= 1.00D-01 BMatC= 3.28D-11 BMatP= 2.27D-10
 IDIUse=1 WtCom= 1.00D+00 WtEn= 0.00D+00
 Coeff-Com: -0.275D-06-0.180D-05 0.252D-05 0.110D-06-0.273D-05 0.223D-04
 Coeff-Com:  0.271D-03 0.412D-03-0.112D-02-0.619D-02-0.165D-01 0.810D-03
 Coeff-Com:  0.139D+00 0.354D+00 0.529D+00
 Coeff:     -0.275D-06-0.180D-05 0.252D-05 0.110D-06-0.273D-05 0.223D-04
 Coeff:      0.271D-03 0.412D-03-0.112D-02-0.619D-02-0.165D-01 0.810D-03
 Coeff:      0.139D+00 0.354D+00 0.529D+00
 Gap=     0.112 Goal=   None    Shift=    0.000
 RMSDP=3.02D-08 MaxDP=1.37D-06 DE=-2.59D-10 OVMax= 2.94D-06

 Cycle  16  Pass 1  IDiag  1:
 RMSU=  1.54D-08    CP:  9.74D-01  5.34D-01  5.63D-01 -1.31D-02  7.40D-01
                    CP:  6.97D-01  8.61D-01  7.97D-01  9.66D-01  9.14D-01
                    CP:  9.79D-01  9.59D-01  9.02D-01  7.93D-01  7.51D-01
 E= -799.178875135583     Delta-E=       -0.000000000034 Rises=F Damp=F
 DIIS: error= 7.22D-08 at cycle  16 NSaved=  16.
 NSaved=16 IEnMin=16 EnMin= -799.178875135583     IErMin=16 ErrMin= 7.22D-08
 ErrMax= 7.22D-08  0.00D+00 EMaxC= 1.00D-01 BMatC= 2.60D-12 BMatP= 3.28D-11
 IDIUse=1 WtCom= 1.00D+00 WtEn= 0.00D+00
 Coeff-Com: -0.155D-06 0.333D-06-0.115D-05-0.159D-06-0.447D-05 0.698D-05
 Coeff-Com:  0.160D-03 0.238D-03-0.210D-04-0.253D-02-0.816D-02-0.868D-02
 Coeff-Com:  0.259D-01 0.111D+00 0.274D+00 0.607D+00
 Coeff:     -0.155D-06 0.333D-06-0.115D-05-0.159D-06-0.447D-05 0.698D-05
 Coeff:      0.160D-03 0.238D-03-0.210D-04-0.253D-02-0.816D-02-0.868D-02
 Coeff:      0.259D-01 0.111D+00 0.274D+00 0.607D+00
 Gap=     0.112 Goal=   None    Shift=    0.000
 RMSDP=9.52D-09 MaxDP=3.10D-07 DE=-3.37D-11 OVMax= 1.13D-06

 Error on total polarization charges =  0.00550
 SCF Done:  E(RB3LYP) =  -799.178875136     A.U. after   16 cycles
            NFock= 16  Conv=0.95D-08     -V/T= 2.0082
 KE= 7.926999782934D+02 PE=-4.227120252058D+03 EE= 1.462308719965D+03
 Leave Link  502 at Mon Jul 12 12:23:21 2021, MaxMem=   104857600 cpu:             846.0 elap:             218.6
 (Enter /dades/curu/g16A03_MST/g16/l601.exe)
 Copying SCF densities to generalized density rwf, IOpCl= 0 IROHF=0.

 **********************************************************************

            Population analysis using the SCF density.

 **********************************************************************

 Orbital symmetries:
       Occupied  (A) (A) (A) (A) (A) (A) (A) (A) (A) (A) (A) (A)
                 (A) (A) (A) (A) (A) (A) (A) (A) (A) (A) (A) (A)
                 (A) (A) (A) (A) (A) (A) (A) (A) (A) (A) (A) (A)
                 (A) (A) (A) (A) (A) (A) (A) (A) (A) (A) (A) (A)
                 (A) (A) (A) (A) (A) (A) (A) (A) (A) (A) (A) (A)
                 (A)
       Virtual   (A) (A) (A) (A) (A) (A) (A) (A) (A) (A) (A) (A)
                 (A) (A) (A) (A) (A) (A) (A) (A) (A) (A) (A) (A)
                 (A) (A) (A) (A) (A) (A) (A) (A) (A) (A) (A) (A)
                 (A) (A) (A) (A) (A) (A) (A) (A) (A) (A) (A) (A)
                 (A) (A) (A) (A) (A) (A) (A) (A) (A) (A) (A) (A)
                 (A) (A) (A) (A) (A) (A) (A) (A) (A) (A) (A) (A)
                 (A) (A) (A) (A) (A) (A) (A) (A) (A) (A) (A) (A)
                 (A) (A) (A) (A) (A) (A) (A) (A) (A) (A) (A) (A)
                 (A) (A) (A) (A) (A) (A) (A) (A) (A) (A) (A) (A)
                 (A) (A) (A) (A) (A) (A) (A) (A) (A) (A) (A) (A)
                 (A) (A) (A) (A) (A) (A) (A) (A) (A) (A) (A) (A)
                 (A) (A) (A) (A) (A) (A) (A) (A) (A) (A) (A) (A)
                 (A) (A) (A) (A) (A) (A) (A) (A) (A) (A) (A) (A)
                 (A) (A) (A) (A) (A) (A) (A) (A) (A) (A) (A) (A)
                 (A) (A) (A) (A) (A) (A) (A) (A) (A) (A) (A) (A)
                 (A) (A) (A) (A) (A) (A) (A) (A) (A) (A) (A) (A)
                 (A) (A) (A) (A) (A) (A) (A) (A) (A) (A) (A) (A)
                 (A) (A) (A) (A) (A) (A) (A) (A) (A) (A) (A) (A)
 The electronic state is 1-A.
 Alpha  occ. eigenvalues --  -19.09118 -19.03953 -19.01661 -14.37485 -14.31650
 Alpha  occ. eigenvalues --  -10.25222 -10.23805 -10.23451 -10.22035 -10.21999
 Alpha  occ. eigenvalues --  -10.21434 -10.19920 -10.17978 -10.17897 -10.17560
 Alpha  occ. eigenvalues --  -10.17478 -10.16548  -1.02002  -0.99266  -0.98929
 Alpha  occ. eigenvalues --   -0.92031  -0.86529  -0.80693  -0.79025  -0.77376
 Alpha  occ. eigenvalues --   -0.73414  -0.71021  -0.65387  -0.63238  -0.61902
 Alpha  occ. eigenvalues --   -0.58220  -0.53738  -0.51880  -0.51318  -0.47263
 Alpha  occ. eigenvalues --   -0.47028  -0.45571  -0.43735  -0.43378  -0.42400
 Alpha  occ. eigenvalues --   -0.41515  -0.40695  -0.39542  -0.39074  -0.38459
 Alpha  occ. eigenvalues --   -0.37881  -0.37553  -0.36600  -0.35718  -0.35017
 Alpha  occ. eigenvalues --   -0.34472  -0.33051  -0.32272  -0.26911  -0.25084
 Alpha  occ. eigenvalues --   -0.24486  -0.22572  -0.19859  -0.19531  -0.19177
 Alpha  occ. eigenvalues --   -0.15988
 Alpha virt. eigenvalues --   -0.04816  -0.01020   0.00583   0.07652   0.10902
 Alpha virt. eigenvalues --    0.11130   0.12200   0.13200   0.14609   0.15604
 Alpha virt. eigenvalues --    0.16167   0.17431   0.17664   0.19039   0.19716
 Alpha virt. eigenvalues --    0.20183   0.21040   0.22039   0.24274   0.25589
 Alpha virt. eigenvalues --    0.26700   0.27072   0.29631   0.30483   0.32379
 Alpha virt. eigenvalues --    0.33310   0.36316   0.37402   0.38659   0.41980
 Alpha virt. eigenvalues --    0.44259   0.46992   0.47419   0.48976   0.50014
 Alpha virt. eigenvalues --    0.50290   0.51570   0.52845   0.53457   0.54347
 Alpha virt. eigenvalues --    0.55383   0.56648   0.57650   0.59022   0.59749
 Alpha virt. eigenvalues --    0.60638   0.62381   0.62924   0.63535   0.64155
 Alpha virt. eigenvalues --    0.65042   0.65668   0.66230   0.67326   0.68438
 Alpha virt. eigenvalues --    0.70755   0.72707   0.73642   0.75231   0.75774
 Alpha virt. eigenvalues --    0.76321   0.77562   0.78286   0.79883   0.81698
 Alpha virt. eigenvalues --    0.82334   0.83629   0.84507   0.84656   0.85488
 Alpha virt. eigenvalues --    0.86705   0.88682   0.89383   0.90619   0.91389
 Alpha virt. eigenvalues --    0.92143   0.92701   0.94406   0.94562   0.96537
 Alpha virt. eigenvalues --    0.96853   0.97320   0.98453   1.00907   1.01267
 Alpha virt. eigenvalues --    1.02449   1.02547   1.03768   1.06114   1.06660
 Alpha virt. eigenvalues --    1.07455   1.10032   1.11291   1.11689   1.15407
 Alpha virt. eigenvalues --    1.16692   1.19288   1.20226   1.24129   1.25181
 Alpha virt. eigenvalues --    1.27489   1.29993   1.31030   1.32517   1.33718
 Alpha virt. eigenvalues --    1.34463   1.36506   1.40467   1.42493   1.43318
 Alpha virt. eigenvalues --    1.45841   1.46880   1.47712   1.50278   1.52338
 Alpha virt. eigenvalues --    1.53827   1.55454   1.60529   1.63188   1.64945
 Alpha virt. eigenvalues --    1.68361   1.70537   1.73031   1.73639   1.75045
 Alpha virt. eigenvalues --    1.76893   1.78442   1.79060   1.79959   1.83144
 Alpha virt. eigenvalues --    1.85753   1.86383   1.87286   1.87906   1.89431
 Alpha virt. eigenvalues --    1.90450   1.91747   1.92191   1.93021   1.94440
 Alpha virt. eigenvalues --    1.95938   1.96331   1.97568   2.00256   2.00609
 Alpha virt. eigenvalues --    2.02551   2.03954   2.06932   2.07971   2.12440
 Alpha virt. eigenvalues --    2.12910   2.13698   2.15459   2.16975   2.17368
 Alpha virt. eigenvalues --    2.19431   2.22184   2.23464   2.25770   2.28900
 Alpha virt. eigenvalues --    2.29107   2.31618   2.33557   2.34836   2.35797
 Alpha virt. eigenvalues --    2.36849   2.37901   2.39501   2.45449   2.46179
 Alpha virt. eigenvalues --    2.47381   2.50696   2.51618   2.56479   2.58618
 Alpha virt. eigenvalues --    2.60313   2.64035   2.65056   2.67754   2.69204
 Alpha virt. eigenvalues --    2.73121   2.74049   2.75854   2.77840   2.78375
 Alpha virt. eigenvalues --    2.81910   2.83610   2.85283   2.91390   2.92266
 Alpha virt. eigenvalues --    2.97099   3.00965   3.03270   3.08937   3.09932
 Alpha virt. eigenvalues --    3.23274   3.28201   3.45620   3.51047   3.90749
 Alpha virt. eigenvalues --    4.01412   4.06118   4.10270   4.15243   4.17961
 Alpha virt. eigenvalues --    4.22620   4.25017   4.29599   4.33862   4.39142
 Alpha virt. eigenvalues --    4.47268   4.47364   4.50419   4.60509   4.69576
 Alpha virt. eigenvalues --    4.84419
          Condensed to atoms (all electrons):
               1          2          3          4          5          6
     1  C    5.100783   0.374510   0.368035   0.379814   0.367397  -0.051829
     2  H    0.374510   0.567457  -0.038588  -0.033322  -0.029228   0.005621
     3  H    0.368035  -0.038588   0.559889  -0.016290  -0.031462  -0.006286
     4  H    0.379814  -0.033322  -0.016290   0.538296  -0.035120  -0.002715
     5  C    0.367397  -0.029228  -0.031462  -0.035120   4.933459   0.371781
     6  H   -0.051829   0.005621  -0.006286  -0.002715   0.371781   0.554359
     7  H   -0.037818  -0.006229   0.002444   0.004561   0.372073  -0.038380
     8  N   -0.057779   0.000235   0.004115  -0.004241   0.295300  -0.036722
     9  C    0.002056   0.001135  -0.000111  -0.000163  -0.041682   0.002644
    10  H   -0.000084   0.000096  -0.000007   0.000014  -0.003564   0.000182
    11  C   -0.000259  -0.000128   0.000006   0.000049   0.005790  -0.000206
    12  C   -0.000002   0.000000   0.000000  -0.000001  -0.000005   0.000002
    13  O   -0.000000  -0.000000   0.000000  -0.000000   0.000001  -0.000000
    14  O   -0.000001  -0.000000   0.000000   0.000000   0.000003  -0.000000
    15  C    0.000122  -0.000002  -0.000001  -0.000029  -0.000478  -0.000074
    16  O   -0.000000   0.000000   0.000000  -0.000000   0.000002   0.000000
    17  C   -0.000263   0.000014  -0.000004  -0.000052   0.007598   0.000963
    18  C    0.000000  -0.000000   0.000000   0.000015   0.000014   0.000036
    19  H   -0.000000  -0.000000   0.000000  -0.000000   0.000003   0.000000
    20  C   -0.000003   0.000000   0.000000  -0.000004  -0.000049   0.000087
    21  H    0.000000   0.000000  -0.000000  -0.000000  -0.000000  -0.000001
    22  C   -0.000001   0.000000   0.000001  -0.000033   0.000548  -0.000233
    23  C   -0.000001   0.000000   0.000000  -0.000003  -0.000003  -0.000043
    24  H   -0.000000   0.000000   0.000000  -0.000000  -0.000011   0.000057
    25  H    0.000000  -0.000000  -0.000000   0.000000   0.000000   0.000001
    26  H    0.000002  -0.000000  -0.000000   0.000003  -0.000006   0.000030
    27  N    0.000715  -0.000009  -0.000083   0.000572  -0.016814   0.021234
    28  C   -0.000039  -0.000134  -0.000066   0.003387  -0.035602  -0.003300
               7          8          9         10         11         12
     1  C   -0.037818  -0.057779   0.002056  -0.000084  -0.000259  -0.000002
     2  H   -0.006229   0.000235   0.001135   0.000096  -0.000128   0.000000
     3  H    0.002444   0.004115  -0.000111  -0.000007   0.000006   0.000000
     4  H    0.004561  -0.004241  -0.000163   0.000014   0.000049  -0.000001
     5  C    0.372073   0.295300  -0.041682  -0.003564   0.005790  -0.000005
     6  H   -0.038380  -0.036722   0.002644   0.000182  -0.000206   0.000002
     7  H    0.572283  -0.038751  -0.003329   0.004545   0.000752   0.000001
     8  N   -0.038751   7.011465   0.281413  -0.043360  -0.041164   0.002972
     9  C   -0.003329   0.281413   5.100573   0.359938   0.395657  -0.028510
    10  H    0.004545  -0.043360   0.359938   0.506919  -0.036905   0.000164
    11  C    0.000752  -0.041164   0.395657  -0.036905   5.847478   0.172118
    12  C    0.000001   0.002972  -0.028510   0.000164   0.172118   4.321132
    13  O   -0.000000  -0.000030   0.006750   0.000338  -0.139874   0.531887
    14  O   -0.000003   0.000525   0.015377   0.015329  -0.164492   0.581786
    15  C   -0.000046  -0.022478  -0.046026   0.001589   0.236863  -0.013783
    16  O   -0.000000  -0.000009   0.004878  -0.000025  -0.095070  -0.004960
    17  C   -0.000197  -0.077242  -0.031234  -0.000267  -0.059059   0.006391
    18  C    0.000005   0.005713  -0.000604   0.000018   0.019017  -0.000050
    19  H   -0.000000  -0.000049  -0.000042   0.000000   0.000833   0.000009
    20  C    0.000001   0.000487   0.000016  -0.000000  -0.000225   0.000001
    21  H   -0.000000   0.000016   0.000000   0.000000   0.000003  -0.000000
    22  C   -0.000016   0.002912  -0.000024   0.000001  -0.000064   0.000000
    23  C   -0.000001  -0.000228   0.000002  -0.000000   0.000000   0.000000
    24  H    0.000000   0.000000  -0.000000   0.000000   0.000000   0.000000
    25  H    0.000000   0.000002  -0.000000   0.000000   0.000000   0.000000
    26  H   -0.000000  -0.000007   0.000000  -0.000000   0.000000  -0.000000
    27  N    0.000727  -0.090750   0.002038  -0.000105  -0.001264  -0.000006
    28  C    0.002989   0.281570  -0.027050   0.002734  -0.048757   0.000080
              13         14         15         16         17         18
     1  C   -0.000000  -0.000001   0.000122  -0.000000  -0.000263   0.000000
     2  H   -0.000000  -0.000000  -0.000002   0.000000   0.000014  -0.000000
     3  H    0.000000   0.000000  -0.000001   0.000000  -0.000004   0.000000
     4  H   -0.000000   0.000000  -0.000029  -0.000000  -0.000052   0.000015
     5  C    0.000001   0.000003  -0.000478   0.000002   0.007598   0.000014
     6  H   -0.000000  -0.000000  -0.000074   0.000000   0.000963   0.000036
     7  H   -0.000000  -0.000003  -0.000046  -0.000000  -0.000197   0.000005
     8  N   -0.000030   0.000525  -0.022478  -0.000009  -0.077242   0.005713
     9  C    0.006750   0.015377  -0.046026   0.004878  -0.031234  -0.000604
    10  H    0.000338   0.015329   0.001589  -0.000025  -0.000267   0.000018
    11  C   -0.139874  -0.164492   0.236863  -0.095070  -0.059059   0.019017
    12  C    0.531887   0.581786  -0.013783  -0.004960   0.006391  -0.000050
    13  O    8.472667  -0.147461   0.005911  -0.011264   0.000646   0.000013
    14  O   -0.147461   8.331821   0.002003  -0.000026  -0.000092   0.000000
    15  C    0.005911   0.002003   4.695350   0.614391   0.219732  -0.059754
    16  O   -0.011264  -0.000026   0.614391   8.085631  -0.122503   0.008436
    17  C    0.000646  -0.000092   0.219732  -0.122503   5.320007   0.447048
    18  C    0.000013   0.000000  -0.059754   0.008436   0.447048   5.107150
    19  H    0.000002   0.000000  -0.007408   0.013631  -0.046736   0.363192
    20  C   -0.000000   0.000000   0.007668   0.001268  -0.023595   0.469005
    21  H    0.000000   0.000000  -0.000077   0.000001   0.004638  -0.043771
    22  C    0.000000  -0.000000   0.000516  -0.000016  -0.032666  -0.038211
    23  C    0.000000   0.000000   0.000008  -0.000000   0.001206   0.005497
    24  H    0.000000  -0.000000  -0.000000  -0.000000   0.000015  -0.000162
    25  H    0.000000   0.000000  -0.000001   0.000000  -0.000025   0.000504
    26  H   -0.000000   0.000000  -0.000000   0.000000   0.000016  -0.000177
    27  N   -0.000000   0.000000   0.009382  -0.000076  -0.051136  -0.065836
    28  C   -0.000052   0.000024   0.010198   0.004523   0.402422  -0.090361
              19         20         21         22         23         24
     1  C   -0.000000  -0.000003   0.000000  -0.000001  -0.000001  -0.000000
     2  H   -0.000000   0.000000   0.000000   0.000000   0.000000   0.000000
     3  H    0.000000   0.000000  -0.000000   0.000001   0.000000   0.000000
     4  H   -0.000000  -0.000004  -0.000000  -0.000033  -0.000003  -0.000000
     5  C    0.000003  -0.000049  -0.000000   0.000548  -0.000003  -0.000011
     6  H    0.000000   0.000087  -0.000001  -0.000233  -0.000043   0.000057
     7  H   -0.000000   0.000001  -0.000000  -0.000016  -0.000001   0.000000
     8  N   -0.000049   0.000487   0.000016   0.002912  -0.000228   0.000000
     9  C   -0.000042   0.000016   0.000000  -0.000024   0.000002  -0.000000
    10  H    0.000000  -0.000000   0.000000   0.000001  -0.000000   0.000000
    11  C    0.000833  -0.000225   0.000003  -0.000064   0.000000   0.000000
    12  C    0.000009   0.000001  -0.000000   0.000000   0.000000   0.000000
    13  O    0.000002  -0.000000   0.000000   0.000000   0.000000   0.000000
    14  O    0.000000   0.000000   0.000000  -0.000000   0.000000  -0.000000
    15  C   -0.007408   0.007668  -0.000077   0.000516   0.000008  -0.000000
    16  O    0.013631   0.001268   0.000001  -0.000016  -0.000000  -0.000000
    17  C   -0.046736  -0.023595   0.004638  -0.032666   0.001206   0.000015
    18  C    0.363192   0.469005  -0.043771  -0.038211   0.005497  -0.000162
    19  H    0.547207  -0.041798  -0.004722   0.004619  -0.000215   0.000003
    20  C   -0.041798   5.036032   0.346920   0.534278  -0.071218   0.003280
    21  H   -0.004722   0.346920   0.598546  -0.040115  -0.007765   0.000237
    22  C    0.004619   0.534278  -0.040115   4.574274   0.372181  -0.021887
    23  C   -0.000215  -0.071218  -0.007765   0.372181   5.210083   0.354417
    24  H    0.000003   0.003280   0.000237  -0.021887   0.354417   0.544916
    25  H    0.000002   0.002628   0.005606  -0.040282   0.358823  -0.021785
    26  H    0.000003  -0.001467  -0.000159  -0.022035   0.371453  -0.026728
    27  N   -0.000345  -0.035608   0.006422   0.435922  -0.084183   0.000685
    28  C    0.004412  -0.028123   0.001038  -0.051398   0.002441   0.000040
              25         26         27         28
     1  C    0.000000   0.000002   0.000715  -0.000039
     2  H   -0.000000  -0.000000  -0.000009  -0.000134
     3  H   -0.000000  -0.000000  -0.000083  -0.000066
     4  H    0.000000   0.000003   0.000572   0.003387
     5  C    0.000000  -0.000006  -0.016814  -0.035602
     6  H    0.000001   0.000030   0.021234  -0.003300
     7  H    0.000000  -0.000000   0.000727   0.002989
     8  N    0.000002  -0.000007  -0.090750   0.281570
     9  C   -0.000000   0.000000   0.002038  -0.027050
    10  H    0.000000  -0.000000  -0.000105   0.002734
    11  C    0.000000   0.000000  -0.001264  -0.048757
    12  C    0.000000  -0.000000  -0.000006   0.000080
    13  O    0.000000  -0.000000  -0.000000  -0.000052
    14  O    0.000000   0.000000   0.000000   0.000024
    15  C   -0.000001  -0.000000   0.009382   0.010198
    16  O    0.000000   0.000000  -0.000076   0.004523
    17  C   -0.000025   0.000016  -0.051136   0.402422
    18  C    0.000504  -0.000177  -0.065836  -0.090361
    19  H    0.000002   0.000003  -0.000345   0.004412
    20  C    0.002628  -0.001467  -0.035608  -0.028123
    21  H    0.005606  -0.000159   0.006422   0.001038
    22  C   -0.040282  -0.022035   0.435922  -0.051398
    23  C    0.358823   0.371453  -0.084183   0.002441
    24  H   -0.021785  -0.026728   0.000685   0.000040
    25  H    0.566532  -0.033177   0.004795  -0.000128
    26  H   -0.033177   0.534756  -0.002369   0.000448
    27  N    0.004795  -0.002369   7.007805   0.431263
    28  C   -0.000128   0.000448   0.431263   4.667132
 Mulliken charges:
               1
     1  C   -0.445354
     2  H    0.158570
     3  H    0.158409
     4  H    0.165263
     5  C   -0.159945
     6  H    0.182792
     7  H    0.164388
     8  N   -0.473916
     9  C    0.006300
    10  H    0.192449
    11  C   -0.091099
    12  C    0.430773
    13  O   -0.719534
    14  O   -0.634793
    15  C    0.346426
    16  O   -0.498811
    17  C    0.034373
    18  C   -0.126740
    19  H    0.167397
    20  C   -0.199581
    21  H    0.133183
    22  C    0.321730
    23  C   -0.512453
    24  H    0.166922
    25  H    0.156504
    26  H    0.179415
    27  N   -0.572977
    28  C    0.470310
 Sum of Mulliken charges =  -1.00000
 Mulliken charges with hydrogens summed into heavy atoms:
               1
     1  C    0.036887
     5  C    0.187236
     8  N   -0.473916
     9  C    0.198749
    11  C   -0.091099
    12  C    0.430773
    13  O   -0.719534
    14  O   -0.634793
    15  C    0.346426
    16  O   -0.498811
    17  C    0.034373
    18  C    0.040657
    20  C   -0.066398
    22  C    0.321730
    23  C   -0.009612
    27  N   -0.572977
    28  C    0.470310
 Electronic spatial extent (au):  <R**2>=           4198.0187
 Charge=             -1.0000 electrons
 Dipole moment (field-independent basis, Debye):
    X=             21.7669    Y=              6.2344    Z=              0.2213  Tot=             22.6432
 Quadrupole moment (field-independent basis, Debye-Ang):
   XX=           -176.4990   YY=           -102.3836   ZZ=            -98.5906
   XY=            -18.7771   XZ=             -2.2232   YZ=              3.0413
 Traceless Quadrupole moment (field-independent basis, Debye-Ang):
   XX=            -50.6746   YY=             23.4408   ZZ=             27.2338
   XY=            -18.7771   XZ=             -2.2232   YZ=              3.0413
 Octapole moment (field-independent basis, Debye-Ang**2):
  XXX=            360.2036  YYY=             43.8187  ZZZ=             -0.0841  XYY=             47.6937
  XXY=             26.9649  XXZ=             17.8757  XZZ=             -2.2147  YZZ=              2.8331
  YYZ=             -5.4458  XYZ=            -10.4367
 Hexadecapole moment (field-independent basis, Debye-Ang**3):
 XXXX=          -4800.4200 YYYY=          -1585.3686 ZZZZ=           -281.3222 XXXY=           -155.6139
 XXXZ=            -95.4829 YYYX=            -71.7368 YYYZ=             -4.7625 ZZZX=             -5.0710
 ZZZY=             -7.4934 XXYY=           -982.0625 XXZZ=           -652.5760 YYZZ=           -323.5523
 XXYZ=             35.6134 YYXZ=             20.0372 ZZXY=              7.4702
 N-N= 1.172932678664D+03 E-N=-4.227120258147D+03  KE= 7.926999782934D+02
 No NMR shielding tensors so no spin-rotation constants.
 Leave Link  601 at Mon Jul 12 12:23:21 2021, MaxMem=   104857600 cpu:               0.5 elap:               0.2
 (Enter /dades/curu/g16A03_MST/g16/l701.exe)
 ... and contract with generalized density number  0.
 Compute integral first derivatives.
 D1PCM: PCM CHGder 1st derivatives, ID1Alg=3 FixD1E=F DoIter=F DoCFld=F I1PDM=0.
 GePol: Maximum number of non-zero 1st derivatives   =     237
 Leave Link  701 at Mon Jul 12 12:23:25 2021, MaxMem=   104857600 cpu:              15.6 elap:               4.0
 (Enter /dades/curu/g16A03_MST/g16/l702.exe)
 L702 exits ... SP integral derivatives will be done elsewhere.
 Leave Link  702 at Mon Jul 12 12:23:25 2021, MaxMem=   104857600 cpu:               0.0 elap:               0.0
 (Enter /dades/curu/g16A03_MST/g16/l703.exe)
 Integral derivatives from FoFJK, PRISM(SPDF).
 Compute integral first derivatives, UseDBF=F ICtDFT=           0.
 Calling FoFJK, ICntrl=      2127 FMM=F ISym2X=0 I1Cent= 0 IOpClX= 0 NMat=1 NMatS=1 NMatT=0.
 FoFJK:  IHMeth= 1 ICntrl=    2127 DoSepK=F KAlg= 0 I1Cent=           0 FoldK=F
 IRaf=         0 NMat=       1 IRICut=       1 DoRegI=T DoRafI=F ISym2E= 0 IDoP0=0 IntGTp=1.
 FoFCou: FMM=F IPFlag=           0 FMFlag=      100000 FMFlg1=         800
         NFxFlg=           0 DoJE=F BraDBF=F KetDBF=F FulRan=T
         wScrn=  0.000000 ICntrl=      2127 IOpCl=  0 I1Cent=           0 NGrid=           0
         NMat0=    1 NMatS0=      1 NMatT0=    0 NMatD0=    1 NMtDS0=    0 NMtDT0=    0
 Symmetry not used in FoFCou.
 Leave Link  703 at Mon Jul 12 12:23:52 2021, MaxMem=   104857600 cpu:             107.6 elap:              26.9
 (Enter /dades/curu/g16A03_MST/g16/l716.exe)
 Dipole        = 8.56375110D+00 2.45282090D+00 8.70659990D-02
 ***** Axes restored to original set *****
 -------------------------------------------------------------------
 Center     Atomic                   Forces (Hartrees/Bohr)
 Number     Number              X              Y              Z
 -------------------------------------------------------------------
      1        6          -0.016454775    0.016765510    0.008519928
      2        1          -0.008918393   -0.001487358   -0.006281722
      3        1           0.005238019   -0.011271535    0.007306401
      4        1           0.010393242    0.000139557    0.004639854
      5        6           0.032303231   -0.003290442   -0.026824394
      6        1          -0.003218728   -0.012163230   -0.004861829
      7        1          -0.013585172    0.005041623    0.006102870
      8        7           0.002946463    0.074408998   -0.008407068
      9        6          -0.011962730   -0.080643487    0.026245642
     10        1          -0.009002562   -0.003176419    0.005007754
     11        6           0.018313732    0.042176296   -0.004909986
     12        6          -0.060912589   -0.089987068   -0.011027404
     13        8           0.020323641   -0.007774055    0.002683632
     14        8           0.017055842    0.101773490   -0.002360860
[...]
 Alpha virt. eigenvalues --    0.76852   0.77157   0.77458   0.77724   0.79021
 Alpha virt. eigenvalues --    0.79209   0.79348   0.79979   0.80336   0.80803
 Alpha virt. eigenvalues --    0.81052   0.82289   0.82517   0.83126   0.83995
 Alpha virt. eigenvalues --    0.84338   0.84549   0.85170   0.85451   0.86225
 Alpha virt. eigenvalues --    0.86587   0.87236   0.87559   0.88533   0.89413
 Alpha virt. eigenvalues --    0.89965   0.90387   0.90926   0.91140   0.91549
 Alpha virt. eigenvalues --    0.92297   0.93490   0.94510   0.94881   0.95903
 Alpha virt. eigenvalues --    0.96400   0.97512   0.97861   0.98565   0.98924
 Alpha virt. eigenvalues --    0.99742   1.00011   1.01032   1.01761   1.01858
 Alpha virt. eigenvalues --    1.02313   1.02352   1.03237   1.04895   1.05186
 Alpha virt. eigenvalues --    1.05340   1.06246   1.06687   1.07055   1.07152
 Alpha virt. eigenvalues --    1.08325   1.08989   1.09788   1.10759   1.11345
 Alpha virt. eigenvalues --    1.12347   1.12773   1.13118   1.13629   1.14120
 Alpha virt. eigenvalues --    1.14720   1.16222   1.17118   1.17762   1.17984
 Alpha virt. eigenvalues --    1.19277   1.20111   1.20669   1.22099   1.22737
 Alpha virt. eigenvalues --    1.22863   1.25295   1.25438   1.25584   1.26699
 Alpha virt. eigenvalues --    1.27010   1.27487   1.28040   1.29917   1.30949
 Alpha virt. eigenvalues --    1.31180   1.32106   1.33411   1.34047   1.35836
 Alpha virt. eigenvalues --    1.37076   1.37868   1.38805   1.39229   1.40443
 Alpha virt. eigenvalues --    1.41304   1.43084   1.43656   1.46003   1.46391
 Alpha virt. eigenvalues --    1.48538   1.49450   1.50438   1.52153   1.52790
 Alpha virt. eigenvalues --    1.52833   1.53891   1.54111   1.55852   1.56656
 Alpha virt. eigenvalues --    1.58281   1.58989   1.59972   1.60557   1.61464
 Alpha virt. eigenvalues --    1.61660   1.64196   1.65442   1.66318   1.66823
 Alpha virt. eigenvalues --    1.67539   1.68658   1.70092   1.71023   1.72336
 Alpha virt. eigenvalues --    1.73402   1.74646   1.76076   1.76766   1.77438
 Alpha virt. eigenvalues --    1.78447   1.79920   1.80441   1.81615   1.82126
 Alpha virt. eigenvalues --    1.82614   1.82894   1.84472   1.85283   1.86034
 Alpha virt. eigenvalues --    1.86426   1.88020   1.88446   1.89076   1.90454
 Alpha virt. eigenvalues --    1.91608   1.92648   1.93270   1.94427   1.95689
 Alpha virt. eigenvalues --    1.96265   1.96651   1.97286   1.97584   1.98666
 Alpha virt. eigenvalues --    1.99161   1.99963   2.00387   2.01900   2.02660
 Alpha virt. eigenvalues --    2.03674   2.04170   2.04742   2.05120   2.06593
 Alpha virt. eigenvalues --    2.07984   2.08460   2.10054   2.10430   2.12293
 Alpha virt. eigenvalues --    2.13891   2.14444   2.15940   2.16565   2.17604
 Alpha virt. eigenvalues --    2.19428   2.20998   2.21145   2.22162   2.23273
 Alpha virt. eigenvalues --    2.24105   2.25081   2.25278   2.26572   2.27587
 Alpha virt. eigenvalues --    2.27987   2.28804   2.30713   2.31171   2.33395
 Alpha virt. eigenvalues --    2.34159   2.34756   2.35556   2.35806   2.36727
 Alpha virt. eigenvalues --    2.37489   2.38194   2.40013   2.40326   2.40910
 Alpha virt. eigenvalues --    2.42730   2.43952   2.45307   2.46281   2.47210
 Alpha virt. eigenvalues --    2.47586   2.49733   2.51064   2.51612   2.52763
 Alpha virt. eigenvalues --    2.53557   2.54768   2.55544   2.56243   2.58904
 Alpha virt. eigenvalues --    2.59371   2.60726   2.62268   2.62813   2.64471
 Alpha virt. eigenvalues --    2.64752   2.66249   2.68661   2.68894   2.70550
 Alpha virt. eigenvalues --    2.71458   2.73405   2.74384   2.76231   2.77572
 Alpha virt. eigenvalues --    2.78963   2.81506   2.81809   2.82685   2.85662
 Alpha virt. eigenvalues --    2.86708   2.88862   2.91168   2.92501   2.94168
 Alpha virt. eigenvalues --    2.94903   2.96763   2.97737   2.98551   2.99680
 Alpha virt. eigenvalues --    3.01319   3.02498   3.04022   3.05409   3.09695
 Alpha virt. eigenvalues --    3.12408   3.13909   3.14684   3.16351   3.20595
 Alpha virt. eigenvalues --    3.21190   3.22339   3.23724   3.27113   3.31035
 Alpha virt. eigenvalues --    3.33344   3.34472   3.37164   3.39954   3.44923
 Alpha virt. eigenvalues --    3.48953   3.53012   3.54079   3.56480   3.62986
 Alpha virt. eigenvalues --    3.70280   3.78681   3.80588   3.89143   3.93578
 Alpha virt. eigenvalues --    3.94337   3.97629   3.98551   4.00442   4.02757
 Alpha virt. eigenvalues --    4.03161   4.05220   4.07013   4.10496   4.13653
 Alpha virt. eigenvalues --    4.16772   4.23321   4.23719   4.28477   4.34945
 Alpha virt. eigenvalues --    4.40088   4.42249   4.50376   4.82203
          Condensed to atoms (all electrons):
               1          2          3          4          5          6
     1  C    4.325417   0.350886   0.323183   0.388648   0.314769  -0.050384
     2  H    0.350886   1.175845  -0.192978  -0.134824  -0.129636   0.089878
     3  H    0.323183  -0.192978   1.206164  -0.159880  -0.013820  -0.063055
     4  H    0.388648  -0.134824  -0.159880   0.988322  -0.014072  -0.059900
     5  C    0.314769  -0.129636  -0.013820  -0.014072   5.367427   0.150805
     6  H   -0.050384   0.089878  -0.063055  -0.059900   0.150805   1.550997
     7  H   -0.159506  -0.063354  -0.083018   0.087191   0.287182  -0.373394
     8  N    0.055457  -0.029276   0.119005  -0.075456   0.183685  -0.351421
     9  C   -0.265552  -0.102528   0.063781   0.027113  -0.410548  -0.377172
    10  H   -0.008842  -0.027379   0.011572   0.002338  -0.004894  -0.003905
    11  C    0.046772   0.007186   0.009483  -0.007405  -0.147458   0.114381
    12  C   -0.008489   0.000457  -0.000541   0.000570  -0.023379  -0.002929
    13  O   -0.000596   0.000031  -0.000018  -0.000036   0.003463   0.000102
    14  O   -0.005393   0.002751  -0.000428  -0.000593  -0.003357   0.000441
    15  C    0.012985   0.000190  -0.002651   0.011742   0.140670   0.002907
    16  O    0.000703   0.000575   0.000008  -0.000187  -0.005106  -0.000001
    17  C   -0.015114  -0.012210   0.006560  -0.023880  -0.277083  -0.237769
    18  C   -0.011686  -0.004582  -0.001794   0.023220   0.278580  -0.017659
    19  H    0.000200  -0.000266  -0.000044   0.000331  -0.001856  -0.000323
    20  C    0.033946   0.001934   0.006496  -0.019260  -0.159367  -0.000537
    21  H   -0.000835   0.000149   0.000051  -0.000264   0.007222   0.001498
    22  C    0.028632  -0.008511  -0.031449   0.082996   0.020066   0.109531
    23  C   -0.009643  -0.002581  -0.003052   0.007540  -0.009586  -0.015294
    24  H    0.000955  -0.000248  -0.000154   0.001920  -0.002643  -0.003058
    25  H   -0.000797   0.000006  -0.000223   0.000270   0.000598   0.000140
    26  H    0.001258  -0.000248  -0.000293  -0.000552  -0.002934   0.001496
    27  N    0.076246   0.003227  -0.034398   0.066200  -0.139927   0.045757
    28  C    0.033927   0.165795  -0.062008  -0.120380  -0.016594   0.674742
               7          8          9         10         11         12
     1  C   -0.159506   0.055457  -0.265552  -0.008842   0.046772  -0.008489
     2  H   -0.063354  -0.029276  -0.102528  -0.027379   0.007186   0.000457
     3  H   -0.083018   0.119005   0.063781   0.011572   0.009483  -0.000541
     4  H    0.087191  -0.075456   0.027113   0.002338  -0.007405   0.000570
     5  C    0.287182   0.183685  -0.410548  -0.004894  -0.147458  -0.023379
     6  H   -0.373394  -0.351421  -0.377172  -0.003905   0.114381  -0.002929
     7  H    1.790333  -0.433783   0.669041  -0.032301  -0.208730   0.006154
     8  N   -0.433783  10.476541  -0.089406  -0.263947   0.054579  -0.129221
     9  C    0.669041  -0.089406  23.440869  -0.772178  -4.226762  -0.483676
    10  H   -0.032301  -0.263947  -0.772178   2.376675   0.370023   0.132622
    11  C   -0.208730   0.054579  -4.226762   0.370023  12.049306  -0.834970
    12  C    0.006154  -0.129221  -0.483676   0.132622  -0.834970   7.056301
    13  O    0.000523  -0.002287  -0.105417   0.004624  -0.028683   0.263386
    14  O    0.004151  -0.131298   0.289561  -0.011745  -0.019354   0.144956
    15  C    0.031394  -0.475894  -2.135995   0.154927  -2.635989  -0.683457
    16  O   -0.000529   0.012115   0.065354  -0.005977   0.042799  -0.093889
    17  C    0.122387   0.180418   4.786090   0.032463  -1.343154   0.198018
    18  C    0.041597  -0.036315  -0.607667  -0.053851  -1.074331  -0.058940
    19  H    0.000496  -0.019515   0.011171   0.001547  -0.050708   0.000777
    20  C   -0.025028   0.542267   1.267878   0.035478  -0.771715   0.017648
    21  H    0.000256  -0.024219  -0.023833  -0.000747   0.013072  -0.000192
    22  C    0.013418  -1.442847  -2.367067  -0.033243   0.649879  -0.022346
    23  C    0.004264  -0.015541  -0.027773   0.001928   0.034206   0.000741
    24  H    0.000403  -0.018235  -0.012062   0.000064   0.002026   0.000032
    25  H    0.000280   0.014452   0.007344   0.000192  -0.000237   0.000054
    26  H   -0.000424  -0.011923  -0.008119   0.000121   0.000743  -0.000047
    27  N    0.069676  -0.396310  -0.788440  -0.060980   0.044449  -0.036106
    28  C   -0.476353  -0.371942 -12.507983  -0.097694   3.534210  -0.303318
              13         14         15         16         17         18
     1  C   -0.000596  -0.005393   0.012985   0.000703  -0.015114  -0.011686
     2  H    0.000031   0.002751   0.000190   0.000575  -0.012210  -0.004582
     3  H   -0.000018  -0.000428  -0.002651   0.000008   0.006560  -0.001794
     4  H   -0.000036  -0.000593   0.011742  -0.000187  -0.023880   0.023220
     5  C    0.003463  -0.003357   0.140670  -0.005106  -0.277083   0.278580
     6  H    0.000102   0.000441   0.002907  -0.000001  -0.237769  -0.017659
     7  H    0.000523   0.004151   0.031394  -0.000529   0.122387   0.041597
     8  N   -0.002287  -0.131298  -0.475894   0.012115   0.180418  -0.036315
     9  C   -0.105417   0.289561  -2.135995   0.065354   4.786090  -0.607667
    10  H    0.004624  -0.011745   0.154927  -0.005977   0.032463  -0.053851
    11  C   -0.028683  -0.019354  -2.635989   0.042799  -1.343154  -1.074331
    12  C    0.263386   0.144956  -0.683457  -0.093889   0.198018  -0.058940
    13  O    8.897796  -0.120683   0.140707  -0.060826  -0.076317   0.000652
    14  O   -0.120683   9.055974  -0.042432  -0.004357   0.031138  -0.002523
    15  C    0.140707  -0.042432  16.998582   0.040479  -2.891806  -3.010692
    16  O   -0.060826  -0.004357   0.040479   9.212774   0.060891  -0.001416
    17  C   -0.076317   0.031138  -2.891806   0.060891  22.714364  -8.372587
    18  C    0.000652  -0.002523  -3.010692  -0.001416  -8.372587  26.329039
    19  H    0.004280   0.000386   0.044607  -0.083328   1.168554  -1.795289
    20  C   -0.010034   0.000783  -0.113004  -0.191482  -0.621102  -4.828518
    21  H   -0.000258  -0.000023  -0.037543  -0.002499  -0.049316   1.232465
    22  C    0.005051  -0.004812   0.044233   0.063057  -2.077849   1.401253
    23  C    0.000033   0.000079  -0.096239   0.008340   0.449393  -0.192010
    24  H    0.000010  -0.000016   0.000627   0.000140   0.032354  -0.020507
    25  H    0.000001   0.000008  -0.001680   0.000778  -0.037925  -0.038583
    26  H    0.000009  -0.000011   0.001542   0.000237   0.055419  -0.041228
    27  N    0.001675  -0.005537   0.304048  -0.006565   0.224682  -0.500665
    28  C    0.057161  -0.146494   0.037420  -0.079296  -9.597979  -2.272844
              19         20         21         22         23         24
     1  C    0.000200   0.033946  -0.000835   0.028632  -0.009643   0.000955
     2  H   -0.000266   0.001934   0.000149  -0.008511  -0.002581  -0.000248
     3  H   -0.000044   0.006496   0.000051  -0.031449  -0.003052  -0.000154
     4  H    0.000331  -0.019260  -0.000264   0.082996   0.007540   0.001920
     5  C   -0.001856  -0.159367   0.007222   0.020066  -0.009586  -0.002643
     6  H   -0.000323  -0.000537   0.001498   0.109531  -0.015294  -0.003058
     7  H    0.000496  -0.025028   0.000256   0.013418   0.004264   0.000403
     8  N   -0.019515   0.542267  -0.024219  -1.442847  -0.015541  -0.018235
     9  C    0.011171   1.267878  -0.023833  -2.367067  -0.027773  -0.012062
    10  H    0.001547   0.035478  -0.000747  -0.033243   0.001928   0.000064
    11  C   -0.050708  -0.771715   0.013072   0.649879   0.034206   0.002026
    12  C    0.000777   0.017648  -0.000192  -0.022346   0.000741   0.000032
    13  O    0.004280  -0.010034  -0.000258   0.005051   0.000033   0.000010
    14  O    0.000386   0.000783  -0.000023  -0.004812   0.000079  -0.000016
    15  C    0.044607  -0.113004  -0.037543   0.044233  -0.096239   0.000627
    16  O   -0.083328  -0.191482  -0.002499   0.063057   0.008340   0.000140
    17  C    1.168554  -0.621102  -0.049316  -2.077849   0.449393   0.032354
    18  C   -1.795289  -4.828518   1.232465   1.401253  -0.192010  -0.020507
    19  H    2.106758   0.789899  -0.122515  -0.222709   0.044082   0.001624
    20  C    0.789899  17.210365  -1.528402  -3.666260  -0.462949   0.055629
    21  H   -0.122515  -1.528402   2.112879   0.212709  -0.028998  -0.005643
    22  C   -0.222709  -3.666260   0.212709  12.596900   0.081577   0.126093
    23  C    0.044082  -0.462949  -0.028998   0.081577   5.579976   0.349344
    24  H    0.001624   0.055629  -0.005643   0.126093   0.349344   0.779288
    25  H    0.001732  -0.185342  -0.046305   0.129475   0.011739  -0.109259
    26  H    0.001353   0.058433  -0.004220   0.054733   0.357743  -0.090501
    27  N    0.021325  -0.060635  -0.081162   0.450439  -0.146473  -0.086329
    28  C   -0.220875  -2.067165  -0.035873   0.043912  -0.597070  -0.093194
              25         26         27         28
     1  C   -0.000797   0.001258   0.076246   0.033927
     2  H    0.000006  -0.000248   0.003227   0.165795
     3  H   -0.000223  -0.000293  -0.034398  -0.062008
     4  H    0.000270  -0.000552   0.066200  -0.120380
     5  C    0.000598  -0.002934  -0.139927  -0.016594
     6  H    0.000140   0.001496   0.045757   0.674742
     7  H    0.000280  -0.000424   0.069676  -0.476353
     8  N    0.014452  -0.011923  -0.396310  -0.371942
     9  C    0.007344  -0.008119  -0.788440 -12.507983
    10  H    0.000192   0.000121  -0.060980  -0.097694
    11  C   -0.000237   0.000743   0.044449   3.534210
    12  C    0.000054  -0.000047  -0.036106  -0.303318
    13  O    0.000001   0.000009   0.001675   0.057161
    14  O    0.000008  -0.000011  -0.005537  -0.146494
    15  C   -0.001680   0.001542   0.304048   0.037420
    16  O    0.000778   0.000237  -0.006565  -0.079296
    17  C   -0.037925   0.055419   0.224682  -9.597979
    18  C   -0.038583  -0.041228  -0.500665  -2.272844
    19  H    0.001732   0.001353   0.021325  -0.220875
    20  C   -0.185342   0.058433  -0.060635  -2.067165
    21  H   -0.046305  -0.004220  -0.081162  -0.035873
    22  C    0.129475   0.054733   0.450439   0.043912
    23  C    0.011739   0.357743  -0.146473  -0.597070
    24  H   -0.109259  -0.090501  -0.086329  -0.093194
    25  H    1.107140  -0.108488   0.205279   0.178430
    26  H   -0.108488   0.774365  -0.033038  -0.085095
    27  N    0.205279  -0.033038   8.825173  -0.236816
    28  C    0.178430  -0.085095  -0.236816  30.518541
 Mulliken charges:
               1
     1  C    0.542852
     2  H   -0.090289
     3  H   -0.096498
     4  H   -0.071715
     5  C    0.607794
     6  H   -0.185873
     7  H   -0.272326
     8  N   -0.319682
     9  C    0.683974
    10  H   -0.746890
    11  C    0.376384
    12  C    0.859783
    13  O   -0.974349
    14  O   -1.031172
    15  C    0.160323
    16  O   -0.972791
    17  C    1.571360
    18  C   -0.363119
    19  H   -0.681693
    20  C    0.690041
    21  H   -0.587453
    22  C   -0.236861
    23  C    0.676225
    24  H    0.091342
    25  H   -0.129077
    26  H    0.079670
    27  N   -0.724797
    28  C    0.144838
 Sum of Mulliken charges =  -1.00000
 Mulliken charges with hydrogens summed into heavy atoms:
               1
     1  C    0.284350
     5  C    0.149595
     8  N   -0.319682
     9  C   -0.062916
    11  C    0.376384
    12  C    0.859783
    13  O   -0.974349
    14  O   -1.031172
    15  C    0.160323
    16  O   -0.972791
    17  C    1.571360
    18  C   -1.044812
    20  C    0.102588
    22  C   -0.236861
    23  C    0.718160
    27  N   -0.724797
    28  C    0.144838
 Electronic spatial extent (au):  <R**2>=           4313.2630
 Charge=             -1.0000 electrons
 Dipole moment (field-independent basis, Debye):
    X=             19.4476    Y=              4.3766    Z=             -0.2060  Tot=             19.9350
 Quadrupole moment (field-independent basis, Debye-Ang):
   XX=           -183.0594   YY=           -113.6601   ZZ=           -103.4880
   XY=            -11.7882   XZ=             -0.6942   YZ=              0.9025
 Traceless Quadrupole moment (field-independent basis, Debye-Ang):
   XX=            -49.6569   YY=             19.7424   ZZ=             29.9145
   XY=            -11.7882   XZ=             -0.6942   YZ=              0.9025
 Octapole moment (field-independent basis, Debye-Ang**2):
  XXX=            352.0118  YYY=             34.3681  ZZZ=             -0.8828  XYY=             52.4331
  XXY=              6.1968  XXZ=              7.3769  XZZ=             -6.6216  YZZ=              3.7620
  YYZ=             -6.0884  XYZ=             -5.9719
 Hexadecapole moment (field-independent basis, Debye-Ang**3):
 XXXX=          -5315.0002 YYYY=          -1808.8338 ZZZZ=           -203.1541 XXXY=            -51.8336
 XXXZ=            -39.1041 YYYX=            -76.3522 YYYZ=            -14.3763 ZZZX=             -6.1770
 ZZZY=             -4.3275 XXYY=          -1112.0554 XXZZ=           -690.5186 YYZZ=           -344.2263
 XXYZ=             11.9446 YYXZ=              7.8476 ZZXY=             14.3100
 N-N= 1.162868351559D+03 E-N=-4.203270637038D+03  KE= 7.934725240438D+02
 Leave Link  601 at Mon Jul 12 15:05:08 2021, MaxMem=   262144000 cpu:               0.4 elap:               0.9
 (Enter /dades/curu/g16A03_MST/g16/l9999.exe)
 1\1\GINC-PIRINEUS27\SP\RMP2-FC\Aug-CC-pVDZ\C12H11N2O3(1-)\UBATOR02\12-
 Jul-2021\0\\#p mp2/aug-cc-pVDZ scf=tight maxdisk=180GB geom=allcheck\\
 SET_328_BBB282_conf1.geo_000_270 geometry\\-1,1\C,0,0.9418621596,2.150
 8321334,2.0600961463\H,0,-0.0382002215,2.3412941134,2.5058393725\H,0,1
 .6233947992,2.9437259699,2.3819435904\H,0,1.3199392971,1.1976794376,2.
 4383679152\C,0,0.8575727768,2.1290095958,0.5366922355\H,0,1.8346045075
 ,1.9224258673,0.1035089335\H,0,0.4983657808,3.0854512145,0.1532944864\
 N,0,-0.0691330223,1.1054196347,0.032539998\C,0,-1.3568496342,1.4379772
 075,-0.2618469295\H,0,-1.6133707902,2.480553879,-0.1297960628\C,0,-2.3
 375462645,0.5943400624,-0.7106733975\C,0,-3.6903014087,1.2518120538,-1
 .0162566678\O,0,-4.5975963919,0.5392421979,-1.5135183211\O,0,-3.771439
 0705,2.4874982889,-0.7475780016\C,0,-2.0167465804,-0.8222371293,-0.873
 5040781\O,0,-2.7898289422,-1.7241792373,-1.2228423233\C,0,-0.598580133
 ,-1.1587890776,-0.5720413091\C,0,-0.134135617,-2.4689785603,-0.7252729
 336\H,0,-0.8467650752,-3.2127705857,-1.0649824121\C,0,1.1879596224,-2.
 7733510619,-0.4473372707\H,0,1.5696504974,-3.7820795377,-0.5604554448\
 C,0,2.0443859102,-1.747820812,-0.0099003332\C,0,3.4926618882,-2.020161
 3419,0.3002042565\H,0,4.1424924452,-1.4280646165,-0.3520046505\H,0,3.7
 354402859,-3.0760859087,0.1661734568\H,0,3.7256939813,-1.7346178909,1.
 3304625079\N,0,1.6254236759,-0.4886769343,0.1501678767\C,0,0.343045524
 1,-0.2074489619,-0.1272806401\\Version=ES64L-G16RevA.03\State=1-A\HF=-
 794.4693057\MP2=-797.0460611\RMSD=5.633e-09\PG=C01 [X(C12H11N2O3)]\\@


 ONLY A FOOL KNOWS EVERYTHING.

               -- THE CHEMIST ANALYST, SEPTEMBER 1946
 Job cpu time:       0 days  2 hours 12 minutes 37.8 seconds.
 Elapsed time:       0 days  0 hours 41 minutes 21.1 seconds.
 File lengths (MBytes):  RWF=  55798 Int=      0 D2E=      0 Chk=     20 Scr=      1
 Normal termination of Gaussian 16 at Mon Jul 12 15:05:10 2021.
