 Entering Gaussian System, Link 0=g16
 Input=SET_328_BBB285_conf1.geo_300_075_OCTANOL.dat
 Output=SET_328_BBB285_conf1.geo_300_075_OCTANOL.log
 Initial command:
 /dades/curu/g16A03_MST/g16/l1.exe "/tmp/ubator02/1835287/Gau-121772.inp" -scrdir="/tmp/ubator02/1835287/"
 Entering Link 1 = /dades/curu/g16A03_MST/g16/l1.exe PID=    121774.
  
 Copyright (c) 1988,1990,1992,1993,1995,1998,2003,2009,2016,
            Gaussian, Inc.  All Rights Reserved.
  
 This is part of the Gaussian(R) 16 program.  It is based on
 the Gaussian(R) 09 system (copyright 2009, Gaussian, Inc.),
 the Gaussian(R) 03 system (copyright 2003, Gaussian, Inc.),
 the Gaussian(R) 98 system (copyright 1998, Gaussian, Inc.),
 the Gaussian(R) 94 system (copyright 1995, Gaussian, Inc.),
 the Gaussian 92(TM) system (copyright 1992, Gaussian, Inc.),
 the Gaussian 90(TM) system (copyright 1990, Gaussian, Inc.),
 the Gaussian 88(TM) system (copyright 1988, Gaussian, Inc.),
 the Gaussian 86(TM) system (copyright 1986, Carnegie Mellon
 University), and the Gaussian 82(TM) system (copyright 1983,
 Carnegie Mellon University). Gaussian is a federally registered
 trademark of Gaussian, Inc.
  
 This software contains proprietary and confidential information,
 including trade secrets, belonging to Gaussian, Inc.
  
 This software is provided under written license and may be
 used, copied, transmitted, or stored only in accord with that
 written license.
  
 The following legend is applicable only to US Government
 contracts under FAR:
  
                    RESTRICTED RIGHTS LEGEND
  
 Use, reproduction and disclosure by the US Government is
 subject to restrictions as set forth in subparagraphs (a)
 and (c) of the Commercial Computer Software - Restricted
 Rights clause in FAR 52.227-19.
  
 Gaussian, Inc.
 340 Quinnipiac St., Bldg. 40, Wallingford CT 06492
  
  
 ---------------------------------------------------------------
 Warning -- This program may not be used in any manner that
 competes with the business of Gaussian, Inc. or will provide
 assistance to any competitor of Gaussian, Inc.  The licensee
 of this program is prohibited from giving any competitor of
 Gaussian, Inc. access to this program.  By using this program,
 the user acknowledges that Gaussian, Inc. is engaged in the
 business of creating and licensing software in the field of
 computational chemistry and represents and warrants to the
 licensee that it is not a competitor of Gaussian, Inc. and that
 it will not use this program in any manner prohibited above.
 ---------------------------------------------------------------
  

 Cite this work as:
 Gaussian 16, Revision A.03,
 M. J. Frisch, G. W. Trucks, H. B. Schlegel, G. E. Scuseria, 
 M. A. Robb, J. R. Cheeseman, G. Scalmani, V. Barone, 
 G. A. Petersson, H. Nakatsuji, X. Li, M. Caricato, A. V. Marenich, 
 J. Bloino, B. G. Janesko, R. Gomperts, B. Mennucci, H. P. Hratchian, 
 J. V. Ortiz, A. F. Izmaylov, J. L. Sonnenberg, D. Williams-Young, 
 F. Ding, F. Lipparini, F. Egidi, J. Goings, B. Peng, A. Petrone, 
 T. Henderson, D. Ranasinghe, V. G. Zakrzewski, J. Gao, N. Rega, 
 G. Zheng, W. Liang, M. Hada, M. Ehara, K. Toyota, R. Fukuda, 
 J. Hasegawa, M. Ishida, T. Nakajima, Y. Honda, O. Kitao, H. Nakai, 
 T. Vreven, K. Throssell, J. A. Montgomery, Jr., J. E. Peralta, 
 F. Ogliaro, M. J. Bearpark, J. J. Heyd, E. N. Brothers, K. N. Kudin, 
 V. N. Staroverov, T. A. Keith, R. Kobayashi, J. Normand, 
 K. Raghavachari, A. P. Rendell, J. C. Burant, S. S. Iyengar, 
 J. Tomasi, M. Cossi, J. M. Millam, M. Klene, C. Adamo, R. Cammi, 
 J. W. Ochterski, R. L. Martin, K. Morokuma, O. Farkas, 
 J. B. Foresman, and D. J. Fox, Gaussian, Inc., Wallingford CT, 2016.
 
 ******************************************
 Gaussian 16:  ES64L-G16RevA.03 25-Dec-2016
                12-Jul-2021 
 ******************************************
 %mem=800MB
 %nproc=4
 Will use up to    4 processors via shared memory.
 %chk=SET_328_BBB285_conf1.geo_300_075.chk
 ---------------------------------------------------------------
 #p b3lyp/6-31G(d) opt freq scrf=(iefpcm,read,solvent=n-octanol)
 ---------------------------------------------------------------
 1/18=20,19=15,26=3,38=1,40=2/1,3;
 2/9=110,12=2,17=6,18=5,40=1/2;
 3/5=1,6=6,7=1,11=2,25=1,30=1,70=2203,71=1,72=25,74=-5/1,2,3;
 4//1;
 5/5=2,38=5,53=25/2;
 6/7=2,8=2,9=2,10=2,28=1/1;
 7//1,2,3,16;
 1/18=20,19=15,26=3/3(2);
 2/9=110/2;
 99//99;
 2/9=110/2;
 3/5=1,6=6,7=1,11=2,25=1,30=1,70=2205,71=1,72=25,74=-5/1,2,3;
 4/5=5,16=3,69=1/1;
 5/5=2,38=5,53=25/2;
 7//1,2,3,16;
 1/18=20,19=15,26=3/3(-5);
 2/9=110/2;
 6/7=2,8=2,9=2,10=2,19=2,28=1/1;
 99/9=1/99;
 Leave Link    1 at Mon Jul 12 12:33:18 2021, MaxMem=   104857600 cpu:               0.0 elap:               0.0
 (Enter /dades/curu/g16A03_MST/g16/l101.exe)
 -----------------------------------------
 SET_328_BBB285_conf1.geo_300_075 geometry
 -----------------------------------------
 Symbolic Z-matrix:
 Charge = -1 Multiplicity = 1
 N                     2.073    -3.269     0.977 
 H                     1.18     -2.8       0.95 
 C                     2.934    -2.747     0.15 
 O                     4.001    -3.347    -0.041 
 C                     2.399    -1.549    -0.465 
 C                     3.008    -0.817    -1.592 
 N                     2.26      0.208    -1.918 
 H                     3.971    -0.977    -2.061 
 N                     1.231    -0.986    -0.279 
 N                     1.16      0.053    -1.112 
 C                     0.168     1.08     -1.05 
 H                     0.325     1.835    -1.835 
 O                    -1.167     0.552    -1.212 
 C                    -1.8       0.301     0.089 
 C                    -3.413     0.237    -0.015 
 O                    -3.833    -1.035    -0.624 
 H                    -3.193    -1.666    -0.251 
 H                    -3.926     1.024    -0.574 
 H                    -3.673     0.305     1.044 
 H                    -1.339    -0.605     0.491 
 C                    -1.268     1.489     0.913 
 O                    -2.101     2.681     0.892 
 H                    -1.67      3.13      1.642 
 H                    -1.215     1.157     1.953 
 C                     0.155     1.797     0.34 
 H                     0.928     1.358     0.975 
 O                     0.314     3.181     0.193 
 H                     0.307     3.606     1.069 
 
 ITRead=  0  0  0  0  0  0  0  0  0  0  0  0  0  0  0  0  0  0  0  0
 ITRead=  0  0  0  0  0  0  0  0
 MicOpt= -1 -1 -1 -1 -1 -1 -1 -1 -1 -1 -1 -1 -1 -1 -1 -1 -1 -1 -1 -1
 MicOpt= -1 -1 -1 -1 -1 -1 -1 -1
 NAtoms=     28 NQM=       28 NQMF=       0 NMMI=      0 NMMIF=      0
                NMic=       0 NMicF=      0.
                    Isotopes and Nuclear Properties:
 (Nuclear quadrupole moments (NQMom) in fm**2, nuclear magnetic moments (NMagM)
  in nuclear magnetons)

  Atom         1           2           3           4           5           6           7           8           9          10
 IAtWgt=          14           1          12          16          12          12          14           1          14          14
 AtmWgt=  14.0030740   1.0078250  12.0000000  15.9949146  12.0000000  12.0000000  14.0030740   1.0078250  14.0030740  14.0030740
 NucSpn=           2           1           0           0           0           0           2           1           2           2
 AtZEff=  -0.0000000  -0.0000000  -0.0000000  -0.0000000  -0.0000000  -0.0000000  -0.0000000  -0.0000000  -0.0000000  -0.0000000
 NQMom=    2.0440000   0.0000000   0.0000000   0.0000000   0.0000000   0.0000000   2.0440000   0.0000000   2.0440000   2.0440000
 NMagM=    0.4037610   2.7928460   0.0000000   0.0000000   0.0000000   0.0000000   0.4037610   2.7928460   0.4037610   0.4037610
 AtZNuc=   7.0000000   1.0000000   6.0000000   8.0000000   6.0000000   6.0000000   7.0000000   1.0000000   7.0000000   7.0000000

  Atom        11          12          13          14          15          16          17          18          19          20
 IAtWgt=          12           1          16          12          12          16           1           1           1           1
 AtmWgt=  12.0000000   1.0078250  15.9949146  12.0000000  12.0000000  15.9949146   1.0078250   1.0078250   1.0078250   1.0078250
 NucSpn=           0           1           0           0           0           0           1           1           1           1
 AtZEff=  -0.0000000  -0.0000000  -0.0000000  -0.0000000  -0.0000000  -0.0000000  -0.0000000  -0.0000000  -0.0000000  -0.0000000
 NQMom=    0.0000000   0.0000000   0.0000000   0.0000000   0.0000000   0.0000000   0.0000000   0.0000000   0.0000000   0.0000000
 NMagM=    0.0000000   2.7928460   0.0000000   0.0000000   0.0000000   0.0000000   2.7928460   2.7928460   2.7928460   2.7928460
 AtZNuc=   6.0000000   1.0000000   8.0000000   6.0000000   6.0000000   8.0000000   1.0000000   1.0000000   1.0000000   1.0000000

  Atom        21          22          23          24          25          26          27          28
 IAtWgt=          12          16           1           1          12           1          16           1
 AtmWgt=  12.0000000  15.9949146   1.0078250   1.0078250  12.0000000   1.0078250  15.9949146   1.0078250
 NucSpn=           0           0           1           1           0           1           0           1
 AtZEff=  -0.0000000  -0.0000000  -0.0000000  -0.0000000  -0.0000000  -0.0000000  -0.0000000  -0.0000000
 NQMom=    0.0000000   0.0000000   0.0000000   0.0000000   0.0000000   0.0000000   0.0000000   0.0000000
 NMagM=    0.0000000   0.0000000   2.7928460   2.7928460   0.0000000   2.7928460   0.0000000   2.7928460
 AtZNuc=   6.0000000   8.0000000   1.0000000   1.0000000   6.0000000   1.0000000   8.0000000   1.0000000
 Leave Link  101 at Mon Jul 12 12:33:18 2021, MaxMem=   104857600 cpu:               0.1 elap:               0.1
 (Enter /dades/curu/g16A03_MST/g16/l103.exe)

 GradGradGradGradGradGradGradGradGradGradGradGradGradGradGradGradGradGrad
 Berny optimization.
 Initialization pass.
                           ----------------------------
                           !    Initial Parameters    !
                           ! (Angstroms and Degrees)  !
 --------------------------                            --------------------------
 ! Name  Definition              Value          Derivative Info.                !
 --------------------------------------------------------------------------------
 ! R1    R(1,2)                  1.009          estimate D2E/DX2                !
 ! R2    R(1,3)                  1.303          estimate D2E/DX2                !
 ! R3    R(3,4)                  1.2389         estimate D2E/DX2                !
 ! R4    R(3,5)                  1.449          estimate D2E/DX2                !
 ! R5    R(5,6)                  1.4754         estimate D2E/DX2                !
 ! R6    R(5,9)                  1.3099         estimate D2E/DX2                !
 ! R7    R(6,7)                  1.3101         estimate D2E/DX2                !
 ! R8    R(6,8)                  1.083          estimate D2E/DX2                !
 ! R9    R(7,10)                 1.3725         estimate D2E/DX2                !
 ! R10   R(9,10)                 1.3336         estimate D2E/DX2                !
 ! R11   R(10,11)                1.4292         estimate D2E/DX2                !
 ! R12   R(11,12)                1.1004         estimate D2E/DX2                !
 ! R13   R(11,13)                1.4447         estimate D2E/DX2                !
 ! R14   R(11,25)                1.5641         estimate D2E/DX2                !
 ! R15   R(13,14)                1.4684         estimate D2E/DX2                !
 ! R16   R(14,15)                1.6176         estimate D2E/DX2                !
 ! R17   R(14,20)                1.0931         estimate D2E/DX2                !
 ! R18   R(14,21)                1.5406         estimate D2E/DX2                !
 ! R19   R(15,16)                1.4715         estimate D2E/DX2                !
 ! R20   R(15,18)                1.0932         estimate D2E/DX2                !
 ! R21   R(15,19)                1.0926         estimate D2E/DX2                !
 ! R22   R(16,17)                0.9731         estimate D2E/DX2                !
 ! R23   R(21,22)                1.4544         estimate D2E/DX2                !
 ! R24   R(21,24)                1.093          estimate D2E/DX2                !
 ! R25   R(21,25)                1.5646         estimate D2E/DX2                !
 ! R26   R(22,23)                0.9746         estimate D2E/DX2                !
 ! R27   R(25,26)                1.0925         estimate D2E/DX2                !
 ! R28   R(25,27)                1.4008         estimate D2E/DX2                !
 ! R29   R(27,28)                0.9737         estimate D2E/DX2                !
 ! A1    A(2,1,3)              112.4339         estimate D2E/DX2                !
 ! A2    A(1,3,4)              118.2243         estimate D2E/DX2                !
 ! A3    A(1,3,5)              110.8933         estimate D2E/DX2                !
 ! A4    A(4,3,5)              130.7633         estimate D2E/DX2                !
 ! A5    A(3,5,6)              125.5904         estimate D2E/DX2                !
 ! A6    A(3,5,9)              128.6315         estimate D2E/DX2                !
 ! A7    A(6,5,9)              105.2648         estimate D2E/DX2                !
 ! A8    A(5,6,7)              110.0334         estimate D2E/DX2                !
 ! A9    A(5,6,8)              128.6466         estimate D2E/DX2                !
 ! A10   A(7,6,8)              121.0307         estimate D2E/DX2                !
 ! A11   A(6,7,10)             102.8917         estimate D2E/DX2                !
 ! A12   A(5,9,10)             107.0762         estimate D2E/DX2                !
 ! A13   A(7,10,9)             114.3394         estimate D2E/DX2                !
 ! A14   A(7,10,11)            120.0411         estimate D2E/DX2                !
 ! A15   A(9,10,11)            124.7296         estimate D2E/DX2                !
 ! A16   A(10,11,12)           111.2875         estimate D2E/DX2                !
 ! A17   A(10,11,13)           111.9558         estimate D2E/DX2                !
 ! A18   A(10,11,25)           111.9458         estimate D2E/DX2                !
 ! A19   A(12,11,13)           107.6136         estimate D2E/DX2                !
 ! A20   A(12,11,25)           108.7014         estimate D2E/DX2                !
 ! A21   A(13,11,25)           105.0407         estimate D2E/DX2                !
 ! A22   A(11,13,14)           111.1895         estimate D2E/DX2                !
 ! A23   A(13,14,15)           112.3116         estimate D2E/DX2                !
 ! A24   A(13,14,20)           106.6002         estimate D2E/DX2                !
 ! A25   A(13,14,21)           101.1401         estimate D2E/DX2                !
 ! A26   A(15,14,20)           114.2908         estimate D2E/DX2                !
 ! A27   A(15,14,21)           114.1571         estimate D2E/DX2                !
 ! A28   A(20,14,21)           107.2655         estimate D2E/DX2                !
 ! A29   A(14,15,16)           110.2075         estimate D2E/DX2                !
 ! A30   A(14,15,18)           118.1857         estimate D2E/DX2                !
 ! A31   A(14,15,19)            99.934          estimate D2E/DX2                !
 ! A32   A(16,15,18)           106.0663         estimate D2E/DX2                !
 ! A33   A(16,15,19)           112.7698         estimate D2E/DX2                !
 ! A34   A(18,15,19)           109.826          estimate D2E/DX2                !
 ! A35   A(15,16,17)           102.3673         estimate D2E/DX2                !
 ! A36   A(14,21,22)           115.2468         estimate D2E/DX2                !
 ! A37   A(14,21,24)           106.9444         estimate D2E/DX2                !
 ! A38   A(14,21,25)           105.6635         estimate D2E/DX2                !
 ! A39   A(22,21,24)           106.886          estimate D2E/DX2                !
 ! A40   A(22,21,25)           110.7493         estimate D2E/DX2                !
 ! A41   A(24,21,25)           111.3555         estimate D2E/DX2                !
 ! A42   A(21,22,23)            96.499          estimate D2E/DX2                !
 ! A43   A(11,25,21)           104.0505         estimate D2E/DX2                !
 ! A44   A(11,25,26)           109.0546         estimate D2E/DX2                !
 ! A45   A(11,25,27)           111.0206         estimate D2E/DX2                !
 ! A46   A(21,25,26)           110.5822         estimate D2E/DX2                !
 ! A47   A(21,25,27)           109.6419         estimate D2E/DX2                !
 ! A48   A(26,25,27)           112.1911         estimate D2E/DX2                !
 ! A49   A(25,27,28)           109.6344         estimate D2E/DX2                !
 ! D1    D(2,1,3,4)           -170.2611         estimate D2E/DX2                !
 ! D2    D(2,1,3,5)              6.1974         estimate D2E/DX2                !
 ! D3    D(1,3,5,6)           -170.2641         estimate D2E/DX2                !
 ! D4    D(1,3,5,9)              0.2789         estimate D2E/DX2                !
 ! D5    D(4,3,5,6)              5.6151         estimate D2E/DX2                !
 ! D6    D(4,3,5,9)            176.1581         estimate D2E/DX2                !
 ! D7    D(3,5,6,7)            179.0154         estimate D2E/DX2                !
 ! D8    D(3,5,6,8)             -7.2047         estimate D2E/DX2                !
 ! D9    D(9,5,6,7)              6.6612         estimate D2E/DX2                !
 ! D10   D(9,5,6,8)           -179.559          estimate D2E/DX2                !
 ! D11   D(3,5,9,10)          -176.8045         estimate D2E/DX2                !
 ! D12   D(6,5,9,10)            -4.7656         estimate D2E/DX2                !
 ! D13   D(5,6,7,10)            -5.3183         estimate D2E/DX2                !
 ! D14   D(8,6,7,10)          -179.6509         estimate D2E/DX2                !
 ! D15   D(6,7,10,9)             2.4723         estimate D2E/DX2                !
 ! D16   D(6,7,10,11)          172.1781         estimate D2E/DX2                !
 ! D17   D(5,9,10,7)             1.7727         estimate D2E/DX2                !
 ! D18   D(5,9,10,11)         -167.3778         estimate D2E/DX2                !
 ! D19   D(7,10,11,12)          10.7209         estimate D2E/DX2                !
 ! D20   D(7,10,11,13)         131.1998         estimate D2E/DX2                !
 ! D21   D(7,10,11,25)        -111.1489         estimate D2E/DX2                !
 ! D22   D(9,10,11,12)         179.2943         estimate D2E/DX2                !
 ! D23   D(9,10,11,13)         -60.2268         estimate D2E/DX2                !
 ! D24   D(9,10,11,25)          57.4244         estimate D2E/DX2                !
 ! D25   D(10,11,13,14)         95.2858         estimate D2E/DX2                !
 ! D26   D(12,11,13,14)       -142.1206         estimate D2E/DX2                !
 ! D27   D(25,11,13,14)        -26.4211         estimate D2E/DX2                !
 ! D28   D(10,11,25,21)       -117.4627         estimate D2E/DX2                !
 ! D29   D(10,11,25,26)          0.5611         estimate D2E/DX2                !
 ! D30   D(10,11,25,27)        124.6728         estimate D2E/DX2                !
 ! D31   D(12,11,25,21)        119.1962         estimate D2E/DX2                !
 ! D32   D(12,11,25,26)       -122.7799         estimate D2E/DX2                !
 ! D33   D(12,11,25,27)          1.3317         estimate D2E/DX2                !
 ! D34   D(13,11,25,21)          4.2507         estimate D2E/DX2                !
 ! D35   D(13,11,25,26)        122.2746         estimate D2E/DX2                !
 ! D36   D(13,11,25,27)       -113.6138         estimate D2E/DX2                !
 ! D37   D(11,13,14,15)        159.1045         estimate D2E/DX2                !
 ! D38   D(11,13,14,20)        -74.9981         estimate D2E/DX2                !
 ! D39   D(11,13,14,21)         36.9867         estimate D2E/DX2                !
 ! D40   D(13,14,15,16)         74.8419         estimate D2E/DX2                !
 ! D41   D(13,14,15,18)        -47.2865         estimate D2E/DX2                !
 ! D42   D(13,14,15,19)       -166.2663         estimate D2E/DX2                !
 ! D43   D(20,14,15,16)        -46.7602         estimate D2E/DX2                !
 ! D44   D(20,14,15,18)       -168.8885         estimate D2E/DX2                !
 ! D45   D(20,14,15,19)         72.1316         estimate D2E/DX2                !
 ! D46   D(21,14,15,16)       -170.7681         estimate D2E/DX2                !
 ! D47   D(21,14,15,18)         67.1035         estimate D2E/DX2                !
 ! D48   D(21,14,15,19)        -51.8763         estimate D2E/DX2                !
 ! D49   D(13,14,21,22)         90.7493         estimate D2E/DX2                !
 ! D50   D(13,14,21,24)       -150.6052         estimate D2E/DX2                !
 ! D51   D(13,14,21,25)        -31.8682         estimate D2E/DX2                !
 ! D52   D(15,14,21,22)        -30.0741         estimate D2E/DX2                !
 ! D53   D(15,14,21,24)         88.5714         estimate D2E/DX2                !
 ! D54   D(15,14,21,25)       -152.6915         estimate D2E/DX2                !
 ! D55   D(20,14,21,22)       -157.7741         estimate D2E/DX2                !
 ! D56   D(20,14,21,24)        -39.1286         estimate D2E/DX2                !
 ! D57   D(20,14,21,25)         79.6085         estimate D2E/DX2                !
 ! D58   D(14,15,16,17)         37.3403         estimate D2E/DX2                !
 ! D59   D(18,15,16,17)        166.3737         estimate D2E/DX2                !
 ! D60   D(19,15,16,17)        -73.3835         estimate D2E/DX2                !
 ! D61   D(14,21,22,23)        165.8251         estimate D2E/DX2                !
 ! D62   D(24,21,22,23)         47.1472         estimate D2E/DX2                !
 ! D63   D(25,21,22,23)        -74.3166         estimate D2E/DX2                !
 ! D64   D(14,21,25,11)         17.3583         estimate D2E/DX2                !
 ! D65   D(14,21,25,26)        -99.6078         estimate D2E/DX2                !
 ! D66   D(14,21,25,27)        136.1701         estimate D2E/DX2                !
 ! D67   D(22,21,25,11)       -108.0867         estimate D2E/DX2                !
 ! D68   D(22,21,25,26)        134.9472         estimate D2E/DX2                !
 ! D69   D(22,21,25,27)         10.7251         estimate D2E/DX2                !
 ! D70   D(24,21,25,11)        133.1204         estimate D2E/DX2                !
 ! D71   D(24,21,25,26)         16.1543         estimate D2E/DX2                !
 ! D72   D(24,21,25,27)       -108.0679         estimate D2E/DX2                !
 ! D73   D(11,25,27,28)       -179.7463         estimate D2E/DX2                !
 ! D74   D(21,25,27,28)         65.841          estimate D2E/DX2                !
 ! D75   D(26,25,27,28)        -57.4381         estimate D2E/DX2                !
 --------------------------------------------------------------------------------
 Trust Radius=3.00D-01 FncErr=1.00D-07 GrdErr=1.00D-06 EigMax=2.50D+02 EigMin=1.00D-04
 Number of steps in this run=    163 maximum allowed number of steps=    168.
 GradGradGradGradGradGradGradGradGradGradGradGradGradGradGradGradGradGrad

 Leave Link  103 at Mon Jul 12 12:33:18 2021, MaxMem=   104857600 cpu:               0.1 elap:               0.0
 (Enter /dades/curu/g16A03_MST/g16/l202.exe)
                          Input orientation:                          
 ---------------------------------------------------------------------
 Center     Atomic      Atomic             Coordinates (Angstroms)
 Number     Number       Type             X           Y           Z
 ---------------------------------------------------------------------
      1          7           0        2.073000   -3.269000    0.977000
      2          1           0        1.180000   -2.800000    0.950000
      3          6           0        2.934000   -2.747000    0.150000
      4          8           0        4.001000   -3.347000   -0.041000
      5          6           0        2.399000   -1.549000   -0.465000
      6          6           0        3.008000   -0.817000   -1.592000
      7          7           0        2.260000    0.208000   -1.918000
      8          1           0        3.971000   -0.977000   -2.061000
      9          7           0        1.231000   -0.986000   -0.279000
     10          7           0        1.160000    0.053000   -1.112000
     11          6           0        0.168000    1.080000   -1.050000
     12          1           0        0.325000    1.835000   -1.835000
     13          8           0       -1.167000    0.552000   -1.212000
     14          6           0       -1.800000    0.301000    0.089000
     15          6           0       -3.413000    0.237000   -0.015000
     16          8           0       -3.833000   -1.035000   -0.624000
     17          1           0       -3.193000   -1.666000   -0.251000
     18          1           0       -3.926000    1.024000   -0.574000
     19          1           0       -3.673000    0.305000    1.044000
     20          1           0       -1.339000   -0.605000    0.491000
     21          6           0       -1.268000    1.489000    0.913000
     22          8           0       -2.101000    2.681000    0.892000
     23          1           0       -1.670000    3.130000    1.642000
     24          1           0       -1.215000    1.157000    1.953000
     25          6           0        0.155000    1.797000    0.340000
     26          1           0        0.928000    1.358000    0.975000
     27          8           0        0.314000    3.181000    0.193000
     28          1           0        0.307000    3.606000    1.069000
 ---------------------------------------------------------------------
                    Distance matrix (angstroms):
                    1          2          3          4          5
     1  N    0.000000
     2  H    1.009029   0.000000
     3  C    1.302971   1.928555   0.000000
     4  O    2.181649   3.039627   1.238939   0.000000
     5  C    2.268048   2.247929   1.449018   2.445196   0.000000
     6  C    3.672368   3.706162   2.600950   3.129305   1.475410
     7  N    4.528302   4.294169   3.669186   4.380894   2.284202
     8  H    4.252659   4.492119   3.016089   3.114193   2.312052
     9  N    2.738355   2.191720   2.487041   3.647446   1.309881
    10  N    4.029041   3.520206   3.546790   4.558324   2.126061
    11  C    5.162514   4.480909   4.872031   5.942079   3.497317
    12  H    6.083886   5.474530   5.633989   6.601859   4.198789
    13  O    5.467116   4.628019   5.436602   6.578880   4.205778
    14  C    5.341683   4.386106   5.630700   6.853934   4.621798
    15  C    6.585765   5.590192   7.015404   8.234873   6.096855
    16  O    6.514199   5.542821   7.022984   8.188821   6.255182
    17  H    5.639889   4.674557   6.234540   7.390771   5.597316
    18  H    7.538133   6.558718   7.861566   9.067914   6.829190
    19  H    6.767162   5.762072   7.332557   8.567649   6.525610
    20  H    4.356011   3.372546   4.791970   6.026374   3.972117
    21  C    5.814202   4.938582   6.015203   7.215218   4.957340
    22  O    7.268563   6.388246   7.440764   8.627959   6.323318
    23  H    7.443082   6.615608   7.613278   8.771788   6.548989
    24  H    5.599375   4.732851   5.975469   7.174169   5.121538
    25  C    5.454251   4.749225   5.329810   6.434098   4.108440
    26  H    4.766567   4.165704   4.642810   5.710745   3.562035
    27  O    6.731362   6.090597   6.481314   7.500901   5.210863
    28  H    7.098792   6.466307   6.935870   7.951223   5.770931
                    6          7          8          9         10
     6  C    0.000000
     7  N    1.310116   0.000000
     8  H    1.083019   2.086192   0.000000
     9  N    2.215910   2.273939   3.268517   0.000000
    10  N    2.098191   1.372465   3.140577   1.333586   0.000000
    11  C    3.458030   2.426988   4.440290   2.448013   1.429209
    12  H    3.780297   2.529475   4.609961   3.346642   2.096540
    13  O    4.410123   3.515836   5.427494   2.997722   2.382001
    14  C    5.214648   4.529934   6.289692   3.313420   3.203983
    15  C    6.695303   5.983743   7.757794   4.809591   4.706336
    16  O    6.912585   6.351703   7.935411   5.075975   5.133414
    17  H    6.400897   6.002164   7.421167   4.476043   4.758665
    18  H    7.246100   6.382694   8.281170   5.542723   5.205735
    19  H    7.269329   6.631994   8.349568   5.240823   5.298087
    20  H    4.824960   4.406478   5.903151   2.709790   3.040982
    21  C    5.465971   4.701309   6.509451   3.713690   3.472449
    22  O    6.671442   5.747186   7.679216   5.091204   4.642900
    23  H    6.922518   6.054468   7.899401   5.389573   5.006131
    24  H    5.856401   5.287804   6.896430   3.944260   4.031584
    25  C    4.324954   3.471961   5.293556   3.047298   2.481908
    26  H    3.955567   3.386174   4.891766   2.675567   2.472330
    27  O    5.140804   4.133034   5.978556   4.292734   3.493297
    28  H    5.825740   4.927756   6.650239   4.874151   4.255371
                   11         12         13         14         15
    11  C    0.000000
    12  H    1.100409   0.000000
    13  O    1.444733   2.064045   0.000000
    14  C    2.403578   3.251239   1.468431   0.000000
    15  C    3.821706   4.454060   2.564479   1.617616   0.000000
    16  O    4.545624   5.195420   3.157827   2.535025   1.471484
    17  H    4.413076   5.209835   3.154001   2.434161   1.930157
    18  H    4.121959   4.507643   2.870873   2.341404   1.093169
    19  H    4.442830   5.158832   3.380914   2.102420   1.092568
    20  H    2.735865   3.759358   2.066021   1.093143   2.294880
    21  C    2.466322   3.195132   2.324606   1.540566   2.651361
    22  O    3.388647   3.746695   3.135572   2.529785   2.918412
    23  H    3.850663   4.212669   3.878712   3.229853   3.762067
    24  H    3.307057   4.144904   3.222663   2.132946   3.090409
    25  C    1.564084   2.181964   2.388810   2.474478   3.910275
    26  H    2.180713   2.913286   3.133948   3.056833   4.591407
    27  O    2.445520   2.434054   3.328517   3.574103   4.754043
    28  H    3.300024   3.401467   4.086876   4.040158   5.134551
                   16         17         18         19         20
    16  O    0.000000
    17  H    0.973083   0.000000
    18  H    2.061706   2.806727   0.000000
    19  H    2.145559   2.406713   1.788545   0.000000
    20  H    2.765531   2.261327   3.237350   2.565437   0.000000
    21  C    3.913077   3.874861   3.080967   2.683848   2.137279
    22  O    4.371125   4.625508   2.868001   2.853010   3.396946
    23  H    5.211578   5.376299   3.799398   3.514291   3.922319
    24  H    4.277817   4.091385   3.708496   2.755712   2.292916
    25  C    4.985345   4.852912   4.252939   4.168365   2.832744
    26  H    5.563306   5.256453   5.106102   4.720463   3.037584
    27  O    5.969904   5.999133   4.818562   4.989163   4.141861
    28  H    6.445520   6.464239   5.223453   5.170844   4.558061
                   21         22         23         24         25
    21  C    0.000000
    22  O    1.454371   0.000000
    23  H    1.840089   0.974609   0.000000
    24  H    1.092993   2.057497   2.048530   0.000000
    25  C    1.564648   2.485095   2.608202   2.210943   0.000000
    26  H    2.200777   3.306366   3.214728   2.364177   1.092463
    27  O    2.425693   2.563362   2.457327   3.087396   1.400838
    28  H    2.643227   2.585618   2.112684   3.015881   1.956279
                   26         27         28
    26  H    0.000000
    27  O    2.076499   0.000000
    28  H    2.334091   0.973679   0.000000
 Stoichiometry    C8H11N4O5(1-)
 Framework group  C1[X(C8H11N4O5)]
 Deg. of freedom    78
 Full point group                 C1      NOp   1
 Largest Abelian subgroup         C1      NOp   1
 Largest concise Abelian subgroup C1      NOp   1
                         Standard orientation:                         
 ---------------------------------------------------------------------
 Center     Atomic      Atomic             Coordinates (Angstroms)
 Number     Number       Type             X           Y           Z
 ---------------------------------------------------------------------
      1          7           0        3.236260    1.719790   -1.326075
      2          1           0        2.240639    1.833002   -1.207501
      3          6           0        3.712246    0.733948   -0.619472
      4          8           0        4.942463    0.611595   -0.538440
      5          6           0        2.643653   -0.005470    0.021640
      6          6           0        2.818302   -1.049017    1.049911
      7          7           0        1.650016   -1.501023    1.433584
      8          1           0        3.736042   -1.499476    1.407358
      9          7           0        1.352114    0.203600   -0.041649
     10          7           0        0.771573   -0.684770    0.765954
     11          6           0       -0.629191   -0.967211    0.792856
     12          1           0       -0.865601   -1.745724    1.533752
     13          8           0       -1.409849    0.202579    1.123639
     14          6           0       -1.891376    0.879199   -0.087397
     15          6           0       -3.167922    1.828457    0.205897
     16          8           0       -2.740354    3.057161    0.893455
     17          1           0       -1.888060    3.249796    0.465230
     18          1           0       -3.989672    1.419767    0.799797
     19          1           0       -3.505399    2.011840   -0.816935
     20          1           0       -1.031923    1.401159   -0.516183
     21          6           0       -2.196939   -0.324340   -0.999246
     22          8           0       -3.554410   -0.839134   -0.912904
     23          1           0       -3.517110   -1.384473   -1.719796
     24          1           0       -2.049359    0.010702   -2.029100
     25          6           0       -1.159673   -1.427318   -0.604731
     26          1           0       -0.328693   -1.444245   -1.313717
     27          8           0       -1.803326   -2.668232   -0.514241
     28          1           0       -2.121413   -2.936765   -1.394445
 ---------------------------------------------------------------------
 Rotational constants (GHZ):           0.7378963           0.2726856           0.2314583
 Leave Link  202 at Mon Jul 12 12:33:18 2021, MaxMem=   104857600 cpu:               0.0 elap:               0.0
 (Enter /dades/curu/g16A03_MST/g16/l301.exe)
 Standard basis: 6-31G(d) (6D, 7F)
 Ernie: Thresh=  0.10000D-02 Tol=  0.10000D-05 Strict=F.
 There are   277 symmetry adapted cartesian basis functions of A   symmetry.
 There are   277 symmetry adapted basis functions of A   symmetry.
   277 basis functions,   520 primitive gaussians,   277 cartesian basis functions
    64 alpha electrons       64 beta electrons
       nuclear repulsion energy      1260.2535494169 Hartrees.
 IExCor=  402 DFT=T Ex+Corr=B3LYP ExCW=0 ScaHFX=  0.200000
 ScaDFX=  0.800000  0.720000  1.000000  0.810000 ScalE2=  1.000000  1.000000
 IRadAn=      5 IRanWt=     -1 IRanGd=            0 ICorTp=0 IEmpDi=  4
 NAtoms=   28 NActive=   28 NUniq=   28 SFac= 1.00D+00 NAtFMM=   60 NAOKFM=F Big=F
 Integral buffers will be    131072 words long.
 Raffenetti 2 integral format.
 Two-electron integral symmetry is turned on.
 Using the following non-standard input for PCM:
 MSTModel=DFT cav MSTCharged
 --- end of non-standard input.
 MST model for solvation energy: B3LYP parametrization.
 MST cavity parameters:
 ISph   IAn     Re0     Alpha   Atom Type   QCorr
 ------------------------------------------------
   1      7     1.50     1.15      NH         T
   2      1     0.90     1.15      NH         T
   3      6     1.50     1.50      C          F
   4      8     1.40     1.50      O          F
   5      6     1.50     1.50      C          F
   6      6     1.50     1.50      CH         F
   7      7     1.50     1.50      Nc         F
   8      1     1.20     1.50      CH         F
   9      7     1.50     1.50      Nc         F
  10      7     1.50     1.50      Nc         F
  11      6     1.50     1.50      CH         F
  12      1     1.20     1.50      CH         F
  13      8     1.40     1.50      O          F
  14      6     1.50     1.50      CH         F
  15      6     1.50     1.50      CH2        F
  16      8     1.40     1.50      OH         F
  17      1     0.90     1.50      OH         F
  18      1     1.20     1.50      CH2        F
  19      1     1.20     1.50      CH2        F
  20      1     1.20     1.50      CH         F
  21      6     1.50     1.50      CH         F
  22      8     1.40     1.50      OH         F
  23      1     0.90     1.50      OH         F
  24      1     1.20     1.50      CH         F
  25      6     1.50     1.50      CH         F
  26      1     1.20     1.50      CH         F
  27      8     1.40     1.50      OH         F
  28      1     0.90     1.50      OH         F
 ------------------------------------------------------------------------------
 Polarizable Continuum Model (PCM)
 =================================
 Model                : PCM.
 Atomic radii         : MST.
 Polarization charges : Total charges.
 Charge compensation  : None.
 Solution method      : On-the-fly selection.
 Cavity type          : Scaled VdW (van der Waals Surface) (Alpha=1.500).
 Cavity algorithm     : GePol (No added spheres)
                        Default sphere list used, NSphG=   28.
                        Lebedev-Laikov grids with approx.  5.0 points / Ang**2.
                        Smoothing algorithm: York/Karplus (Gamma=1.0000).
                        Polarization charges: spherical gaussians, with
                                              point-specific exponents (IZeta= 3).
                        Self-potential: point-specific (ISelfS= 7).
                        Self-field    : sphere-specific E.n sum rule (ISelfD= 2).
 1st derivatives      : Analytical E(r).r(x)/FMM algorithm (CHGder, D1EAlg=3).
                        Cavity 1st derivative terms included.
 Solvent              : n-Octanol, Eps=   9.862900 Eps(inf)=   2.043470
 ------------------------------------------------------------------------------
 GePol: Number of generator spheres                  =      28
 GePol: Total number of spheres                      =      28
 GePol: Number of exposed spheres                    =      28 (100.00%)
 GePol: Number of points                             =    2506
 GePol: Average weight of points                     =       0.12
 GePol: Minimum weight of points                     =   0.23D-10
 GePol: Maximum weight of points                     =    0.21373
 GePol: Number of points with low weight             =     166
 GePol: Fraction of low-weight points (<1% of avg)   =       6.62%
 GePol: Cavity surface area                          =    302.977 Ang**2
 GePol: Cavity volume                                =    341.671 Ang**3
 Surface areas from nonelectrostatic (unscaled) cavity and vdw tensions:
 Sphere =    1 Type =  NH  Surf =       16.776 Tension =       -0.234
 Sphere =    2 Type =  NH  Surf =        3.447 Tension =       -0.234
 Sphere =    3 Type =  C   Surf =        6.622 Tension =       -0.205
 Sphere =    4 Type =  O   Surf =       16.486 Tension =       -0.185
 Sphere =    5 Type =  C   Surf =        6.335 Tension =       -0.205
 Sphere =    6 Type =  CH  Surf =        8.070 Tension =       -0.195
 Sphere =    7 Type =  Nc  Surf =       13.269 Tension =       -0.161
 Sphere =    8 Type =  CH  Surf =       10.258 Tension =       -0.195
 Sphere =    9 Type =  Nc  Surf =       12.146 Tension =       -0.161
 Sphere =   10 Type =  Nc  Surf =        5.236 Tension =       -0.161
 Sphere =   11 Type =  CH  Surf =        3.069 Tension =       -0.195
 Sphere =   12 Type =  CH  Surf =        9.726 Tension =       -0.195
 Sphere =   13 Type =  O   Surf =       10.876 Tension =       -0.185
 Sphere =   14 Type =  CH  Surf =        3.503 Tension =       -0.195
 Sphere =   15 Type =  CH2 Surf =        5.024 Tension =       -0.194
 Sphere =   16 Type =  OH  Surf =       14.921 Tension =       -0.238
 Sphere =   17 Type =  OH  Surf =        4.403 Tension =       -0.238
 Sphere =   18 Type =  CH2 Surf =       10.181 Tension =       -0.194
 Sphere =   19 Type =  CH2 Surf =        9.934 Tension =       -0.194
 Sphere =   20 Type =  CH  Surf =        9.889 Tension =       -0.195
 Sphere =   21 Type =  CH  Surf =        3.287 Tension =       -0.195
 Sphere =   22 Type =  OH  Surf =       14.287 Tension =       -0.238
 Sphere =   23 Type =  OH  Surf =        4.317 Tension =       -0.238
 Sphere =   24 Type =  CH  Surf =        9.921 Tension =       -0.195
 Sphere =   25 Type =  CH  Surf =        3.494 Tension =       -0.195
 Sphere =   26 Type =  CH  Surf =        9.617 Tension =       -0.195
 Sphere =   27 Type =  OH  Surf =       13.568 Tension =       -0.238
 Sphere =   28 Type =  OH  Surf =        4.471 Tension =       -0.238
 PCM non-electrostatic energy =        -0.0155120110 Hartrees.
 Nuclear repulsion after PCM non-electrostatic terms =     1260.2380374058 Hartrees.
 Leave Link  301 at Mon Jul 12 12:33:18 2021, MaxMem=   104857600 cpu:               0.1 elap:               0.1
 (Enter /dades/curu/g16A03_MST/g16/l302.exe)
 NPDir=0 NMtPBC=     1 NCelOv=     1 NCel=       1 NClECP=     1 NCelD=      1
         NCelK=      1 NCelE2=     1 NClLst=     1 CellRange=     0.0.
 One-electron integrals computed using PRISM.
 One-electron integral symmetry used in STVInt
 NBasis=   277 RedAO= T EigKep=  1.00D-03  NBF=   277
 NBsUse=   277 1.00D-06 EigRej= -1.00D+00 NBFU=   277
 Precomputing XC quadrature grid using
 IXCGrd= 4 IRadAn=           5 IRanWt=          -1 IRanGd=           0 AccXCQ= 0.00D+00.
 Generated NRdTot=       0 NPtTot=           0 NUsed=           0 NTot=          32
 NSgBfM=   276   276   276   276   276 MxSgAt=    28 MxSgA2=    28.
 Leave Link  302 at Mon Jul 12 12:33:19 2021, MaxMem=   104857600 cpu:               2.8 elap:               0.8
 (Enter /dades/curu/g16A03_MST/g16/l303.exe)
 DipDrv:  MaxL=1.
 Leave Link  303 at Mon Jul 12 12:33:19 2021, MaxMem=   104857600 cpu:               0.1 elap:               0.0
 (Enter /dades/curu/g16A03_MST/g16/l401.exe)
 ExpMin= 1.61D-01 ExpMax= 5.48D+03 ExpMxC= 8.25D+02 IAcc=3 IRadAn=         5 AccDes= 0.00D+00
 Harris functional with IExCor=  402 and IRadAn=       5 diagonalized for initial guess.
 HarFok:  IExCor=  402 AccDes= 0.00D+00 IRadAn=         5 IDoV= 1 UseB2=F ITyADJ=14
 ICtDFT=  3500011 ScaDFX=  1.000000  1.000000  1.000000  1.000000
 FoFCou: FMM=F IPFlag=           0 FMFlag=      100000 FMFlg1=           0
         NFxFlg=           0 DoJE=T BraDBF=F KetDBF=T FulRan=T
         wScrn=  0.000000 ICntrl=       500 IOpCl=  0 I1Cent=   200000004 NGrid=           0
         NMat0=    1 NMatS0=      1 NMatT0=    0 NMatD0=    1 NMtDS0=    0 NMtDT0=    0
 Petite list used in FoFCou.
 Harris En= -906.636610868100    
 JPrj=0 DoOrth=F DoCkMO=F.
 Leave Link  401 at Mon Jul 12 12:33:24 2021, MaxMem=   104857600 cpu:              23.2 elap:               5.9
 (Enter /dades/curu/g16A03_MST/g16/l502.exe)
 Integral symmetry usage will be decided dynamically.
 Closed shell SCF:
 Using DIIS extrapolation, IDIIS=  1040.
 NGot=   104857600 LenX=   104699411 LenY=   104622241
 Requested convergence on RMS density matrix=1.00D-08 within 128 cycles.
 Requested convergence on MAX density matrix=1.00D-06.
 Requested convergence on             energy=1.00D-06.
 No special actions if energy rises.
 Fock matrices will be formed incrementally for  20 cycles.

 Cycle   1  Pass 1  IDiag  1:
 FoFJK:  IHMeth= 1 ICntrl=       0 DoSepK=F KAlg= 0 I1Cent=           0 FoldK=F
 IRaf= 820000000 NMat=       1 IRICut=       1 DoRegI=T DoRafI=F ISym2E= 0 IDoP0=0 IntGTp=1.
 FoFCou: FMM=F IPFlag=           0 FMFlag=      100000 FMFlg1=           0
         NFxFlg=           0 DoJE=F BraDBF=F KetDBF=F FulRan=T
         wScrn=  0.000000 ICntrl=         0 IOpCl=  0 I1Cent=           0 NGrid=           0
         NMat0=    1 NMatS0=      1 NMatT0=    0 NMatD0=    1 NMtDS0=    0 NMtDT0=    0
 Symmetry not used in FoFCou.
 Inv3:  Mode=1 IEnd=    18840108.
 Iteration    1 A*A^-1 deviation from unit magnitude is 8.66D-15 for    605.
 Iteration    1 A*A^-1 deviation from orthogonality  is 1.52D-15 for   1223     80.
 Iteration    1 A^-1*A deviation from unit magnitude is 9.33D-15 for    605.
 Iteration    1 A^-1*A deviation from orthogonality  is 1.75D-15 for   1366    723.
 E= -906.152089344283    
 DIIS: error= 2.91D-02 at cycle   1 NSaved=   1.
 NSaved= 1 IEnMin= 1 EnMin= -906.152089344283     IErMin= 1 ErrMin= 2.91D-02
 ErrMax= 2.91D-02  0.00D+00 EMaxC= 1.00D-01 BMatC= 5.28D-01 BMatP= 5.28D-01
 IDIUse=3 WtCom= 7.09D-01 WtEn= 2.91D-01
 Coeff-Com:  0.100D+01
 Coeff-En:   0.100D+01
 Coeff:      0.100D+01
 Gap=     0.262 Goal=   None    Shift=    0.000
 GapD=    0.262 DampG=1.000 DampE=0.500 DampFc=0.5000 IDamp=-1.
 Damping current iteration by 5.00D-01
 RMSDP=8.66D-03 MaxDP=2.98D-01              OVMax= 9.09D-01

 Cycle   2  Pass 1  IDiag  1:
 RMSU=  4.32D-03    CP:  9.89D-01
 E= -905.972834503194     Delta-E=        0.179254841089 Rises=F Damp=T
 DIIS: error= 1.73D-02 at cycle   2 NSaved=   2.
 NSaved= 2 IEnMin= 1 EnMin= -906.152089344283     IErMin= 2 ErrMin= 1.73D-02
 ErrMax= 1.73D-02  0.00D+00 EMaxC= 1.00D-01 BMatC= 1.88D-01 BMatP= 5.28D-01
 IDIUse=3 WtCom= 8.27D-01 WtEn= 1.73D-01
 Coeff-Com:  0.331D+00 0.669D+00
 Coeff-En:   0.627D+00 0.373D+00
 Coeff:      0.383D+00 0.617D+00
 Gap=     0.031 Goal=   None    Shift=    0.000
 RMSDP=3.98D-03 MaxDP=1.75D-01 DE= 1.79D-01 OVMax= 8.08D-01

 Cycle   3  Pass 1  IDiag  1:
 RMSU=  2.86D-03    CP:  9.78D-01  3.62D-01
 E= -906.437541568676     Delta-E=       -0.464707065482 Rises=F Damp=F
 DIIS: error= 1.70D-02 at cycle   3 NSaved=   3.
 NSaved= 3 IEnMin= 3 EnMin= -906.437541568676     IErMin= 3 ErrMin= 1.70D-02
 ErrMax= 1.70D-02  0.00D+00 EMaxC= 1.00D-01 BMatC= 1.50D-01 BMatP= 1.88D-01
 IDIUse=3 WtCom= 8.30D-01 WtEn= 1.70D-01
 Coeff-Com:  0.141D+00 0.440D+00 0.419D+00
 Coeff-En:   0.000D+00 0.572D-01 0.943D+00
 Coeff:      0.117D+00 0.375D+00 0.508D+00
 Gap=     0.227 Goal=   None    Shift=    0.000
 RMSDP=2.00D-03 MaxDP=8.37D-02 DE=-4.65D-01 OVMax= 1.16D-01

 Cycle   4  Pass 1  IDiag  1:
 RMSU=  1.34D-03    CP:  9.87D-01  4.41D-01  5.00D-01
 E= -906.578642556081     Delta-E=       -0.141100987404 Rises=F Damp=F
 DIIS: error= 4.08D-03 at cycle   4 NSaved=   4.
 NSaved= 4 IEnMin= 4 EnMin= -906.578642556081     IErMin= 4 ErrMin= 4.08D-03
 ErrMax= 4.08D-03  0.00D+00 EMaxC= 1.00D-01 BMatC= 1.05D-02 BMatP= 1.50D-01
 IDIUse=3 WtCom= 9.59D-01 WtEn= 4.08D-02
 Coeff-Com: -0.335D-02 0.167D+00 0.188D+00 0.648D+00
 Coeff-En:   0.000D+00 0.000D+00 0.000D+00 0.100D+01
 Coeff:     -0.322D-02 0.161D+00 0.180D+00 0.662D+00
 Gap=     0.153 Goal=   None    Shift=    0.000
 RMSDP=5.03D-04 MaxDP=1.69D-02 DE=-1.41D-01 OVMax= 3.41D-02

 Cycle   5  Pass 1  IDiag  1:
 RMSU=  4.63D-04    CP:  9.87D-01  4.52D-01  5.38D-01  8.81D-01
 E= -906.582098126104     Delta-E=       -0.003455570023 Rises=F Damp=F
 DIIS: error= 4.10D-03 at cycle   5 NSaved=   5.
 NSaved= 5 IEnMin= 5 EnMin= -906.582098126104     IErMin= 4 ErrMin= 4.08D-03
 ErrMax= 4.10D-03  0.00D+00 EMaxC= 1.00D-01 BMatC= 5.71D-03 BMatP= 1.05D-02
 IDIUse=3 WtCom= 9.59D-01 WtEn= 4.10D-02
 Coeff-Com: -0.284D-01 0.623D-01 0.173D-01 0.429D+00 0.520D+00
 Coeff-En:   0.000D+00 0.000D+00 0.000D+00 0.358D+00 0.642D+00
 Coeff:     -0.273D-01 0.597D-01 0.166D-01 0.426D+00 0.525D+00
 Gap=     0.150 Goal=   None    Shift=    0.000
 RMSDP=3.10D-04 MaxDP=1.10D-02 DE=-3.46D-03 OVMax= 2.61D-02

 Cycle   6  Pass 1  IDiag  1:
 RMSU=  1.49D-04    CP:  9.87D-01  4.80D-01  5.20D-01  1.01D+00  6.52D-01
 E= -906.586951643444     Delta-E=       -0.004853517340 Rises=F Damp=F
 DIIS: error= 8.36D-04 at cycle   6 NSaved=   6.
 NSaved= 6 IEnMin= 6 EnMin= -906.586951643444     IErMin= 6 ErrMin= 8.36D-04
 ErrMax= 8.36D-04  0.00D+00 EMaxC= 1.00D-01 BMatC= 4.10D-04 BMatP= 5.71D-03
 IDIUse=3 WtCom= 9.92D-01 WtEn= 8.36D-03
 Coeff-Com: -0.163D-01 0.144D-01-0.278D-01 0.152D+00 0.293D+00 0.585D+00
 Coeff-En:   0.000D+00 0.000D+00 0.000D+00 0.000D+00 0.000D+00 0.100D+01
 Coeff:     -0.162D-01 0.143D-01-0.276D-01 0.151D+00 0.291D+00 0.588D+00
 Gap=     0.147 Goal=   None    Shift=    0.000
 RMSDP=1.03D-04 MaxDP=4.65D-03 DE=-4.85D-03 OVMax= 8.96D-03

 Cycle   7  Pass 1  IDiag  1:
 RMSU=  6.92D-05    CP:  9.87D-01  4.85D-01  5.11D-01  1.04D+00  7.47D-01
                    CP:  7.63D-01
 E= -906.587292983000     Delta-E=       -0.000341339556 Rises=F Damp=F
 DIIS: error= 3.88D-04 at cycle   7 NSaved=   7.
 NSaved= 7 IEnMin= 7 EnMin= -906.587292983000     IErMin= 7 ErrMin= 3.88D-04
 ErrMax= 3.88D-04  0.00D+00 EMaxC= 1.00D-01 BMatC= 6.76D-05 BMatP= 4.10D-04
 IDIUse=3 WtCom= 9.96D-01 WtEn= 3.88D-03
 Coeff-Com: -0.508D-02 0.246D-02-0.184D-01 0.207D-01 0.869D-01 0.347D+00
 Coeff-Com:  0.567D+00
 Coeff-En:   0.000D+00 0.000D+00 0.000D+00 0.000D+00 0.000D+00 0.185D-01
 Coeff-En:   0.981D+00
 Coeff:     -0.506D-02 0.245D-02-0.183D-01 0.207D-01 0.866D-01 0.345D+00
 Coeff:      0.568D+00
 Gap=     0.148 Goal=   None    Shift=    0.000
 RMSDP=3.48D-05 MaxDP=1.25D-03 DE=-3.41D-04 OVMax= 2.55D-03

 Cycle   8  Pass 1  IDiag  1:
 RMSU=  1.96D-05    CP:  9.87D-01  4.86D-01  5.07D-01  1.05D+00  7.49D-01
                    CP:  8.57D-01  7.18D-01
 E= -906.587349934920     Delta-E=       -0.000056951919 Rises=F Damp=F
 DIIS: error= 9.54D-05 at cycle   8 NSaved=   8.
 NSaved= 8 IEnMin= 8 EnMin= -906.587349934920     IErMin= 8 ErrMin= 9.54D-05
 ErrMax= 9.54D-05  0.00D+00 EMaxC= 1.00D-01 BMatC= 3.30D-06 BMatP= 6.76D-05
 IDIUse=1 WtCom= 1.00D+00 WtEn= 0.00D+00
 Coeff-Com: -0.518D-03 0.357D-03-0.448D-02-0.431D-02 0.108D-01 0.808D-01
 Coeff-Com:  0.241D+00 0.676D+00
 Coeff:     -0.518D-03 0.357D-03-0.448D-02-0.431D-02 0.108D-01 0.808D-01
 Coeff:      0.241D+00 0.676D+00
 Gap=     0.148 Goal=   None    Shift=    0.000
 RMSDP=9.61D-06 MaxDP=3.10D-04 DE=-5.70D-05 OVMax= 1.02D-03

 Cycle   9  Pass 1  IDiag  1:
 RMSU=  7.77D-06    CP:  9.87D-01  4.86D-01  5.07D-01  1.05D+00  7.53D-01
                    CP:  8.53D-01  7.40D-01  7.44D-01
 E= -906.587352058222     Delta-E=       -0.000002123303 Rises=F Damp=F
 DIIS: error= 5.31D-05 at cycle   9 NSaved=   9.
 NSaved= 9 IEnMin= 9 EnMin= -906.587352058222     IErMin= 9 ErrMin= 5.31D-05
 ErrMax= 5.31D-05  0.00D+00 EMaxC= 1.00D-01 BMatC= 1.00D-06 BMatP= 3.30D-06
 IDIUse=1 WtCom= 1.00D+00 WtEn= 0.00D+00
 Coeff-Com:  0.152D-03-0.215D-03-0.124D-02-0.472D-02-0.935D-03 0.176D-01
 Coeff-Com:  0.983D-01 0.424D+00 0.467D+00
 Coeff:      0.152D-03-0.215D-03-0.124D-02-0.472D-02-0.935D-03 0.176D-01
 Coeff:      0.983D-01 0.424D+00 0.467D+00
 Gap=     0.148 Goal=   None    Shift=    0.000
 RMSDP=4.66D-06 MaxDP=1.82D-04 DE=-2.12D-06 OVMax= 3.16D-04

 Cycle  10  Pass 1  IDiag  1:
 RMSU=  2.47D-06    CP:  9.87D-01  4.86D-01  5.07D-01  1.05D+00  7.54D-01
                    CP:  8.60D-01  7.58D-01  8.23D-01  5.89D-01
 E= -906.587352877838     Delta-E=       -0.000000819616 Rises=F Damp=F
 DIIS: error= 1.72D-05 at cycle  10 NSaved=  10.
 NSaved=10 IEnMin=10 EnMin= -906.587352877838     IErMin=10 ErrMin= 1.72D-05
 ErrMax= 1.72D-05  0.00D+00 EMaxC= 1.00D-01 BMatC= 9.09D-08 BMatP= 1.00D-06
 IDIUse=1 WtCom= 1.00D+00 WtEn= 0.00D+00
 Coeff-Com:  0.144D-03-0.138D-03-0.172D-03-0.188D-02-0.958D-03 0.210D-02
 Coeff-Com:  0.313D-01 0.174D+00 0.261D+00 0.535D+00
 Coeff:      0.144D-03-0.138D-03-0.172D-03-0.188D-02-0.958D-03 0.210D-02
 Coeff:      0.313D-01 0.174D+00 0.261D+00 0.535D+00
 Gap=     0.148 Goal=   None    Shift=    0.000
 RMSDP=1.38D-06 MaxDP=4.78D-05 DE=-8.20D-07 OVMax= 1.16D-04

 Cycle  11  Pass 1  IDiag  1:
 RMSU=  9.18D-07    CP:  9.87D-01  4.86D-01  5.07D-01  1.05D+00  7.54D-01
                    CP:  8.58D-01  7.59D-01  8.25D-01  6.69D-01  7.10D-01
 E= -906.587352942377     Delta-E=       -0.000000064539 Rises=F Damp=F
 DIIS: error= 6.60D-06 at cycle  11 NSaved=  11.
 NSaved=11 IEnMin=11 EnMin= -906.587352942377     IErMin=11 ErrMin= 6.60D-06
 ErrMax= 6.60D-06  0.00D+00 EMaxC= 1.00D-01 BMatC= 1.62D-08 BMatP= 9.09D-08
 IDIUse=1 WtCom= 1.00D+00 WtEn= 0.00D+00
 Coeff-Com:  0.673D-04-0.801D-04 0.176D-03-0.993D-04-0.217D-03-0.234D-02
 Coeff-Com: -0.204D-02 0.129D-01 0.426D-01 0.307D+00 0.642D+00
 Coeff:      0.673D-04-0.801D-04 0.176D-03-0.993D-04-0.217D-03-0.234D-02
 Coeff:     -0.204D-02 0.129D-01 0.426D-01 0.307D+00 0.642D+00
 Gap=     0.148 Goal=   None    Shift=    0.000
 RMSDP=4.54D-07 MaxDP=2.00D-05 DE=-6.45D-08 OVMax= 1.73D-05

 Cycle  12  Pass 1  IDiag  1:
 RMSU=  2.63D-07    CP:  9.87D-01  4.86D-01  5.07D-01  1.05D+00  7.54D-01
                    CP:  8.59D-01  7.59D-01  8.32D-01  6.72D-01  8.08D-01
                    CP:  8.16D-01
 E= -906.587352955285     Delta-E=       -0.000000012908 Rises=F Damp=F
 DIIS: error= 2.08D-06 at cycle  12 NSaved=  12.
 NSaved=12 IEnMin=12 EnMin= -906.587352955285     IErMin=12 ErrMin= 2.08D-06
 ErrMax= 2.08D-06  0.00D+00 EMaxC= 1.00D-01 BMatC= 1.77D-09 BMatP= 1.62D-08
 IDIUse=1 WtCom= 1.00D+00 WtEn= 0.00D+00
 Coeff-Com:  0.226D-04-0.285D-04 0.109D-03 0.173D-03 0.159D-03-0.100D-02
 Coeff-Com: -0.296D-02-0.676D-02-0.184D-02 0.118D+00 0.300D+00 0.594D+00
 Coeff:      0.226D-04-0.285D-04 0.109D-03 0.173D-03 0.159D-03-0.100D-02
 Coeff:     -0.296D-02-0.676D-02-0.184D-02 0.118D+00 0.300D+00 0.594D+00
 Gap=     0.148 Goal=   None    Shift=    0.000
 RMSDP=1.70D-07 MaxDP=5.65D-06 DE=-1.29D-08 OVMax= 9.92D-06

 Cycle  13  Pass 1  IDiag  1:
 RMSU=  9.92D-08    CP:  9.87D-01  4.86D-01  5.07D-01  1.05D+00  7.54D-01
                    CP:  8.58D-01  7.59D-01  8.32D-01  6.75D-01  8.32D-01
                    CP:  8.52D-01  7.89D-01
 E= -906.587352956715     Delta-E=       -0.000000001430 Rises=F Damp=F
 DIIS: error= 5.81D-07 at cycle  13 NSaved=  13.
 NSaved=13 IEnMin=13 EnMin= -906.587352956715     IErMin=13 ErrMin= 5.81D-07
 ErrMax= 5.81D-07  0.00D+00 EMaxC= 1.00D-01 BMatC= 2.70D-10 BMatP= 1.77D-09
 IDIUse=1 WtCom= 1.00D+00 WtEn= 0.00D+00
 Coeff-Com:  0.370D-05-0.829D-05 0.295D-04 0.950D-04 0.143D-03-0.772D-04
 Coeff-Com: -0.101D-02-0.507D-02-0.767D-02 0.131D-01 0.300D-01 0.283D+00
 Coeff-Com:  0.687D+00
 Coeff:      0.370D-05-0.829D-05 0.295D-04 0.950D-04 0.143D-03-0.772D-04
 Coeff:     -0.101D-02-0.507D-02-0.767D-02 0.131D-01 0.300D-01 0.283D+00
 Coeff:      0.687D+00
 Gap=     0.148 Goal=   None    Shift=    0.000
 RMSDP=6.88D-08 MaxDP=3.72D-06 DE=-1.43D-09 OVMax= 3.29D-06

 Cycle  14  Pass 1  IDiag  1:
 RMSU=  3.42D-08    CP:  9.87D-01  4.86D-01  5.07D-01  1.05D+00  7.53D-01
                    CP:  8.58D-01  7.59D-01  8.32D-01  6.75D-01  8.39D-01
                    CP:  8.62D-01  8.88D-01  8.44D-01
 E= -906.587352956952     Delta-E=       -0.000000000236 Rises=F Damp=F
 DIIS: error= 2.78D-07 at cycle  14 NSaved=  14.
 NSaved=14 IEnMin=14 EnMin= -906.587352956952     IErMin=14 ErrMin= 2.78D-07
 ErrMax= 2.78D-07  0.00D+00 EMaxC= 1.00D-01 BMatC= 3.34D-11 BMatP= 2.70D-10
 IDIUse=1 WtCom= 1.00D+00 WtEn= 0.00D+00
 Coeff-Com:  0.816D-06-0.370D-05 0.745D-05 0.342D-04 0.714D-04 0.659D-04
 Coeff-Com: -0.246D-03-0.210D-02-0.407D-02-0.325D-02-0.147D-01 0.106D+00
 Coeff-Com:  0.397D+00 0.521D+00
 Coeff:      0.816D-06-0.370D-05 0.745D-05 0.342D-04 0.714D-04 0.659D-04
 Coeff:     -0.246D-03-0.210D-02-0.407D-02-0.325D-02-0.147D-01 0.106D+00
 Coeff:      0.397D+00 0.521D+00
 Gap=     0.148 Goal=   None    Shift=    0.000
 RMSDP=2.37D-08 MaxDP=1.00D-06 DE=-2.36D-10 OVMax= 1.81D-06

 Cycle  15  Pass 1  IDiag  1:
 RMSU=  1.43D-08    CP:  9.87D-01  4.86D-01  5.07D-01  1.05D+00  7.53D-01
                    CP:  8.58D-01  7.59D-01  8.32D-01  6.75D-01  8.41D-01
                    CP:  8.63D-01  9.01D-01  8.88D-01  6.15D-01
 E= -906.587352956954     Delta-E=       -0.000000000003 Rises=F Damp=F
 DIIS: error= 1.32D-07 at cycle  15 NSaved=  15.
 NSaved=15 IEnMin=15 EnMin= -906.587352956954     IErMin=15 ErrMin= 1.32D-07
 ErrMax= 1.32D-07  0.00D+00 EMaxC= 1.00D-01 BMatC= 4.85D-12 BMatP= 3.34D-11
 IDIUse=1 WtCom= 1.00D+00 WtEn= 0.00D+00
 Coeff-Com: -0.801D-07-0.737D-06-0.242D-06 0.586D-05 0.239D-04 0.661D-04
 Coeff-Com:  0.424D-04-0.365D-03-0.108D-02-0.426D-02-0.154D-01 0.130D-01
 Coeff-Com:  0.115D+00 0.309D+00 0.584D+00
 Coeff:     -0.801D-07-0.737D-06-0.242D-06 0.586D-05 0.239D-04 0.661D-04
 Coeff:      0.424D-04-0.365D-03-0.108D-02-0.426D-02-0.154D-01 0.130D-01
 Coeff:      0.115D+00 0.309D+00 0.584D+00
 Gap=     0.148 Goal=   None    Shift=    0.000
 RMSDP=1.05D-08 MaxDP=5.36D-07 DE=-2.50D-12 OVMax= 6.31D-07

 Cycle  16  Pass 1  IDiag  1:
 RMSU=  4.21D-09    CP:  9.87D-01  4.86D-01  5.07D-01  1.05D+00  7.53D-01
                    CP:  8.58D-01  7.59D-01  8.32D-01  6.75D-01  8.41D-01
                    CP:  8.64D-01  9.09D-01  9.06D-01  7.07D-01  6.63D-01
 E= -906.587352956976     Delta-E=       -0.000000000022 Rises=F Damp=F
 DIIS: error= 2.43D-08 at cycle  16 NSaved=  16.
 NSaved=16 IEnMin=16 EnMin= -906.587352956976     IErMin=16 ErrMin= 2.43D-08
 ErrMax= 2.43D-08  0.00D+00 EMaxC= 1.00D-01 BMatC= 3.90D-13 BMatP= 4.85D-12
 IDIUse=1 WtCom= 1.00D+00 WtEn= 0.00D+00
 Coeff-Com: -0.852D-07-0.101D-06-0.755D-06 0.167D-06 0.789D-05 0.351D-04
 Coeff-Com:  0.543D-04 0.177D-04-0.194D-03-0.201D-02-0.749D-02-0.259D-02
 Coeff-Com:  0.290D-01 0.130D+00 0.341D+00 0.512D+00
 Coeff:     -0.852D-07-0.101D-06-0.755D-06 0.167D-06 0.789D-05 0.351D-04
 Coeff:      0.543D-04 0.177D-04-0.194D-03-0.201D-02-0.749D-02-0.259D-02
 Coeff:      0.290D-01 0.130D+00 0.341D+00 0.512D+00
 Gap=     0.148 Goal=   None    Shift=    0.000
 RMSDP=2.52D-09 MaxDP=7.45D-08 DE=-2.23D-11 OVMax= 1.31D-07

 Error on total polarization charges =  0.00491
 SCF Done:  E(RB3LYP) =  -906.587352957     A.U. after   16 cycles
            NFock= 16  Conv=0.25D-08     -V/T= 2.0087
 KE= 8.987920104571D+02 PE=-4.658206309354D+03 EE= 1.592588908534D+03
 Leave Link  502 at Mon Jul 12 12:36:41 2021, MaxMem=   104857600 cpu:             760.4 elap:             196.5
 (Enter /dades/curu/g16A03_MST/g16/l601.exe)
 Copying SCF densities to generalized density rwf, IOpCl= 0 IROHF=0.

 **********************************************************************

            Population analysis using the SCF density.

 **********************************************************************

 Orbital symmetries:
       Occupied  (A) (A) (A) (A) (A) (A) (A) (A) (A) (A) (A) (A)
                 (A) (A) (A) (A) (A) (A) (A) (A) (A) (A) (A) (A)
                 (A) (A) (A) (A) (A) (A) (A) (A) (A) (A) (A) (A)
                 (A) (A) (A) (A) (A) (A) (A) (A) (A) (A) (A) (A)
                 (A) (A) (A) (A) (A) (A) (A) (A) (A) (A) (A) (A)
                 (A) (A) (A) (A)
       Virtual   (A) (A) (A) (A) (A) (A) (A) (A) (A) (A) (A) (A)
                 (A) (A) (A) (A) (A) (A) (A) (A) (A) (A) (A) (A)
                 (A) (A) (A) (A) (A) (A) (A) (A) (A) (A) (A) (A)
                 (A) (A) (A) (A) (A) (A) (A) (A) (A) (A) (A) (A)
                 (A) (A) (A) (A) (A) (A) (A) (A) (A) (A) (A) (A)
                 (A) (A) (A) (A) (A) (A) (A) (A) (A) (A) (A) (A)
                 (A) (A) (A) (A) (A) (A) (A) (A) (A) (A) (A) (A)
                 (A) (A) (A) (A) (A) (A) (A) (A) (A) (A) (A) (A)
                 (A) (A) (A) (A) (A) (A) (A) (A) (A) (A) (A) (A)
                 (A) (A) (A) (A) (A) (A) (A) (A) (A) (A) (A) (A)
                 (A) (A) (A) (A) (A) (A) (A) (A) (A) (A) (A) (A)
                 (A) (A) (A) (A) (A) (A) (A) (A) (A) (A) (A) (A)
                 (A) (A) (A) (A) (A) (A) (A) (A) (A) (A) (A) (A)
                 (A) (A) (A) (A) (A) (A) (A) (A) (A) (A) (A) (A)
                 (A) (A) (A) (A) (A) (A) (A) (A) (A) (A) (A) (A)
                 (A) (A) (A) (A) (A) (A) (A) (A) (A) (A) (A) (A)
                 (A) (A) (A) (A) (A) (A) (A) (A) (A) (A) (A) (A)
                 (A) (A) (A) (A) (A) (A) (A) (A) (A)
 The electronic state is 1-A.
 Alpha  occ. eigenvalues --  -19.15047 -19.14897 -19.14748 -19.13973 -19.02220
 Alpha  occ. eigenvalues --  -14.42395 -14.35599 -14.35469 -14.20399 -10.27815
 Alpha  occ. eigenvalues --  -10.24393 -10.24074 -10.23904 -10.23636 -10.19897
 Alpha  occ. eigenvalues --  -10.19770 -10.19528  -1.08793  -1.04441  -1.01926
 Alpha  occ. eigenvalues --   -1.00562  -0.99675  -0.94290  -0.88149  -0.84142
 Alpha  occ. eigenvalues --   -0.78168  -0.76139  -0.72872  -0.66948  -0.62700
 Alpha  occ. eigenvalues --   -0.61211  -0.58747  -0.56753  -0.53917  -0.51173
 Alpha  occ. eigenvalues --   -0.50456  -0.49535  -0.48658  -0.46951  -0.45637
 Alpha  occ. eigenvalues --   -0.44789  -0.43970  -0.43249  -0.42847  -0.40842
 Alpha  occ. eigenvalues --   -0.39310  -0.38937  -0.37027  -0.34903  -0.34148
 Alpha  occ. eigenvalues --   -0.34036  -0.33033  -0.31015  -0.30514  -0.28753
 Alpha  occ. eigenvalues --   -0.28432  -0.27603  -0.27292  -0.26341  -0.25762
 Alpha  occ. eigenvalues --   -0.23092  -0.19092  -0.17720  -0.15230
 Alpha virt. eigenvalues --   -0.00462   0.04166   0.04703   0.08494   0.09883
 Alpha virt. eigenvalues --    0.12098   0.12536   0.13256   0.13611   0.15081
 Alpha virt. eigenvalues --    0.16178   0.16617   0.17934   0.18221   0.19075
 Alpha virt. eigenvalues --    0.19928   0.20276   0.20981   0.22438   0.23813
 Alpha virt. eigenvalues --    0.25079   0.26417   0.27316   0.28363   0.29970
 Alpha virt. eigenvalues --    0.32872   0.34695   0.36810   0.40648   0.42631
 Alpha virt. eigenvalues --    0.45053   0.50068   0.52178   0.53617   0.54851
 Alpha virt. eigenvalues --    0.55345   0.55851   0.57264   0.58446   0.58936
 Alpha virt. eigenvalues --    0.60190   0.61756   0.62340   0.63307   0.64500
 Alpha virt. eigenvalues --    0.66124   0.67283   0.68406   0.69642   0.70245
 Alpha virt. eigenvalues --    0.71285   0.72265   0.74556   0.75326   0.75681
 Alpha virt. eigenvalues --    0.76695   0.77476   0.79891   0.80041   0.81086
 Alpha virt. eigenvalues --    0.81564   0.81957   0.83035   0.83789   0.85102
 Alpha virt. eigenvalues --    0.85826   0.86651   0.87797   0.87992   0.89156
 Alpha virt. eigenvalues --    0.90568   0.91905   0.92820   0.94005   0.95318
 Alpha virt. eigenvalues --    0.96633   0.97829   0.99540   1.00043   1.01579
 Alpha virt. eigenvalues --    1.02618   1.04349   1.04881   1.05859   1.06294
 Alpha virt. eigenvalues --    1.08230   1.09930   1.10463   1.12259   1.12904
 Alpha virt. eigenvalues --    1.15458   1.16875   1.19041   1.20966   1.22675
 Alpha virt. eigenvalues --    1.24196   1.27152   1.30854   1.32232   1.32789
 Alpha virt. eigenvalues --    1.34542   1.36958   1.38657   1.41743   1.44521
 Alpha virt. eigenvalues --    1.47026   1.48971   1.49911   1.51106   1.54974
 Alpha virt. eigenvalues --    1.55362   1.55705   1.57288   1.60018   1.61375
 Alpha virt. eigenvalues --    1.63720   1.64376   1.66905   1.69705   1.72279
 Alpha virt. eigenvalues --    1.73865   1.76095   1.76762   1.77721   1.79537
 Alpha virt. eigenvalues --    1.80158   1.81485   1.82172   1.83665   1.86750
 Alpha virt. eigenvalues --    1.87518   1.88009   1.88288   1.91024   1.92127
 Alpha virt. eigenvalues --    1.93057   1.93981   1.96395   1.97599   1.98927
 Alpha virt. eigenvalues --    2.01652   2.02969   2.04521   2.06805   2.07465
 Alpha virt. eigenvalues --    2.08923   2.11083   2.12184   2.15653   2.16829
 Alpha virt. eigenvalues --    2.18634   2.19987   2.20396   2.24023   2.24996
 Alpha virt. eigenvalues --    2.26845   2.29019   2.31806   2.32966   2.33862
 Alpha virt. eigenvalues --    2.35298   2.38205   2.39073   2.41760   2.42806
 Alpha virt. eigenvalues --    2.44423   2.47164   2.49800   2.52245   2.54131
 Alpha virt. eigenvalues --    2.54606   2.57945   2.58164   2.60486   2.63936
 Alpha virt. eigenvalues --    2.64329   2.66834   2.67488   2.71092   2.74169
 Alpha virt. eigenvalues --    2.76423   2.78764   2.81516   2.82627   2.83403
 Alpha virt. eigenvalues --    2.86440   2.87994   2.92242   2.97588   2.97979
 Alpha virt. eigenvalues --    3.03527   3.06981   3.10402   3.15413   3.26205
 Alpha virt. eigenvalues --    3.30825   3.65047   3.74188   3.75686   3.89390
 Alpha virt. eigenvalues --    3.96671   4.02872   4.07462   4.09991   4.16754
 Alpha virt. eigenvalues --    4.25129   4.27345   4.31598   4.46595   4.50142
 Alpha virt. eigenvalues --    4.58686   4.71594   4.82135
          Condensed to atoms (all electrons):
               1          2          3          4          5          6
     1  N    7.432669   0.253492   0.477220  -0.146213  -0.171473   0.012988
     2  H    0.253492   0.535598  -0.051559   0.008947  -0.007541   0.000627
     3  C    0.477220  -0.051559   4.392425   0.614741   0.227321  -0.028191
     4  O   -0.146213   0.008947   0.614741   8.277185  -0.101345   0.007234
     5  C   -0.171473  -0.007541   0.227321  -0.101345   5.180655   0.384168
     6  C    0.012988   0.000627  -0.028191   0.007234   0.384168   5.095520
     7  N   -0.000328   0.000018   0.006116   0.000166  -0.021288   0.402516
     8  H    0.000086  -0.000062  -0.000770   0.002909  -0.036992   0.369686
     9  N   -0.030182   0.013619  -0.038287   0.001994   0.382147  -0.087161
    10  N    0.001029   0.000447   0.004627  -0.000026  -0.103767  -0.121262
    11  C    0.000038  -0.000086  -0.000142   0.000001   0.004389   0.006490
    12  H    0.000000   0.000000   0.000000  -0.000000  -0.000148   0.000094
    13  O    0.000000  -0.000007   0.000000  -0.000000   0.000561  -0.000306
    14  C   -0.000006  -0.000100   0.000004  -0.000000  -0.000018  -0.000019
    15  C   -0.000000   0.000001  -0.000000  -0.000000   0.000001  -0.000000
    16  O   -0.000000   0.000000  -0.000000   0.000000  -0.000000   0.000000
    17  H    0.000000   0.000001   0.000000   0.000000  -0.000001  -0.000000
    18  H   -0.000000   0.000000   0.000000   0.000000  -0.000000   0.000000
    19  H   -0.000000   0.000000  -0.000000   0.000000  -0.000000   0.000000
    20  H   -0.000033   0.000791  -0.000012   0.000000  -0.000096   0.000058
    21  C    0.000001  -0.000002  -0.000000   0.000000  -0.000101   0.000010
    22  O   -0.000000   0.000000   0.000000  -0.000000   0.000000   0.000000
    23  H    0.000000  -0.000000  -0.000000  -0.000000   0.000000   0.000000
    24  H   -0.000000   0.000000   0.000000  -0.000000   0.000003   0.000000
    25  C   -0.000004  -0.000002   0.000008  -0.000000   0.000778  -0.000139
    26  H   -0.000006   0.000038  -0.000000  -0.000000   0.001291   0.000029
    27  O   -0.000000   0.000000  -0.000000   0.000000  -0.000005  -0.000005
    28  H   -0.000000   0.000000  -0.000000  -0.000000   0.000000   0.000001
               7          8          9         10         11         12
     1  N   -0.000328   0.000086  -0.030182   0.001029   0.000038   0.000000
     2  H    0.000018  -0.000062   0.013619   0.000447  -0.000086   0.000000
     3  C    0.006116  -0.000770  -0.038287   0.004627  -0.000142   0.000000
     4  O    0.000166   0.002909   0.001994  -0.000026   0.000001  -0.000000
     5  C   -0.021288  -0.036992   0.382147  -0.103767   0.004389  -0.000148
     6  C    0.402516   0.369686  -0.087161  -0.121262   0.006490   0.000094
     7  N    6.832705  -0.046310  -0.087673   0.227584  -0.046480   0.007415
     8  H   -0.046310   0.541935   0.005199   0.006647  -0.000162  -0.000019
     9  N   -0.087673   0.005199   7.039197   0.225622  -0.051687   0.003757
    10  N    0.227584   0.006647   0.225622   6.784572   0.201322  -0.048638
    11  C   -0.046480  -0.000162  -0.051687   0.201322   4.882459   0.371157
    12  H    0.007415  -0.000019   0.003757  -0.048638   0.371157   0.531911
    13  O    0.001645   0.000001   0.003035  -0.060530   0.261592  -0.031035
    14  C    0.000003   0.000000  -0.001157  -0.006283  -0.032999   0.005952
    15  C    0.000002  -0.000000   0.000133  -0.000087   0.002676  -0.000107
    16  O   -0.000000  -0.000000   0.000000  -0.000004   0.000034   0.000003
    17  H   -0.000000   0.000000  -0.000029   0.000007  -0.000009  -0.000000
    18  H   -0.000000   0.000000  -0.000001   0.000006   0.000104  -0.000019
    19  H   -0.000000  -0.000000  -0.000001   0.000003  -0.000098   0.000002
    20  H    0.000064  -0.000000   0.011469   0.003076  -0.003442  -0.000371
    21  C   -0.000131  -0.000000  -0.000674   0.000438  -0.049738   0.002709
    22  O    0.000000   0.000000   0.000000   0.000015   0.001197  -0.000012
    23  H   -0.000000  -0.000000   0.000000  -0.000007  -0.000196   0.000003
    24  H    0.000001   0.000000  -0.000180   0.000253   0.006326  -0.000211
    25  C    0.002690   0.000009  -0.003576  -0.043623   0.284164  -0.039906
    26  H    0.000563  -0.000004   0.007274  -0.002982  -0.058765   0.003997
    27  O   -0.000068  -0.000000   0.000087   0.001811  -0.029989   0.004767
    28  H   -0.000001   0.000000  -0.000000  -0.000261   0.005630  -0.000316
              13         14         15         16         17         18
     1  N    0.000000  -0.000006  -0.000000  -0.000000   0.000000  -0.000000
     2  H   -0.000007  -0.000100   0.000001   0.000000   0.000001   0.000000
     3  C    0.000000   0.000004  -0.000000  -0.000000   0.000000   0.000000
     4  O   -0.000000  -0.000000  -0.000000   0.000000   0.000000   0.000000
     5  C    0.000561  -0.000018   0.000001  -0.000000  -0.000001  -0.000000
     6  C   -0.000306  -0.000019  -0.000000   0.000000  -0.000000   0.000000
     7  N    0.001645   0.000003   0.000002  -0.000000  -0.000000  -0.000000
     8  H    0.000001   0.000000  -0.000000  -0.000000   0.000000   0.000000
     9  N    0.003035  -0.001157   0.000133   0.000000  -0.000029  -0.000001
    10  N   -0.060530  -0.006283  -0.000087  -0.000004   0.000007   0.000006
    11  C    0.261592  -0.032999   0.002676   0.000034  -0.000009   0.000104
    12  H   -0.031035   0.005952  -0.000107   0.000003  -0.000000  -0.000019
    13  O    8.309432   0.200469  -0.029742   0.001402  -0.000238  -0.000189
    14  C    0.200469   5.011033   0.336240  -0.027162  -0.002820  -0.015602
    15  C   -0.029742   0.336240   4.845537   0.248872  -0.034141   0.373335
    16  O    0.001402  -0.027162   0.248872   8.255109   0.239183  -0.036582
    17  H   -0.000238  -0.002820  -0.034141   0.239183   0.374890   0.006078
    18  H   -0.000189  -0.015602   0.373335  -0.036582   0.006078   0.539501
    19  H    0.002884  -0.056583   0.345485  -0.033483  -0.002589  -0.041691
    20  H   -0.043991   0.353859  -0.035908  -0.003045   0.006803   0.002978
    21  C   -0.045801   0.276241  -0.022174   0.002731  -0.000021  -0.004131
    22  O    0.000654  -0.035643   0.001908   0.000028   0.000007   0.003149
    23  H   -0.000140   0.006935  -0.000133   0.000000  -0.000000  -0.000092
    24  H    0.004356  -0.040348  -0.000235  -0.000025  -0.000008   0.000130
    25  C   -0.061220  -0.051955   0.003159  -0.000038  -0.000010  -0.000075
    26  H    0.002780   0.005680  -0.000087   0.000001  -0.000001  -0.000001
    27  O    0.001676   0.001518  -0.000032   0.000000  -0.000000   0.000000
    28  H   -0.000154   0.000037  -0.000007  -0.000000   0.000000  -0.000000
              19         20         21         22         23         24
     1  N   -0.000000  -0.000033   0.000001  -0.000000   0.000000  -0.000000
     2  H    0.000000   0.000791  -0.000002   0.000000  -0.000000   0.000000
     3  C   -0.000000  -0.000012  -0.000000   0.000000  -0.000000   0.000000
     4  O    0.000000   0.000000   0.000000  -0.000000  -0.000000  -0.000000
     5  C   -0.000000  -0.000096  -0.000101   0.000000   0.000000   0.000003
     6  C    0.000000   0.000058   0.000010   0.000000   0.000000   0.000000
     7  N   -0.000000   0.000064  -0.000131   0.000000  -0.000000   0.000001
     8  H   -0.000000  -0.000000  -0.000000   0.000000  -0.000000   0.000000
     9  N   -0.000001   0.011469  -0.000674   0.000000   0.000000  -0.000180
    10  N    0.000003   0.003076   0.000438   0.000015  -0.000007   0.000253
    11  C   -0.000098  -0.003442  -0.049738   0.001197  -0.000196   0.006326
    12  H    0.000002  -0.000371   0.002709  -0.000012   0.000003  -0.000211
    13  O    0.002884  -0.043991  -0.045801   0.000654  -0.000140   0.004356
    14  C   -0.056583   0.353859   0.276241  -0.035643   0.006935  -0.040348
    15  C    0.345485  -0.035908  -0.022174   0.001908  -0.000133  -0.000235
    16  O   -0.033483  -0.003045   0.002731   0.000028   0.000000  -0.000025
    17  H   -0.002589   0.006803  -0.000021   0.000007  -0.000000  -0.000008
    18  H   -0.041691   0.002978  -0.004131   0.003149  -0.000092   0.000130
    19  H    0.634469  -0.000024   0.004236   0.001444  -0.000091   0.001304
    20  H   -0.000024   0.586399  -0.050650   0.002163  -0.000288   0.001210
    21  C    0.004236  -0.050650   5.125265   0.231297  -0.026268   0.346751
    22  O    0.001444   0.002163   0.231297   8.279802   0.231589  -0.038057
    23  H   -0.000091  -0.000288  -0.026268   0.231589   0.375550  -0.009180
    24  H    0.001304   0.001210   0.346751  -0.038057  -0.009180   0.636051
    25  C    0.000101  -0.000443   0.273884  -0.051100  -0.002771  -0.049319
    26  H   -0.000007   0.000465  -0.048349   0.002480   0.000187  -0.002972
    27  O    0.000003   0.000015  -0.051342  -0.010634   0.008915   0.002123
    28  H    0.000000  -0.000006  -0.002180   0.005237   0.003738   0.000574
              25         26         27         28
     1  N   -0.000004  -0.000006  -0.000000  -0.000000
     2  H   -0.000002   0.000038   0.000000   0.000000
     3  C    0.000008  -0.000000  -0.000000  -0.000000
     4  O   -0.000000  -0.000000   0.000000  -0.000000
     5  C    0.000778   0.001291  -0.000005   0.000000
     6  C   -0.000139   0.000029  -0.000005   0.000001
     7  N    0.002690   0.000563  -0.000068  -0.000001
     8  H    0.000009  -0.000004  -0.000000   0.000000
     9  N   -0.003576   0.007274   0.000087  -0.000000
    10  N   -0.043623  -0.002982   0.001811  -0.000261
    11  C    0.284164  -0.058765  -0.029989   0.005630
    12  H   -0.039906   0.003997   0.004767  -0.000316
    13  O   -0.061220   0.002780   0.001676  -0.000154
    14  C   -0.051955   0.005680   0.001518   0.000037
    15  C    0.003159  -0.000087  -0.000032  -0.000007
    16  O   -0.000038   0.000001   0.000000  -0.000000
    17  H   -0.000010  -0.000001  -0.000000   0.000000
    18  H   -0.000075  -0.000001   0.000000  -0.000000
    19  H    0.000101  -0.000007   0.000003   0.000000
    20  H   -0.000443   0.000465   0.000015  -0.000006
    21  C    0.273884  -0.048349  -0.051342  -0.002180
    22  O   -0.051100   0.002480  -0.010634   0.005237
    23  H   -0.002771   0.000187   0.008915   0.003738
    24  H   -0.049319  -0.002972   0.002123   0.000574
    25  C    5.049106   0.370259   0.235363  -0.023069
    26  H    0.370259   0.599373  -0.033908  -0.004319
    27  O    0.235363  -0.033908   8.273978   0.235488
    28  H   -0.023069  -0.004319   0.235488   0.361675
 Mulliken charges:
               1
     1  N   -0.829279
     2  H    0.245778
     3  C    0.396499
     4  O   -0.665592
     5  C    0.261464
     6  C   -0.042337
     7  N   -0.279208
     8  H    0.157845
     9  N   -0.392923
    10  N   -0.069989
    11  C    0.246213
    12  H    0.189015
    13  O   -0.517138
    14  C    0.072721
    15  C   -0.034696
    16  O   -0.647024
    17  H    0.412898
    18  H    0.173101
    19  H    0.144637
    20  H    0.168957
    21  C    0.037999
    22  O   -0.625526
    23  H    0.412247
    24  H    0.141452
    25  C    0.107729
    26  H    0.156984
    27  O   -0.639762
    28  H    0.417932
 Sum of Mulliken charges =  -1.00000
 Mulliken charges with hydrogens summed into heavy atoms:
               1
     1  N   -0.583501
     3  C    0.396499
     4  O   -0.665592
     5  C    0.261464
     6  C    0.115508
     7  N   -0.279208
     9  N   -0.392923
    10  N   -0.069989
    11  C    0.435229
    13  O   -0.517138
    14  C    0.241679
    15  C    0.283042
    16  O   -0.234126
    21  C    0.179451
    22  O   -0.213279
    25  C    0.264713
    27  O   -0.221829
 Electronic spatial extent (au):  <R**2>=           4754.1787
 Charge=             -1.0000 electrons
 Dipole moment (field-independent basis, Debye):
    X=            -18.0466    Y=             -7.0699    Z=             -1.7123  Tot=             19.4575
 Quadrupole moment (field-independent basis, Debye-Ang):
   XX=           -191.5958   YY=           -112.9766   ZZ=           -103.1250
   XY=            -15.9350   XZ=             33.2551   YZ=             11.9679
 Traceless Quadrupole moment (field-independent basis, Debye-Ang):
   XX=            -55.6967   YY=             22.9225   ZZ=             32.7741
   XY=            -15.9350   XZ=             33.2551   YZ=             11.9679
 Octapole moment (field-independent basis, Debye-Ang**2):
  XXX=           -398.6141  YYY=            -35.3575  ZZZ=            -11.6143  XYY=            -38.3363
  XXY=           -131.3087  XXZ=             53.3402  XZZ=            -54.2793  YZZ=            -35.1825
  YYZ=            -20.9732  XYZ=             29.3917
 Hexadecapole moment (field-independent basis, Debye-Ang**3):
 XXXX=          -6139.7535 YYYY=          -1390.0116 ZZZZ=           -549.5929 XXXY=           -359.3941
 XXXZ=            450.0268 YYYX=             44.4621 YYYZ=             72.6084 ZZZX=             98.4525
 ZZZY=             74.7744 XXYY=          -1111.6537 XXZZ=           -824.6818 YYZZ=           -314.8906
 XXYZ=            136.5687 YYXZ=            153.8330 ZZXY=             17.0205
 N-N= 1.260238037406D+03 E-N=-4.658206308556D+03  KE= 8.987920104571D+02
 No NMR shielding tensors so no spin-rotation constants.
 Leave Link  601 at Mon Jul 12 12:36:41 2021, MaxMem=   104857600 cpu:               0.5 elap:               0.2
 (Enter /dades/curu/g16A03_MST/g16/l701.exe)
 ... and contract with generalized density number  0.
 Compute integral first derivatives.
 D1PCM: PCM CHGder 1st derivatives, ID1Alg=3 FixD1E=F DoIter=F DoCFld=F I1PDM=0.
 GePol: Maximum number of non-zero 1st derivatives   =     256
 Leave Link  701 at Mon Jul 12 12:36:45 2021, MaxMem=   104857600 cpu:              13.4 elap:               3.5
 (Enter /dades/curu/g16A03_MST/g16/l702.exe)
 L702 exits ... SP integral derivatives will be done elsewhere.
 Leave Link  702 at Mon Jul 12 12:36:45 2021, MaxMem=   104857600 cpu:               0.1 elap:               0.0
 (Enter /dades/curu/g16A03_MST/g16/l703.exe)
 Integral derivatives from FoFJK, PRISM(SPDF).
 Compute integral first derivatives, UseDBF=F ICtDFT=           0.
 Calling FoFJK, ICntrl=      2127 FMM=F ISym2X=0 I1Cent= 0 IOpClX= 0 NMat=1 NMatS=1 NMatT=0.
 FoFJK:  IHMeth= 1 ICntrl=    2127 DoSepK=F KAlg= 0 I1Cent=           0 FoldK=F
 IRaf=         0 NMat=       1 IRICut=       1 DoRegI=T DoRafI=F ISym2E= 0 IDoP0=0 IntGTp=1.
 FoFCou: FMM=F IPFlag=           0 FMFlag=      100000 FMFlg1=         800
         NFxFlg=           0 DoJE=F BraDBF=F KetDBF=F FulRan=T
         wScrn=  0.000000 ICntrl=      2127 IOpCl=  0 I1Cent=           0 NGrid=           0
         NMat0=    1 NMatS0=      1 NMatT0=    0 NMatD0=    1 NMtDS0=    0 NMtDT0=    0
 Symmetry not used in FoFCou.
 Leave Link  703 at Mon Jul 12 12:37:09 2021, MaxMem=   104857600 cpu:              98.0 elap:              24.5
 (Enter /dades/curu/g16A03_MST/g16/l716.exe)
 Dipole        =-7.10006734D+00-2.78151730D+00-6.73654088D-01
 ***** Axes restored to original set *****
 -------------------------------------------------------------------
 Center     Atomic                   Forces (Hartrees/Bohr)
 Number     Number              X              Y              Z
 -------------------------------------------------------------------
      1        7          -0.025957204   -0.030059154    0.035072985
      2        1          -0.005185964    0.010572711    0.001277322
      3        6          -0.036468603   -0.036901679    0.034559037
[...]
 Alpha virt. eigenvalues --    0.80568   0.80814   0.82186   0.82801   0.82989
 Alpha virt. eigenvalues --    0.83484   0.83811   0.84342   0.84605   0.84858
 Alpha virt. eigenvalues --    0.86414   0.86903   0.88045   0.88607   0.89161
 Alpha virt. eigenvalues --    0.89579   0.89905   0.90086   0.90663   0.92191
 Alpha virt. eigenvalues --    0.92584   0.92862   0.93511   0.93684   0.94808
 Alpha virt. eigenvalues --    0.95177   0.95540   0.96311   0.96823   0.97353
 Alpha virt. eigenvalues --    0.98954   0.99390   0.99958   1.00679   1.00802
 Alpha virt. eigenvalues --    1.01611   1.02332   1.02834   1.04159   1.04613
 Alpha virt. eigenvalues --    1.04769   1.05265   1.06241   1.06922   1.07959
 Alpha virt. eigenvalues --    1.08339   1.09121   1.09896   1.10769   1.11508
 Alpha virt. eigenvalues --    1.12237   1.12645   1.14051   1.14222   1.15181
 Alpha virt. eigenvalues --    1.15488   1.16418   1.17782   1.18858   1.20163
 Alpha virt. eigenvalues --    1.20715   1.21512   1.22116   1.23423   1.24367
 Alpha virt. eigenvalues --    1.25251   1.25994   1.26221   1.26809   1.27571
 Alpha virt. eigenvalues --    1.28755   1.29502   1.30859   1.31756   1.32178
 Alpha virt. eigenvalues --    1.34034   1.34405   1.35606   1.35781   1.37110
 Alpha virt. eigenvalues --    1.37846   1.39004   1.39613   1.40562   1.41451
 Alpha virt. eigenvalues --    1.41963   1.43295   1.44460   1.45704   1.45942
 Alpha virt. eigenvalues --    1.47547   1.48028   1.49061   1.49824   1.50414
 Alpha virt. eigenvalues --    1.51388   1.52061   1.53311   1.53959   1.56858
 Alpha virt. eigenvalues --    1.57958   1.58567   1.59117   1.60122   1.61774
 Alpha virt. eigenvalues --    1.63937   1.64119   1.66520   1.67123   1.68626
 Alpha virt. eigenvalues --    1.68817   1.69634   1.69883   1.71297   1.72429
 Alpha virt. eigenvalues --    1.73201   1.73677   1.75126   1.76583   1.78520
 Alpha virt. eigenvalues --    1.79497   1.80011   1.81032   1.82855   1.83872
 Alpha virt. eigenvalues --    1.84353   1.85954   1.86434   1.86992   1.87835
 Alpha virt. eigenvalues --    1.88513   1.89157   1.90075   1.90723   1.91543
 Alpha virt. eigenvalues --    1.93270   1.93980   1.95686   1.97155   1.98698
 Alpha virt. eigenvalues --    1.98795   1.99670   2.00333   2.00638   2.02606
 Alpha virt. eigenvalues --    2.02847   2.03209   2.06495   2.07823   2.09645
 Alpha virt. eigenvalues --    2.10653   2.11954   2.13585   2.14804   2.15226
 Alpha virt. eigenvalues --    2.15678   2.17819   2.18494   2.18884   2.20008
 Alpha virt. eigenvalues --    2.20882   2.21348   2.23370   2.24296   2.24780
 Alpha virt. eigenvalues --    2.26742   2.26823   2.27968   2.28996   2.29233
 Alpha virt. eigenvalues --    2.30878   2.32065   2.33122   2.34449   2.34959
 Alpha virt. eigenvalues --    2.36939   2.37710   2.38926   2.39204   2.41349
 Alpha virt. eigenvalues --    2.41463   2.43335   2.44709   2.46147   2.47033
 Alpha virt. eigenvalues --    2.47744   2.48735   2.49583   2.50283   2.51902
 Alpha virt. eigenvalues --    2.54392   2.55147   2.56362   2.57421   2.58829
 Alpha virt. eigenvalues --    2.60072   2.61157   2.62498   2.63689   2.64274
 Alpha virt. eigenvalues --    2.65380   2.66696   2.68377   2.70168   2.70383
 Alpha virt. eigenvalues --    2.71261   2.73944   2.75082   2.76000   2.76865
 Alpha virt. eigenvalues --    2.78542   2.79653   2.80358   2.80910   2.83412
 Alpha virt. eigenvalues --    2.86114   2.87582   2.88959   2.90751   2.91094
 Alpha virt. eigenvalues --    2.92742   2.96055   2.96771   2.98313   2.99192
 Alpha virt. eigenvalues --    3.00856   3.01776   3.03985   3.05163   3.05315
 Alpha virt. eigenvalues --    3.07653   3.08224   3.10240   3.10603   3.13720
 Alpha virt. eigenvalues --    3.14238   3.16218   3.19264   3.20104   3.22150
 Alpha virt. eigenvalues --    3.24258   3.24785   3.28669   3.30869   3.33493
 Alpha virt. eigenvalues --    3.35422   3.36641   3.38107   3.40692   3.44409
 Alpha virt. eigenvalues --    3.49936   3.52377   3.57912   3.64127   3.69191
 Alpha virt. eigenvalues --    3.73048   3.73955   3.75751   3.78349   3.81463
 Alpha virt. eigenvalues --    3.86415   3.88271   3.88925   3.90587   3.92692
 Alpha virt. eigenvalues --    3.94285   3.96939   3.97789   3.97880   3.99700
 Alpha virt. eigenvalues --    4.00725   4.02137   4.02883   4.05373   4.07772
 Alpha virt. eigenvalues --    4.09098   4.09495   4.12280   4.13135   4.17564
 Alpha virt. eigenvalues --    4.21613   4.23781   4.28468   4.31044   4.39008
 Alpha virt. eigenvalues --    4.41351   4.44148   4.49478   4.60255   4.80331
 Alpha virt. eigenvalues --    5.33430
          Condensed to atoms (all electrons):
               1          2          3          4          5          6
     1  N    7.586980   0.225196  -0.198710  -0.147834   0.476996  -0.043011
     2  H    0.225196   0.812512   0.095066   0.013324  -0.247256  -0.031767
     3  C   -0.198710   0.095066   6.115463   0.115258  -1.386153   0.050863
     4  O   -0.147834   0.013324   0.115258   9.005493   0.059717   0.021771
     5  C    0.476996  -0.247256  -1.386153   0.059717   7.502514  -0.590602
     6  C   -0.043011  -0.031767   0.050863   0.021771  -0.590602   6.081311
     7  N    0.005287   0.012395  -0.050116   0.007422   0.114234   0.517867
     8  H   -0.003526   0.000546   0.079345  -0.019196  -0.044247   0.121785
     9  N   -0.121575  -0.007693  -0.054582  -0.005348   0.148472   0.393549
    10  N   -0.080319   0.152480   0.352654  -0.046163  -0.654199  -0.944511
    11  C   -0.014911   0.022214   0.001535  -0.002134  -0.157288  -0.171625
    12  H   -0.000806  -0.001442  -0.003370  -0.000190  -0.049659   0.042073
    13  O    0.000409   0.000094   0.003590  -0.000349   0.048093  -0.010175
    14  C    0.000757  -0.006502  -0.001114   0.000036   0.009528   0.015925
    15  C    0.000025   0.000440  -0.001093   0.000051  -0.004237   0.008409
    16  O   -0.000026   0.000060   0.000383  -0.000000   0.001048  -0.000013
    17  H    0.000022   0.000085  -0.000196  -0.000005   0.000050   0.000441
    18  H   -0.000000  -0.000231  -0.000219   0.000016  -0.002045   0.000560
    19  H    0.000017   0.000192   0.000197  -0.000008   0.001236  -0.000476
    20  H   -0.001273  -0.003764   0.006742   0.000124  -0.008448  -0.003053
    21  C    0.002210   0.016601  -0.006061   0.000327   0.022422   0.042832
    22  O   -0.000002  -0.000107   0.000027   0.000000  -0.002611  -0.000062
    23  H   -0.000012   0.000138   0.000202  -0.000009   0.000553  -0.000806
    24  H    0.000235  -0.000199  -0.001446   0.000074  -0.004871   0.001972
    25  C   -0.004393  -0.018608   0.005115  -0.001439  -0.042894  -0.064504
    26  H   -0.000540  -0.009124   0.004916   0.000042   0.002245  -0.027623
    27  O   -0.000070   0.000610   0.001382   0.000004   0.012552   0.006939
    28  H   -0.000064  -0.000239  -0.000135   0.000013  -0.002459  -0.000134
               7          8          9         10         11         12
     1  N    0.005287  -0.003526  -0.121575  -0.080319  -0.014911  -0.000806
     2  H    0.012395   0.000546  -0.007693   0.152480   0.022214  -0.001442
     3  C   -0.050116   0.079345  -0.054582   0.352654   0.001535  -0.003370
     4  O    0.007422  -0.019196  -0.005348  -0.046163  -0.002134  -0.000190
     5  C    0.114234  -0.044247   0.148472  -0.654199  -0.157288  -0.049659
     6  C    0.517867   0.121785   0.393549  -0.944511  -0.171625   0.042073
     7  N   10.014127  -0.293548  -1.314042  -1.358403  -0.323893   0.284714
     8  H   -0.293548   1.272181  -0.076148   0.297961  -0.019033  -0.003987
     9  N   -1.314042  -0.076148  10.662546  -1.401103  -0.540638  -0.094241
    10  N   -1.358403   0.297961  -1.401103  11.560140  -0.018561  -0.339215
    11  C   -0.323893  -0.019033  -0.540638  -0.018561   8.653726  -0.274986
    12  H    0.284714  -0.003987  -0.094241  -0.339215  -0.274986   1.654196
    13  O   -0.143356   0.001611   0.143244   0.073222  -0.287415  -0.147187
    14  C    0.229550  -0.001606  -0.037513  -0.247926  -1.880004   0.180708
    15  C   -0.001575   0.000297  -0.008840   0.043321   0.160413   0.002532
    16  O   -0.005836   0.000069   0.000555  -0.001312   0.008406  -0.001686
    17  H    0.001266   0.000014  -0.000543   0.000624  -0.007585  -0.000474
    18  H    0.001194  -0.000015  -0.000757  -0.000048  -0.063335   0.004462
    19  H   -0.002068  -0.000001   0.004967  -0.006829   0.039232   0.002502
    20  H   -0.012556  -0.000247  -0.020844  -0.008122  -0.035932   0.014486
    21  C   -0.086091   0.000557  -0.030863   0.628840   0.656787  -0.128328
    22  O    0.006746  -0.000053  -0.018349  -0.008840   0.055095   0.024710
    23  H   -0.001903   0.000050  -0.000606  -0.000797  -0.007758  -0.000129
    24  H   -0.001031  -0.000106   0.007986  -0.029092  -0.013027  -0.000361
    25  C   -0.047857   0.002539   0.252001  -0.484182  -1.786774   0.124144
    26  H   -0.038061  -0.000697   0.026135  -0.059485  -0.146695   0.068673
    27  O    0.014052   0.000329  -0.006400   0.012079   0.218735  -0.019573
    28  H    0.001468  -0.000044   0.001154  -0.015777  -0.026247  -0.009981
              13         14         15         16         17         18
     1  N    0.000409   0.000757   0.000025  -0.000026   0.000022  -0.000000
     2  H    0.000094  -0.006502   0.000440   0.000060   0.000085  -0.000231
     3  C    0.003590  -0.001114  -0.001093   0.000383  -0.000196  -0.000219
     4  O   -0.000349   0.000036   0.000051  -0.000000  -0.000005   0.000016
     5  C    0.048093   0.009528  -0.004237   0.001048   0.000050  -0.002045
     6  C   -0.010175   0.015925   0.008409  -0.000013   0.000441   0.000560
     7  N   -0.143356   0.229550  -0.001575  -0.005836   0.001266   0.001194
     8  H    0.001611  -0.001606   0.000297   0.000069   0.000014  -0.000015
     9  N    0.143244  -0.037513  -0.008840   0.000555  -0.000543  -0.000757
    10  N    0.073222  -0.247926   0.043321  -0.001312   0.000624  -0.000048
    11  C   -0.287415  -1.880004   0.160413   0.008406  -0.007585  -0.063335
    12  H   -0.147187   0.180708   0.002532  -0.001686  -0.000474   0.004462
    13  O    9.673745  -0.256517  -0.055993  -0.003538  -0.009062  -0.029622
    14  C   -0.256517   8.797027  -0.149469   0.186826  -0.015789  -0.017987
    15  C   -0.055993  -0.149469   4.756476  -0.162080   0.007331   0.231954
    16  O   -0.003538   0.186826  -0.162080   8.637022   0.313619  -0.160977
    17  H   -0.009062  -0.015789   0.007331   0.313619   0.578995   0.007105
    18  H   -0.029622  -0.017987   0.231954  -0.160977   0.007105   1.199782
    19  H    0.084275   0.015449   0.155049  -0.046671  -0.045971  -0.214242
    20  H   -0.072456  -0.324808  -0.152302  -0.014163   0.011866   0.117699
    21  C    0.080605  -2.818050   0.281554  -0.055920   0.011656  -0.006388
    22  O   -0.020338   0.075741  -0.026783   0.008451  -0.001383  -0.006835
    23  H    0.000332  -0.017127   0.017451  -0.000374   0.000277  -0.000063
    24  H    0.020770   0.407344  -0.042542   0.003988   0.000457  -0.007509
    25  C    0.016384   1.936537  -0.433019   0.023377  -0.005910   0.013614
    26  H    0.020248   0.001768   0.013996  -0.000071  -0.000799  -0.001189
    27  O    0.014970  -0.058554   0.013317  -0.000052  -0.000105   0.000673
    28  H    0.000891   0.018783  -0.004742   0.000148  -0.000036   0.000456
              19         20         21         22         23         24
     1  N    0.000017  -0.001273   0.002210  -0.000002  -0.000012   0.000235
     2  H    0.000192  -0.003764   0.016601  -0.000107   0.000138  -0.000199
     3  C    0.000197   0.006742  -0.006061   0.000027   0.000202  -0.001446
     4  O   -0.000008   0.000124   0.000327   0.000000  -0.000009   0.000074
     5  C    0.001236  -0.008448   0.022422  -0.002611   0.000553  -0.004871
     6  C   -0.000476  -0.003053   0.042832  -0.000062  -0.000806   0.001972
     7  N   -0.002068  -0.012556  -0.086091   0.006746  -0.001903  -0.001031
     8  H   -0.000001  -0.000247   0.000557  -0.000053   0.000050  -0.000106
     9  N    0.004967  -0.020844  -0.030863  -0.018349  -0.000606   0.007986
    10  N   -0.006829  -0.008122   0.628840  -0.008840  -0.000797  -0.029092
    11  C    0.039232  -0.035932   0.656787   0.055095  -0.007758  -0.013027
    12  H    0.002502   0.014486  -0.128328   0.024710  -0.000129  -0.000361
    13  O    0.084275  -0.072456   0.080605  -0.020338   0.000332   0.020770
    14  C    0.015449  -0.324808  -2.818050   0.075741  -0.017127   0.407344
    15  C    0.155049  -0.152302   0.281554  -0.026783   0.017451  -0.042542
    16  O   -0.046671  -0.014163  -0.055920   0.008451  -0.000374   0.003988
    17  H   -0.045971   0.011866   0.011656  -0.001383   0.000277   0.000457
    18  H   -0.214242   0.117699  -0.006388  -0.006835  -0.000063  -0.007509
    19  H    1.198574  -0.080530  -0.064453   0.010581  -0.002862   0.002992
    20  H   -0.080530   1.821913   0.153866   0.045325   0.002119  -0.100420
    21  C   -0.064453   0.153866  10.330407  -0.384213   0.031292  -0.733784
    22  O    0.010581   0.045325  -0.384213   8.853790   0.301483  -0.109007
    23  H   -0.002862   0.002119   0.031292   0.301483   0.570331  -0.010119
    24  H    0.002992  -0.100420  -0.733784  -0.109007  -0.010119   1.450452
    25  C    0.001547  -0.036451  -3.470592   0.147489  -0.134645   0.399113
    26  H    0.006414   0.001389   0.172848  -0.006784   0.032485  -0.066691
    27  O    0.000018   0.006654   0.325805  -0.041514   0.038222  -0.030341
    28  H   -0.000797   0.002077  -0.146310   0.010280  -0.014286   0.012401
              25         26         27         28
     1  N   -0.004393  -0.000540  -0.000070  -0.000064
     2  H   -0.018608  -0.009124   0.000610  -0.000239
     3  C    0.005115   0.004916   0.001382  -0.000135
     4  O   -0.001439   0.000042   0.000004   0.000013
     5  C   -0.042894   0.002245   0.012552  -0.002459
     6  C   -0.064504  -0.027623   0.006939  -0.000134
     7  N   -0.047857  -0.038061   0.014052   0.001468
     8  H    0.002539  -0.000697   0.000329  -0.000044
     9  N    0.252001   0.026135  -0.006400   0.001154
    10  N   -0.484182  -0.059485   0.012079  -0.015777
    11  C   -1.786774  -0.146695   0.218735  -0.026247
    12  H    0.124144   0.068673  -0.019573  -0.009981
    13  O    0.016384   0.020248   0.014970   0.000891
    14  C    1.936537   0.001768  -0.058554   0.018783
    15  C   -0.433019   0.013996   0.013317  -0.004742
    16  O    0.023377  -0.000071  -0.000052   0.000148
    17  H   -0.005910  -0.000799  -0.000105  -0.000036
    18  H    0.013614  -0.001189   0.000673   0.000456
    19  H    0.001547   0.006414   0.000018  -0.000797
    20  H   -0.036451   0.001389   0.006654   0.002077
    21  C   -3.470592   0.172848   0.325805  -0.146310
    22  O    0.147489  -0.006784  -0.041514   0.010280
    23  H   -0.134645   0.032485   0.038222  -0.014286
    24  H    0.399113  -0.066691  -0.030341   0.012401
    25  C    9.867268  -0.239662  -0.720740   0.189623
    26  H   -0.239662   1.682386  -0.068480  -0.089503
    27  O   -0.720740  -0.068480   8.799589   0.348716
    28  H    0.189623  -0.089503   0.348716   0.554829
 Mulliken charges:
               1
     1  N   -0.681063
     2  H   -0.025021
     3  C    0.870456
     4  O   -1.000993
     5  C    0.797308
     6  C    0.582063
     7  N   -0.529986
     8  H   -0.314831
     9  N   -0.900525
    10  N   -0.416437
    11  C    1.961698
    12  H   -0.327583
    13  O   -1.146476
    14  C   -0.043013
    15  C    1.350060
    16  O   -0.731232
    17  H    0.154050
    18  H   -0.066053
    19  H   -0.058337
    20  H   -0.308889
    21  C    1.172443
    22  O   -0.912836
    23  H    0.196561
    24  H   -0.157237
    25  C    0.512920
    26  H   -0.278143
    27  O   -0.868816
    28  H    0.169913
 Sum of Mulliken charges =  -1.00000
 Mulliken charges with hydrogens summed into heavy atoms:
               1
     1  N   -0.706084
     3  C    0.870456
     4  O   -1.000993
     5  C    0.797308
     6  C    0.267232
     7  N   -0.529986
     9  N   -0.900525
    10  N   -0.416437
    11  C    1.634115
    13  O   -1.146476
    14  C   -0.351902
    15  C    1.225669
    16  O   -0.577182
    21  C    1.015205
    22  O   -0.716275
    25  C    0.234777
    27  O   -0.698904
 Electronic spatial extent (au):  <R**2>=           4802.6151
 Charge=             -1.0000 electrons
 Dipole moment (field-independent basis, Debye):
    X=            -17.5752    Y=             -5.1911    Z=             -0.6427  Tot=             18.3371
 Quadrupole moment (field-independent basis, Debye-Ang):
   XX=           -206.3479   YY=           -103.9568   ZZ=           -114.5074
   XY=            -10.6372   XZ=             28.4496   YZ=              4.9760
 Traceless Quadrupole moment (field-independent basis, Debye-Ang):
   XX=            -64.7438   YY=             37.6473   ZZ=             27.0966
   XY=            -10.6372   XZ=             28.4496   YZ=              4.9760
 Octapole moment (field-independent basis, Debye-Ang**2):
  XXX=           -434.3465  YYY=            -23.7099  ZZZ=             16.1996  XYY=            -31.7417
  XXY=            -95.1931  XXZ=             79.8351  XZZ=            -66.3455  YZZ=            -24.3586
  YYZ=            -28.9013  XYZ=             34.0857
 Hexadecapole moment (field-independent basis, Debye-Ang**3):
 XXXX=          -6967.9651 YYYY=          -1057.6378 ZZZZ=           -762.2408 XXXY=           -324.8045
 XXXZ=            396.4544 YYYX=             54.5474 YYYZ=             41.4441 ZZZX=            151.6960
 ZZZY=             64.5929 XXYY=          -1064.3478 XXZZ=          -1040.2376 YYZZ=           -307.2974
 XXYZ=             49.9089 YYXZ=            104.2642 ZZXY=            -26.8474
 N-N= 1.265375686733D+03 E-N=-4.666030420883D+03  KE= 9.001662866673D+02
 Leave Link  601 at Mon Jul 12 14:57:03 2021, MaxMem=   262144000 cpu:               0.4 elap:               0.3
 (Enter /dades/curu/g16A03_MST/g16/l9999.exe)
 1\1\GINC-PIRINEUS10\SP\RMP2-FC\Aug-CC-pVDZ\C8H11N4O5(1-)\UBATOR02\12-J
 ul-2021\0\\#p mp2/aug-cc-pVDZ scf=tight maxdisk=180GB geom=allcheck\\S
 ET_328_BBB285_conf1.geo_300_075 geometry\\-1,1\N,0,2.7731370016,-3.105
 1894363,1.2631866719\H,0,2.0330691159,-2.469378785,1.5712483369\C,0,3.
 143110014,-2.7280992935,0.0499394392\O,0,4.0312543214,-3.2593522582,-0
 .6739641172\C,0,2.4561502216,-1.5313616573,-0.5859224176\C,0,2.7216468
 792,-0.9655102771,-1.8522243053\N,0,1.9170472674,0.077208097,-2.054865
 7153\H,0,3.4502591924,-1.2692443849,-2.5864003606\N,0,1.4774216629,-0.
 811904525,-0.0239456117\N,0,1.2021046034,0.1359269202,-0.9259198178\C,
 0,0.0909861002,1.0601700843,-0.7760825243\H,0,0.2684580868,1.841936222
 1,-1.5142164678\O,0,-1.1443714992,0.4293286538,-1.0417751683\C,0,-1.90
 10615732,0.3175958064,0.1791999173\C,0,-3.3836149407,0.2758966405,-0.1
 481050691\O,0,-3.7548527129,-0.8367175332,-0.9460685852\H,0,-3.5702623
 419,-1.6419159837,-0.4368564069\H,0,-3.6338200453,1.170918219,-0.71768
 01325\H,0,-3.948943551,0.3059840891,0.7952117576\H,0,-1.6044234626,-0.
 6025318193,0.7054401635\C,0,-1.4737463132,1.5255746072,1.0105997786\O,
 0,-2.1528857968,2.6886483773,0.5809711617\H,0,-1.4701442992,3.38803812
 17,0.5636622564\H,0,-1.6323016579,1.3554587074,2.0828185925\C,0,0.0226
 064614,1.6351214549,0.6547454059\H,0,0.6280637015,1.0161704325,1.31830
 58886\O,0,0.4712588943,2.9839500732,0.6364138584\H,0,0.7998546699,3.20
 92794471,1.5212834711\\Version=ES64L-G16RevA.03\State=1-A\HF=-901.5377
 285\MP2=-904.3542202\RMSD=8.343e-09\PG=C01 [X(C8H11N4O5)]\\@


 If fifty million people say a stupid thing,
 it is still a stupid thing.
                   -- Anatole France
 Job cpu time:       0 days  2 hours  0 minutes 36.3 seconds.
 Elapsed time:       0 days  0 hours 38 minutes 21.8 seconds.
 File lengths (MBytes):  RWF=  58044 Int=      0 D2E=      0 Chk=     21 Scr=      1
 Normal termination of Gaussian 16 at Mon Jul 12 14:57:05 2021.
