 Entering Gaussian System, Link 0=g16
 Input=SET_328_BBB285_conf1.geo_120_075_OCTANOL.dat
 Output=SET_328_BBB285_conf1.geo_120_075_OCTANOL.log
 Initial command:
 /dades/curu/g16A03_MST/g16/l1.exe "/tmp/ubator02/1835285/Gau-154885.inp" -scrdir="/tmp/ubator02/1835285/"
 Entering Link 1 = /dades/curu/g16A03_MST/g16/l1.exe PID=    154886.
  
 Copyright (c) 1988,1990,1992,1993,1995,1998,2003,2009,2016,
            Gaussian, Inc.  All Rights Reserved.
  
 This is part of the Gaussian(R) 16 program.  It is based on
 the Gaussian(R) 09 system (copyright 2009, Gaussian, Inc.),
 the Gaussian(R) 03 system (copyright 2003, Gaussian, Inc.),
 the Gaussian(R) 98 system (copyright 1998, Gaussian, Inc.),
 the Gaussian(R) 94 system (copyright 1995, Gaussian, Inc.),
 the Gaussian 92(TM) system (copyright 1992, Gaussian, Inc.),
 the Gaussian 90(TM) system (copyright 1990, Gaussian, Inc.),
 the Gaussian 88(TM) system (copyright 1988, Gaussian, Inc.),
 the Gaussian 86(TM) system (copyright 1986, Carnegie Mellon
 University), and the Gaussian 82(TM) system (copyright 1983,
 Carnegie Mellon University). Gaussian is a federally registered
 trademark of Gaussian, Inc.
  
 This software contains proprietary and confidential information,
 including trade secrets, belonging to Gaussian, Inc.
  
 This software is provided under written license and may be
 used, copied, transmitted, or stored only in accord with that
 written license.
  
 The following legend is applicable only to US Government
 contracts under FAR:
  
                    RESTRICTED RIGHTS LEGEND
  
 Use, reproduction and disclosure by the US Government is
 subject to restrictions as set forth in subparagraphs (a)
 and (c) of the Commercial Computer Software - Restricted
 Rights clause in FAR 52.227-19.
  
 Gaussian, Inc.
 340 Quinnipiac St., Bldg. 40, Wallingford CT 06492
  
  
 ---------------------------------------------------------------
 Warning -- This program may not be used in any manner that
 competes with the business of Gaussian, Inc. or will provide
 assistance to any competitor of Gaussian, Inc.  The licensee
 of this program is prohibited from giving any competitor of
 Gaussian, Inc. access to this program.  By using this program,
 the user acknowledges that Gaussian, Inc. is engaged in the
 business of creating and licensing software in the field of
 computational chemistry and represents and warrants to the
 licensee that it is not a competitor of Gaussian, Inc. and that
 it will not use this program in any manner prohibited above.
 ---------------------------------------------------------------
  

 Cite this work as:
 Gaussian 16, Revision A.03,
 M. J. Frisch, G. W. Trucks, H. B. Schlegel, G. E. Scuseria, 
 M. A. Robb, J. R. Cheeseman, G. Scalmani, V. Barone, 
 G. A. Petersson, H. Nakatsuji, X. Li, M. Caricato, A. V. Marenich, 
 J. Bloino, B. G. Janesko, R. Gomperts, B. Mennucci, H. P. Hratchian, 
 J. V. Ortiz, A. F. Izmaylov, J. L. Sonnenberg, D. Williams-Young, 
 F. Ding, F. Lipparini, F. Egidi, J. Goings, B. Peng, A. Petrone, 
 T. Henderson, D. Ranasinghe, V. G. Zakrzewski, J. Gao, N. Rega, 
 G. Zheng, W. Liang, M. Hada, M. Ehara, K. Toyota, R. Fukuda, 
 J. Hasegawa, M. Ishida, T. Nakajima, Y. Honda, O. Kitao, H. Nakai, 
 T. Vreven, K. Throssell, J. A. Montgomery, Jr., J. E. Peralta, 
 F. Ogliaro, M. J. Bearpark, J. J. Heyd, E. N. Brothers, K. N. Kudin, 
 V. N. Staroverov, T. A. Keith, R. Kobayashi, J. Normand, 
 K. Raghavachari, A. P. Rendell, J. C. Burant, S. S. Iyengar, 
 J. Tomasi, M. Cossi, J. M. Millam, M. Klene, C. Adamo, R. Cammi, 
 J. W. Ochterski, R. L. Martin, K. Morokuma, O. Farkas, 
 J. B. Foresman, and D. J. Fox, Gaussian, Inc., Wallingford CT, 2016.
 
 ******************************************
 Gaussian 16:  ES64L-G16RevA.03 25-Dec-2016
                12-Jul-2021 
 ******************************************
 %mem=800MB
 %nproc=4
 Will use up to    4 processors via shared memory.
 %chk=SET_328_BBB285_conf1.geo_120_075.chk
 ---------------------------------------------------------------
 #p b3lyp/6-31G(d) opt freq scrf=(iefpcm,read,solvent=n-octanol)
 ---------------------------------------------------------------
 1/18=20,19=15,26=3,38=1,40=2/1,3;
 2/9=110,12=2,17=6,18=5,40=1/2;
 3/5=1,6=6,7=1,11=2,25=1,30=1,70=2203,71=1,72=25,74=-5/1,2,3;
 4//1;
 5/5=2,38=5,53=25/2;
 6/7=2,8=2,9=2,10=2,28=1/1;
 7//1,2,3,16;
 1/18=20,19=15,26=3/3(2);
 2/9=110/2;
 99//99;
 2/9=110/2;
 3/5=1,6=6,7=1,11=2,25=1,30=1,70=2205,71=1,72=25,74=-5/1,2,3;
 4/5=5,16=3,69=1/1;
 5/5=2,38=5,53=25/2;
 7//1,2,3,16;
 1/18=20,19=15,26=3/3(-5);
 2/9=110/2;
 6/7=2,8=2,9=2,10=2,19=2,28=1/1;
 99/9=1/99;
 Leave Link    1 at Mon Jul 12 12:33:17 2021, MaxMem=   104857600 cpu:               0.0 elap:               0.0
 (Enter /dades/curu/g16A03_MST/g16/l101.exe)
 -----------------------------------------
 SET_328_BBB285_conf1.geo_120_075 geometry
 -----------------------------------------
 Symbolic Z-matrix:
 Charge = -1 Multiplicity = 1
 N                     5.122     1.269     0.694 
 H                     4.761     1.729    -0.128 
 C                     4.352     0.538     1.498 
 O                     4.938     0.17      2.491 
 C                     2.911     0.37      1.139 
 C                     1.999    -0.224     2.041 
 N                     0.828    -0.368     1.464 
 H                     2.092    -0.578     3.061 
 N                     2.225     0.632    -0.007 
 N                     0.972     0.232     0.243 
 C                    -0.092     0.145    -0.732 
 H                     0.423     0.476    -1.646 
 O                    -0.608    -1.222    -0.853 
 C                    -1.975    -1.243    -0.424 
 C                    -2.874    -1.553    -1.668 
 O                    -2.765    -2.94     -2. 
 H                    -1.799    -2.973    -2.118 
 H                    -2.51     -1.01     -2.545 
 H                    -3.878    -1.198    -1.424 
 H                    -2.037    -2.022     0.34 
 C                    -2.249     0.032     0.35 
 O                    -3.594     0.427     0.251 
 H                    -3.612     1.355     0.545 
 H                    -1.943    -0.11      1.389 
 C                    -1.329     1.015    -0.405 
 H                    -1.045     1.807     0.293 
 O                    -1.892     1.532    -1.57 
 H                    -2.474     2.274    -1.328 
 
 ITRead=  0  0  0  0  0  0  0  0  0  0  0  0  0  0  0  0  0  0  0  0
 ITRead=  0  0  0  0  0  0  0  0
 MicOpt= -1 -1 -1 -1 -1 -1 -1 -1 -1 -1 -1 -1 -1 -1 -1 -1 -1 -1 -1 -1
 MicOpt= -1 -1 -1 -1 -1 -1 -1 -1
 NAtoms=     28 NQM=       28 NQMF=       0 NMMI=      0 NMMIF=      0
                NMic=       0 NMicF=      0.
                    Isotopes and Nuclear Properties:
 (Nuclear quadrupole moments (NQMom) in fm**2, nuclear magnetic moments (NMagM)
  in nuclear magnetons)

  Atom         1           2           3           4           5           6           7           8           9          10
 IAtWgt=          14           1          12          16          12          12          14           1          14          14
 AtmWgt=  14.0030740   1.0078250  12.0000000  15.9949146  12.0000000  12.0000000  14.0030740   1.0078250  14.0030740  14.0030740
 NucSpn=           2           1           0           0           0           0           2           1           2           2
 AtZEff=  -0.0000000  -0.0000000  -0.0000000  -0.0000000  -0.0000000  -0.0000000  -0.0000000  -0.0000000  -0.0000000  -0.0000000
 NQMom=    2.0440000   0.0000000   0.0000000   0.0000000   0.0000000   0.0000000   2.0440000   0.0000000   2.0440000   2.0440000
 NMagM=    0.4037610   2.7928460   0.0000000   0.0000000   0.0000000   0.0000000   0.4037610   2.7928460   0.4037610   0.4037610
 AtZNuc=   7.0000000   1.0000000   6.0000000   8.0000000   6.0000000   6.0000000   7.0000000   1.0000000   7.0000000   7.0000000

  Atom        11          12          13          14          15          16          17          18          19          20
 IAtWgt=          12           1          16          12          12          16           1           1           1           1
 AtmWgt=  12.0000000   1.0078250  15.9949146  12.0000000  12.0000000  15.9949146   1.0078250   1.0078250   1.0078250   1.0078250
 NucSpn=           0           1           0           0           0           0           1           1           1           1
 AtZEff=  -0.0000000  -0.0000000  -0.0000000  -0.0000000  -0.0000000  -0.0000000  -0.0000000  -0.0000000  -0.0000000  -0.0000000
 NQMom=    0.0000000   0.0000000   0.0000000   0.0000000   0.0000000   0.0000000   0.0000000   0.0000000   0.0000000   0.0000000
 NMagM=    0.0000000   2.7928460   0.0000000   0.0000000   0.0000000   0.0000000   2.7928460   2.7928460   2.7928460   2.7928460
 AtZNuc=   6.0000000   1.0000000   8.0000000   6.0000000   6.0000000   8.0000000   1.0000000   1.0000000   1.0000000   1.0000000

  Atom        21          22          23          24          25          26          27          28
 IAtWgt=          12          16           1           1          12           1          16           1
 AtmWgt=  12.0000000  15.9949146   1.0078250   1.0078250  12.0000000   1.0078250  15.9949146   1.0078250
 NucSpn=           0           0           1           1           0           1           0           1
 AtZEff=  -0.0000000  -0.0000000  -0.0000000  -0.0000000  -0.0000000  -0.0000000  -0.0000000  -0.0000000
 NQMom=    0.0000000   0.0000000   0.0000000   0.0000000   0.0000000   0.0000000   0.0000000   0.0000000
 NMagM=    0.0000000   0.0000000   2.7928460   2.7928460   0.0000000   2.7928460   0.0000000   2.7928460
 AtZNuc=   6.0000000   8.0000000   1.0000000   1.0000000   6.0000000   1.0000000   8.0000000   1.0000000
 Leave Link  101 at Mon Jul 12 12:33:17 2021, MaxMem=   104857600 cpu:               0.2 elap:               0.3
 (Enter /dades/curu/g16A03_MST/g16/l103.exe)

 GradGradGradGradGradGradGradGradGradGradGradGradGradGradGradGradGradGrad
 Berny optimization.
 Initialization pass.
                           ----------------------------
                           !    Initial Parameters    !
                           ! (Angstroms and Degrees)  !
 --------------------------                            --------------------------
 ! Name  Definition              Value          Derivative Info.                !
 --------------------------------------------------------------------------------
 ! R1    R(1,2)                  1.0088         estimate D2E/DX2                !
 ! R2    R(1,3)                  1.3318         estimate D2E/DX2                !
 ! R3    R(3,4)                  1.2103         estimate D2E/DX2                !
 ! R4    R(3,5)                  1.4945         estimate D2E/DX2                !
 ! R5    R(5,6)                  1.4136         estimate D2E/DX2                !
 ! R6    R(5,9)                  1.3611         estimate D2E/DX2                !
 ! R7    R(6,7)                  1.3134         estimate D2E/DX2                !
 ! R8    R(6,8)                  1.0837         estimate D2E/DX2                !
 ! R9    R(7,10)                 1.3681         estimate D2E/DX2                !
 ! R10   R(9,10)                 1.3388         estimate D2E/DX2                !
 ! R11   R(10,11)                1.4458         estimate D2E/DX2                !
 ! R12   R(11,12)                1.1001         estimate D2E/DX2                !
 ! R13   R(11,13)                1.4661         estimate D2E/DX2                !
 ! R14   R(11,25)                1.5473         estimate D2E/DX2                !
 ! R15   R(13,14)                1.4329         estimate D2E/DX2                !
 ! R16   R(14,15)                1.5658         estimate D2E/DX2                !
 ! R17   R(14,20)                1.0929         estimate D2E/DX2                !
 ! R18   R(14,21)                1.5165         estimate D2E/DX2                !
 ! R19   R(15,16)                1.4303         estimate D2E/DX2                !
 ! R20   R(15,18)                1.0938         estimate D2E/DX2                !
 ! R21   R(15,19)                1.0925         estimate D2E/DX2                !
 ! R22   R(16,17)                0.9737         estimate D2E/DX2                !
 ! R23   R(21,22)                1.4053         estimate D2E/DX2                !
 ! R24   R(21,24)                1.0924         estimate D2E/DX2                !
 ! R25   R(21,25)                1.5436         estimate D2E/DX2                !
 ! R26   R(22,23)                0.9736         estimate D2E/DX2                !
 ! R27   R(25,26)                1.0932         estimate D2E/DX2                !
 ! R28   R(25,27)                1.3934         estimate D2E/DX2                !
 ! R29   R(27,28)                0.9736         estimate D2E/DX2                !
 ! A1    A(2,1,3)              122.3653         estimate D2E/DX2                !
 ! A2    A(1,3,4)              112.4736         estimate D2E/DX2                !
 ! A3    A(1,3,5)              118.3039         estimate D2E/DX2                !
 ! A4    A(4,3,5)              129.0305         estimate D2E/DX2                !
 ! A5    A(3,5,6)              121.0662         estimate D2E/DX2                !
 ! A6    A(3,5,9)              131.8032         estimate D2E/DX2                !
 ! A7    A(6,5,9)              107.0363         estimate D2E/DX2                !
 ! A8    A(5,6,7)              109.9365         estimate D2E/DX2                !
 ! A9    A(5,6,8)              133.0396         estimate D2E/DX2                !
 ! A10   A(7,6,8)              117.0145         estimate D2E/DX2                !
 ! A11   A(6,7,10)             104.4876         estimate D2E/DX2                !
 ! A12   A(5,9,10)             104.8899         estimate D2E/DX2                !
 ! A13   A(7,10,9)             113.3407         estimate D2E/DX2                !
 ! A14   A(7,10,11)            119.8697         estimate D2E/DX2                !
 ! A15   A(9,10,11)            125.5068         estimate D2E/DX2                !
 ! A16   A(10,11,12)           101.4008         estimate D2E/DX2                !
 ! A17   A(10,11,13)           111.763          estimate D2E/DX2                !
 ! A18   A(10,11,25)           114.3308         estimate D2E/DX2                !
 ! A19   A(12,11,13)           112.1313         estimate D2E/DX2                !
 ! A20   A(12,11,25)           112.376          estimate D2E/DX2                !
 ! A21   A(13,11,25)           105.0898         estimate D2E/DX2                !
 ! A22   A(11,13,14)           108.9483         estimate D2E/DX2                !
 ! A23   A(13,14,15)           108.2267         estimate D2E/DX2                !
 ! A24   A(13,14,20)           105.8945         estimate D2E/DX2                !
 ! A25   A(13,14,21)           108.2314         estimate D2E/DX2                !
 ! A26   A(15,14,20)           112.439          estimate D2E/DX2                !
 ! A27   A(15,14,21)           117.9174         estimate D2E/DX2                !
 ! A28   A(20,14,21)           103.4289         estimate D2E/DX2                !
 ! A29   A(14,15,16)           109.4286         estimate D2E/DX2                !
 ! A30   A(14,15,18)           110.3429         estimate D2E/DX2                !
 ! A31   A(14,15,19)           106.61           estimate D2E/DX2                !
 ! A32   A(16,15,18)           105.6594         estimate D2E/DX2                !
 ! A33   A(16,15,19)           115.9104         estimate D2E/DX2                !
 ! A34   A(18,15,19)           108.8792         estimate D2E/DX2                !
 ! A35   A(15,16,17)            97.8506         estimate D2E/DX2                !
 ! A36   A(14,21,22)           111.9186         estimate D2E/DX2                !
 ! A37   A(14,21,24)           108.9982         estimate D2E/DX2                !
 ! A38   A(14,21,25)           100.2582         estimate D2E/DX2                !
 ! A39   A(22,21,24)           111.817          estimate D2E/DX2                !
 ! A40   A(22,21,25)           110.9149         estimate D2E/DX2                !
 ! A41   A(24,21,25)           112.3979         estimate D2E/DX2                !
 ! A42   A(21,22,23)           105.3272         estimate D2E/DX2                !
 ! A43   A(11,25,21)           102.8143         estimate D2E/DX2                !
 ! A44   A(11,25,26)           109.5485         estimate D2E/DX2                !
 ! A45   A(11,25,27)           110.7912         estimate D2E/DX2                !
 ! A46   A(21,25,26)           107.6919         estimate D2E/DX2                !
 ! A47   A(21,25,27)           113.8546         estimate D2E/DX2                !
 ! A48   A(26,25,27)           111.7153         estimate D2E/DX2                !
 ! A49   A(25,27,28)           108.4514         estimate D2E/DX2                !
 ! D1    D(2,1,3,4)           -173.7283         estimate D2E/DX2                !
 ! D2    D(2,1,3,5)              1.6908         estimate D2E/DX2                !
 ! D3    D(1,3,5,6)           -170.6812         estimate D2E/DX2                !
 ! D4    D(1,3,5,9)             13.3407         estimate D2E/DX2                !
 ! D5    D(4,3,5,6)              3.8673         estimate D2E/DX2                !
 ! D6    D(4,3,5,9)           -172.1109         estimate D2E/DX2                !
 ! D7    D(3,5,6,7)           -174.5388         estimate D2E/DX2                !
 ! D8    D(3,5,6,8)              4.275          estimate D2E/DX2                !
 ! D9    D(9,5,6,7)              2.3266         estimate D2E/DX2                !
 ! D10   D(9,5,6,8)           -178.8596         estimate D2E/DX2                !
 ! D11   D(3,5,9,10)           177.6703         estimate D2E/DX2                !
 ! D12   D(6,5,9,10)             1.2728         estimate D2E/DX2                !
 ! D13   D(5,6,7,10)            -4.7761         estimate D2E/DX2                !
 ! D14   D(8,6,7,10)           176.197          estimate D2E/DX2                !
 ! D15   D(6,7,10,9)             5.889          estimate D2E/DX2                !
 ! D16   D(6,7,10,11)          173.6557         estimate D2E/DX2                !
 ! D17   D(5,9,10,7)            -4.4596         estimate D2E/DX2                !
 ! D18   D(5,9,10,11)         -171.4146         estimate D2E/DX2                !
 ! D19   D(7,10,11,12)        -165.8696         estimate D2E/DX2                !
 ! D20   D(7,10,11,13)         -46.2453         estimate D2E/DX2                !
 ! D21   D(7,10,11,25)          72.9738         estimate D2E/DX2                !
 ! D22   D(9,10,11,12)           0.3032         estimate D2E/DX2                !
 ! D23   D(9,10,11,13)         119.9276         estimate D2E/DX2                !
 ! D24   D(9,10,11,25)        -120.8534         estimate D2E/DX2                !
 ! D25   D(10,11,13,14)        115.6819         estimate D2E/DX2                !
 ! D26   D(12,11,13,14)       -131.2309         estimate D2E/DX2                !
 ! D27   D(25,11,13,14)         -8.867          estimate D2E/DX2                !
 ! D28   D(10,11,25,21)        -93.5953         estimate D2E/DX2                !
 ! D29   D(10,11,25,26)         20.7029         estimate D2E/DX2                !
 ! D30   D(10,11,25,27)        144.3993         estimate D2E/DX2                !
 ! D31   D(12,11,25,21)        151.5226         estimate D2E/DX2                !
 ! D32   D(12,11,25,26)        -94.1791         estimate D2E/DX2                !
 ! D33   D(12,11,25,27)         29.5172         estimate D2E/DX2                !
 ! D34   D(13,11,25,21)         29.3172         estimate D2E/DX2                !
 ! D35   D(13,11,25,26)        143.6154         estimate D2E/DX2                !
 ! D36   D(13,11,25,27)        -92.6882         estimate D2E/DX2                !
 ! D37   D(11,13,14,15)        112.975          estimate D2E/DX2                !
 ! D38   D(11,13,14,20)       -126.2541         estimate D2E/DX2                !
 ! D39   D(11,13,14,21)        -15.8873         estimate D2E/DX2                !
 ! D40   D(13,14,15,16)         74.9876         estimate D2E/DX2                !
 ! D41   D(13,14,15,18)        -40.8632         estimate D2E/DX2                !
 ! D42   D(13,14,15,19)       -158.9446         estimate D2E/DX2                !
 ! D43   D(20,14,15,16)        -41.6242         estimate D2E/DX2                !
 ! D44   D(20,14,15,18)       -157.475          estimate D2E/DX2                !
 ! D45   D(20,14,15,19)         84.4436         estimate D2E/DX2                !
 ! D46   D(21,14,15,16)       -161.8342         estimate D2E/DX2                !
 ! D47   D(21,14,15,18)         82.3151         estimate D2E/DX2                !
 ! D48   D(21,14,15,19)        -35.7663         estimate D2E/DX2                !
 ! D49   D(13,14,21,22)        151.0566         estimate D2E/DX2                !
 ! D50   D(13,14,21,24)        -84.7344         estimate D2E/DX2                !
 ! D51   D(13,14,21,25)         33.4196         estimate D2E/DX2                !
 ! D52   D(15,14,21,22)         27.8807         estimate D2E/DX2                !
 ! D53   D(15,14,21,24)        152.0897         estimate D2E/DX2                !
 ! D54   D(15,14,21,25)        -89.7563         estimate D2E/DX2                !
 ! D55   D(20,14,21,22)        -96.9132         estimate D2E/DX2                !
 ! D56   D(20,14,21,24)         27.2958         estimate D2E/DX2                !
 ! D57   D(20,14,21,25)        145.4498         estimate D2E/DX2                !
 ! D58   D(14,15,16,17)        -56.765          estimate D2E/DX2                !
 ! D59   D(18,15,16,17)         62.0324         estimate D2E/DX2                !
 ! D60   D(19,15,16,17)       -177.3183         estimate D2E/DX2                !
 ! D61   D(14,21,22,23)       -164.019          estimate D2E/DX2                !
 ! D62   D(24,21,22,23)         73.3618         estimate D2E/DX2                !
 ! D63   D(25,21,22,23)        -52.9634         estimate D2E/DX2                !
 ! D64   D(14,21,25,11)        -37.1724         estimate D2E/DX2                !
 ! D65   D(14,21,25,26)       -152.814          estimate D2E/DX2                !
 ! D66   D(14,21,25,27)         82.7357         estimate D2E/DX2                !
 ! D67   D(22,21,25,11)       -155.5496         estimate D2E/DX2                !
 ! D68   D(22,21,25,26)         88.8087         estimate D2E/DX2                !
 ! D69   D(22,21,25,27)        -35.6415         estimate D2E/DX2                !
 ! D70   D(24,21,25,11)         78.4479         estimate D2E/DX2                !
 ! D71   D(24,21,25,26)        -37.1937         estimate D2E/DX2                !
 ! D72   D(24,21,25,27)       -161.6439         estimate D2E/DX2                !
 ! D73   D(11,25,27,28)       -162.6894         estimate D2E/DX2                !
 ! D74   D(21,25,27,28)         82.0146         estimate D2E/DX2                !
 ! D75   D(26,25,27,28)        -40.246          estimate D2E/DX2                !
 --------------------------------------------------------------------------------
 Trust Radius=3.00D-01 FncErr=1.00D-07 GrdErr=1.00D-06 EigMax=2.50D+02 EigMin=1.00D-04
 Number of steps in this run=    163 maximum allowed number of steps=    168.
 GradGradGradGradGradGradGradGradGradGradGradGradGradGradGradGradGradGrad

 Leave Link  103 at Mon Jul 12 12:33:17 2021, MaxMem=   104857600 cpu:               0.0 elap:               0.1
 (Enter /dades/curu/g16A03_MST/g16/l202.exe)
                          Input orientation:                          
 ---------------------------------------------------------------------
 Center     Atomic      Atomic             Coordinates (Angstroms)
 Number     Number       Type             X           Y           Z
 ---------------------------------------------------------------------
      1          7           0        5.122000    1.269000    0.694000
      2          1           0        4.761000    1.729000   -0.128000
      3          6           0        4.352000    0.538000    1.498000
      4          8           0        4.938000    0.170000    2.491000
      5          6           0        2.911000    0.370000    1.139000
      6          6           0        1.999000   -0.224000    2.041000
      7          7           0        0.828000   -0.368000    1.464000
      8          1           0        2.092000   -0.578000    3.061000
      9          7           0        2.225000    0.632000   -0.007000
     10          7           0        0.972000    0.232000    0.243000
     11          6           0       -0.092000    0.145000   -0.732000
     12          1           0        0.423000    0.476000   -1.646000
     13          8           0       -0.608000   -1.222000   -0.853000
     14          6           0       -1.975000   -1.243000   -0.424000
     15          6           0       -2.874000   -1.553000   -1.668000
     16          8           0       -2.765000   -2.940000   -2.000000
     17          1           0       -1.799000   -2.973000   -2.118000
     18          1           0       -2.510000   -1.010000   -2.545000
     19          1           0       -3.878000   -1.198000   -1.424000
     20          1           0       -2.037000   -2.022000    0.340000
     21          6           0       -2.249000    0.032000    0.350000
     22          8           0       -3.594000    0.427000    0.251000
     23          1           0       -3.612000    1.355000    0.545000
     24          1           0       -1.943000   -0.110000    1.389000
     25          6           0       -1.329000    1.015000   -0.405000
     26          1           0       -1.045000    1.807000    0.293000
     27          8           0       -1.892000    1.532000   -1.570000
     28          1           0       -2.474000    2.274000   -1.328000
 ---------------------------------------------------------------------
                    Distance matrix (angstroms):
                    1          2          3          4          5
     1  N    0.000000
     2  H    1.008764   0.000000
     3  C    1.331795   2.056608   0.000000
     4  O    2.114442   3.053027   1.210318   0.000000
     5  C    2.427910   2.621959   1.494519   2.444715   0.000000
     6  C    3.714376   4.018385   2.532213   2.999243   1.413571
     7  N    4.659518   4.732902   3.638759   4.270395   2.233642
     8  H    4.265560   4.755579   2.965809   2.997352   2.294243
     9  N    3.047914   2.765745   2.607296   3.716694   1.361086
    10  N    4.301310   4.090864   3.618434   4.559222   2.140463
    11  C    5.521109   5.140572   4.987633   5.974048   3.545317
    12  H    5.308959   4.763673   5.032457   6.131364   3.735988
    13  O    6.436706   6.169294   5.764235   6.624056   4.345790
    14  C    7.611010   7.368453   6.848137   7.634354   5.377521
    15  C    8.802201   8.452003   8.161551   9.016283   6.711438
    16  O    9.336921   9.052327   8.659340   9.443378   7.281923
    17  H    8.590818   8.312792   7.952193   8.746914   6.630822
    18  H    8.598394   8.137042   8.113519   9.067877   6.698022
    19  H    9.569327   9.212994   8.904195   9.742715   7.424157
    20  H    7.887159   7.778292   6.979533   7.621174   5.553627
    21  C    7.481988   7.228305   6.719162   7.500393   5.230905
    22  O    8.767774   8.464329   8.044019   8.824889   6.565578
    23  H    8.735694   8.408325   8.062319   8.848369   6.623639
    24  H    7.231797   7.115253   6.329203   6.974307   4.884078
    25  C    6.548872   6.137966   6.010216   6.955295   4.558241
    26  H    6.203397   5.821766   5.673623   6.580825   4.293090
    27  O    7.375030   6.810329   7.027674   8.061989   5.635400
    28  H    7.924502   7.354064   7.589087   8.599379   6.221698
                    6          7          8          9         10
     6  C    0.000000
     7  N    1.313357   0.000000
     8  H    1.083681   2.047487   0.000000
     9  N    2.231169   2.261736   3.300669   0.000000
    10  N    2.120252   1.368056   3.138730   1.338846   0.000000
    11  C    3.492559   2.435567   4.436151   2.476143   1.445784
    12  H    4.070349   3.247839   5.104148   2.440873   1.982236
    13  O    4.020906   2.856554   4.798347   3.489831   2.410753
    14  C    4.786153   3.490985   5.397031   4.618389   3.362339
    15  C    6.266502   4.991839   6.926415   5.790764   4.650792
    16  O    6.811904   5.614635   7.401568   6.452235   5.390529
    17  H    6.267303   5.149551   6.906370   5.800424   4.850236
    18  H    6.479219   5.256091   7.265829   5.617636   4.630317
    19  H    6.891591   5.583537   7.492698   6.527128   5.324123
    20  H    4.734501   3.493897   5.151468   5.032770   3.760852
    21  C    4.579358   3.296805   5.154212   4.528148   3.228977
    22  O    5.908430   4.653760   6.421582   5.828323   4.570169
    23  H    6.017855   4.850453   6.527048   5.907453   4.729206
    24  H    3.997182   2.783995   4.392702   4.457758   3.150794
    25  C    4.312032   3.171514   5.123870   3.596666   2.515471
    26  H    4.055416   3.099999   4.815685   3.487625   2.559573
    27  O    5.591309   4.495949   6.463011   4.494737   3.630353
    28  H    6.131712   5.067409   6.945904   5.149933   4.302641
                   11         12         13         14         15
    11  C    0.000000
    12  H    1.100083   0.000000
    13  O    1.466147   2.138928   0.000000
    14  C    2.359470   3.193532   1.432889   0.000000
    15  C    3.390992   3.871374   2.430749   1.565834   0.000000
    16  O    4.274339   4.685906   2.986600   2.446975   1.430341
    17  H    3.815333   4.129851   2.466720   2.427656   1.836988
    18  H    3.235385   3.408649   2.554489   2.199808   1.093835
    19  H    4.076311   4.620623   3.319566   2.150217   1.092509
    20  H    3.102918   4.029367   2.026152   1.092877   2.225442
    21  C    2.415811   3.364630   2.390106   1.516502   2.641055
    22  O    3.648262   4.442668   3.585277   2.421918   2.849800
    23  H    3.935128   4.674863   4.197541   3.219990   3.728066
    24  H    2.826635   3.892631   2.836430   2.138149   3.506317
    25  C    1.547255   2.213618   2.392637   2.348668   3.252202
    26  H    2.172804   2.772419   3.267893   3.268255   4.298879
    27  O    2.421985   2.545611   3.122060   3.003470   3.239005
    28  H    3.249889   3.424403   3.991190   3.665448   3.862839
                   16         17         18         19         20
    16  O    0.000000
    17  H    0.973740   0.000000
    18  H    2.021621   2.131014   0.000000
    19  H    2.145952   2.820373   1.778597   0.000000
    20  H    2.616927   2.646282   3.093719   2.679543   0.000000
    21  C    3.823812   3.914530   3.087865   2.704370   2.064936
    22  O    4.134118   4.515992   3.325303   2.350937   2.903407
    23  H    5.063740   5.395380   4.044222   3.235047   3.731860
    24  H    4.491092   4.529520   4.075272   3.583425   2.182884
    25  C    4.499794   4.365709   3.174112   3.526065   3.206191
    26  H    5.545292   5.406463   4.258633   4.472583   3.955694
    27  O    4.576660   4.539160   2.791830   3.379114   4.037331
    28  H    5.265174   5.348900   3.502434   3.746360   4.629126
                   21         22         23         24         25
    21  C    0.000000
    22  O    1.405294   0.000000
    23  H    1.909482   0.973624   0.000000
    24  H    1.092392   2.075865   2.375736   0.000000
    25  C    1.543604   2.430289   2.496035   2.204780   0.000000
    26  H    2.145575   2.898890   2.618644   2.383801   1.093217
    27  O    2.462488   2.726512   2.731841   3.384442   1.393371
    28  H    2.809426   2.675640   2.376496   3.653424   1.935984
                   26         27         28
    26  H    0.000000
    27  O    2.064898   0.000000
    28  H    2.210830   0.973577   0.000000
 Stoichiometry    C8H11N4O5(1-)
 Framework group  C1[X(C8H11N4O5)]
 Deg. of freedom    78
 Full point group                 C1      NOp   1
 Largest Abelian subgroup         C1      NOp   1
 Largest concise Abelian subgroup C1      NOp   1
                         Standard orientation:                         
 ---------------------------------------------------------------------
 Center     Atomic      Atomic             Coordinates (Angstroms)
 Number     Number       Type             X           Y           Z
 ---------------------------------------------------------------------
      1          7           0       -4.991624   -0.239762   -1.207759
      2          1           0       -4.458824   -0.668551   -1.949291
      3          6           0       -4.426564    0.192775   -0.082017
      4          8           0       -5.241805    0.563972    0.731902
      5          6           0       -2.944239    0.066608    0.060744
      6          6           0       -2.305968    0.322428    1.295795
      7          7           0       -1.002458    0.261307    1.147362
      8          1           0       -2.678005    0.563475    2.284658
      9          7           0       -1.965579   -0.206882   -0.844785
     10          7           0       -0.823964   -0.138725   -0.148667
     11          6           0        0.506876   -0.182590   -0.711898
     12          1           0        0.285682   -0.274283   -1.785606
     13          8           0        1.266804    1.033452   -0.406388
     14          6           0        2.385171    0.687907    0.420066
     15          6           0        3.695331    0.929597   -0.402675
     16          8           0        3.954268    2.333994   -0.483270
     17          1           0        3.109100    2.602191   -0.885674
     18          1           0        3.563226    0.593993   -1.435338
     19          1           0        4.475362    0.326579    0.067961
     20          1           0        2.319108    1.334438    1.298708
     21          6           0        2.147121   -0.699240    0.984808
     22          8           0        3.352078   -1.378219    1.233639
     23          1           0        3.103555   -2.313837    1.337559
     24          1           0        1.534444   -0.616224    1.885395
     25          6           0        1.382200   -1.346525   -0.189343
     26          1           0        0.740889   -2.129747    0.223460
     27          8           0        2.208647   -1.835722   -1.198875
     28          1           0        2.531335   -2.715196   -0.933830
 ---------------------------------------------------------------------
 Rotational constants (GHZ):           1.1310720           0.2117343           0.2038274
 Leave Link  202 at Mon Jul 12 12:33:18 2021, MaxMem=   104857600 cpu:               0.1 elap:               0.1
 (Enter /dades/curu/g16A03_MST/g16/l301.exe)
 Standard basis: 6-31G(d) (6D, 7F)
 Ernie: Thresh=  0.10000D-02 Tol=  0.10000D-05 Strict=F.
 There are   277 symmetry adapted cartesian basis functions of A   symmetry.
 There are   277 symmetry adapted basis functions of A   symmetry.
   277 basis functions,   520 primitive gaussians,   277 cartesian basis functions
    64 alpha electrons       64 beta electrons
       nuclear repulsion energy      1253.9170633854 Hartrees.
 IExCor=  402 DFT=T Ex+Corr=B3LYP ExCW=0 ScaHFX=  0.200000
 ScaDFX=  0.800000  0.720000  1.000000  0.810000 ScalE2=  1.000000  1.000000
 IRadAn=      5 IRanWt=     -1 IRanGd=            0 ICorTp=0 IEmpDi=  4
 NAtoms=   28 NActive=   28 NUniq=   28 SFac= 1.00D+00 NAtFMM=   60 NAOKFM=F Big=F
 Integral buffers will be    131072 words long.
 Raffenetti 2 integral format.
 Two-electron integral symmetry is turned on.
 Using the following non-standard input for PCM:
 MSTModel=DFT cav MSTCharged
 --- end of non-standard input.
 MST model for solvation energy: B3LYP parametrization.
 MST cavity parameters:
 ISph   IAn     Re0     Alpha   Atom Type   QCorr
 ------------------------------------------------
   1      7     1.50     1.15      NH         T
   2      1     0.90     1.15      NH         T
   3      6     1.50     1.50      C          F
   4      8     1.40     1.50      O          F
   5      6     1.50     1.50      C          F
   6      6     1.50     1.50      CH         F
   7      7     1.50     1.50      Nc         F
   8      1     1.20     1.50      CH         F
   9      7     1.50     1.50      Nc         F
  10      7     1.50     1.50      Nc         F
  11      6     1.50     1.50      CH         F
  12      1     1.20     1.50      CH         F
  13      8     1.40     1.50      O          F
  14      6     1.50     1.50      CH         F
  15      6     1.50     1.50      CH2        F
  16      8     1.40     1.50      OH         F
  17      1     0.90     1.50      OH         F
  18      1     1.20     1.50      CH2        F
  19      1     1.20     1.50      CH2        F
  20      1     1.20     1.50      CH         F
  21      6     1.50     1.50      CH         F
  22      8     1.40     1.50      OH         F
  23      1     0.90     1.50      OH         F
  24      1     1.20     1.50      CH         F
  25      6     1.50     1.50      CH         F
  26      1     1.20     1.50      CH         F
  27      8     1.40     1.50      OH         F
  28      1     0.90     1.50      OH         F
 ------------------------------------------------------------------------------
 Polarizable Continuum Model (PCM)
 =================================
 Model                : PCM.
 Atomic radii         : MST.
 Polarization charges : Total charges.
 Charge compensation  : None.
 Solution method      : On-the-fly selection.
 Cavity type          : Scaled VdW (van der Waals Surface) (Alpha=1.500).
 Cavity algorithm     : GePol (No added spheres)
                        Default sphere list used, NSphG=   28.
                        Lebedev-Laikov grids with approx.  5.0 points / Ang**2.
                        Smoothing algorithm: York/Karplus (Gamma=1.0000).
                        Polarization charges: spherical gaussians, with
                                              point-specific exponents (IZeta= 3).
                        Self-potential: point-specific (ISelfS= 7).
                        Self-field    : sphere-specific E.n sum rule (ISelfD= 2).
 1st derivatives      : Analytical E(r).r(x)/FMM algorithm (CHGder, D1EAlg=3).
                        Cavity 1st derivative terms included.
 Solvent              : n-Octanol, Eps=   9.862900 Eps(inf)=   2.043470
 ------------------------------------------------------------------------------
 GePol: Number of generator spheres                  =      28
 GePol: Total number of spheres                      =      28
 GePol: Number of exposed spheres                    =      28 (100.00%)
 GePol: Number of points                             =    2473
 GePol: Average weight of points                     =       0.12
 GePol: Minimum weight of points                     =   0.27D-11
 GePol: Maximum weight of points                     =    0.21373
 GePol: Number of points with low weight             =     153
 GePol: Fraction of low-weight points (<1% of avg)   =       6.19%
 GePol: Cavity surface area                          =    297.651 Ang**2
 GePol: Cavity volume                                =    337.693 Ang**3
 Surface areas from nonelectrostatic (unscaled) cavity and vdw tensions:
 Sphere =    1 Type =  NH  Surf =       17.132 Tension =       -0.234
 Sphere =    2 Type =  NH  Surf =        3.923 Tension =       -0.234
 Sphere =    3 Type =  C   Surf =        6.702 Tension =       -0.205
 Sphere =    4 Type =  O   Surf =       16.151 Tension =       -0.185
 Sphere =    5 Type =  C   Surf =        6.607 Tension =       -0.205
 Sphere =    6 Type =  CH  Surf =        7.882 Tension =       -0.195
 Sphere =    7 Type =  Nc  Surf =       13.183 Tension =       -0.161
 Sphere =    8 Type =  CH  Surf =       10.222 Tension =       -0.195
 Sphere =    9 Type =  Nc  Surf =       13.213 Tension =       -0.161
 Sphere =   10 Type =  Nc  Surf =        5.396 Tension =       -0.161
 Sphere =   11 Type =  CH  Surf =        3.125 Tension =       -0.195
 Sphere =   12 Type =  CH  Surf =        9.632 Tension =       -0.195
 Sphere =   13 Type =  O   Surf =       10.828 Tension =       -0.185
 Sphere =   14 Type =  CH  Surf =        2.945 Tension =       -0.195
 Sphere =   15 Type =  CH2 Surf =        4.517 Tension =       -0.194
 Sphere =   16 Type =  OH  Surf =       14.696 Tension =       -0.238
 Sphere =   17 Type =  OH  Surf =        4.331 Tension =       -0.238
 Sphere =   18 Type =  CH2 Surf =       10.036 Tension =       -0.194
 Sphere =   19 Type =  CH2 Surf =        9.224 Tension =       -0.194
 Sphere =   20 Type =  CH  Surf =        9.753 Tension =       -0.195
 Sphere =   21 Type =  CH  Surf =        3.207 Tension =       -0.195
 Sphere =   22 Type =  OH  Surf =       13.337 Tension =       -0.238
 Sphere =   23 Type =  OH  Surf =        4.431 Tension =       -0.238
 Sphere =   24 Type =  CH  Surf =        9.923 Tension =       -0.195
 Sphere =   25 Type =  CH  Surf =        3.161 Tension =       -0.195
 Sphere =   26 Type =  CH  Surf =        9.867 Tension =       -0.195
 Sphere =   27 Type =  OH  Surf =       14.172 Tension =       -0.238
 Sphere =   28 Type =  OH  Surf =        4.459 Tension =       -0.238
 PCM non-electrostatic energy =        -0.0153872544 Hartrees.
 Nuclear repulsion after PCM non-electrostatic terms =     1253.9016761310 Hartrees.
 Leave Link  301 at Mon Jul 12 12:33:18 2021, MaxMem=   104857600 cpu:               0.2 elap:               0.3
 (Enter /dades/curu/g16A03_MST/g16/l302.exe)
 NPDir=0 NMtPBC=     1 NCelOv=     1 NCel=       1 NClECP=     1 NCelD=      1
         NCelK=      1 NCelE2=     1 NClLst=     1 CellRange=     0.0.
 One-electron integrals computed using PRISM.
 One-electron integral symmetry used in STVInt
 NBasis=   277 RedAO= T EigKep=  1.06D-03  NBF=   277
 NBsUse=   277 1.00D-06 EigRej= -1.00D+00 NBFU=   277
 Precomputing XC quadrature grid using
 IXCGrd= 4 IRadAn=           5 IRanWt=          -1 IRanGd=           0 AccXCQ= 0.00D+00.
 Generated NRdTot=       0 NPtTot=           0 NUsed=           0 NTot=          32
 NSgBfM=   274   274   274   274   274 MxSgAt=    28 MxSgA2=    28.
 Leave Link  302 at Mon Jul 12 12:33:20 2021, MaxMem=   104857600 cpu:               2.8 elap:               0.9
 (Enter /dades/curu/g16A03_MST/g16/l303.exe)
 DipDrv:  MaxL=1.
 Leave Link  303 at Mon Jul 12 12:33:20 2021, MaxMem=   104857600 cpu:               0.1 elap:               0.1
 (Enter /dades/curu/g16A03_MST/g16/l401.exe)
 ExpMin= 1.61D-01 ExpMax= 5.48D+03 ExpMxC= 8.25D+02 IAcc=3 IRadAn=         5 AccDes= 0.00D+00
 Harris functional with IExCor=  402 and IRadAn=       5 diagonalized for initial guess.
 HarFok:  IExCor=  402 AccDes= 0.00D+00 IRadAn=         5 IDoV= 1 UseB2=F ITyADJ=14
 ICtDFT=  3500011 ScaDFX=  1.000000  1.000000  1.000000  1.000000
 FoFCou: FMM=F IPFlag=           0 FMFlag=      100000 FMFlg1=           0
         NFxFlg=           0 DoJE=T BraDBF=F KetDBF=T FulRan=T
         wScrn=  0.000000 ICntrl=       500 IOpCl=  0 I1Cent=   200000004 NGrid=           0
         NMat0=    1 NMatS0=      1 NMatT0=    0 NMatD0=    1 NMtDS0=    0 NMtDT0=    0
 Petite list used in FoFCou.
 Harris En= -906.646418912019    
 JPrj=0 DoOrth=F DoCkMO=F.
 Leave Link  401 at Mon Jul 12 12:33:26 2021, MaxMem=   104857600 cpu:              22.3 elap:               5.9
 (Enter /dades/curu/g16A03_MST/g16/l502.exe)
 Integral symmetry usage will be decided dynamically.
 Closed shell SCF:
 Using DIIS extrapolation, IDIIS=  1040.
 NGot=   104857600 LenX=   104699411 LenY=   104622241
 Requested convergence on RMS density matrix=1.00D-08 within 128 cycles.
 Requested convergence on MAX density matrix=1.00D-06.
 Requested convergence on             energy=1.00D-06.
 No special actions if energy rises.
 Fock matrices will be formed incrementally for  20 cycles.

 Cycle   1  Pass 1  IDiag  1:
 FoFJK:  IHMeth= 1 ICntrl=       0 DoSepK=F KAlg= 0 I1Cent=           0 FoldK=F
 IRaf= 800000000 NMat=       1 IRICut=       1 DoRegI=T DoRafI=F ISym2E= 0 IDoP0=0 IntGTp=1.
 FoFCou: FMM=F IPFlag=           0 FMFlag=      100000 FMFlg1=           0
         NFxFlg=           0 DoJE=F BraDBF=F KetDBF=F FulRan=T
         wScrn=  0.000000 ICntrl=         0 IOpCl=  0 I1Cent=           0 NGrid=           0
         NMat0=    1 NMatS0=      1 NMatT0=    0 NMatD0=    1 NMtDS0=    0 NMtDT0=    0
 Symmetry not used in FoFCou.
 Inv3:  Mode=1 IEnd=    18347187.
 Iteration    1 A*A^-1 deviation from unit magnitude is 4.66D-15 for    604.
 Iteration    1 A*A^-1 deviation from orthogonality  is 1.91D-15 for   2453   2384.
 Iteration    1 A^-1*A deviation from unit magnitude is 4.44D-15 for    607.
 Iteration    1 A^-1*A deviation from orthogonality  is 2.53D-15 for   2465   2231.
 E= -906.140996341234    
 DIIS: error= 3.08D-02 at cycle   1 NSaved=   1.
 NSaved= 1 IEnMin= 1 EnMin= -906.140996341234     IErMin= 1 ErrMin= 3.08D-02
 ErrMax= 3.08D-02  0.00D+00 EMaxC= 1.00D-01 BMatC= 5.40D-01 BMatP= 5.40D-01
 IDIUse=3 WtCom= 6.92D-01 WtEn= 3.08D-01
 Coeff-Com:  0.100D+01
 Coeff-En:   0.100D+01
 Coeff:      0.100D+01
 Gap=     0.216 Goal=   None    Shift=    0.000
 GapD=    0.216 DampG=1.000 DampE=0.500 DampFc=0.5000 IDamp=-1.
 Damping current iteration by 5.00D-01
 RMSDP=8.92D-03 MaxDP=3.06D-01              OVMax= 8.88D-01

 Cycle   2  Pass 1  IDiag  1:
 RMSU=  4.45D-03    CP:  9.89D-01
 E= -905.970989686290     Delta-E=        0.170006654944 Rises=F Damp=T
 DIIS: error= 1.95D-02 at cycle   2 NSaved=   2.
 NSaved= 2 IEnMin= 1 EnMin= -906.140996341234     IErMin= 2 ErrMin= 1.95D-02
 ErrMax= 1.95D-02  0.00D+00 EMaxC= 1.00D-01 BMatC= 1.93D-01 BMatP= 5.40D-01
 IDIUse=3 WtCom= 8.05D-01 WtEn= 1.95D-01
 Coeff-Com:  0.331D+00 0.669D+00
 Coeff-En:   0.617D+00 0.383D+00
 Coeff:      0.387D+00 0.613D+00
 Gap=     0.022 Goal=   None    Shift=    0.000
 RMSDP=4.11D-03 MaxDP=1.86D-01 DE= 1.70D-01 OVMax= 8.47D-01

 Cycle   3  Pass 1  IDiag  1:
 RMSU=  2.93D-03    CP:  9.78D-01  3.55D-01
 E= -906.440797194403     Delta-E=       -0.469807508113 Rises=F Damp=F
 DIIS: error= 1.75D-02 at cycle   3 NSaved=   3.
 NSaved= 3 IEnMin= 3 EnMin= -906.440797194403     IErMin= 3 ErrMin= 1.75D-02
 ErrMax= 1.75D-02  0.00D+00 EMaxC= 1.00D-01 BMatC= 1.47D-01 BMatP= 1.93D-01
 IDIUse=3 WtCom= 8.25D-01 WtEn= 1.75D-01
 Coeff-Com:  0.142D+00 0.434D+00 0.425D+00
 Coeff-En:   0.000D+00 0.604D-01 0.940D+00
 Coeff:      0.117D+00 0.368D+00 0.515D+00
 Gap=     0.241 Goal=   None    Shift=    0.000
 RMSDP=2.01D-03 MaxDP=9.35D-02 DE=-4.70D-01 OVMax= 1.15D-01

 Cycle   4  Pass 1  IDiag  1:
 RMSU=  1.30D-03    CP:  9.87D-01  4.28D-01  4.94D-01
 E= -906.582446205635     Delta-E=       -0.141649011232 Rises=F Damp=F
 DIIS: error= 2.94D-03 at cycle   4 NSaved=   4.
 NSaved= 4 IEnMin= 4 EnMin= -906.582446205635     IErMin= 4 ErrMin= 2.94D-03
 ErrMax= 2.94D-03  0.00D+00 EMaxC= 1.00D-01 BMatC= 9.55D-03 BMatP= 1.47D-01
 IDIUse=3 WtCom= 9.71D-01 WtEn= 2.94D-02
 Coeff-Com: -0.723D-02 0.157D+00 0.179D+00 0.671D+00
 Coeff-En:   0.000D+00 0.000D+00 0.000D+00 0.100D+01
 Coeff:     -0.702D-02 0.153D+00 0.174D+00 0.681D+00
 Gap=     0.143 Goal=   None    Shift=    0.000
 RMSDP=4.71D-04 MaxDP=2.26D-02 DE=-1.42D-01 OVMax= 2.27D-02

 Cycle   5  Pass 1  IDiag  1:
 RMSU=  4.36D-04    CP:  9.87D-01  4.47D-01  5.29D-01  9.08D-01
 E= -906.585814078874     Delta-E=       -0.003367873239 Rises=F Damp=F
 DIIS: error= 3.29D-03 at cycle   5 NSaved=   5.
 NSaved= 5 IEnMin= 5 EnMin= -906.585814078874     IErMin= 4 ErrMin= 2.94D-03
 ErrMax= 3.29D-03  0.00D+00 EMaxC= 1.00D-01 BMatC= 4.88D-03 BMatP= 9.55D-03
 IDIUse=3 WtCom= 9.67D-01 WtEn= 3.29D-02
 Coeff-Com: -0.284D-01 0.607D-01 0.192D-01 0.430D+00 0.519D+00
 Coeff-En:   0.000D+00 0.000D+00 0.000D+00 0.336D+00 0.664D+00
 Coeff:     -0.275D-01 0.587D-01 0.186D-01 0.427D+00 0.523D+00
 Gap=     0.138 Goal=   None    Shift=    0.000
 RMSDP=2.78D-04 MaxDP=1.43D-02 DE=-3.37D-03 OVMax= 2.59D-02

 Cycle   6  Pass 1  IDiag  1:
 RMSU=  1.46D-04    CP:  9.87D-01  4.71D-01  5.13D-01  1.02D+00  6.69D-01
 E= -906.590011663510     Delta-E=       -0.004197584635 Rises=F Damp=F
 DIIS: error= 8.17D-04 at cycle   6 NSaved=   6.
 NSaved= 6 IEnMin= 6 EnMin= -906.590011663510     IErMin= 6 ErrMin= 8.17D-04
 ErrMax= 8.17D-04  0.00D+00 EMaxC= 1.00D-01 BMatC= 4.34D-04 BMatP= 4.88D-03
 IDIUse=3 WtCom= 9.92D-01 WtEn= 8.17D-03
 Coeff-Com: -0.167D-01 0.143D-01-0.274D-01 0.149D+00 0.302D+00 0.579D+00
 Coeff-En:   0.000D+00 0.000D+00 0.000D+00 0.000D+00 0.000D+00 0.100D+01
 Coeff:     -0.166D-01 0.142D-01-0.272D-01 0.148D+00 0.300D+00 0.582D+00
 Gap=     0.136 Goal=   None    Shift=    0.000
 RMSDP=1.08D-04 MaxDP=4.45D-03 DE=-4.20D-03 OVMax= 7.75D-03

 Cycle   7  Pass 1  IDiag  1:
 RMSU=  7.13D-05    CP:  9.87D-01  4.76D-01  5.04D-01  1.05D+00  7.74D-01
                    CP:  7.47D-01
 E= -906.590369120301     Delta-E=       -0.000357456791 Rises=F Damp=F
 DIIS: error= 3.26D-04 at cycle   7 NSaved=   7.
 NSaved= 7 IEnMin= 7 EnMin= -906.590369120301     IErMin= 7 ErrMin= 3.26D-04
 ErrMax= 3.26D-04  0.00D+00 EMaxC= 1.00D-01 BMatC= 7.23D-05 BMatP= 4.34D-04
 IDIUse=3 WtCom= 9.97D-01 WtEn= 3.26D-03
 Coeff-Com: -0.561D-02 0.301D-02-0.186D-01 0.234D-01 0.984D-01 0.350D+00
 Coeff-Com:  0.549D+00
 Coeff-En:   0.000D+00 0.000D+00 0.000D+00 0.000D+00 0.000D+00 0.302D-01
 Coeff-En:   0.970D+00
 Coeff:     -0.559D-02 0.300D-02-0.185D-01 0.233D-01 0.981D-01 0.349D+00
 Coeff:      0.551D+00
 Gap=     0.136 Goal=   None    Shift=    0.000
 RMSDP=3.50D-05 MaxDP=1.50D-03 DE=-3.57D-04 OVMax= 2.71D-03

 Cycle   8  Pass 1  IDiag  1:
 RMSU=  2.07D-05    CP:  9.87D-01  4.78D-01  5.01D-01  1.06D+00  7.76D-01
                    CP:  8.35D-01  7.11D-01
 E= -906.590430753316     Delta-E=       -0.000061633015 Rises=F Damp=F
 DIIS: error= 1.08D-04 at cycle   8 NSaved=   8.
 NSaved= 8 IEnMin= 8 EnMin= -906.590430753316     IErMin= 8 ErrMin= 1.08D-04
 ErrMax= 1.08D-04  0.00D+00 EMaxC= 1.00D-01 BMatC= 4.25D-06 BMatP= 7.23D-05
 IDIUse=3 WtCom= 9.99D-01 WtEn= 1.08D-03
 Coeff-Com: -0.594D-03 0.360D-03-0.480D-02-0.464D-02 0.117D-01 0.812D-01
 Coeff-Com:  0.250D+00 0.667D+00
 Coeff-En:   0.000D+00 0.000D+00 0.000D+00 0.000D+00 0.000D+00 0.000D+00
 Coeff-En:   0.000D+00 0.100D+01
 Coeff:     -0.593D-03 0.360D-03-0.480D-02-0.464D-02 0.117D-01 0.811D-01
 Coeff:      0.250D+00 0.667D+00
 Gap=     0.136 Goal=   None    Shift=    0.000
 RMSDP=9.29D-06 MaxDP=4.69D-04 DE=-6.16D-05 OVMax= 7.49D-04

 Cycle   9  Pass 1  IDiag  1:
 RMSU=  7.01D-06    CP:  9.87D-01  4.78D-01  5.01D-01  1.06D+00  7.81D-01
                    CP:  8.37D-01  7.37D-01  7.45D-01
 E= -906.590433838853     Delta-E=       -0.000003085537 Rises=F Damp=F
 DIIS: error= 5.00D-05 at cycle   9 NSaved=   9.
 NSaved= 9 IEnMin= 9 EnMin= -906.590433838853     IErMin= 9 ErrMin= 5.00D-05
 ErrMax= 5.00D-05  0.00D+00 EMaxC= 1.00D-01 BMatC= 7.87D-07 BMatP= 4.25D-06
 IDIUse=1 WtCom= 1.00D+00 WtEn= 0.00D+00
 Coeff-Com:  0.174D-03-0.218D-03-0.117D-02-0.478D-02-0.169D-02 0.140D-01
 Coeff-Com:  0.962D-01 0.380D+00 0.517D+00
 Coeff:      0.174D-03-0.218D-03-0.117D-02-0.478D-02-0.169D-02 0.140D-01
 Coeff:      0.962D-01 0.380D+00 0.517D+00
 Gap=     0.136 Goal=   None    Shift=    0.000
 RMSDP=4.16D-06 MaxDP=1.76D-04 DE=-3.09D-06 OVMax= 2.35D-04

 Cycle  10  Pass 1  IDiag  1:
 RMSU=  2.50D-06    CP:  9.87D-01  4.78D-01  5.01D-01  1.06D+00  7.82D-01
                    CP:  8.42D-01  7.57D-01  8.21D-01  6.65D-01
 E= -906.590434448731     Delta-E=       -0.000000609878 Rises=F Damp=F
 DIIS: error= 1.58D-05 at cycle  10 NSaved=  10.
 NSaved=10 IEnMin=10 EnMin= -906.590434448731     IErMin=10 ErrMin= 1.58D-05
 ErrMax= 1.58D-05  0.00D+00 EMaxC= 1.00D-01 BMatC= 9.74D-08 BMatP= 7.87D-07
 IDIUse=1 WtCom= 1.00D+00 WtEn= 0.00D+00
 Coeff-Com:  0.158D-03-0.149D-03-0.147D-03-0.192D-02-0.138D-02 0.551D-03
 Coeff-Com:  0.318D-01 0.151D+00 0.298D+00 0.522D+00
 Coeff:      0.158D-03-0.149D-03-0.147D-03-0.192D-02-0.138D-02 0.551D-03
 Coeff:      0.318D-01 0.151D+00 0.298D+00 0.522D+00
 Gap=     0.136 Goal=   None    Shift=    0.000
 RMSDP=1.37D-06 MaxDP=5.77D-05 DE=-6.10D-07 OVMax= 1.09D-04

 Cycle  11  Pass 1  IDiag  1:
 RMSU=  9.10D-07    CP:  9.87D-01  4.78D-01  5.01D-01  1.06D+00  7.81D-01
                    CP:  8.41D-01  7.56D-01  8.21D-01  7.38D-01  6.74D-01
 E= -906.590434517434     Delta-E=       -0.000000068703 Rises=F Damp=F
 DIIS: error= 7.86D-06 at cycle  11 NSaved=  11.
 NSaved=11 IEnMin=11 EnMin= -906.590434517434     IErMin=11 ErrMin= 7.86D-06
 ErrMax= 7.86D-06  0.00D+00 EMaxC= 1.00D-01 BMatC= 1.74D-08 BMatP= 9.74D-08
 IDIUse=1 WtCom= 1.00D+00 WtEn= 0.00D+00
 Coeff-Com:  0.746D-04-0.846D-04 0.188D-03-0.113D-03-0.304D-03-0.270D-02
 Coeff-Com: -0.362D-03 0.104D-01 0.694D-01 0.310D+00 0.614D+00
 Coeff:      0.746D-04-0.846D-04 0.188D-03-0.113D-03-0.304D-03-0.270D-02
 Coeff:     -0.362D-03 0.104D-01 0.694D-01 0.310D+00 0.614D+00
 Gap=     0.136 Goal=   None    Shift=    0.000
 RMSDP=4.79D-07 MaxDP=2.31D-05 DE=-6.87D-08 OVMax= 2.14D-05

 Cycle  12  Pass 1  IDiag  1:
 RMSU=  2.81D-07    CP:  9.87D-01  4.78D-01  5.01D-01  1.06D+00  7.81D-01
                    CP:  8.41D-01  7.57D-01  8.26D-01  7.45D-01  7.69D-01
                    CP:  7.86D-01
 E= -906.590434531446     Delta-E=       -0.000000014012 Rises=F Damp=F
 DIIS: error= 2.21D-06 at cycle  12 NSaved=  12.
 NSaved=12 IEnMin=12 EnMin= -906.590434531446     IErMin=12 ErrMin= 2.21D-06
 ErrMax= 2.21D-06  0.00D+00 EMaxC= 1.00D-01 BMatC= 2.10D-09 BMatP= 1.74D-08
 IDIUse=1 WtCom= 1.00D+00 WtEn= 0.00D+00
 Coeff-Com:  0.264D-04-0.303D-04 0.116D-03 0.170D-03 0.163D-03-0.110D-02
 Coeff-Com: -0.203D-02-0.665D-02 0.109D-01 0.122D+00 0.309D+00 0.567D+00
 Coeff:      0.264D-04-0.303D-04 0.116D-03 0.170D-03 0.163D-03-0.110D-02
 Coeff:     -0.203D-02-0.665D-02 0.109D-01 0.122D+00 0.309D+00 0.567D+00
 Gap=     0.136 Goal=   None    Shift=    0.000
 RMSDP=1.96D-07 MaxDP=7.72D-06 DE=-1.40D-08 OVMax= 8.74D-06

 Cycle  13  Pass 1  IDiag  1:
 RMSU=  1.07D-07    CP:  9.87D-01  4.78D-01  5.01D-01  1.06D+00  7.81D-01
                    CP:  8.41D-01  7.57D-01  8.25D-01  7.52D-01  7.89D-01
                    CP:  8.27D-01  7.41D-01
 E= -906.590434533133     Delta-E=       -0.000000001687 Rises=F Damp=F
 DIIS: error= 7.02D-07 at cycle  13 NSaved=  13.
 NSaved=13 IEnMin=13 EnMin= -906.590434533133     IErMin=13 ErrMin= 7.02D-07
 ErrMax= 7.02D-07  0.00D+00 EMaxC= 1.00D-01 BMatC= 3.31D-10 BMatP= 2.10D-09
 IDIUse=1 WtCom= 1.00D+00 WtEn= 0.00D+00
 Coeff-Com:  0.400D-05-0.956D-05 0.307D-04 0.101D-03 0.161D-03-0.829D-04
 Coeff-Com: -0.899D-03-0.533D-02-0.635D-02 0.925D-02 0.305D-01 0.274D+00
 Coeff-Com:  0.699D+00
 Coeff:      0.400D-05-0.956D-05 0.307D-04 0.101D-03 0.161D-03-0.829D-04
 Coeff:     -0.899D-03-0.533D-02-0.635D-02 0.925D-02 0.305D-01 0.274D+00
 Coeff:      0.699D+00
 Gap=     0.136 Goal=   None    Shift=    0.000
 RMSDP=7.09D-08 MaxDP=3.11D-06 DE=-1.69D-09 OVMax= 2.43D-06

 Cycle  14  Pass 1  IDiag  1:
 RMSU=  3.37D-08    CP:  9.87D-01  4.78D-01  5.01D-01  1.06D+00  7.81D-01
                    CP:  8.41D-01  7.57D-01  8.26D-01  7.52D-01  7.95D-01
                    CP:  8.39D-01  8.44D-01  8.45D-01
 E= -906.590434533396     Delta-E=       -0.000000000263 Rises=F Damp=F
 DIIS: error= 2.74D-07 at cycle  14 NSaved=  14.
 NSaved=14 IEnMin=14 EnMin= -906.590434533396     IErMin=14 ErrMin= 2.74D-07
 ErrMax= 2.74D-07  0.00D+00 EMaxC= 1.00D-01 BMatC= 2.84D-11 BMatP= 3.31D-10
 IDIUse=1 WtCom= 1.00D+00 WtEn= 0.00D+00
 Coeff-Com:  0.726D-06-0.370D-05 0.638D-05 0.326D-04 0.769D-04 0.783D-04
 Coeff-Com: -0.170D-03-0.181D-02-0.355D-02-0.483D-02-0.134D-01 0.910D-01
 Coeff-Com:  0.346D+00 0.587D+00
 Coeff:      0.726D-06-0.370D-05 0.638D-05 0.326D-04 0.769D-04 0.783D-04
 Coeff:     -0.170D-03-0.181D-02-0.355D-02-0.483D-02-0.134D-01 0.910D-01
 Coeff:      0.346D+00 0.587D+00
 Gap=     0.136 Goal=   None    Shift=    0.000
 RMSDP=2.36D-08 MaxDP=7.05D-07 DE=-2.63D-10 OVMax= 1.48D-06

 Cycle  15  Pass 1  IDiag  1:
 RMSU=  1.29D-08    CP:  9.87D-01  4.78D-01  5.01D-01  1.06D+00  7.81D-01
                    CP:  8.41D-01  7.57D-01  8.26D-01  7.53D-01  7.96D-01
                    CP:  8.40D-01  8.50D-01  8.88D-01  7.00D-01
 E= -906.590434533407     Delta-E=       -0.000000000011 Rises=F Damp=F
 DIIS: error= 1.04D-07 at cycle  15 NSaved=  15.
 NSaved=15 IEnMin=15 EnMin= -906.590434533407     IErMin=15 ErrMin= 1.04D-07
 ErrMax= 1.04D-07  0.00D+00 EMaxC= 1.00D-01 BMatC= 4.61D-12 BMatP= 2.84D-11
 IDIUse=1 WtCom= 1.00D+00 WtEn= 0.00D+00
 Coeff-Com: -0.192D-06-0.607D-06-0.338D-06 0.668D-05 0.274D-04 0.691D-04
 Coeff-Com:  0.293D-04-0.355D-03-0.132D-02-0.490D-02-0.146D-01 0.117D-01
 Coeff-Com:  0.980D-01 0.343D+00 0.569D+00
 Coeff:     -0.192D-06-0.607D-06-0.338D-06 0.668D-05 0.274D-04 0.691D-04
 Coeff:      0.293D-04-0.355D-03-0.132D-02-0.490D-02-0.146D-01 0.117D-01
 Coeff:      0.980D-01 0.343D+00 0.569D+00
 Gap=     0.136 Goal=   None    Shift=    0.000
 RMSDP=1.08D-08 MaxDP=5.64D-07 DE=-1.09D-11 OVMax= 8.31D-07

 Cycle  16  Pass 1  IDiag  1:
 RMSU=  4.79D-09    CP:  9.87D-01  4.78D-01  5.01D-01  1.06D+00  7.81D-01
                    CP:  8.41D-01  7.57D-01  8.26D-01  7.53D-01  7.97D-01
                    CP:  8.41D-01  8.60D-01  9.04D-01  7.96D-01  6.40D-01
 E= -906.590434533428     Delta-E=       -0.000000000022 Rises=F Damp=F
 DIIS: error= 3.42D-08 at cycle  16 NSaved=  16.
 NSaved=16 IEnMin=16 EnMin= -906.590434533428     IErMin=16 ErrMin= 3.42D-08
 ErrMax= 3.42D-08  0.00D+00 EMaxC= 1.00D-01 BMatC= 5.96D-13 BMatP= 4.61D-12
 IDIUse=1 WtCom= 1.00D+00 WtEn= 0.00D+00
 Coeff-Com: -0.102D-06-0.132D-06-0.821D-06 0.333D-06 0.102D-04 0.377D-04
 Coeff-Com:  0.540D-04 0.329D-04-0.299D-03-0.219D-02-0.732D-02-0.156D-02
 Coeff-Com:  0.251D-01 0.157D+00 0.373D+00 0.456D+00
 Coeff:     -0.102D-06-0.132D-06-0.821D-06 0.333D-06 0.102D-04 0.377D-04
 Coeff:      0.540D-04 0.329D-04-0.299D-03-0.219D-02-0.732D-02-0.156D-02
 Coeff:      0.251D-01 0.157D+00 0.373D+00 0.456D+00
 Gap=     0.136 Goal=   None    Shift=    0.000
 RMSDP=3.14D-09 MaxDP=1.15D-07 DE=-2.16D-11 OVMax= 2.73D-07

 Error on total polarization charges =  0.00647
 SCF Done:  E(RB3LYP) =  -906.590434533     A.U. after   16 cycles
            NFock= 16  Conv=0.31D-08     -V/T= 2.0085
 KE= 8.989721346083D+02 PE=-4.645061320612D+03 EE= 1.585597075339D+03
 Leave Link  502 at Mon Jul 12 12:36:30 2021, MaxMem=   104857600 cpu:             709.7 elap:             183.9
 (Enter /dades/curu/g16A03_MST/g16/l601.exe)
 Copying SCF densities to generalized density rwf, IOpCl= 0 IROHF=0.

 **********************************************************************

            Population analysis using the SCF density.

 **********************************************************************

 Orbital symmetries:
       Occupied  (A) (A) (A) (A) (A) (A) (A) (A) (A) (A) (A) (A)
                 (A) (A) (A) (A) (A) (A) (A) (A) (A) (A) (A) (A)
                 (A) (A) (A) (A) (A) (A) (A) (A) (A) (A) (A) (A)
                 (A) (A) (A) (A) (A) (A) (A) (A) (A) (A) (A) (A)
                 (A) (A) (A) (A) (A) (A) (A) (A) (A) (A) (A) (A)
                 (A) (A) (A) (A)
       Virtual   (A) (A) (A) (A) (A) (A) (A) (A) (A) (A) (A) (A)
                 (A) (A) (A) (A) (A) (A) (A) (A) (A) (A) (A) (A)
                 (A) (A) (A) (A) (A) (A) (A) (A) (A) (A) (A) (A)
                 (A) (A) (A) (A) (A) (A) (A) (A) (A) (A) (A) (A)
                 (A) (A) (A) (A) (A) (A) (A) (A) (A) (A) (A) (A)
                 (A) (A) (A) (A) (A) (A) (A) (A) (A) (A) (A) (A)
                 (A) (A) (A) (A) (A) (A) (A) (A) (A) (A) (A) (A)
                 (A) (A) (A) (A) (A) (A) (A) (A) (A) (A) (A) (A)
                 (A) (A) (A) (A) (A) (A) (A) (A) (A) (A) (A) (A)
                 (A) (A) (A) (A) (A) (A) (A) (A) (A) (A) (A) (A)
                 (A) (A) (A) (A) (A) (A) (A) (A) (A) (A) (A) (A)
                 (A) (A) (A) (A) (A) (A) (A) (A) (A) (A) (A) (A)
                 (A) (A) (A) (A) (A) (A) (A) (A) (A) (A) (A) (A)
                 (A) (A) (A) (A) (A) (A) (A) (A) (A) (A) (A) (A)
                 (A) (A) (A) (A) (A) (A) (A) (A) (A) (A) (A) (A)
                 (A) (A) (A) (A) (A) (A) (A) (A) (A) (A) (A) (A)
                 (A) (A) (A) (A) (A) (A) (A) (A) (A) (A) (A) (A)
                 (A) (A) (A) (A) (A) (A) (A) (A) (A)
 The electronic state is 1-A.
 Alpha  occ. eigenvalues --  -19.16093 -19.15776 -19.15334 -19.13490 -19.02287
 Alpha  occ. eigenvalues --  -14.42920 -14.35788 -14.35045 -14.19867 -10.28451
 Alpha  occ. eigenvalues --  -10.24365 -10.23267 -10.22796 -10.21831 -10.20096
 Alpha  occ. eigenvalues --  -10.19767 -10.19597  -1.08541  -1.05435  -1.03015
 Alpha  occ. eigenvalues --   -1.02133  -1.00552  -0.95740  -0.87006  -0.84152
 Alpha  occ. eigenvalues --   -0.76866  -0.75635  -0.73109  -0.66905  -0.63225
 Alpha  occ. eigenvalues --   -0.61545  -0.59014  -0.56268  -0.54384  -0.51430
 Alpha  occ. eigenvalues --   -0.50258  -0.49777  -0.48625  -0.47828  -0.47474
 Alpha  occ. eigenvalues --   -0.45030  -0.43802  -0.43398  -0.42443  -0.40654
 Alpha  occ. eigenvalues --   -0.40325  -0.38267  -0.36995  -0.35302  -0.34371
 Alpha  occ. eigenvalues --   -0.33836  -0.32920  -0.32198  -0.31206  -0.28643
 Alpha  occ. eigenvalues --   -0.28152  -0.28039  -0.27354  -0.26501  -0.25040
 Alpha  occ. eigenvalues --   -0.23524  -0.18161  -0.17259  -0.14462
 Alpha virt. eigenvalues --   -0.00835   0.04497   0.04925   0.09263   0.10213
 Alpha virt. eigenvalues --    0.12273   0.12416   0.13973   0.15115   0.16211
 Alpha virt. eigenvalues --    0.17039   0.17305   0.17920   0.19126   0.19894
 Alpha virt. eigenvalues --    0.20179   0.20599   0.21180   0.22218   0.23112
 Alpha virt. eigenvalues --    0.24470   0.26175   0.27216   0.29332   0.30947
 Alpha virt. eigenvalues --    0.32243   0.33931   0.35947   0.40153   0.42801
 Alpha virt. eigenvalues --    0.44792   0.49367   0.52518   0.54323   0.54887
 Alpha virt. eigenvalues --    0.55355   0.56178   0.56558   0.58757   0.60286
 Alpha virt. eigenvalues --    0.61785   0.62410   0.63471   0.63690   0.64069
 Alpha virt. eigenvalues --    0.64656   0.66719   0.67488   0.69607   0.69844
 Alpha virt. eigenvalues --    0.71352   0.72566   0.74435   0.75237   0.76206
 Alpha virt. eigenvalues --    0.77260   0.77802   0.79758   0.80324   0.81274
 Alpha virt. eigenvalues --    0.81661   0.81992   0.83425   0.84223   0.85279
 Alpha virt. eigenvalues --    0.86745   0.87031   0.87706   0.88474   0.89015
 Alpha virt. eigenvalues --    0.90259   0.91715   0.93673   0.94021   0.94537
 Alpha virt. eigenvalues --    0.96134   0.96858   0.98056   0.99258   0.99995
 Alpha virt. eigenvalues --    1.02239   1.03465   1.04570   1.05253   1.07153
 Alpha virt. eigenvalues --    1.07786   1.10520   1.10738   1.11863   1.14460
 Alpha virt. eigenvalues --    1.16583   1.18267   1.21552   1.21777   1.24019
 Alpha virt. eigenvalues --    1.27290   1.29179   1.29838   1.33844   1.34896
 Alpha virt. eigenvalues --    1.36242   1.37743   1.39414   1.42756   1.43158
 Alpha virt. eigenvalues --    1.46256   1.50464   1.50879   1.51764   1.53085
 Alpha virt. eigenvalues --    1.54559   1.55236   1.56073   1.58245   1.59844
 Alpha virt. eigenvalues --    1.60848   1.63510   1.69503   1.70762   1.72499
 Alpha virt. eigenvalues --    1.74179   1.74885   1.75602   1.77415   1.79098
 Alpha virt. eigenvalues --    1.80656   1.83326   1.83701   1.85616   1.85798
 Alpha virt. eigenvalues --    1.88066   1.89343   1.91055   1.91943   1.92398
 Alpha virt. eigenvalues --    1.94997   1.96435   1.96955   1.97860   1.99555
 Alpha virt. eigenvalues --    2.01258   2.03771   2.04474   2.06102   2.08162
 Alpha virt. eigenvalues --    2.09036   2.10345   2.12285   2.15168   2.19825
 Alpha virt. eigenvalues --    2.20959   2.22537   2.23962   2.25087   2.26117
 Alpha virt. eigenvalues --    2.28369   2.29902   2.31025   2.33227   2.36483
 Alpha virt. eigenvalues --    2.37646   2.38225   2.40880   2.41479   2.43702
 Alpha virt. eigenvalues --    2.45138   2.49553   2.50924   2.51884   2.52360
 Alpha virt. eigenvalues --    2.54506   2.55869   2.58656   2.59162   2.62078
 Alpha virt. eigenvalues --    2.64435   2.68428   2.70674   2.74021   2.75052
 Alpha virt. eigenvalues --    2.75652   2.79485   2.81716   2.81864   2.84811
 Alpha virt. eigenvalues --    2.86820   2.88517   2.91740   2.96625   2.99109
 Alpha virt. eigenvalues --    2.99434   3.06826   3.08084   3.10851   3.22745
 Alpha virt. eigenvalues --    3.28575   3.71060   3.74097   3.81777   3.87009
 Alpha virt. eigenvalues --    3.92621   4.00770   4.06552   4.08049   4.16227
 Alpha virt. eigenvalues --    4.24791   4.30382   4.39233   4.46709   4.55781
 Alpha virt. eigenvalues --    4.66185   4.66712   4.68245
          Condensed to atoms (all electrons):
               1          2          3          4          5          6
     1  N    7.450909   0.218475   0.503896  -0.174521  -0.152328   0.012854
     2  H    0.218475   0.594206  -0.043926   0.011509  -0.003349  -0.000275
     3  C    0.503896  -0.043926   4.353000   0.602807   0.227035  -0.017741
     4  O   -0.174521   0.011509   0.602807   8.270956  -0.103690   0.010662
     5  C   -0.152328  -0.003349   0.227035  -0.103690   5.230620   0.368554
     6  C    0.012854  -0.000275  -0.017741   0.010662   0.368554   5.058310
     7  N   -0.000229  -0.000022   0.004661   0.000288  -0.025119   0.393416
     8  H    0.000169  -0.000032  -0.000712   0.004290  -0.041216   0.374026
     9  N   -0.012501   0.002949  -0.035679   0.001544   0.386575  -0.084295
    10  N    0.000110   0.000254   0.003659  -0.000034  -0.102092  -0.111241
    11  C    0.000002  -0.000010  -0.000046   0.000000   0.005558   0.005303
    12  H    0.000002   0.000006  -0.000006  -0.000000   0.000649  -0.000314
    13  O   -0.000000   0.000000  -0.000000  -0.000000  -0.000188   0.000733
    14  C    0.000000  -0.000000  -0.000000   0.000000   0.000011  -0.000068
    15  C    0.000000   0.000000  -0.000000  -0.000000  -0.000000   0.000001
    16  O   -0.000000  -0.000000   0.000000  -0.000000   0.000000  -0.000000
    17  H    0.000000  -0.000000   0.000000   0.000000  -0.000000  -0.000000
    18  H   -0.000000   0.000000   0.000000  -0.000000   0.000000   0.000000
    19  H    0.000000  -0.000000   0.000000   0.000000   0.000000  -0.000000
    20  H    0.000000   0.000000   0.000000  -0.000000   0.000000  -0.000004
    21  C    0.000000  -0.000000  -0.000000   0.000000  -0.000005  -0.000061
    22  O    0.000000  -0.000000  -0.000000   0.000000  -0.000000  -0.000000
    23  H   -0.000000  -0.000000  -0.000000  -0.000000   0.000000  -0.000000
    24  H    0.000000  -0.000000  -0.000000   0.000000  -0.000029   0.000243
    25  C   -0.000000   0.000000   0.000001  -0.000000  -0.000332   0.000359
    26  H    0.000000   0.000000   0.000000  -0.000000  -0.000014   0.000026
    27  O    0.000000  -0.000000  -0.000000   0.000000  -0.000000   0.000001
    28  H   -0.000000   0.000000  -0.000000  -0.000000  -0.000000  -0.000000
               7          8          9         10         11         12
     1  N   -0.000229   0.000169  -0.012501   0.000110   0.000002   0.000002
     2  H   -0.000022  -0.000032   0.002949   0.000254  -0.000010   0.000006
     3  C    0.004661  -0.000712  -0.035679   0.003659  -0.000046  -0.000006
     4  O    0.000288   0.004290   0.001544  -0.000034   0.000000  -0.000000
     5  C   -0.025119  -0.041216   0.386575  -0.102092   0.005558   0.000649
     6  C    0.393416   0.374026  -0.084295  -0.111241   0.005303  -0.000314
     7  N    6.843294  -0.050318  -0.095123   0.247898  -0.050444   0.005251
     8  H   -0.050318   0.544793   0.005152   0.006674  -0.000217   0.000003
     9  N   -0.095123   0.005152   7.022891   0.226831  -0.049662   0.008982
    10  N    0.247898   0.006674   0.226831   6.766855   0.195468  -0.062270
    11  C   -0.050444  -0.000217  -0.049662   0.195468   4.878687   0.368183
    12  H    0.005251   0.000003   0.008982  -0.062270   0.368183   0.554356
    13  O    0.001873   0.000004   0.001032  -0.053260   0.242334  -0.029345
    14  C    0.002276   0.000001  -0.000074  -0.001168  -0.053325   0.003989
    15  C    0.000058   0.000000   0.000002  -0.000212   0.000273   0.000177
    16  O   -0.000000  -0.000000  -0.000000  -0.000001   0.000007   0.000012
    17  H    0.000000  -0.000000  -0.000000   0.000020  -0.000018  -0.000062
    18  H   -0.000001   0.000000   0.000000   0.000058   0.000562  -0.000132
    19  H   -0.000000  -0.000000  -0.000000   0.000007   0.000150  -0.000010
    20  H    0.000381  -0.000001   0.000007   0.000767   0.004892  -0.000270
    21  C   -0.003051   0.000002  -0.000055  -0.001339  -0.053264   0.005379
    22  O    0.000034  -0.000000   0.000000   0.000009   0.002971  -0.000078
    23  H    0.000000  -0.000000  -0.000000  -0.000009   0.000081  -0.000010
    24  H    0.010711   0.000005   0.000128  -0.000358   0.003113  -0.000209
    25  C   -0.001004  -0.000001   0.002421  -0.033331   0.308129  -0.039173
    26  H    0.001144   0.000001   0.000421   0.002585  -0.047511   0.002007
    27  O    0.000012  -0.000000  -0.000037   0.001644  -0.036550   0.003889
    28  H   -0.000000   0.000000   0.000002  -0.000212   0.006005  -0.000272
              13         14         15         16         17         18
     1  N   -0.000000   0.000000   0.000000  -0.000000   0.000000  -0.000000
     2  H    0.000000  -0.000000   0.000000  -0.000000  -0.000000   0.000000
     3  C   -0.000000  -0.000000  -0.000000   0.000000   0.000000   0.000000
     4  O   -0.000000   0.000000  -0.000000  -0.000000   0.000000  -0.000000
     5  C   -0.000188   0.000011  -0.000000   0.000000  -0.000000   0.000000
     6  C    0.000733  -0.000068   0.000001  -0.000000  -0.000000   0.000000
     7  N    0.001873   0.002276   0.000058  -0.000000   0.000000  -0.000001
     8  H    0.000004   0.000001   0.000000  -0.000000  -0.000000   0.000000
     9  N    0.001032  -0.000074   0.000002  -0.000000  -0.000000   0.000000
    10  N   -0.053260  -0.001168  -0.000212  -0.000001   0.000020   0.000058
    11  C    0.242334  -0.053325   0.000273   0.000007  -0.000018   0.000562
    12  H   -0.029345   0.003989   0.000177   0.000012  -0.000062  -0.000132
    13  O    8.289641   0.220265  -0.049520  -0.002186   0.013509  -0.001114
    14  C    0.220265   4.994714   0.347245  -0.034735  -0.011474  -0.035397
    15  C   -0.049520   0.347245   4.941246   0.229293  -0.035808   0.354085
    16  O   -0.002186  -0.034735   0.229293   8.273149   0.237899  -0.042012
    17  H    0.013509  -0.011474  -0.035808   0.237899   0.381185  -0.004947
    18  H   -0.001114  -0.035397   0.354085  -0.042012  -0.004947   0.609305
    19  H    0.003593  -0.038032   0.353832  -0.027404   0.006741  -0.036435
    20  H   -0.044817   0.361914  -0.051629   0.001607   0.000765   0.005299
    21  C   -0.029957   0.266935  -0.023294   0.003596   0.000445   0.001282
    22  O    0.001106  -0.046356  -0.003490   0.000047  -0.000021   0.000167
    23  H   -0.000087   0.007265   0.000503   0.000001   0.000001  -0.000065
    24  H    0.002794  -0.045540   0.004942  -0.000051  -0.000017  -0.000206
    25  C   -0.049134  -0.046505  -0.012016  -0.000101   0.000111   0.001125
    26  H    0.003412   0.007759   0.000134   0.000002  -0.000002   0.000080
    27  O    0.001004  -0.002507   0.004102   0.000027  -0.000006   0.005182
    28  H   -0.000120  -0.000389   0.000139  -0.000001   0.000001  -0.000129
              19         20         21         22         23         24
     1  N    0.000000   0.000000   0.000000   0.000000  -0.000000   0.000000
     2  H   -0.000000   0.000000  -0.000000  -0.000000  -0.000000  -0.000000
     3  C    0.000000   0.000000  -0.000000  -0.000000  -0.000000  -0.000000
     4  O    0.000000  -0.000000   0.000000   0.000000  -0.000000   0.000000
     5  C    0.000000   0.000000  -0.000005  -0.000000   0.000000  -0.000029
     6  C   -0.000000  -0.000004  -0.000061  -0.000000  -0.000000   0.000243
     7  N   -0.000000   0.000381  -0.003051   0.000034   0.000000   0.010711
     8  H   -0.000000  -0.000001   0.000002  -0.000000  -0.000000   0.000005
     9  N   -0.000000   0.000007  -0.000055   0.000000  -0.000000   0.000128
    10  N    0.000007   0.000767  -0.001339   0.000009  -0.000009  -0.000358
    11  C    0.000150   0.004892  -0.053264   0.002971   0.000081   0.003113
    12  H   -0.000010  -0.000270   0.005379  -0.000078  -0.000010  -0.000209
    13  O    0.003593  -0.044817  -0.029957   0.001106  -0.000087   0.002794
    14  C   -0.038032   0.361914   0.266935  -0.046356   0.007265  -0.045540
    15  C    0.353832  -0.051629  -0.023294  -0.003490   0.000503   0.004942
    16  O   -0.027404   0.001607   0.003596   0.000047   0.000001  -0.000051
    17  H    0.006741   0.000765   0.000445  -0.000021   0.000001  -0.000017
    18  H   -0.036435   0.005299   0.001282   0.000167  -0.000065  -0.000206
    19  H    0.562995   0.001858  -0.005127   0.013077  -0.000396   0.000204
    20  H    0.001858   0.612637  -0.040555   0.002900  -0.000369  -0.011764
    21  C   -0.005127  -0.040555   5.055710   0.232445  -0.032295   0.359570
    22  O    0.013077   0.002900   0.232445   8.277509   0.237866  -0.037490
    23  H   -0.000396  -0.000369  -0.032295   0.237866   0.366881  -0.000836
    24  H    0.000204  -0.011764   0.359570  -0.037490  -0.000836   0.599708
    25  C    0.000651   0.008074   0.268031  -0.038889  -0.004359  -0.044093
    26  H   -0.000029  -0.000323  -0.057544   0.000439   0.002852  -0.002961
    27  O   -0.000193  -0.000060  -0.055253  -0.002620   0.002976   0.003074
    28  H   -0.000022  -0.000002  -0.003409   0.006177   0.001724   0.000158
              25         26         27         28
     1  N   -0.000000   0.000000   0.000000  -0.000000
     2  H    0.000000   0.000000  -0.000000   0.000000
     3  C    0.000001   0.000000  -0.000000  -0.000000
     4  O   -0.000000  -0.000000   0.000000  -0.000000
     5  C   -0.000332  -0.000014  -0.000000  -0.000000
     6  C    0.000359   0.000026   0.000001  -0.000000
     7  N   -0.001004   0.001144   0.000012  -0.000000
     8  H   -0.000001   0.000001  -0.000000   0.000000
     9  N    0.002421   0.000421  -0.000037   0.000002
    10  N   -0.033331   0.002585   0.001644  -0.000212
    11  C    0.308129  -0.047511  -0.036550   0.006005
    12  H   -0.039173   0.002007   0.003889  -0.000272
    13  O   -0.049134   0.003412   0.001004  -0.000120
    14  C   -0.046505   0.007759  -0.002507  -0.000389
    15  C   -0.012016   0.000134   0.004102   0.000139
    16  O   -0.000101   0.000002   0.000027  -0.000001
    17  H    0.000111  -0.000002  -0.000006   0.000001
    18  H    0.001125   0.000080   0.005182  -0.000129
    19  H    0.000651  -0.000029  -0.000193  -0.000022
    20  H    0.008074  -0.000323  -0.000060  -0.000002
    21  C    0.268031  -0.057544  -0.055253  -0.003409
    22  O   -0.038889   0.000439  -0.002620   0.006177
    23  H   -0.004359   0.002852   0.002976   0.001724
    24  H   -0.044093  -0.002961   0.003074   0.000158
    25  C    5.047946   0.368175   0.232882  -0.018743
    26  H    0.368175   0.610868  -0.036329  -0.007833
    27  O    0.232882  -0.036329   8.266425   0.240316
    28  H   -0.018743  -0.007833   0.240316   0.347520
 Mulliken charges:
               1
     1  N   -0.846838
     2  H    0.220213
     3  C    0.403051
     4  O   -0.623812
     5  C    0.209361
     6  C   -0.010488
     7  N   -0.285986
     8  H    0.157373
     9  N   -0.381511
    10  N   -0.087313
    11  C    0.269330
    12  H    0.179267
    13  O   -0.521569
    14  C    0.103198
    15  C   -0.060063
    16  O   -0.639149
    17  H    0.411677
    18  H    0.143292
    19  H    0.164543
    20  H    0.148694
    21  C    0.111817
    22  O   -0.645802
    23  H    0.418276
    24  H    0.158908
    25  C    0.049776
    26  H    0.152640
    27  O   -0.627978
    28  H    0.429092
 Sum of Mulliken charges =  -1.00000
 Mulliken charges with hydrogens summed into heavy atoms:
               1
     1  N   -0.626624
     3  C    0.403051
     4  O   -0.623812
     5  C    0.209361
     6  C    0.146886
     7  N   -0.285986
     9  N   -0.381511
    10  N   -0.087313
    11  C    0.448597
    13  O   -0.521569
    14  C    0.251891
    15  C    0.247772
    16  O   -0.227472
    21  C    0.270725
    22  O   -0.227526
    25  C    0.202417
    27  O   -0.198886
 Electronic spatial extent (au):  <R**2>=           5330.6048
 Charge=             -1.0000 electrons
 Dipole moment (field-independent basis, Debye):
    X=             22.4576    Y=             -6.1799    Z=              2.3272  Tot=             23.4084
 Quadrupole moment (field-independent basis, Debye-Ang):
   XX=           -247.9039   YY=            -91.1212   ZZ=           -104.0077
   XY=            -11.5362   XZ=             -8.0085   YZ=             -4.4426
 Traceless Quadrupole moment (field-independent basis, Debye-Ang):
   XX=           -100.2263   YY=             56.5564   ZZ=             43.6699
   XY=            -11.5362   XZ=             -8.0085   YZ=             -4.4426
 Octapole moment (field-independent basis, Debye-Ang**2):
  XXX=            686.8689  YYY=            -53.7464  ZZZ=              7.2008  XYY=             31.5696
  XXY=            -85.3173  XXZ=             44.4947  XZZ=             36.3557  YZZ=              1.0159
  YYZ=              2.1933  XYZ=              3.0966
 Hexadecapole moment (field-independent basis, Debye-Ang**3):
 XXXX=          -9938.3946 YYYY=           -573.7466 ZZZZ=           -534.3655 XXXY=           -125.9823
 XXXZ=           -250.7996 YYYX=           -181.4862 YYYZ=            -25.1781 ZZZX=            -45.2469
 ZZZY=             -9.0852 XXYY=          -1093.7238 XXZZ=          -1163.1164 YYZZ=           -193.8183
 XXYZ=            -34.4616 YYXZ=              5.8016 ZZXY=              8.1912
 N-N= 1.253901676131D+03 E-N=-4.645061319061D+03  KE= 8.989721346083D+02
 No NMR shielding tensors so no spin-rotation constants.
 Leave Link  601 at Mon Jul 12 12:36:30 2021, MaxMem=   104857600 cpu:               0.4 elap:               0.2
 (Enter /dades/curu/g16A03_MST/g16/l701.exe)
 ... and contract with generalized density number  0.
 Compute integral first derivatives.
 D1PCM: PCM CHGder 1st derivatives, ID1Alg=3 FixD1E=F DoIter=F DoCFld=F I1PDM=0.
 GePol: Maximum number of non-zero 1st derivatives   =     240
 Leave Link  701 at Mon Jul 12 12:36:34 2021, MaxMem=   104857600 cpu:              12.8 elap:               3.3
 (Enter /dades/curu/g16A03_MST/g16/l702.exe)
 L702 exits ... SP integral derivatives will be done elsewhere.
 Leave Link  702 at Mon Jul 12 12:36:34 2021, MaxMem=   104857600 cpu:               0.1 elap:               0.0
 (Enter /dades/curu/g16A03_MST/g16/l703.exe)
 Integral derivatives from FoFJK, PRISM(SPDF).
 Compute integral first derivatives, UseDBF=F ICtDFT=           0.
 Calling FoFJK, ICntrl=      2127 FMM=F ISym2X=0 I1Cent= 0 IOpClX= 0 NMat=1 NMatS=1 NMatT=0.
 FoFJK:  IHMeth= 1 ICntrl=    2127 DoSepK=F KAlg= 0 I1Cent=           0 FoldK=F
 IRaf=         0 NMat=       1 IRICut=       1 DoRegI=T DoRafI=F ISym2E= 0 IDoP0=0 IntGTp=1.
 FoFCou: FMM=F IPFlag=           0 FMFlag=      100000 FMFlg1=         800
         NFxFlg=           0 DoJE=F BraDBF=F KetDBF=F FulRan=T
         wScrn=  0.000000 ICntrl=      2127 IOpCl=  0 I1Cent=           0 NGrid=           0
         NMat0=    1 NMatS0=      1 NMatT0=    0 NMatD0=    1 NMtDS0=    0 NMtDT0=    0
 Symmetry not used in FoFCou.
 Leave Link  703 at Mon Jul 12 12:36:59 2021, MaxMem=   104857600 cpu:             101.3 elap:              25.4
 (Enter /dades/curu/g16A03_MST/g16/l716.exe)
 Dipole        = 8.83551725D+00-2.43134330D+00 9.15593334D-01
 ***** Axes restored to original set *****
 -------------------------------------------------------------------
 Center     Atomic                   Forces (Hartrees/Bohr)
 Number     Number              X              Y              Z
 -------------------------------------------------------------------
      1        7           0.019571391    0.012709388   -0.017804302
      2        1          -0.024112545   -0.004510101   -0.009396238
[...]
 Alpha virt. eigenvalues --    0.86834   0.87041   0.87811   0.88075   0.88715
 Alpha virt. eigenvalues --    0.88921   0.89614   0.90644   0.90883   0.91040
 Alpha virt. eigenvalues --    0.91563   0.92129   0.92702   0.92843   0.94238
 Alpha virt. eigenvalues --    0.95192   0.95720   0.95916   0.96178   0.98300
 Alpha virt. eigenvalues --    0.98735   0.99282   1.00411   1.00720   1.00968
 Alpha virt. eigenvalues --    1.01807   1.02569   1.02829   1.03560   1.04330
 Alpha virt. eigenvalues --    1.04807   1.05575   1.07250   1.07587   1.07989
 Alpha virt. eigenvalues --    1.08051   1.09306   1.09924   1.10636   1.11270
 Alpha virt. eigenvalues --    1.12470   1.12677   1.14453   1.14869   1.15390
 Alpha virt. eigenvalues --    1.16127   1.17227   1.17819   1.19014   1.19712
 Alpha virt. eigenvalues --    1.20488   1.21063   1.22222   1.23742   1.23771
 Alpha virt. eigenvalues --    1.24891   1.26209   1.26405   1.27421   1.28063
 Alpha virt. eigenvalues --    1.29413   1.29590   1.30227   1.31481   1.33303
 Alpha virt. eigenvalues --    1.34207   1.34817   1.35289   1.36768   1.38019
 Alpha virt. eigenvalues --    1.38454   1.39568   1.40386   1.40600   1.41938
 Alpha virt. eigenvalues --    1.42516   1.43684   1.44603   1.45309   1.45612
 Alpha virt. eigenvalues --    1.46928   1.47900   1.48788   1.49419   1.51200
 Alpha virt. eigenvalues --    1.52034   1.53171   1.53629   1.53871   1.54707
 Alpha virt. eigenvalues --    1.57620   1.58295   1.59383   1.59999   1.61521
 Alpha virt. eigenvalues --    1.62488   1.63529   1.66739   1.67348   1.68144
 Alpha virt. eigenvalues --    1.69645   1.71078   1.72005   1.72441   1.72795
 Alpha virt. eigenvalues --    1.73349   1.75181   1.75838   1.77302   1.78143
 Alpha virt. eigenvalues --    1.78695   1.80346   1.80858   1.81436   1.82043
 Alpha virt. eigenvalues --    1.83265   1.84348   1.85531   1.85917   1.87934
 Alpha virt. eigenvalues --    1.88919   1.89437   1.90860   1.91705   1.92378
 Alpha virt. eigenvalues --    1.92990   1.94474   1.95515   1.97220   1.97425
 Alpha virt. eigenvalues --    1.98103   1.99743   2.00055   2.01705   2.02730
 Alpha virt. eigenvalues --    2.03334   2.05285   2.07123   2.07630   2.09188
 Alpha virt. eigenvalues --    2.11579   2.13232   2.14923   2.15779   2.16011
 Alpha virt. eigenvalues --    2.16569   2.17462   2.19243   2.19877   2.20547
 Alpha virt. eigenvalues --    2.22001   2.22578   2.24743   2.25645   2.26286
 Alpha virt. eigenvalues --    2.26390   2.27681   2.28101   2.29231   2.30712
 Alpha virt. eigenvalues --    2.32103   2.32462   2.32938   2.35126   2.35594
 Alpha virt. eigenvalues --    2.38020   2.39079   2.39991   2.40557   2.42084
 Alpha virt. eigenvalues --    2.42926   2.44456   2.45648   2.46471   2.47021
 Alpha virt. eigenvalues --    2.47939   2.48144   2.49379   2.51616   2.53453
 Alpha virt. eigenvalues --    2.54363   2.56313   2.56959   2.57387   2.59279
 Alpha virt. eigenvalues --    2.61146   2.62241   2.63163   2.64267   2.65654
 Alpha virt. eigenvalues --    2.65940   2.66648   2.67920   2.68754   2.69811
 Alpha virt. eigenvalues --    2.71520   2.72325   2.75150   2.75434   2.76680
 Alpha virt. eigenvalues --    2.77093   2.79712   2.80356   2.81544   2.83581
 Alpha virt. eigenvalues --    2.84140   2.86436   2.88287   2.90611   2.92457
 Alpha virt. eigenvalues --    2.93804   2.96943   2.97716   2.99028   2.99195
 Alpha virt. eigenvalues --    3.00105   3.02252   3.03297   3.05069   3.06084
 Alpha virt. eigenvalues --    3.07352   3.08785   3.09186   3.10355   3.13599
 Alpha virt. eigenvalues --    3.15268   3.16292   3.16899   3.20035   3.21437
 Alpha virt. eigenvalues --    3.23263   3.26216   3.27437   3.31283   3.35271
 Alpha virt. eigenvalues --    3.36627   3.37782   3.38780   3.40213   3.42834
 Alpha virt. eigenvalues --    3.52261   3.55583   3.62424   3.63748   3.68496
 Alpha virt. eigenvalues --    3.73170   3.74587   3.77933   3.80975   3.81392
 Alpha virt. eigenvalues --    3.84822   3.88279   3.89260   3.91291   3.92722
 Alpha virt. eigenvalues --    3.94594   3.97013   3.97266   3.97763   3.99436
 Alpha virt. eigenvalues --    4.02034   4.02326   4.03759   4.07410   4.08711
 Alpha virt. eigenvalues --    4.09845   4.10183   4.13036   4.16421   4.19368
 Alpha virt. eigenvalues --    4.21715   4.23957   4.28544   4.35237   4.41371
 Alpha virt. eigenvalues --    4.46048   4.47622   4.53089   4.57624   4.68427
 Alpha virt. eigenvalues --    4.92930
          Condensed to atoms (all electrons):
               1          2          3          4          5          6
     1  N    7.637055   0.205035  -0.336199  -0.125783   0.505698  -0.017219
     2  H    0.205035   0.802939   0.169008   0.009392  -0.275444  -0.040060
     3  C   -0.336199   0.169008   6.525665   0.035776  -1.539683  -0.023743
     4  O   -0.125783   0.009392   0.035776   9.020222   0.103579   0.017944
     5  C    0.505698  -0.275444  -1.539683   0.103579   7.292488  -0.433878
     6  C   -0.017219  -0.040060  -0.023743   0.017944  -0.433878   6.160571
     7  N   -0.014442   0.022816   0.066925  -0.015406  -0.054980  -0.066424
     8  H    0.000119   0.000116   0.032363  -0.015946  -0.065299   0.359117
     9  N   -0.095490  -0.024119   0.002864   0.000207   0.697820   0.645030
    10  N   -0.051155   0.149801   0.149352  -0.012785  -0.654455  -1.007637
    11  C   -0.007071  -0.006344  -0.089841  -0.004226  -0.498863   0.066533
    12  H   -0.001991  -0.000241  -0.000398   0.000483  -0.001783  -0.003958
    13  O    0.000064   0.000348   0.002499  -0.000234  -0.005477   0.023151
    14  C    0.001146   0.000408  -0.001924   0.000190   0.064074  -0.006969
    15  C   -0.000055  -0.000018  -0.000515  -0.000022   0.004047  -0.005799
    16  O    0.000003   0.000007  -0.000064   0.000001   0.000368  -0.000516
    17  H    0.000019   0.000027  -0.000037  -0.000002   0.000009   0.000212
    18  H    0.000005   0.000015  -0.000050  -0.000006   0.000965  -0.000176
    19  H   -0.000009  -0.000015   0.000027  -0.000003  -0.000904   0.000276
    20  H    0.000143  -0.000088   0.001248   0.000001   0.012076  -0.009294
    21  C   -0.001289   0.000681   0.016131  -0.000510   0.011922  -0.019545
    22  O   -0.000005   0.000003   0.000025  -0.000001  -0.001121   0.005786
    23  H   -0.000005   0.000009   0.000052  -0.000004  -0.000840   0.002669
    24  H   -0.000671   0.000100   0.005419  -0.000392   0.006984  -0.040925
    25  C    0.003518  -0.000417  -0.023873   0.000540   0.037147  -0.063973
    26  H    0.000945  -0.000593  -0.008553   0.000185  -0.049190   0.040568
    27  O   -0.000012  -0.000014   0.000735   0.000003   0.012879   0.002508
    28  H    0.000019   0.000040   0.000018   0.000006   0.001460   0.000775
               7          8          9         10         11         12
     1  N   -0.014442   0.000119  -0.095490  -0.051155  -0.007071  -0.001991
     2  H    0.022816   0.000116  -0.024119   0.149801  -0.006344  -0.000241
     3  C    0.066925   0.032363   0.002864   0.149352  -0.089841  -0.000398
     4  O   -0.015406  -0.015946   0.000207  -0.012785  -0.004226   0.000483
     5  C   -0.054980  -0.065299   0.697820  -0.654455  -0.498863  -0.001783
     6  C   -0.066424   0.359117   0.645030  -1.007637   0.066533  -0.003958
     7  N   11.068652  -0.399816  -2.569096  -0.871362   0.212754  -0.091654
     8  H   -0.399816   1.451347  -0.121056   0.183084   0.003880  -0.001215
     9  N   -2.569096  -0.121056  13.438432  -3.395034  -0.987616   0.141008
    10  N   -0.871362   0.183084  -3.395034  13.639038  -0.758644  -0.223743
    11  C    0.212754   0.003880  -0.987616  -0.758644   8.575841  -0.002449
    12  H   -0.091654  -0.001215   0.141008  -0.223743  -0.002449   1.632904
    13  O    0.141787   0.000015  -0.072915  -0.039214  -0.081841  -0.178702
    14  C   -0.168250   0.003264   0.286983   0.224781  -1.422486  -0.067067
    15  C   -0.025489  -0.000430  -0.021555   0.072386   0.091232   0.018667
    16  O   -0.001688  -0.000037   0.001185   0.000444   0.021190  -0.002183
    17  H   -0.000771   0.000079  -0.001672   0.004914  -0.016847  -0.000559
    18  H    0.000719  -0.000038  -0.001873   0.003004  -0.006579   0.004493
    19  H   -0.000225  -0.000029  -0.000288  -0.007157  -0.005196   0.003158
    20  H   -0.031595   0.000904   0.015160   0.077704  -0.037596   0.016767
    21  C    0.146911  -0.009447  -0.180435  -0.171619   0.760385   0.106017
    22  O    0.015490   0.000248  -0.004603  -0.000655   0.014096  -0.001688
    23  H    0.016247   0.000097  -0.002368  -0.026542   0.023227   0.001473
    24  H   -0.093792  -0.011911   0.013609   0.179255  -0.217826  -0.006023
    25  C   -0.088413  -0.008397   0.220944   0.110484  -1.334264  -0.009373
    26  H    0.157857  -0.000384  -0.088051  -0.260227   0.333948   0.023666
    27  O    0.022798   0.000270   0.000573   0.103786  -0.048015  -0.038238
    28  H    0.003530  -0.000059   0.001837   0.010779  -0.087528  -0.016178
              13         14         15         16         17         18
     1  N    0.000064   0.001146  -0.000055   0.000003   0.000019   0.000005
     2  H    0.000348   0.000408  -0.000018   0.000007   0.000027   0.000015
     3  C    0.002499  -0.001924  -0.000515  -0.000064  -0.000037  -0.000050
     4  O   -0.000234   0.000190  -0.000022   0.000001  -0.000002  -0.000006
     5  C   -0.005477   0.064074   0.004047   0.000368   0.000009   0.000965
     6  C    0.023151  -0.006969  -0.005799  -0.000516   0.000212  -0.000176
     7  N    0.141787  -0.168250  -0.025489  -0.001688  -0.000771   0.000719
     8  H    0.000015   0.003264  -0.000430  -0.000037   0.000079  -0.000038
     9  N   -0.072915   0.286983  -0.021555   0.001185  -0.001672  -0.001873
    10  N   -0.039214   0.224781   0.072386   0.000444   0.004914   0.003004
    11  C   -0.081841  -1.422486   0.091232   0.021190  -0.016847  -0.006579
    12  H   -0.178702  -0.067067   0.018667  -0.002183  -0.000559   0.004493
    13  O    9.624673  -0.238560   0.043685  -0.031675   0.043328   0.022520
    14  C   -0.238560   8.437372  -0.124331   0.127907  -0.017463  -0.215525
    15  C    0.043685  -0.124331   4.562575  -0.119997  -0.018694   0.310256
    16  O   -0.031675   0.127907  -0.119997   8.697969   0.299093  -0.048381
    17  H    0.043328  -0.017463  -0.018694   0.299093   0.542435  -0.028481
    18  H    0.022520  -0.215525   0.310256  -0.048381  -0.028481   1.140243
    19  H    0.046811   0.010136   0.152178  -0.183092   0.014309  -0.191802
    20  H   -0.098237  -0.564609   0.014658   0.026495  -0.006433   0.084687
    21  C    0.030148  -1.577655  -0.163851  -0.018250  -0.009840   0.072686
    22  O    0.011577  -0.116524   0.050019   0.008973   0.000819  -0.008233
    23  H    0.004482  -0.059097   0.001040   0.001071  -0.000100   0.001417
    24  H   -0.010033   0.347477  -0.018592  -0.007118  -0.000216  -0.002589
    25  C    0.011535   0.303915   0.044461  -0.010296   0.003038  -0.017458
    26  H    0.044916  -0.096081   0.003908   0.000183   0.000141   0.004437
    27  O    0.001780   0.094808   0.003902  -0.001869   0.000912   0.006256
    28  H   -0.001847   0.115767  -0.010939  -0.000823   0.000796  -0.000112
              19         20         21         22         23         24
     1  N   -0.000009   0.000143  -0.001289  -0.000005  -0.000005  -0.000671
     2  H   -0.000015  -0.000088   0.000681   0.000003   0.000009   0.000100
     3  C    0.000027   0.001248   0.016131   0.000025   0.000052   0.005419
     4  O   -0.000003   0.000001  -0.000510  -0.000001  -0.000004  -0.000392
     5  C   -0.000904   0.012076   0.011922  -0.001121  -0.000840   0.006984
     6  C    0.000276  -0.009294  -0.019545   0.005786   0.002669  -0.040925
     7  N   -0.000225  -0.031595   0.146911   0.015490   0.016247  -0.093792
     8  H   -0.000029   0.000904  -0.009447   0.000248   0.000097  -0.011911
     9  N   -0.000288   0.015160  -0.180435  -0.004603  -0.002368   0.013609
    10  N   -0.007157   0.077704  -0.171619  -0.000655  -0.026542   0.179255
    11  C   -0.005196  -0.037596   0.760385   0.014096   0.023227  -0.217826
    12  H    0.003158   0.016767   0.106017  -0.001688   0.001473  -0.006023
    13  O    0.046811  -0.098237   0.030148   0.011577   0.004482  -0.010033
    14  C    0.010136  -0.564609  -1.577655  -0.116524  -0.059097   0.347477
    15  C    0.152178   0.014658  -0.163851   0.050019   0.001040  -0.018592
    16  O   -0.183092   0.026495  -0.018250   0.008973   0.001071  -0.007118
    17  H    0.014309  -0.006433  -0.009840   0.000819  -0.000100  -0.000216
    18  H   -0.191802   0.084687   0.072686  -0.008233   0.001417  -0.002589
    19  H    1.329253  -0.097982   0.012429  -0.004640  -0.002154   0.017487
    20  H   -0.097982   1.766627   0.143865   0.038204   0.003337  -0.119240
    21  C    0.012429   0.143865   8.527706  -0.403264   0.129093  -0.413177
    22  O   -0.004640   0.038204  -0.403264   8.801801   0.369585  -0.173843
    23  H   -0.002154   0.003337   0.129093   0.369585   0.572895  -0.072706
    24  H    0.017487  -0.119240  -0.413177  -0.173843  -0.072706   1.581069
    25  C    0.015867   0.080481  -1.916517   0.261478  -0.115622   0.206004
    26  H    0.001318   0.000670   0.250785  -0.006776   0.017746  -0.072078
    27  O   -0.003248   0.001111   0.085913  -0.000903   0.005555   0.003561
    28  H    0.000168  -0.003176  -0.183074   0.024606  -0.005899   0.023315
              25         26         27         28
     1  N    0.003518   0.000945  -0.000012   0.000019
     2  H   -0.000417  -0.000593  -0.000014   0.000040
     3  C   -0.023873  -0.008553   0.000735   0.000018
     4  O    0.000540   0.000185   0.000003   0.000006
     5  C    0.037147  -0.049190   0.012879   0.001460
     6  C   -0.063973   0.040568   0.002508   0.000775
     7  N   -0.088413   0.157857   0.022798   0.003530
     8  H   -0.008397  -0.000384   0.000270  -0.000059
     9  N    0.220944  -0.088051   0.000573   0.001837
    10  N    0.110484  -0.260227   0.103786   0.010779
    11  C   -1.334264   0.333948  -0.048015  -0.087528
    12  H   -0.009373   0.023666  -0.038238  -0.016178
    13  O    0.011535   0.044916   0.001780  -0.001847
    14  C    0.303915  -0.096081   0.094808   0.115767
    15  C    0.044461   0.003908   0.003902  -0.010939
    16  O   -0.010296   0.000183  -0.001869  -0.000823
    17  H    0.003038   0.000141   0.000912   0.000796
    18  H   -0.017458   0.004437   0.006256  -0.000112
    19  H    0.015867   0.001318  -0.003248   0.000168
    20  H    0.080481   0.000670   0.001111  -0.003176
    21  C   -1.916517   0.250785   0.085913  -0.183074
    22  O    0.261478  -0.006776  -0.000903   0.024606
    23  H   -0.115622   0.017746   0.005555  -0.005899
    24  H    0.206004  -0.072078   0.003561   0.023315
    25  C    8.106984  -0.470664  -0.387913   0.080781
    26  H   -0.470664   1.546909  -0.170056  -0.017246
    27  O   -0.387913  -0.170056   8.912707   0.295624
    28  H    0.080781  -0.017246   0.295624   0.549455
 Mulliken charges:
               1
     1  N   -0.702375
     2  H   -0.013391
     3  C    1.016775
     4  O   -1.013212
     5  C    0.830400
     6  C    0.414975
     7  N   -0.383084
     8  H   -0.400840
     9  N   -0.899483
    10  N   -0.428582
    11  C    1.510144
    12  H   -0.301192
    13  O   -1.294584
    14  C    0.658310
    15  C    1.137271
    16  O   -0.758899
    17  H    0.190984
    18  H   -0.130400
    19  H   -0.106671
    20  H   -0.315889
    21  C    0.773802
    22  O   -0.880456
    23  H    0.135341
    24  H   -0.123149
    25  C    0.960000
    26  H   -0.188282
    27  O   -0.905415
    28  H    0.217902
 Sum of Mulliken charges =  -1.00000
 Mulliken charges with hydrogens summed into heavy atoms:
               1
     1  N   -0.715766
     3  C    1.016775
     4  O   -1.013212
     5  C    0.830400
     6  C    0.014135
     7  N   -0.383084
     9  N   -0.899483
    10  N   -0.428582
    11  C    1.208952
    13  O   -1.294584
    14  C    0.342422
    15  C    0.900200
    16  O   -0.567915
    21  C    0.650653
    22  O   -0.745115
    25  C    0.771718
    27  O   -0.687513
 Electronic spatial extent (au):  <R**2>=           5100.6536
 Charge=             -1.0000 electrons
 Dipole moment (field-independent basis, Debye):
    X=             20.6004    Y=             -5.9063    Z=              1.0454  Tot=             21.4558
 Quadrupole moment (field-independent basis, Debye-Ang):
   XX=           -231.9587   YY=           -105.1244   ZZ=           -109.7575
   XY=             -2.4589   XZ=             -0.2757   YZ=             -2.3666
 Traceless Quadrupole moment (field-independent basis, Debye-Ang):
   XX=            -83.0119   YY=             43.8225   ZZ=             39.1894
   XY=             -2.4589   XZ=             -0.2757   YZ=             -2.3666
 Octapole moment (field-independent basis, Debye-Ang**2):
  XXX=            656.7191  YYY=            -45.0463  ZZZ=             14.9936  XYY=             31.7271
  XXY=           -108.8695  XXZ=              2.2022  XZZ=             38.4796  YZZ=             -1.4694
  YYZ=             -1.0129  XYZ=            -29.9809
 Hexadecapole moment (field-independent basis, Debye-Ang**3):
 XXXX=          -9048.2586 YYYY=           -781.7715 ZZZZ=           -579.7762 XXXY=            114.7150
 XXXZ=            -73.2804 YYYX=           -107.9364 YYYZ=            -32.3369 ZZZX=             -1.6688
 ZZZY=            -14.8989 XXYY=          -1197.1990 XXZZ=          -1153.4887 YYZZ=           -229.7890
 XXYZ=             48.9405 YYXZ=            -41.6007 ZZXY=             19.1766
 N-N= 1.266947471659D+03 E-N=-4.668811392006D+03  KE= 9.001789784011D+02
 Leave Link  601 at Mon Jul 12 14:31:17 2021, MaxMem=   262144000 cpu:               0.4 elap:               0.3
 (Enter /dades/curu/g16A03_MST/g16/l9999.exe)
 1\1\GINC-PIRINEUS19\SP\RMP2-FC\Aug-CC-pVDZ\C8H11N4O5(1-)\UBATOR02\12-J
 ul-2021\0\\#p mp2/aug-cc-pVDZ scf=tight maxdisk=180GB geom=allcheck\\S
 ET_328_BBB285_conf1.geo_120_075 geometry\\-1,1\N,0,5.172799991,0.50252
 43625,0.4082617508\H,0,4.6004884459,0.5841205492,-0.4358446076\C,0,4.3
 523453663,0.3381047551,1.4330673116\O,0,4.6711679426,0.1981432544,2.64
 71823594\C,0,2.8551732412,0.3082274793,1.1847430073\C,0,1.8424952951,0
 .1534732629,2.1559330804\N,0,0.6486836362,0.1870888761,1.5659072507\H,
 0,1.9467020908,0.0303098952,3.2216835305\N,0,2.256958916,0.4327941701,
 -0.0058043246\N,0,0.95025958,0.3659694988,0.2723504751\C,0,-0.06683683
 79,0.3638780545,-0.7681062115\H,0,0.4194311574,0.7615423829,-1.6562696
 942\O,0,-0.5226686908,-0.9521181734,-1.0390595197\C,0,-1.8160513365,-1
 .1940359755,-0.4384250035\C,0,-2.7661376104,-1.5807414253,-1.567598887
 8\O,0,-2.24599966,-2.6935234535,-2.2795479862\H,0,-1.3400195531,-2.440
 5882122,-2.5254967118\H,0,-2.913721635,-0.717032949,-2.2275301778\H,0,
 -3.7360670244,-1.876860974,-1.1619392201\H,0,-1.706167358,-2.043141582
 7,0.2425217495\C,0,-2.1814554092,0.0955337194,0.3204534352\O,0,-3.5663
 742311,0.3887745468,0.1709388855\H,0,-3.844971974,0.9335310725,0.92511
 38523\H,0,-1.8964646627,0.0053913821,1.368265466\C,0,-1.2999360832,1.1
 692034405,-0.3524521414\H,0,-1.0365992788,1.9841465184,0.3299566369\O,
 0,-1.9371494203,1.6574032345,-1.5169703504\H,0,-2.892884897,1.59988229
 06,-1.3203339546\\Version=ES64L-G16RevA.03\State=1-A\HF=-901.5405371\M
 P2=-904.3592914\RMSD=8.317e-09\PG=C01 [X(C8H11N4O5)]\\@


 ALL MY ATTEMPTS TO ADAPT THE THEORETICAL FOUNDATIONS OF PHYSICS
 TO THESE NEW NOTIONS FAILED COMPLETELY. IT WAS AS IF THE GROUND HAD
 BEEN PULLED OUT FROM UNDER ONE WITH NO FIRM FOUNDATION TO BE SEEN ANYWHERE,
 UPON WHICH ONE COULD HAVE BUILT.  -- A.EINSTEIN
 Job cpu time:       0 days  1 hours 59 minutes  3.9 seconds.
 Elapsed time:       0 days  0 hours 35 minutes 12.3 seconds.
 File lengths (MBytes):  RWF=  57470 Int=      0 D2E=      0 Chk=     21 Scr=      1
 Normal termination of Gaussian 16 at Mon Jul 12 14:31:19 2021.
