 Entering Gaussian System, Link 0=g16
 Input=SET_328_BBB212_conf1.geo_135_300_OCTANOL.dat
 Output=SET_328_BBB212_conf1.geo_135_300_OCTANOL.log
 Initial command:
 /dades/curu/g16A03_MST/g16/l1.exe "/tmp/ubator02/1835276/Gau-95651.inp" -scrdir="/tmp/ubator02/1835276/"
 Entering Link 1 = /dades/curu/g16A03_MST/g16/l1.exe PID=     95652.
  
 Copyright (c) 1988,1990,1992,1993,1995,1998,2003,2009,2016,
            Gaussian, Inc.  All Rights Reserved.
  
 This is part of the Gaussian(R) 16 program.  It is based on
 the Gaussian(R) 09 system (copyright 2009, Gaussian, Inc.),
 the Gaussian(R) 03 system (copyright 2003, Gaussian, Inc.),
 the Gaussian(R) 98 system (copyright 1998, Gaussian, Inc.),
 the Gaussian(R) 94 system (copyright 1995, Gaussian, Inc.),
 the Gaussian 92(TM) system (copyright 1992, Gaussian, Inc.),
 the Gaussian 90(TM) system (copyright 1990, Gaussian, Inc.),
 the Gaussian 88(TM) system (copyright 1988, Gaussian, Inc.),
 the Gaussian 86(TM) system (copyright 1986, Carnegie Mellon
 University), and the Gaussian 82(TM) system (copyright 1983,
 Carnegie Mellon University). Gaussian is a federally registered
 trademark of Gaussian, Inc.
  
 This software contains proprietary and confidential information,
 including trade secrets, belonging to Gaussian, Inc.
  
 This software is provided under written license and may be
 used, copied, transmitted, or stored only in accord with that
 written license.
  
 The following legend is applicable only to US Government
 contracts under FAR:
  
                    RESTRICTED RIGHTS LEGEND
  
 Use, reproduction and disclosure by the US Government is
 subject to restrictions as set forth in subparagraphs (a)
 and (c) of the Commercial Computer Software - Restricted
 Rights clause in FAR 52.227-19.
  
 Gaussian, Inc.
 340 Quinnipiac St., Bldg. 40, Wallingford CT 06492
  
  
 ---------------------------------------------------------------
 Warning -- This program may not be used in any manner that
 competes with the business of Gaussian, Inc. or will provide
 assistance to any competitor of Gaussian, Inc.  The licensee
 of this program is prohibited from giving any competitor of
 Gaussian, Inc. access to this program.  By using this program,
 the user acknowledges that Gaussian, Inc. is engaged in the
 business of creating and licensing software in the field of
 computational chemistry and represents and warrants to the
 licensee that it is not a competitor of Gaussian, Inc. and that
 it will not use this program in any manner prohibited above.
 ---------------------------------------------------------------
  

 Cite this work as:
 Gaussian 16, Revision A.03,
 M. J. Frisch, G. W. Trucks, H. B. Schlegel, G. E. Scuseria, 
 M. A. Robb, J. R. Cheeseman, G. Scalmani, V. Barone, 
 G. A. Petersson, H. Nakatsuji, X. Li, M. Caricato, A. V. Marenich, 
 J. Bloino, B. G. Janesko, R. Gomperts, B. Mennucci, H. P. Hratchian, 
 J. V. Ortiz, A. F. Izmaylov, J. L. Sonnenberg, D. Williams-Young, 
 F. Ding, F. Lipparini, F. Egidi, J. Goings, B. Peng, A. Petrone, 
 T. Henderson, D. Ranasinghe, V. G. Zakrzewski, J. Gao, N. Rega, 
 G. Zheng, W. Liang, M. Hada, M. Ehara, K. Toyota, R. Fukuda, 
 J. Hasegawa, M. Ishida, T. Nakajima, Y. Honda, O. Kitao, H. Nakai, 
 T. Vreven, K. Throssell, J. A. Montgomery, Jr., J. E. Peralta, 
 F. Ogliaro, M. J. Bearpark, J. J. Heyd, E. N. Brothers, K. N. Kudin, 
 V. N. Staroverov, T. A. Keith, R. Kobayashi, J. Normand, 
 K. Raghavachari, A. P. Rendell, J. C. Burant, S. S. Iyengar, 
 J. Tomasi, M. Cossi, J. M. Millam, M. Klene, C. Adamo, R. Cammi, 
 J. W. Ochterski, R. L. Martin, K. Morokuma, O. Farkas, 
 J. B. Foresman, and D. J. Fox, Gaussian, Inc., Wallingford CT, 2016.
 
 ******************************************
 Gaussian 16:  ES64L-G16RevA.03 25-Dec-2016
                12-Jul-2021 
 ******************************************
 %mem=800MB
 %nproc=4
 Will use up to    4 processors via shared memory.
 %chk=SET_328_BBB212_conf1.geo_135_300.chk
 ---------------------------------------------------------------
 #p b3lyp/6-31G(d) opt freq scrf=(iefpcm,read,solvent=n-octanol)
 ---------------------------------------------------------------
 1/18=20,19=15,26=3,38=1,40=2/1,3;
 2/9=110,12=2,17=6,18=5,40=1/2;
 3/5=1,6=6,7=1,11=2,25=1,30=1,70=2203,71=1,72=25,74=-5/1,2,3;
 4//1;
 5/5=2,38=5,53=25/2;
 6/7=2,8=2,9=2,10=2,28=1/1;
 7//1,2,3,16;
 1/18=20,19=15,26=3/3(2);
 2/9=110/2;
 99//99;
 2/9=110/2;
 3/5=1,6=6,7=1,11=2,25=1,30=1,70=2205,71=1,72=25,74=-5/1,2,3;
 4/5=5,16=3,69=1/1;
 5/5=2,38=5,53=25/2;
 7//1,2,3,16;
 1/18=20,19=15,26=3/3(-5);
 2/9=110/2;
 6/7=2,8=2,9=2,10=2,19=2,28=1/1;
 99/9=1/99;
 Leave Link    1 at Mon Jul 12 12:15:40 2021, MaxMem=   104857600 cpu:               0.0 elap:               0.0
 (Enter /dades/curu/g16A03_MST/g16/l101.exe)
 -----------------------------------------
 SET_328_BBB212_conf1.geo_135_300 geometry
 -----------------------------------------
 Symbolic Z-matrix:
 Charge = -1 Multiplicity = 1
 C                    -0.646     1.596     2. 
 H                    -1.592     2.111     1.819 
 H                     0.237     2.226     1.873 
 H                    -0.466     1.305     3.038 
 C                    -0.719     0.382     0.941 
 C                    -1.878    -0.505     1.418 
 H                    -1.774    -0.784     2.469 
 H                    -1.905    -1.432     0.842 
 H                    -2.888    -0.107     1.296 
 C                     0.514    -0.53      0.969 
 C                     1.488    -0.501     1.957 
 C                     2.403    -1.604     2.074 
 C                     2.447    -2.63      1.139 
 O                     3.405    -3.504     1.309 
 H                     3.715    -3.731     0.413 
 C                     1.484    -2.627     0.163 
 C                     0.582    -1.544     0.01 
 H                    -0.035    -1.456    -0.88 
 H                     1.422    -3.448    -0.547 
 H                     3.063    -1.669     2.935 
 H                     1.482     0.335     2.651 
 C                    -0.905     0.934    -0.501 
 C                     0.187     1.726    -1.068 
 H                     1.121     1.989    -0.578 
 C                     0.07      2.207    -2.361 
 H                     0.853     2.872    -2.715 
 C                    -1.008     1.802    -3.168 
 O                    -1.038     2.116    -4.476 
 C                    -2.027     1.113    -2.616 
 H                    -2.809     0.782    -3.295 
 C                    -1.968     0.606    -1.352 
 H                    -2.719    -0.115    -1.041 
 
 ITRead=  0  0  0  0  0  0  0  0  0  0  0  0  0  0  0  0  0  0  0  0
 ITRead=  0  0  0  0  0  0  0  0  0  0  0  0
 MicOpt= -1 -1 -1 -1 -1 -1 -1 -1 -1 -1 -1 -1 -1 -1 -1 -1 -1 -1 -1 -1
 MicOpt= -1 -1 -1 -1 -1 -1 -1 -1 -1 -1 -1 -1
 NAtoms=     32 NQM=       32 NQMF=       0 NMMI=      0 NMMIF=      0
                NMic=       0 NMicF=      0.
                    Isotopes and Nuclear Properties:
 (Nuclear quadrupole moments (NQMom) in fm**2, nuclear magnetic moments (NMagM)
  in nuclear magnetons)

  Atom         1           2           3           4           5           6           7           8           9          10
 IAtWgt=          12           1           1           1          12          12           1           1           1          12
 AtmWgt=  12.0000000   1.0078250   1.0078250   1.0078250  12.0000000  12.0000000   1.0078250   1.0078250   1.0078250  12.0000000
 NucSpn=           0           1           1           1           0           0           1           1           1           0
 AtZEff=  -0.0000000  -0.0000000  -0.0000000  -0.0000000  -0.0000000  -0.0000000  -0.0000000  -0.0000000  -0.0000000  -0.0000000
 NQMom=    0.0000000   0.0000000   0.0000000   0.0000000   0.0000000   0.0000000   0.0000000   0.0000000   0.0000000   0.0000000
 NMagM=    0.0000000   2.7928460   2.7928460   2.7928460   0.0000000   0.0000000   2.7928460   2.7928460   2.7928460   0.0000000
 AtZNuc=   6.0000000   1.0000000   1.0000000   1.0000000   6.0000000   6.0000000   1.0000000   1.0000000   1.0000000   6.0000000

  Atom        11          12          13          14          15          16          17          18          19          20
 IAtWgt=          12          12          12          16           1          12          12           1           1           1
 AtmWgt=  12.0000000  12.0000000  12.0000000  15.9949146   1.0078250  12.0000000  12.0000000   1.0078250   1.0078250   1.0078250
 NucSpn=           0           0           0           0           1           0           0           1           1           1
 AtZEff=  -0.0000000  -0.0000000  -0.0000000  -0.0000000  -0.0000000  -0.0000000  -0.0000000  -0.0000000  -0.0000000  -0.0000000
 NQMom=    0.0000000   0.0000000   0.0000000   0.0000000   0.0000000   0.0000000   0.0000000   0.0000000   0.0000000   0.0000000
 NMagM=    0.0000000   0.0000000   0.0000000   0.0000000   2.7928460   0.0000000   0.0000000   2.7928460   2.7928460   2.7928460
 AtZNuc=   6.0000000   6.0000000   6.0000000   8.0000000   1.0000000   6.0000000   6.0000000   1.0000000   1.0000000   1.0000000

  Atom        21          22          23          24          25          26          27          28          29          30
 IAtWgt=           1          12          12           1          12           1          12          16          12           1
 AtmWgt=   1.0078250  12.0000000  12.0000000   1.0078250  12.0000000   1.0078250  12.0000000  15.9949146  12.0000000   1.0078250
 NucSpn=           1           0           0           1           0           1           0           0           0           1
 AtZEff=  -0.0000000  -0.0000000  -0.0000000  -0.0000000  -0.0000000  -0.0000000  -0.0000000  -0.0000000  -0.0000000  -0.0000000
 NQMom=    0.0000000   0.0000000   0.0000000   0.0000000   0.0000000   0.0000000   0.0000000   0.0000000   0.0000000   0.0000000
 NMagM=    2.7928460   0.0000000   0.0000000   2.7928460   0.0000000   2.7928460   0.0000000   0.0000000   0.0000000   2.7928460
 AtZNuc=   1.0000000   6.0000000   6.0000000   1.0000000   6.0000000   1.0000000   6.0000000   8.0000000   6.0000000   1.0000000

  Atom        31          32
 IAtWgt=          12           1
 AtmWgt=  12.0000000   1.0078250
 NucSpn=           0           1
 AtZEff=  -0.0000000  -0.0000000
 NQMom=    0.0000000   0.0000000
 NMagM=    0.0000000   2.7928460
 AtZNuc=   6.0000000   1.0000000
 Leave Link  101 at Mon Jul 12 12:15:40 2021, MaxMem=   104857600 cpu:               0.1 elap:               0.1
 (Enter /dades/curu/g16A03_MST/g16/l103.exe)

 GradGradGradGradGradGradGradGradGradGradGradGradGradGradGradGradGradGrad
 Berny optimization.
 Initialization pass.
                           ----------------------------
                           !    Initial Parameters    !
                           ! (Angstroms and Degrees)  !
 --------------------------                            --------------------------
 ! Name  Definition              Value          Derivative Info.                !
 --------------------------------------------------------------------------------
 ! R1    R(1,2)                  1.0922         estimate D2E/DX2                !
 ! R2    R(1,3)                  1.0921         estimate D2E/DX2                !
 ! R3    R(1,4)                  1.0929         estimate D2E/DX2                !
 ! R4    R(1,5)                  1.6126         estimate D2E/DX2                !
 ! R5    R(5,6)                  1.5354         estimate D2E/DX2                !
 ! R6    R(5,10)                 1.5339         estimate D2E/DX2                !
 ! R7    R(5,22)                 1.5552         estimate D2E/DX2                !
 ! R8    R(6,7)                  1.0924         estimate D2E/DX2                !
 ! R9    R(6,8)                  1.0917         estimate D2E/DX2                !
 ! R10   R(6,9)                  1.0924         estimate D2E/DX2                !
 ! R11   R(10,11)                1.3877         estimate D2E/DX2                !
 ! R12   R(10,17)                1.3973         estimate D2E/DX2                !
 ! R13   R(11,12)                1.4379         estimate D2E/DX2                !
 ! R14   R(11,21)                1.0865         estimate D2E/DX2                !
 ! R15   R(12,13)                1.3888         estimate D2E/DX2                !
 ! R16   R(12,20)                1.0868         estimate D2E/DX2                !
 ! R17   R(13,14)                1.3079         estimate D2E/DX2                !
 ! R18   R(13,16)                1.3711         estimate D2E/DX2                !
 ! R19   R(14,15)                0.9749         estimate D2E/DX2                !
 ! R20   R(16,17)                1.4177         estimate D2E/DX2                !
 ! R21   R(16,19)                1.0872         estimate D2E/DX2                !
 ! R22   R(17,18)                1.0865         estimate D2E/DX2                !
 ! R23   R(22,23)                1.4633         estimate D2E/DX2                !
 ! R24   R(22,31)                1.4006         estimate D2E/DX2                !
 ! R25   R(23,24)                1.087          estimate D2E/DX2                !
 ! R26   R(23,25)                1.3845         estimate D2E/DX2                !
 ! R27   R(25,26)                1.0866         estimate D2E/DX2                !
 ! R28   R(25,27)                1.4062         estimate D2E/DX2                !
 ! R29   R(27,28)                1.3455         estimate D2E/DX2                !
 ! R30   R(27,29)                1.3483         estimate D2E/DX2                !
 ! R31   R(29,30)                1.0873         estimate D2E/DX2                !
 ! R32   R(29,31)                1.3632         estimate D2E/DX2                !
 ! R33   R(31,32)                1.0865         estimate D2E/DX2                !
 ! A1    A(2,1,3)              114.1432         estimate D2E/DX2                !
 ! A2    A(2,1,4)              115.1875         estimate D2E/DX2                !
 ! A3    A(2,1,5)              101.9426         estimate D2E/DX2                !
 ! A4    A(3,1,4)               97.5202         estimate D2E/DX2                !
 ! A5    A(3,1,5)              113.2347         estimate D2E/DX2                !
 ! A6    A(4,1,5)              115.5116         estimate D2E/DX2                !
 ! A7    A(1,5,6)              105.3696         estimate D2E/DX2                !
 ! A8    A(1,5,10)             113.5292         estimate D2E/DX2                !
 ! A9    A(1,5,22)             110.3102         estimate D2E/DX2                !
 ! A10   A(6,5,10)             104.9289         estimate D2E/DX2                !
 ! A11   A(6,5,22)             113.7541         estimate D2E/DX2                !
 ! A12   A(10,5,22)            108.9109         estimate D2E/DX2                !
 ! A13   A(5,6,7)              111.9982         estimate D2E/DX2                !
 ! A14   A(5,6,8)              110.1993         estimate D2E/DX2                !
 ! A15   A(5,6,9)              116.9183         estimate D2E/DX2                !
 ! A16   A(7,6,8)              107.0444         estimate D2E/DX2                !
 ! A17   A(7,6,9)              106.7697         estimate D2E/DX2                !
 ! A18   A(8,6,9)              103.1541         estimate D2E/DX2                !
 ! A19   A(5,10,11)            124.3869         estimate D2E/DX2                !
 ! A20   A(5,10,17)            117.2615         estimate D2E/DX2                !
 ! A21   A(11,10,17)           118.0115         estimate D2E/DX2                !
 ! A22   A(10,11,12)           119.2453         estimate D2E/DX2                !
 ! A23   A(10,11,21)           117.8373         estimate D2E/DX2                !
 ! A24   A(12,11,21)           122.8034         estimate D2E/DX2                !
 ! A25   A(11,12,13)           122.1458         estimate D2E/DX2                !
 ! A26   A(11,12,20)           119.7877         estimate D2E/DX2                !
 ! A27   A(13,12,20)           118.0298         estimate D2E/DX2                !
 ! A28   A(12,13,14)           115.428          estimate D2E/DX2                !
 ! A29   A(12,13,16)           117.088          estimate D2E/DX2                !
 ! A30   A(14,13,16)           127.4773         estimate D2E/DX2                !
 ! A31   A(13,14,15)           105.6079         estimate D2E/DX2                !
 ! A32   A(13,16,17)           121.692          estimate D2E/DX2                !
 ! A33   A(13,16,19)           120.2164         estimate D2E/DX2                !
 ! A34   A(17,16,19)           118.0414         estimate D2E/DX2                !
 ! A35   A(10,17,16)           120.7467         estimate D2E/DX2                !
 ! A36   A(10,17,18)           118.4094         estimate D2E/DX2                !
 ! A37   A(16,17,18)           120.7684         estimate D2E/DX2                !
 ! A38   A(5,22,23)            117.5249         estimate D2E/DX2                !
 ! A39   A(5,22,31)            124.8205         estimate D2E/DX2                !
 ! A40   A(23,22,31)           117.2384         estimate D2E/DX2                !
 ! A41   A(22,23,24)           126.6906         estimate D2E/DX2                !
 ! A42   A(22,23,25)           119.1332         estimate D2E/DX2                !
 ! A43   A(24,23,25)           114.1752         estimate D2E/DX2                !
 ! A44   A(23,25,26)           117.1285         estimate D2E/DX2                !
 ! A45   A(23,25,27)           120.045          estimate D2E/DX2                !
 ! A46   A(26,25,27)           122.8016         estimate D2E/DX2                !
 ! A47   A(25,27,28)           120.516          estimate D2E/DX2                !
 ! A48   A(25,27,29)           119.4472         estimate D2E/DX2                !
 ! A49   A(28,27,29)           120.0276         estimate D2E/DX2                !
 ! A50   A(27,29,30)           116.3267         estimate D2E/DX2                !
 ! A51   A(27,29,31)           122.4789         estimate D2E/DX2                !
 ! A52   A(30,29,31)           119.8003         estimate D2E/DX2                !
 ! A53   A(22,31,29)           120.6062         estimate D2E/DX2                !
 ! A54   A(22,31,32)           120.4018         estimate D2E/DX2                !
 ! A55   A(29,31,32)           118.8354         estimate D2E/DX2                !
 ! D1    D(2,1,5,6)            -65.9295         estimate D2E/DX2                !
 ! D2    D(2,1,5,10)           179.7972         estimate D2E/DX2                !
 ! D3    D(2,1,5,22)            57.2444         estimate D2E/DX2                !
 ! D4    D(3,1,5,6)            170.9932         estimate D2E/DX2                !
 ! D5    D(3,1,5,10)            56.7198         estimate D2E/DX2                !
 ! D6    D(3,1,5,22)           -65.8329         estimate D2E/DX2                !
 ! D7    D(4,1,5,6)             59.7274         estimate D2E/DX2                !
 ! D8    D(4,1,5,10)           -54.5459         estimate D2E/DX2                !
 ! D9    D(4,1,5,22)          -177.0987         estimate D2E/DX2                !
 ! D10   D(1,5,6,7)            -52.5901         estimate D2E/DX2                !
 ! D11   D(1,5,6,8)           -171.634          estimate D2E/DX2                !
 ! D12   D(1,5,6,9)             71.0594         estimate D2E/DX2                !
 ! D13   D(10,5,6,7)            67.5274         estimate D2E/DX2                !
 ! D14   D(10,5,6,8)           -51.5165         estimate D2E/DX2                !
 ! D15   D(10,5,6,9)          -168.8231         estimate D2E/DX2                !
 ! D16   D(22,5,6,7)          -173.5386         estimate D2E/DX2                !
 ! D17   D(22,5,6,8)            67.4175         estimate D2E/DX2                !
 ! D18   D(22,5,6,9)           -49.8891         estimate D2E/DX2                !
 ! D19   D(1,5,10,11)           11.8439         estimate D2E/DX2                !
 ! D20   D(1,5,10,17)         -175.0031         estimate D2E/DX2                !
 ! D21   D(6,5,10,11)         -102.6924         estimate D2E/DX2                !
 ! D22   D(6,5,10,17)           70.4605         estimate D2E/DX2                !
 ! D23   D(22,5,10,11)         135.1662         estimate D2E/DX2                !
 ! D24   D(22,5,10,17)         -51.6808         estimate D2E/DX2                !
 ! D25   D(1,5,22,23)           65.3261         estimate D2E/DX2                !
 ! D26   D(1,5,22,31)         -122.3038         estimate D2E/DX2                !
 ! D27   D(6,5,22,23)         -176.5319         estimate D2E/DX2                !
 ! D28   D(6,5,22,31)           -4.1617         estimate D2E/DX2                !
 ! D29   D(10,5,22,23)         -59.8974         estimate D2E/DX2                !
 ! D30   D(10,5,22,31)         112.4727         estimate D2E/DX2                !
 ! D31   D(5,10,11,12)         164.296          estimate D2E/DX2                !
 ! D32   D(5,10,11,21)         -11.9314         estimate D2E/DX2                !
 ! D33   D(17,10,11,12)         -8.8097         estimate D2E/DX2                !
 ! D34   D(17,10,11,21)        174.9629         estimate D2E/DX2                !
 ! D35   D(5,10,17,16)        -163.7411         estimate D2E/DX2                !
 ! D36   D(5,10,17,18)          19.3936         estimate D2E/DX2                !
 ! D37   D(11,10,17,16)          9.8606         estimate D2E/DX2                !
 ! D38   D(11,10,17,18)       -167.0047         estimate D2E/DX2                !
 ! D39   D(10,11,12,13)          7.488          estimate D2E/DX2                !
 ! D40   D(10,11,12,20)       -170.2636         estimate D2E/DX2                !
 ! D41   D(21,11,12,13)       -176.4812         estimate D2E/DX2                !
 ! D42   D(21,11,12,20)          5.7671         estimate D2E/DX2                !
 ! D43   D(11,12,13,14)        174.2694         estimate D2E/DX2                !
 ! D44   D(11,12,13,16)         -6.6011         estimate D2E/DX2                !
 ! D45   D(20,12,13,14)         -7.9411         estimate D2E/DX2                !
 ! D46   D(20,12,13,16)        171.1883         estimate D2E/DX2                !
 ! D47   D(12,13,14,15)       -141.9864         estimate D2E/DX2                !
 ! D48   D(16,13,14,15)         38.9903         estimate D2E/DX2                !
 ! D49   D(12,13,16,17)          7.5023         estimate D2E/DX2                !
 ! D50   D(12,13,16,19)       -175.1257         estimate D2E/DX2                !
 ! D51   D(14,13,16,17)       -173.4884         estimate D2E/DX2                !
 ! D52   D(14,13,16,19)          3.8836         estimate D2E/DX2                !
 ! D53   D(13,16,17,10)         -9.4507         estimate D2E/DX2                !
 ! D54   D(13,16,17,18)        167.3403         estimate D2E/DX2                !
 ! D55   D(19,16,17,10)        173.1223         estimate D2E/DX2                !
 ! D56   D(19,16,17,18)        -10.0867         estimate D2E/DX2                !
 ! D57   D(5,22,23,24)          -1.142          estimate D2E/DX2                !
 ! D58   D(5,22,23,25)         178.4802         estimate D2E/DX2                !
 ! D59   D(31,22,23,24)       -174.1002         estimate D2E/DX2                !
 ! D60   D(31,22,23,25)          5.522          estimate D2E/DX2                !
 ! D61   D(5,22,31,29)        -178.1898         estimate D2E/DX2                !
 ! D62   D(5,22,31,32)          -2.7913         estimate D2E/DX2                !
 ! D63   D(23,22,31,29)         -5.7998         estimate D2E/DX2                !
 ! D64   D(23,22,31,32)        169.5987         estimate D2E/DX2                !
 ! D65   D(22,23,25,26)        174.0958         estimate D2E/DX2                !
 ! D66   D(22,23,25,27)         -7.6682         estimate D2E/DX2                !
 ! D67   D(24,23,25,26)         -6.2362         estimate D2E/DX2                !
 ! D68   D(24,23,25,27)        171.9997         estimate D2E/DX2                !
 ! D69   D(23,25,27,28)       -171.0228         estimate D2E/DX2                !
 ! D70   D(23,25,27,29)         10.0775         estimate D2E/DX2                !
 ! D71   D(26,25,27,28)          7.1094         estimate D2E/DX2                !
 ! D72   D(26,25,27,29)       -171.7904         estimate D2E/DX2                !
 ! D73   D(25,27,29,30)       -177.0206         estimate D2E/DX2                !
 ! D74   D(25,27,29,31)        -10.5446         estimate D2E/DX2                !
 ! D75   D(28,27,29,30)          4.0742         estimate D2E/DX2                !
 ! D76   D(28,27,29,31)        170.5502         estimate D2E/DX2                !
 ! D77   D(27,29,31,22)          8.589          estimate D2E/DX2                !
 ! D78   D(27,29,31,32)       -166.8806         estimate D2E/DX2                !
 ! D79   D(30,29,31,22)        174.6117         estimate D2E/DX2                !
 ! D80   D(30,29,31,32)         -0.858          estimate D2E/DX2                !
 --------------------------------------------------------------------------------
 Trust Radius=3.00D-01 FncErr=1.00D-07 GrdErr=1.00D-06 EigMax=2.50D+02 EigMin=1.00D-04
 Number of steps in this run=    178 maximum allowed number of steps=    192.
 GradGradGradGradGradGradGradGradGradGradGradGradGradGradGradGradGradGrad

 Leave Link  103 at Mon Jul 12 12:15:40 2021, MaxMem=   104857600 cpu:               0.1 elap:               0.0
 (Enter /dades/curu/g16A03_MST/g16/l202.exe)
                          Input orientation:                          
 ---------------------------------------------------------------------
 Center     Atomic      Atomic             Coordinates (Angstroms)
 Number     Number       Type             X           Y           Z
 ---------------------------------------------------------------------
      1          6           0       -0.646000    1.596000    2.000000
      2          1           0       -1.592000    2.111000    1.819000
      3          1           0        0.237000    2.226000    1.873000
      4          1           0       -0.466000    1.305000    3.038000
      5          6           0       -0.719000    0.382000    0.941000
      6          6           0       -1.878000   -0.505000    1.418000
      7          1           0       -1.774000   -0.784000    2.469000
      8          1           0       -1.905000   -1.432000    0.842000
      9          1           0       -2.888000   -0.107000    1.296000
     10          6           0        0.514000   -0.530000    0.969000
     11          6           0        1.488000   -0.501000    1.957000
     12          6           0        2.403000   -1.604000    2.074000
     13          6           0        2.447000   -2.630000    1.139000
     14          8           0        3.405000   -3.504000    1.309000
     15          1           0        3.715000   -3.731000    0.413000
     16          6           0        1.484000   -2.627000    0.163000
     17          6           0        0.582000   -1.544000    0.010000
     18          1           0       -0.035000   -1.456000   -0.880000
     19          1           0        1.422000   -3.448000   -0.547000
     20          1           0        3.063000   -1.669000    2.935000
     21          1           0        1.482000    0.335000    2.651000
     22          6           0       -0.905000    0.934000   -0.501000
     23          6           0        0.187000    1.726000   -1.068000
     24          1           0        1.121000    1.989000   -0.578000
     25          6           0        0.070000    2.207000   -2.361000
     26          1           0        0.853000    2.872000   -2.715000
     27          6           0       -1.008000    1.802000   -3.168000
     28          8           0       -1.038000    2.116000   -4.476000
     29          6           0       -2.027000    1.113000   -2.616000
     30          1           0       -2.809000    0.782000   -3.295000
     31          6           0       -1.968000    0.606000   -1.352000
     32          1           0       -2.719000   -0.115000   -1.041000
 ---------------------------------------------------------------------
                    Distance matrix (angstroms):
                    1          2          3          4          5
     1  C    0.000000
     2  H    1.092201   0.000000
     3  H    1.092116   1.833407   0.000000
     4  H    1.092943   1.844850   1.643069   0.000000
     5  C    1.612639   2.126606   2.276597   2.305070   0.000000
     6  C    2.504146   2.661964   3.484051   2.809670   1.535441
     7  H    2.675209   2.972650   3.668711   2.529535   2.192570
     8  H    3.477762   3.688543   4.362578   3.792665   2.169561
     9  H    2.902135   2.621578   3.942264   3.300665   2.251601
    10  C    2.632192   3.483191   2.913671   2.934005   1.533890
    11  C    2.992192   4.040791   3.001431   2.871988   2.585110
    12  C    4.420620   5.461344   4.404640   4.197944   3.869725
    13  C    5.307264   6.265222   5.385498   5.251285   4.374346
    14  O    6.549663   7.533813   6.571698   6.410972   5.678362
    15  H    7.064971   8.016860   7.050811   7.052140   6.070907
    16  C    5.073973   5.886659   5.294404   5.246785   3.809537
    17  C    3.915059   4.621448   4.219324   4.287644   2.503765
    18  H    4.240569   4.736279   4.605444   4.812443   2.676218
    19  H    6.017123   6.751639   6.281314   6.245621   4.633241
    20  H    5.029029   6.099416   4.927996   4.616181   4.741958
    21  H    2.557793   3.646351   2.393990   2.210288   2.787599
    22  C    2.600063   2.690669   2.934162   3.585371   1.555205
    23  C    3.181731   3.412892   2.983619   4.178862   2.581328
    24  H    3.150051   3.622273   2.616300   4.007728   2.876701
    25  C    4.461423   4.499318   4.237335   5.500009   3.854394
    26  H    5.109442   5.207140   4.674026   6.106739   4.694424
    27  C    5.184757   5.030577   5.209749   6.249417   4.357041
    28  O    6.508659   6.319333   6.476691   7.579255   5.696701
    29  C    4.842304   4.566668   5.149329   5.868671   3.859725
    30  H    5.777386   5.422207   6.170209   6.772744   4.740443
    31  C    3.736802   3.530105   4.229308   4.692196   2.620692
    32  H    4.058637   3.795366   4.765460   4.871411   2.859254
                    6          7          8          9         10
     6  C    0.000000
     7  H    1.092363   0.000000
     8  H    1.091712   1.756187   0.000000
     9  H    1.092423   1.753640   1.711149   0.000000
    10  C    2.433904   2.747628   2.584820   3.443757   0.000000
    11  C    3.408884   3.314042   3.690858   4.443144   1.387682
    12  C    4.468232   4.275015   4.484002   5.553465   2.437790
    13  C    4.826913   4.795149   4.523640   5.903592   2.859264
    14  O    6.075851   5.963727   5.719036   7.151337   4.161509
    15  H    6.534428   6.560569   6.087187   7.583711   4.560914
    16  C    4.169047   4.396459   3.657101   5.171893   2.447028
    17  C    3.018871   3.489272   2.624869   3.969844   1.397319
    18  H    3.095457   3.832950   2.542196   3.833326   2.139551
    19  H    4.838644   5.138829   4.130679   5.756304   3.411370
    20  H    5.298081   4.939327   5.396095   6.367147   3.414656
    21  H    3.676342   3.447727   4.226883   4.596552   2.124705
    22  C    2.588438   3.539433   2.898552   2.871442   2.513515
    23  C    3.927058   4.759831   4.242349   4.289990   3.057096
    24  H    4.381558   5.035351   4.782919   4.896649   3.017784
    25  C    5.042865   5.972882   5.234707   5.241947   4.333267
    26  H    5.995346   6.865954   6.227618   6.241606   5.025971
    27  C    5.206779   6.248994   5.229098   5.206340   4.986931
    28  O    6.504958   7.562058   6.451443   6.456021   6.249644
    29  C    4.348940   5.433217   4.295308   4.187298   4.691306
    30  H    4.973480   6.061953   4.778471   4.676948   5.562856
    31  C    2.985853   4.070599   2.995171   2.892520   3.582996
    32  H    2.627939   3.696037   2.437781   2.343116   3.829440
                   11         12         13         14         15
    11  C    0.000000
    12  C    1.437888   0.000000
    13  C    2.474156   1.388826   0.000000
    14  O    3.621160   2.280182   1.307876   0.000000
    15  H    4.216203   3.000732   1.829508   0.974908   0.000000
    16  C    2.781785   2.354360   1.371114   2.402641   2.501735
    17  C    2.387361   2.753132   2.435624   3.674007   3.842013
    18  H    3.358589   3.832997   3.408073   4.562853   4.572743
    19  H    3.867710   3.351468   2.135965   2.716645   2.501907
    20  H    2.191194   1.086805   2.128049   2.475493   3.322263
    21  H    1.086539   2.222812   3.465342   4.498535   5.150465
    22  C    3.718526   4.900503   5.160194   6.445777   6.628878
    23  C    3.975268   5.086425   5.380816   6.584721   6.664758
    24  H    3.572256   4.646103   5.103090   6.241031   6.358405
    25  C    5.290474   6.295700   6.426251   7.563508   7.499396
    26  H    5.797235   6.735844   6.904068   7.959815   7.846976
    27  C    6.148126   7.121399   7.080247   8.226283   8.108291
    28  O    7.390051   8.281388   8.136213   9.208196   8.982246
    29  C    5.989370   7.000221   6.937345   8.138116   8.099984
    30  H    6.906070   7.853923   7.676434   8.841969   8.756655
    31  C    4.911096   5.977225   6.014067   7.269261   7.363510
    32  H    5.180333   6.176992   6.145338   7.383170   7.522362
                   16         17         18         19         20
    16  C    0.000000
    17  C    1.417710   0.000000
    18  H    2.183220   1.086523   0.000000
    19  H    1.087191   2.154313   2.490342   0.000000
    20  H    3.330914   3.837527   4.919065   4.240524   0.000000
    21  H    3.868280   3.363855   4.239921   4.953977   2.568313
    22  C    4.339232   2.934753   2.571506   4.961751   5.858902
    23  C    4.705973   3.465690   3.195270   5.344805   5.985099
    24  H    4.689169   3.621927   3.646308   5.445414   5.430792
    25  C    5.633607   4.466966   3.952462   6.090774   7.213116
    26  H    6.238593   5.196164   4.784073   6.705698   7.578079
    27  C    6.076320   4.880932   4.098321   6.351145   8.115879
    28  O    7.097665   6.012004   5.166857   7.242012   9.277249
    29  C    5.834172   4.556578   3.685312   6.081043   8.028775
    30  H    6.481427   5.275621   4.305339   6.583750   8.905093
    31  C    4.966268   3.602783   2.865505   5.345563   6.990347
    32  H    5.042318   3.747432   3.004673   5.338615   7.187142
                   21         22         23         24         25
    21  H    0.000000
    22  C    3.998959   0.000000
    23  C    4.176466   1.463290   0.000000
    24  H    3.645885   2.285526   1.087026   0.000000
    25  C    5.533378   2.455759   1.384521   2.081157   0.000000
    26  H    5.968749   3.427565   2.114115   2.327720   1.086568
    27  C    6.497149   2.806585   2.417395   3.357932   1.406186
    28  O    7.766369   4.149149   3.642415   4.457781   2.389387
    29  C    6.376492   2.400864   2.770175   3.851068   2.378922
    30  H    7.346251   3.384488   3.850543   4.927863   3.345388
    31  C    5.291498   1.400626   2.445216   3.471842   2.781138
    32  H    5.610861   2.163931   3.440181   4.403043   3.861684
                   26         27         28         29         30
    26  H    0.000000
    27  C    2.193953   0.000000
    28  O    2.692311   1.345496   0.000000
    29  C    3.376134   1.348253   2.333180   0.000000
    30  H    4.256142   2.073675   2.512122   1.087256   0.000000
    31  C    3.866596   2.376946   3.592266   1.363168   2.124501
    32  H    4.948093   3.335647   4.427454   2.113640   2.427597
                   31         32
    31  C    0.000000
    32  H    1.086537   0.000000
 Stoichiometry    C15H15O2(1-)
 Framework group  C1[X(C15H15O2)]
 Deg. of freedom    90
 Full point group                 C1      NOp   1
 Largest Abelian subgroup         C1      NOp   1
 Largest concise Abelian subgroup C1      NOp   1
                         Standard orientation:                         
 ---------------------------------------------------------------------
 Center     Atomic      Atomic             Coordinates (Angstroms)
 Number     Number       Type             X           Y           Z
 ---------------------------------------------------------------------
      1          6           0       -0.063058    2.680793   -0.949726
      2          1           0       -0.964509    3.219147   -0.648954
      3          1           0       -0.068874    2.345481   -1.989077
      4          1           0        0.845413    3.286343   -0.999869
      5          6           0       -0.030446    1.466073    0.110461
      6          6           0        0.205294    2.124961    1.477162
      7          1           0        1.075961    2.784601    1.468663
      8          1           0        0.388917    1.362468    2.236583
      9          1           0       -0.622251    2.700713    1.897956
     10          6           0        1.159630    0.517550   -0.081479
     11          6           0        2.249982    0.783335   -0.897660
     12          6           0        3.447498    0.001863   -0.746723
     13          6           0        3.504084   -1.110981    0.082260
     14          8           0        4.619425   -1.792211    0.032454
     15          1           0        4.357946   -2.728904    0.100855
     16          6           0        2.407634   -1.361812    0.866375
     17          6           0        1.206393   -0.622142    0.725625
     18          1           0        0.288509   -0.957019    1.200890
     19          1           0        2.427085   -2.171912    1.591182
     20          1           0        4.355559    0.300010   -1.264100
     21          1           0        2.177044    1.621962   -1.584648
     22          6           0       -1.348212    0.644047    0.030260
     23          6           0       -1.617010   -0.083365   -1.210641
     24          1           0       -0.995339   -0.098673   -2.102221
     25          6           0       -2.764929   -0.851467   -1.306566
     26          1           0       -2.983161   -1.297714   -2.272934
     27          6           0       -3.571352   -1.056903   -0.173060
     28          8           0       -4.584453   -1.941696   -0.206612
     29          6           0       -3.336258   -0.342529    0.945952
     30          1           0       -3.956977   -0.577276    1.807188
     31          6           0       -2.220280    0.424179    1.103996
     32          1           0       -1.978918    0.800426    2.094323
 ---------------------------------------------------------------------
 Rotational constants (GHZ):           0.8448361           0.2688208           0.2375280
 Leave Link  202 at Mon Jul 12 12:15:40 2021, MaxMem=   104857600 cpu:               0.0 elap:               0.0
 (Enter /dades/curu/g16A03_MST/g16/l301.exe)
 Standard basis: 6-31G(d) (6D, 7F)
 Ernie: Thresh=  0.10000D-02 Tol=  0.10000D-05 Strict=F.
 There are   285 symmetry adapted cartesian basis functions of A   symmetry.
 There are   285 symmetry adapted basis functions of A   symmetry.
   285 basis functions,   536 primitive gaussians,   285 cartesian basis functions
    61 alpha electrons       61 beta electrons
       nuclear repulsion energy      1133.5777183612 Hartrees.
 IExCor=  402 DFT=T Ex+Corr=B3LYP ExCW=0 ScaHFX=  0.200000
 ScaDFX=  0.800000  0.720000  1.000000  0.810000 ScalE2=  1.000000  1.000000
 IRadAn=      5 IRanWt=     -1 IRanGd=            0 ICorTp=0 IEmpDi=  4
 NAtoms=   32 NActive=   32 NUniq=   32 SFac= 1.00D+00 NAtFMM=   60 NAOKFM=F Big=F
 Integral buffers will be    131072 words long.
 Raffenetti 2 integral format.
 Two-electron integral symmetry is turned on.
 Using the following non-standard input for PCM:
 MSTModel=DFT cav MSTCharged
 --- end of non-standard input.
 MST model for solvation energy: B3LYP parametrization.
 MST cavity parameters:
 ISph   IAn     Re0     Alpha   Atom Type   QCorr
 ------------------------------------------------
   1      6     1.50     1.50      CH3        F
   2      1     1.20     1.50      CH3        F
   3      1     1.20     1.50      CH3        F
   4      1     1.20     1.50      CH3        F
   5      6     1.50     1.50      C          F
   6      6     1.50     1.50      CH3        F
   7      1     1.20     1.50      CH3        F
   8      1     1.20     1.50      CH3        F
   9      1     1.20     1.50      CH3        F
  10      6     1.50     1.50      C          F
  11      6     1.50     1.50      CH         F
  12      6     1.50     1.50      CH         F
  13      6     1.50     1.50      C          F
  14      8     1.40     1.50      OH         F
  15      1     0.90     1.50      OH         F
  16      6     1.50     1.50      CH         F
  17      6     1.50     1.50      CH         F
  18      1     1.20     1.50      CH         F
  19      1     1.20     1.50      CH         F
  20      1     1.20     1.50      CH         F
  21      1     1.20     1.50      CH         F
  22      6     1.50     1.50      C          F
  23      6     1.50     1.50      CH         F
  24      1     1.20     1.50      CH         F
  25      6     1.50     1.50      CH         F
  26      1     1.20     1.50      CH         F
  27      6     1.50     1.50      C          F
  28      8     1.40     1.15      O          T
  29      6     1.50     1.50      CH         F
  30      1     1.20     1.50      CH         F
  31      6     1.50     1.50      CH         F
  32      1     1.20     1.50      CH         F
 ------------------------------------------------------------------------------
 Polarizable Continuum Model (PCM)
 =================================
 Model                : PCM.
 Atomic radii         : MST.
 Polarization charges : Total charges.
 Charge compensation  : None.
 Solution method      : On-the-fly selection.
 Cavity type          : Scaled VdW (van der Waals Surface) (Alpha=1.500).
 Cavity algorithm     : GePol (No added spheres)
                        Default sphere list used, NSphG=   32.
                        Lebedev-Laikov grids with approx.  5.0 points / Ang**2.
                        Smoothing algorithm: York/Karplus (Gamma=1.0000).
                        Polarization charges: spherical gaussians, with
                                              point-specific exponents (IZeta= 3).
                        Self-potential: point-specific (ISelfS= 7).
                        Self-field    : sphere-specific E.n sum rule (ISelfD= 2).
 1st derivatives      : Analytical E(r).r(x)/FMM algorithm (CHGder, D1EAlg=3).
                        Cavity 1st derivative terms included.
 Solvent              : n-Octanol, Eps=   9.862900 Eps(inf)=   2.043470
 ------------------------------------------------------------------------------
 GePol: Number of generator spheres                  =      32
 GePol: Total number of spheres                      =      32
 GePol: Number of exposed spheres                    =      31 ( 96.88%)
 GePol: Number of points                             =    2946
 GePol: Average weight of points                     =       0.11
 GePol: Minimum weight of points                     =   0.59D-11
 GePol: Maximum weight of points                     =    0.20790
 GePol: Number of points with low weight             =     171
 GePol: Fraction of low-weight points (<1% of avg)   =       5.80%
 GePol: Cavity surface area                          =    320.734 Ang**2
 GePol: Cavity volume                                =    376.169 Ang**3
 Surface areas from nonelectrostatic (unscaled) cavity and vdw tensions:
 Sphere =    1 Type =  CH3 Surf =        4.882 Tension =       -0.183
 Sphere =    2 Type =  CH3 Surf =       10.021 Tension =       -0.183
 Sphere =    3 Type =  CH3 Surf =       10.015 Tension =       -0.183
 Sphere =    4 Type =  CH3 Surf =        9.534 Tension =       -0.183
 Sphere =    5 Type =  C   Surf =        2.107 Tension =       -0.205
 Sphere =    6 Type =  CH3 Surf =        4.345 Tension =       -0.183
 Sphere =    7 Type =  CH3 Surf =       10.070 Tension =       -0.183
 Sphere =    8 Type =  CH3 Surf =        9.630 Tension =       -0.183
 Sphere =    9 Type =  CH3 Surf =        9.927 Tension =       -0.183
 Sphere =   10 Type =  C   Surf =        5.643 Tension =       -0.205
 Sphere =   11 Type =  CH  Surf =        7.860 Tension =       -0.195
 Sphere =   12 Type =  CH  Surf =        7.729 Tension =       -0.195
 Sphere =   13 Type =  C   Surf =        6.507 Tension =       -0.205
 Sphere =   14 Type =  OH  Surf =       14.064 Tension =       -0.238
 Sphere =   15 Type =  OH  Surf =        4.414 Tension =       -0.238
 Sphere =   16 Type =  CH  Surf =        7.732 Tension =       -0.195
 Sphere =   17 Type =  CH  Surf =        7.376 Tension =       -0.195
 Sphere =   18 Type =  CH  Surf =        9.744 Tension =       -0.195
 Sphere =   19 Type =  CH  Surf =       10.226 Tension =       -0.195
 Sphere =   20 Type =  CH  Surf =       10.181 Tension =       -0.195
 Sphere =   21 Type =  CH  Surf =        9.079 Tension =       -0.195
 Sphere =   22 Type =  C   Surf =        5.807 Tension =       -0.205
 Sphere =   23 Type =  CH  Surf =        7.956 Tension =       -0.195
 Sphere =   24 Type =  CH  Surf =       10.197 Tension =       -0.195
 Sphere =   25 Type =  CH  Surf =        7.708 Tension =       -0.195
 Sphere =   26 Type =  CH  Surf =       10.208 Tension =       -0.195
 Sphere =   27 Type =  C   Surf =        6.578 Tension =       -0.205
 Sphere =   28 Type =  O   Surf =       17.009 Tension =       -0.185
 Sphere =   29 Type =  CH  Surf =        7.393 Tension =       -0.195
 Sphere =   30 Type =  CH  Surf =       10.149 Tension =       -0.195
 Sphere =   31 Type =  CH  Surf =        7.599 Tension =       -0.195
 Sphere =   32 Type =  CH  Surf =        9.632 Tension =       -0.195
 PCM non-electrostatic energy =        -0.0136275549 Hartrees.
 Nuclear repulsion after PCM non-electrostatic terms =     1133.5640908063 Hartrees.
 Leave Link  301 at Mon Jul 12 12:15:40 2021, MaxMem=   104857600 cpu:               0.1 elap:               0.1
 (Enter /dades/curu/g16A03_MST/g16/l302.exe)
 NPDir=0 NMtPBC=     1 NCelOv=     1 NCel=       1 NClECP=     1 NCelD=      1
         NCelK=      1 NCelE2=     1 NClLst=     1 CellRange=     0.0.
 One-electron integrals computed using PRISM.
 One-electron integral symmetry used in STVInt
 NBasis=   285 RedAO= T EigKep=  5.03D-04  NBF=   285
 NBsUse=   285 1.00D-06 EigRej= -1.00D+00 NBFU=   285
 Precomputing XC quadrature grid using
 IXCGrd= 4 IRadAn=           5 IRanWt=          -1 IRanGd=           0 AccXCQ= 0.00D+00.
 Generated NRdTot=       0 NPtTot=           0 NUsed=           0 NTot=          32
 NSgBfM=   283   283   283   283   283 MxSgAt=    32 MxSgA2=    32.
 Leave Link  302 at Mon Jul 12 12:15:41 2021, MaxMem=   104857600 cpu:               3.7 elap:               1.0
 (Enter /dades/curu/g16A03_MST/g16/l303.exe)
 DipDrv:  MaxL=1.
 Leave Link  303 at Mon Jul 12 12:15:41 2021, MaxMem=   104857600 cpu:               0.1 elap:               0.0
 (Enter /dades/curu/g16A03_MST/g16/l401.exe)
 ExpMin= 1.61D-01 ExpMax= 5.48D+03 ExpMxC= 8.25D+02 IAcc=3 IRadAn=         5 AccDes= 0.00D+00
 Harris functional with IExCor=  402 and IRadAn=       5 diagonalized for initial guess.
 HarFok:  IExCor=  402 AccDes= 0.00D+00 IRadAn=         5 IDoV= 1 UseB2=F ITyADJ=14
 ICtDFT=  3500011 ScaDFX=  1.000000  1.000000  1.000000  1.000000
 FoFCou: FMM=F IPFlag=           0 FMFlag=      100000 FMFlg1=           0
         NFxFlg=           0 DoJE=T BraDBF=F KetDBF=T FulRan=T
         wScrn=  0.000000 ICntrl=       500 IOpCl=  0 I1Cent=   200000004 NGrid=           0
         NMat0=    1 NMatS0=      1 NMatT0=    0 NMatD0=    1 NMtDS0=    0 NMtDT0=    0
 Petite list used in FoFCou.
 Harris En= -731.319505494432    
 JPrj=0 DoOrth=F DoCkMO=F.
 Leave Link  401 at Mon Jul 12 12:15:48 2021, MaxMem=   104857600 cpu:              28.5 elap:               7.2
 (Enter /dades/curu/g16A03_MST/g16/l502.exe)
 Integral symmetry usage will be decided dynamically.
 Closed shell SCF:
 Using DIIS extrapolation, IDIIS=  1040.
 NGot=   104857600 LenX=   104690183 LenY=   104608517
 Requested convergence on RMS density matrix=1.00D-08 within 128 cycles.
 Requested convergence on MAX density matrix=1.00D-06.
 Requested convergence on             energy=1.00D-06.
 No special actions if energy rises.
 Fock matrices will be formed incrementally for  20 cycles.

 Cycle   1  Pass 1  IDiag  1:
 FoFJK:  IHMeth= 1 ICntrl=       0 DoSepK=F KAlg= 0 I1Cent=           0 FoldK=F
 IRaf= 840000000 NMat=       1 IRICut=       1 DoRegI=T DoRafI=F ISym2E= 0 IDoP0=0 IntGTp=1.
 FoFCou: FMM=F IPFlag=           0 FMFlag=      100000 FMFlg1=           0
         NFxFlg=           0 DoJE=F BraDBF=F KetDBF=F FulRan=T
         wScrn=  0.000000 ICntrl=         0 IOpCl=  0 I1Cent=           0 NGrid=           0
         NMat0=    1 NMatS0=      1 NMatT0=    0 NMatD0=    1 NMtDS0=    0 NMtDT0=    0
 Symmetry not used in FoFCou.
 Inv3:  Mode=1 IEnd=    26036748.
 Iteration    1 A*A^-1 deviation from unit magnitude is 7.11D-15 for    708.
 Iteration    1 A*A^-1 deviation from orthogonality  is 3.19D-15 for   2918    748.
 Iteration    1 A^-1*A deviation from unit magnitude is 7.55D-15 for    708.
 Iteration    1 A^-1*A deviation from orthogonality  is 2.65D-15 for   2913    729.
 E= -730.630394483621    
 DIIS: error= 3.72D-02 at cycle   1 NSaved=   1.
 NSaved= 1 IEnMin= 1 EnMin= -730.630394483621     IErMin= 1 ErrMin= 3.72D-02
 ErrMax= 3.72D-02  0.00D+00 EMaxC= 1.00D-01 BMatC= 5.02D-01 BMatP= 5.02D-01
 IDIUse=3 WtCom= 6.28D-01 WtEn= 3.72D-01
 Coeff-Com:  0.100D+01
 Coeff-En:   0.100D+01
 Coeff:      0.100D+01
 Gap=     0.107 Goal=   None    Shift=    0.000
 GapD=    0.107 DampG=1.000 DampE=0.500 DampFc=0.5000 IDamp=-1.
 Damping current iteration by 5.00D-01
 RMSDP=6.43D-03 MaxDP=1.99D-01              OVMax= 2.77D-01

 Cycle   2  Pass 1  IDiag  1:
 RMSU=  3.19D-03    CP:  9.79D-01
 E= -730.866016936875     Delta-E=       -0.235622453254 Rises=F Damp=T
 DIIS: error= 1.28D-02 at cycle   2 NSaved=   2.
 NSaved= 2 IEnMin= 2 EnMin= -730.866016936875     IErMin= 2 ErrMin= 1.28D-02
 ErrMax= 1.28D-02  0.00D+00 EMaxC= 1.00D-01 BMatC= 2.69D-02 BMatP= 5.02D-01
 IDIUse=3 WtCom= 8.72D-01 WtEn= 1.28D-01
 Coeff-Com:  0.525D-01 0.947D+00
 Coeff-En:   0.544D-01 0.946D+00
 Coeff:      0.528D-01 0.947D+00
 Gap=     0.202 Goal=   None    Shift=    0.000
 RMSDP=1.58D-03 MaxDP=6.24D-02 DE=-2.36D-01 OVMax= 1.88D-01

 Cycle   3  Pass 1  IDiag  1:
 RMSU=  1.42D-03    CP:  9.69D-01  7.98D-01
 E= -731.117533151264     Delta-E=       -0.251516214389 Rises=F Damp=F
 DIIS: error= 9.17D-03 at cycle   3 NSaved=   3.
 NSaved= 3 IEnMin= 3 EnMin= -731.117533151264     IErMin= 3 ErrMin= 9.17D-03
 ErrMax= 9.17D-03  0.00D+00 EMaxC= 1.00D-01 BMatC= 2.71D-02 BMatP= 2.69D-02
 IDIUse=3 WtCom= 9.08D-01 WtEn= 9.17D-02
 Coeff-Com: -0.123D-01 0.504D+00 0.509D+00
 Coeff-En:   0.000D+00 0.000D+00 0.100D+01
 Coeff:     -0.111D-01 0.458D+00 0.554D+00
 Gap=     0.135 Goal=   None    Shift=    0.000
 RMSDP=1.01D-03 MaxDP=4.58D-02 DE=-2.52D-01 OVMax= 1.02D-01

 Cycle   4  Pass 1  IDiag  1:
 RMSU=  7.46D-04    CP:  9.72D-01  8.84D-01  5.63D-01
 E= -731.133544585334     Delta-E=       -0.016011434070 Rises=F Damp=F
 DIIS: error= 5.16D-03 at cycle   4 NSaved=   4.
 NSaved= 4 IEnMin= 4 EnMin= -731.133544585334     IErMin= 4 ErrMin= 5.16D-03
 ErrMax= 5.16D-03  0.00D+00 EMaxC= 1.00D-01 BMatC= 8.00D-03 BMatP= 2.69D-02
 IDIUse=3 WtCom= 9.48D-01 WtEn= 5.16D-02
 Coeff-Com: -0.990D-02 0.799D-01 0.359D+00 0.571D+00
 Coeff-En:   0.000D+00 0.000D+00 0.270D+00 0.730D+00
 Coeff:     -0.939D-02 0.757D-01 0.355D+00 0.579D+00
 Gap=     0.135 Goal=   None    Shift=    0.000
 RMSDP=4.32D-04 MaxDP=1.69D-02 DE=-1.60D-02 OVMax= 4.11D-02

 Cycle   5  Pass 1  IDiag  1:
 RMSU=  1.43D-04    CP:  9.71D-01  8.54D-01  7.20D-01  5.61D-01
 E= -731.140231081375     Delta-E=       -0.006686496041 Rises=F Damp=F
 DIIS: error= 4.49D-04 at cycle   5 NSaved=   5.
 NSaved= 5 IEnMin= 5 EnMin= -731.140231081375     IErMin= 5 ErrMin= 4.49D-04
 ErrMax= 4.49D-04  0.00D+00 EMaxC= 1.00D-01 BMatC= 2.30D-04 BMatP= 8.00D-03
 IDIUse=3 WtCom= 9.96D-01 WtEn= 4.49D-03
 Coeff-Com: -0.399D-02 0.166D-01 0.146D+00 0.286D+00 0.556D+00
 Coeff-En:   0.000D+00 0.000D+00 0.000D+00 0.000D+00 0.100D+01
 Coeff:     -0.397D-02 0.165D-01 0.145D+00 0.285D+00 0.558D+00
 Gap=     0.134 Goal=   None    Shift=    0.000
 RMSDP=7.96D-05 MaxDP=2.19D-03 DE=-6.69D-03 OVMax= 7.00D-03

 Cycle   6  Pass 1  IDiag  1:
 RMSU=  5.17D-05    CP:  9.71D-01  8.57D-01  7.16D-01  6.05D-01  6.54D-01
 E= -731.140409835607     Delta-E=       -0.000178754232 Rises=F Damp=F
 DIIS: error= 2.69D-04 at cycle   6 NSaved=   6.
 NSaved= 6 IEnMin= 6 EnMin= -731.140409835607     IErMin= 6 ErrMin= 2.69D-04
 ErrMax= 2.69D-04  0.00D+00 EMaxC= 1.00D-01 BMatC= 4.27D-05 BMatP= 2.30D-04
 IDIUse=3 WtCom= 9.97D-01 WtEn= 2.69D-03
 Coeff-Com: -0.131D-02 0.111D-02 0.463D-01 0.108D+00 0.342D+00 0.503D+00
 Coeff-En:   0.000D+00 0.000D+00 0.000D+00 0.000D+00 0.158D+00 0.842D+00
 Coeff:     -0.131D-02 0.111D-02 0.462D-01 0.108D+00 0.342D+00 0.504D+00
 Gap=     0.134 Goal=   None    Shift=    0.000
 RMSDP=3.17D-05 MaxDP=8.73D-04 DE=-1.79D-04 OVMax= 2.52D-03

 Cycle   7  Pass 1  IDiag  1:
 RMSU=  1.62D-05    CP:  9.71D-01  8.57D-01  7.16D-01  6.02D-01  7.25D-01
                    CP:  5.12D-01
 E= -731.140450865771     Delta-E=       -0.000041030164 Rises=F Damp=F
 DIIS: error= 7.95D-05 at cycle   7 NSaved=   7.
 NSaved= 7 IEnMin= 7 EnMin= -731.140450865771     IErMin= 7 ErrMin= 7.95D-05
 ErrMax= 7.95D-05  0.00D+00 EMaxC= 1.00D-01 BMatC= 3.67D-06 BMatP= 4.27D-05
 IDIUse=1 WtCom= 1.00D+00 WtEn= 0.00D+00
 Coeff-Com: -0.496D-03-0.264D-03 0.156D-01 0.410D-01 0.158D+00 0.300D+00
 Coeff-Com:  0.486D+00
 Coeff:     -0.496D-03-0.264D-03 0.156D-01 0.410D-01 0.158D+00 0.300D+00
 Coeff:      0.486D+00
 Gap=     0.134 Goal=   None    Shift=    0.000
 RMSDP=1.01D-05 MaxDP=2.51D-04 DE=-4.10D-05 OVMax= 7.05D-04

 Cycle   8  Pass 1  IDiag  1:
 RMSU=  4.15D-06    CP:  9.71D-01  8.57D-01  7.16D-01  6.07D-01  7.11D-01
                    CP:  5.69D-01  5.35D-01
 E= -731.140454697268     Delta-E=       -0.000003831496 Rises=F Damp=F
 DIIS: error= 2.00D-05 at cycle   8 NSaved=   8.
 NSaved= 8 IEnMin= 8 EnMin= -731.140454697268     IErMin= 8 ErrMin= 2.00D-05
 ErrMax= 2.00D-05  0.00D+00 EMaxC= 1.00D-01 BMatC= 1.95D-07 BMatP= 3.67D-06
 IDIUse=1 WtCom= 1.00D+00 WtEn= 0.00D+00
 Coeff-Com: -0.601D-04-0.320D-03 0.134D-02 0.550D-02 0.313D-01 0.752D-01
 Coeff-Com:  0.229D+00 0.658D+00
 Coeff:     -0.601D-04-0.320D-03 0.134D-02 0.550D-02 0.313D-01 0.752D-01
 Coeff:      0.229D+00 0.658D+00
 Gap=     0.134 Goal=   None    Shift=    0.000
 RMSDP=2.27D-06 MaxDP=6.77D-05 DE=-3.83D-06 OVMax= 1.82D-04

 Cycle   9  Pass 1  IDiag  1:
 RMSU=  1.59D-06    CP:  9.71D-01  8.57D-01  7.16D-01  6.07D-01  7.15D-01
                    CP:  5.74D-01  5.97D-01  7.47D-01
 E= -731.140454858830     Delta-E=       -0.000000161563 Rises=F Damp=F
 DIIS: error= 7.73D-06 at cycle   9 NSaved=   9.
 NSaved= 9 IEnMin= 9 EnMin= -731.140454858830     IErMin= 9 ErrMin= 7.73D-06
 ErrMax= 7.73D-06  0.00D+00 EMaxC= 1.00D-01 BMatC= 3.71D-08 BMatP= 1.95D-07
 IDIUse=1 WtCom= 1.00D+00 WtEn= 0.00D+00
 Coeff-Com:  0.554D-05-0.153D-03-0.533D-03-0.297D-03 0.501D-02 0.176D-01
 Coeff-Com:  0.927D-01 0.382D+00 0.504D+00
 Coeff:      0.554D-05-0.153D-03-0.533D-03-0.297D-03 0.501D-02 0.176D-01
 Coeff:      0.927D-01 0.382D+00 0.504D+00
 Gap=     0.134 Goal=   None    Shift=    0.000
 RMSDP=8.35D-07 MaxDP=2.82D-05 DE=-1.62D-07 OVMax= 7.61D-05

 Cycle  10  Pass 1  IDiag  1:
 RMSU=  4.52D-07    CP:  9.71D-01  8.57D-01  7.16D-01  6.07D-01  7.16D-01
                    CP:  5.73D-01  5.94D-01  8.07D-01  5.91D-01
 E= -731.140454895718     Delta-E=       -0.000000036887 Rises=F Damp=F
 DIIS: error= 2.02D-06 at cycle  10 NSaved=  10.
 NSaved=10 IEnMin=10 EnMin= -731.140454895718     IErMin=10 ErrMin= 2.02D-06
 ErrMax= 2.02D-06  0.00D+00 EMaxC= 1.00D-01 BMatC= 1.68D-09 BMatP= 3.71D-08
 IDIUse=1 WtCom= 1.00D+00 WtEn= 0.00D+00
 Coeff-Com:  0.770D-05-0.262D-04-0.387D-03-0.780D-03-0.125D-02-0.982D-03
 Coeff-Com:  0.161D-01 0.928D-01 0.222D+00 0.673D+00
 Coeff:      0.770D-05-0.262D-04-0.387D-03-0.780D-03-0.125D-02-0.982D-03
 Coeff:      0.161D-01 0.928D-01 0.222D+00 0.673D+00
 Gap=     0.134 Goal=   None    Shift=    0.000
 RMSDP=2.27D-07 MaxDP=5.80D-06 DE=-3.69D-08 OVMax= 1.77D-05

 Cycle  11  Pass 1  IDiag  1:
 RMSU=  1.18D-07    CP:  9.71D-01  8.57D-01  7.16D-01  6.07D-01  7.16D-01
                    CP:  5.73D-01  6.00D-01  8.11D-01  6.57D-01  7.41D-01
 E= -731.140454897393     Delta-E=       -0.000000001675 Rises=F Damp=F
 DIIS: error= 4.45D-07 at cycle  11 NSaved=  11.
 NSaved=11 IEnMin=11 EnMin= -731.140454897393     IErMin=11 ErrMin= 4.45D-07
 ErrMax= 4.45D-07  0.00D+00 EMaxC= 1.00D-01 BMatC= 2.03D-10 BMatP= 1.68D-09
 IDIUse=1 WtCom= 1.00D+00 WtEn= 0.00D+00
 Coeff-Com:  0.345D-05-0.331D-05-0.173D-03-0.394D-03-0.935D-03-0.154D-02
 Coeff-Com:  0.316D-02 0.268D-01 0.875D-01 0.357D+00 0.528D+00
 Coeff:      0.345D-05-0.331D-05-0.173D-03-0.394D-03-0.935D-03-0.154D-02
 Coeff:      0.316D-02 0.268D-01 0.875D-01 0.357D+00 0.528D+00
 Gap=     0.134 Goal=   None    Shift=    0.000
 RMSDP=5.86D-08 MaxDP=2.23D-06 DE=-1.67D-09 OVMax= 4.65D-06

 Cycle  12  Pass 1  IDiag  1:
 RMSU=  4.25D-08    CP:  9.71D-01  8.57D-01  7.16D-01  6.07D-01  7.16D-01
                    CP:  5.73D-01  5.99D-01  8.12D-01  6.55D-01  7.83D-01
                    CP:  7.17D-01
 E= -731.140454897574     Delta-E=       -0.000000000181 Rises=F Damp=F
 DIIS: error= 1.18D-07 at cycle  12 NSaved=  12.
 NSaved=12 IEnMin=12 EnMin= -731.140454897574     IErMin=12 ErrMin= 1.18D-07
 ErrMax= 1.18D-07  0.00D+00 EMaxC= 1.00D-01 BMatC= 1.39D-11 BMatP= 2.03D-10
 IDIUse=1 WtCom= 1.00D+00 WtEn= 0.00D+00
 Coeff-Com:  0.122D-06 0.237D-05-0.197D-04-0.575D-04-0.238D-03-0.562D-03
 Coeff-Com: -0.122D-02-0.281D-02 0.306D-02 0.520D-01 0.226D+00 0.724D+00
 Coeff:      0.122D-06 0.237D-05-0.197D-04-0.575D-04-0.238D-03-0.562D-03
 Coeff:     -0.122D-02-0.281D-02 0.306D-02 0.520D-01 0.226D+00 0.724D+00
 Gap=     0.134 Goal=   None    Shift=    0.000
 RMSDP=2.05D-08 MaxDP=4.77D-07 DE=-1.81D-10 OVMax= 1.27D-06

 Cycle  13  Pass 1  IDiag  1:
 RMSU=  1.39D-08    CP:  9.71D-01  8.57D-01  7.16D-01  6.07D-01  7.16D-01
                    CP:  5.73D-01  5.99D-01  8.13D-01  6.57D-01  7.93D-01
                    CP:  7.82D-01  7.87D-01
 E= -731.140454897564     Delta-E=        0.000000000010 Rises=F Damp=F
 DIIS: error= 4.37D-08 at cycle  13 NSaved=  13.
 NSaved=13 IEnMin=12 EnMin= -731.140454897574     IErMin=13 ErrMin= 4.37D-08
 ErrMax= 4.37D-08  0.00D+00 EMaxC= 1.00D-01 BMatC= 2.31D-12 BMatP= 1.39D-11
 IDIUse=1 WtCom= 1.00D+00 WtEn= 0.00D+00
 Coeff-Com: -0.211D-06 0.148D-05 0.184D-05-0.801D-06-0.513D-04-0.168D-03
 Coeff-Com: -0.777D-03-0.303D-02-0.408D-02 0.351D-02 0.812D-01 0.389D+00
 Coeff-Com:  0.534D+00
 Coeff:     -0.211D-06 0.148D-05 0.184D-05-0.801D-06-0.513D-04-0.168D-03
 Coeff:     -0.777D-03-0.303D-02-0.408D-02 0.351D-02 0.812D-01 0.389D+00
 Coeff:      0.534D+00
 Gap=     0.134 Goal=   None    Shift=    0.000
 RMSDP=7.32D-09 MaxDP=2.38D-07 DE= 1.00D-11 OVMax= 6.37D-07

 Error on total polarization charges =  0.00390
 SCF Done:  E(RB3LYP) =  -731.140454898     A.U. after   13 cycles
            NFock= 13  Conv=0.73D-08     -V/T= 2.0090
 KE= 7.246129589660D+02 PE=-3.984094620330D+03 EE= 1.394777115660D+03
 Leave Link  502 at Mon Jul 12 12:19:19 2021, MaxMem=   104857600 cpu:             816.7 elap:             211.1
 (Enter /dades/curu/g16A03_MST/g16/l601.exe)
 Copying SCF densities to generalized density rwf, IOpCl= 0 IROHF=0.

 **********************************************************************

            Population analysis using the SCF density.

 **********************************************************************

 Orbital symmetries:
       Occupied  (A) (A) (A) (A) (A) (A) (A) (A) (A) (A) (A) (A)
                 (A) (A) (A) (A) (A) (A) (A) (A) (A) (A) (A) (A)
                 (A) (A) (A) (A) (A) (A) (A) (A) (A) (A) (A) (A)
                 (A) (A) (A) (A) (A) (A) (A) (A) (A) (A) (A) (A)
                 (A) (A) (A) (A) (A) (A) (A) (A) (A) (A) (A) (A)
                 (A)
       Virtual   (A) (A) (A) (A) (A) (A) (A) (A) (A) (A) (A) (A)
                 (A) (A) (A) (A) (A) (A) (A) (A) (A) (A) (A) (A)
                 (A) (A) (A) (A) (A) (A) (A) (A) (A) (A) (A) (A)
                 (A) (A) (A) (A) (A) (A) (A) (A) (A) (A) (A) (A)
                 (A) (A) (A) (A) (A) (A) (A) (A) (A) (A) (A) (A)
                 (A) (A) (A) (A) (A) (A) (A) (A) (A) (A) (A) (A)
                 (A) (A) (A) (A) (A) (A) (A) (A) (A) (A) (A) (A)
                 (A) (A) (A) (A) (A) (A) (A) (A) (A) (A) (A) (A)
                 (A) (A) (A) (A) (A) (A) (A) (A) (A) (A) (A) (A)
                 (A) (A) (A) (A) (A) (A) (A) (A) (A) (A) (A) (A)
                 (A) (A) (A) (A) (A) (A) (A) (A) (A) (A) (A) (A)
                 (A) (A) (A) (A) (A) (A) (A) (A) (A) (A) (A) (A)
                 (A) (A) (A) (A) (A) (A) (A) (A) (A) (A) (A) (A)
                 (A) (A) (A) (A) (A) (A) (A) (A) (A) (A) (A) (A)
                 (A) (A) (A) (A) (A) (A) (A) (A) (A) (A) (A) (A)
                 (A) (A) (A) (A) (A) (A) (A) (A) (A) (A) (A) (A)
                 (A) (A) (A) (A) (A) (A) (A) (A) (A) (A) (A) (A)
                 (A) (A) (A) (A) (A) (A) (A) (A) (A) (A) (A) (A)
                 (A) (A) (A) (A) (A) (A) (A) (A)
 The electronic state is 1-A.
 Alpha  occ. eigenvalues --  -19.16511 -19.00404 -10.22537 -10.18697 -10.17390
 Alpha  occ. eigenvalues --  -10.17065 -10.16921 -10.16871 -10.16716 -10.16349
 Alpha  occ. eigenvalues --  -10.15931 -10.15476 -10.14849 -10.14547 -10.14357
 Alpha  occ. eigenvalues --  -10.12610 -10.11383  -1.06906  -0.87717  -0.83767
 Alpha  occ. eigenvalues --   -0.79928  -0.76741  -0.72244  -0.70976  -0.70126
 Alpha  occ. eigenvalues --   -0.66545  -0.66070  -0.61197  -0.59097  -0.56039
 Alpha  occ. eigenvalues --   -0.55094  -0.53022  -0.52020  -0.46758  -0.46068
 Alpha  occ. eigenvalues --   -0.43622  -0.43235  -0.42223  -0.41255  -0.40191
 Alpha  occ. eigenvalues --   -0.39482  -0.38821  -0.38590  -0.37723  -0.37013
 Alpha  occ. eigenvalues --   -0.36346  -0.35409  -0.33392  -0.32602  -0.32183
 Alpha  occ. eigenvalues --   -0.31274  -0.30217  -0.29970  -0.28973  -0.28088
 Alpha  occ. eigenvalues --   -0.24091  -0.22657  -0.20933  -0.20067  -0.15630
 Alpha  occ. eigenvalues --   -0.12851
 Alpha virt. eigenvalues --    0.00572   0.02932   0.04683   0.06785   0.09597
 Alpha virt. eigenvalues --    0.10961   0.12719   0.14050   0.14804   0.15896
 Alpha virt. eigenvalues --    0.16259   0.17319   0.17763   0.18328   0.19684
 Alpha virt. eigenvalues --    0.20249   0.21082   0.21611   0.22581   0.23497
 Alpha virt. eigenvalues --    0.24040   0.25459   0.25726   0.27484   0.28459
 Alpha virt. eigenvalues --    0.29318   0.31400   0.32596   0.33933   0.36205
 Alpha virt. eigenvalues --    0.37246   0.38746   0.40067   0.40889   0.42123
 Alpha virt. eigenvalues --    0.50577   0.51458   0.52532   0.53185   0.53813
 Alpha virt. eigenvalues --    0.54679   0.55664   0.56202   0.56553   0.58799
 Alpha virt. eigenvalues --    0.59033   0.59572   0.60273   0.61850   0.62372
 Alpha virt. eigenvalues --    0.62657   0.63450   0.64103   0.64544   0.65153
 Alpha virt. eigenvalues --    0.65496   0.67216   0.67540   0.68521   0.68973
 Alpha virt. eigenvalues --    0.69965   0.70784   0.73486   0.74368   0.76185
 Alpha virt. eigenvalues --    0.76967   0.78518   0.80105   0.80517   0.81949
 Alpha virt. eigenvalues --    0.82007   0.83505   0.85270   0.85391   0.87220
 Alpha virt. eigenvalues --    0.87842   0.88183   0.89260   0.89574   0.90188
 Alpha virt. eigenvalues --    0.91340   0.92341   0.93008   0.93338   0.94300
 Alpha virt. eigenvalues --    0.95402   0.97881   0.98821   0.99049   0.99961
 Alpha virt. eigenvalues --    1.00653   1.01148   1.03173   1.03792   1.05145
 Alpha virt. eigenvalues --    1.06538   1.07219   1.07532   1.08653   1.12347
 Alpha virt. eigenvalues --    1.14043   1.16151   1.16578   1.18506   1.19665
 Alpha virt. eigenvalues --    1.21040   1.21993   1.24115   1.24478   1.27854
 Alpha virt. eigenvalues --    1.28818   1.32748   1.34226   1.35529   1.37794
 Alpha virt. eigenvalues --    1.41069   1.41472   1.42833   1.46329   1.47160
 Alpha virt. eigenvalues --    1.49491   1.51208   1.53596   1.55258   1.56278
 Alpha virt. eigenvalues --    1.57135   1.59329   1.61812   1.63099   1.66876
 Alpha virt. eigenvalues --    1.69496   1.72784   1.74768   1.77566   1.79581
 Alpha virt. eigenvalues --    1.81187   1.81849   1.83448   1.85552   1.87011
 Alpha virt. eigenvalues --    1.88786   1.90656   1.91271   1.92206   1.94058
 Alpha virt. eigenvalues --    1.94698   1.96091   1.98278   1.99051   2.00290
 Alpha virt. eigenvalues --    2.01393   2.02049   2.03270   2.03314   2.08014
 Alpha virt. eigenvalues --    2.08862   2.10748   2.11671   2.13142   2.14544
 Alpha virt. eigenvalues --    2.16428   2.17757   2.18250   2.20033   2.22656
 Alpha virt. eigenvalues --    2.24157   2.25028   2.27116   2.28765   2.29284
 Alpha virt. eigenvalues --    2.30500   2.32712   2.34676   2.35018   2.36334
 Alpha virt. eigenvalues --    2.37876   2.39915   2.42449   2.44697   2.45360
 Alpha virt. eigenvalues --    2.52583   2.56080   2.58817   2.61465   2.62352
 Alpha virt. eigenvalues --    2.63056   2.63888   2.67451   2.68078   2.69765
 Alpha virt. eigenvalues --    2.72329   2.72877   2.75636   2.78313   2.81632
 Alpha virt. eigenvalues --    2.83531   2.85889   2.89143   2.93342   2.95777
 Alpha virt. eigenvalues --    2.99564   3.01726   3.02773   3.18422   3.23810
 Alpha virt. eigenvalues --    3.41219   3.46072   3.95199   4.00191   4.12279
 Alpha virt. eigenvalues --    4.14118   4.16778   4.19824   4.24656   4.30889
 Alpha virt. eigenvalues --    4.33251   4.34031   4.36183   4.40907   4.50365
 Alpha virt. eigenvalues --    4.54505   4.70431   4.76668   4.80749
          Condensed to atoms (all electrons):
               1          2          3          4          5          6
     1  C    5.228595   0.359185   0.360557   0.346939   0.333230  -0.068738
     2  H    0.359185   0.565387  -0.021252  -0.021573  -0.031790  -0.003690
     3  H    0.360557  -0.021252   0.590275  -0.054167  -0.021126   0.005548
     4  H    0.346939  -0.021573  -0.054167   0.609370  -0.017793  -0.005764
     5  C    0.333230  -0.031790  -0.021126  -0.017793   5.003308   0.348501
     6  C   -0.068738  -0.003690   0.005548  -0.005764   0.348501   5.217248
     7  H   -0.006874   0.000022   0.000007   0.004136  -0.026794   0.363393
     8  H    0.006490  -0.000183  -0.000201   0.000020  -0.026266   0.359637
     9  H   -0.004170   0.003551  -0.000047   0.000148  -0.021942   0.353534
    10  C   -0.035295   0.003860  -0.003706  -0.004141   0.358016  -0.058527
    11  C   -0.014339   0.000397   0.000922   0.001923  -0.044723   0.000496
    12  C    0.000059  -0.000000  -0.000000   0.000027   0.005584  -0.000300
    13  C   -0.000013   0.000000  -0.000000   0.000001   0.000446   0.000095
    14  O   -0.000000  -0.000000   0.000000  -0.000000   0.000001   0.000000
    15  H   -0.000000   0.000000   0.000000  -0.000000  -0.000001   0.000000
    16  C   -0.000153   0.000002   0.000001  -0.000007   0.006215  -0.000305
    17  C    0.006972  -0.000143  -0.000088  -0.000264  -0.057825  -0.017652
    18  H    0.000304  -0.000018  -0.000000  -0.000008  -0.010481  -0.000966
    19  H    0.000002  -0.000000   0.000000   0.000000  -0.000168  -0.000005
    20  H    0.000003  -0.000000  -0.000001  -0.000000  -0.000129   0.000001
    21  H    0.008424  -0.000191   0.001519   0.001562  -0.014916   0.000290
    22  C   -0.047718   0.000938  -0.005641   0.004391   0.358991  -0.036827
    23  C   -0.007794   0.000467   0.003600   0.000159  -0.060177   0.006009
    24  H    0.000195   0.000031   0.002462  -0.000076  -0.005592   0.000131
    25  C    0.000165  -0.000079  -0.000016   0.000001   0.004299  -0.000139
    26  H   -0.000003   0.000001   0.000002  -0.000000  -0.000189   0.000002
    27  C    0.000007  -0.000011  -0.000004  -0.000000   0.000536  -0.000003
    28  O    0.000000   0.000000  -0.000000   0.000000   0.000001   0.000000
    29  C   -0.000127  -0.000039   0.000006   0.000001   0.005592   0.000007
    30  H    0.000002   0.000001   0.000000  -0.000000  -0.000153   0.000002
    31  C    0.002179   0.000903  -0.000147  -0.000058  -0.041478  -0.012156
    32  H    0.000160  -0.000037  -0.000004  -0.000004  -0.014539   0.006296
               7          8          9         10         11         12
     1  C   -0.006874   0.006490  -0.004170  -0.035295  -0.014339   0.000059
     2  H    0.000022  -0.000183   0.003551   0.003860   0.000397  -0.000000
     3  H    0.000007  -0.000201  -0.000047  -0.003706   0.000922  -0.000000
     4  H    0.004136   0.000020   0.000148  -0.004141   0.001923   0.000027
     5  C   -0.026794  -0.026266  -0.021942   0.358016  -0.044723   0.005584
     6  C    0.363393   0.359637   0.353534  -0.058527   0.000496  -0.000300
     7  H    0.586165  -0.030214  -0.032447  -0.001100   0.002041  -0.000043
     8  H   -0.030214   0.587284  -0.038106  -0.011428  -0.000186  -0.000024
     9  H   -0.032447  -0.038106   0.595362   0.006241  -0.000055   0.000004
    10  C   -0.001100  -0.011428   0.006241   4.738412   0.534863  -0.018003
    11  C    0.002041  -0.000186  -0.000055   0.534863   5.045603   0.486765
    12  C   -0.000043  -0.000024   0.000004  -0.018003   0.486765   5.056158
    13  C   -0.000027  -0.000036  -0.000001  -0.033580  -0.019584   0.548132
    14  O   -0.000000  -0.000000   0.000000   0.000234   0.003320  -0.068698
    15  H   -0.000000  -0.000000  -0.000000  -0.000010  -0.000240   0.006096
    16  C   -0.000030   0.000030   0.000005  -0.021060  -0.041665  -0.075983
    17  C   -0.000113   0.009984   0.000531   0.515658  -0.064719  -0.044429
    18  H    0.000069   0.002334  -0.000139  -0.040022   0.006407   0.000502
    19  H    0.000001   0.000022  -0.000000   0.003455   0.000743   0.006578
    20  H    0.000003   0.000001  -0.000000   0.003984  -0.039299   0.340299
    21  H   -0.000032  -0.000003  -0.000016  -0.041914   0.349736  -0.044292
    22  C    0.003768  -0.004648  -0.005024  -0.059765   0.001339  -0.000066
    23  C   -0.000103  -0.000134  -0.000070  -0.003116   0.001309  -0.000023
    24  H   -0.000005  -0.000001  -0.000003   0.002786   0.000614   0.000000
    25  C    0.000002   0.000004  -0.000004   0.000455   0.000013  -0.000000
    26  H   -0.000000   0.000000   0.000000   0.000005  -0.000000  -0.000000
    27  C    0.000000  -0.000002  -0.000002   0.000017   0.000001  -0.000000
    28  O   -0.000000   0.000000  -0.000000  -0.000000  -0.000000   0.000000
    29  C    0.000000   0.000024  -0.000038   0.000062   0.000003  -0.000000
    30  H   -0.000000  -0.000000   0.000001  -0.000000  -0.000000   0.000000
    31  C    0.000305   0.001594   0.002301  -0.004062  -0.000280   0.000002
    32  H   -0.000116   0.001516   0.002174   0.000377  -0.000001   0.000000
              13         14         15         16         17         18
     1  C   -0.000013  -0.000000  -0.000000  -0.000153   0.006972   0.000304
     2  H    0.000000  -0.000000   0.000000   0.000002  -0.000143  -0.000018
     3  H   -0.000000   0.000000   0.000000   0.000001  -0.000088  -0.000000
     4  H    0.000001  -0.000000  -0.000000  -0.000007  -0.000264  -0.000008
     5  C    0.000446   0.000001  -0.000001   0.006215  -0.057825  -0.010481
     6  C    0.000095   0.000000   0.000000  -0.000305  -0.017652  -0.000966
     7  H   -0.000027  -0.000000  -0.000000  -0.000030  -0.000113   0.000069
     8  H   -0.000036  -0.000000  -0.000000   0.000030   0.009984   0.002334
     9  H   -0.000001   0.000000  -0.000000   0.000005   0.000531  -0.000139
    10  C   -0.033580   0.000234  -0.000010  -0.021060   0.515658  -0.040022
    11  C   -0.019584   0.003320  -0.000240  -0.041665  -0.064719   0.006407
    12  C    0.548132  -0.068698   0.006096  -0.075983  -0.044429   0.000502
    13  C    4.487308   0.297643  -0.033356   0.498285  -0.007304   0.002516
    14  O    0.297643   8.224647   0.251839  -0.065354   0.003864  -0.000049
    15  H   -0.033356   0.251839   0.345744  -0.007424   0.000362  -0.000012
    16  C    0.498285  -0.065354  -0.007424   5.162375   0.443125  -0.037551
    17  C   -0.007304   0.003864   0.000362   0.443125   5.095888   0.346807
    18  H    0.002516  -0.000049  -0.000012  -0.037551   0.346807   0.570661
    19  H   -0.045657  -0.003235   0.004219   0.341844  -0.034997  -0.004750
    20  H   -0.040576  -0.000962  -0.000472   0.008497   0.000364   0.000015
    21  H    0.003723  -0.000062   0.000007   0.000036   0.008038  -0.000215
    22  C   -0.000042  -0.000000  -0.000000   0.000877  -0.006130   0.010428
    23  C   -0.000001   0.000000   0.000000   0.000011  -0.002251   0.000976
    24  H    0.000001   0.000000   0.000000  -0.000030   0.000518   0.000012
    25  C    0.000000   0.000000   0.000000  -0.000016   0.000075  -0.000367
    26  H   -0.000000   0.000000   0.000000  -0.000000   0.000001  -0.000001
    27  C    0.000000  -0.000000   0.000000  -0.000001  -0.000032   0.000017
    28  O   -0.000000  -0.000000  -0.000000   0.000000   0.000000   0.000000
    29  C    0.000000   0.000000   0.000000  -0.000004  -0.000220   0.000291
    30  H    0.000000   0.000000   0.000000   0.000000  -0.000000  -0.000000
    31  C    0.000000   0.000000  -0.000000   0.000118   0.000237   0.005917
    32  H   -0.000000   0.000000   0.000000  -0.000009  -0.000298   0.000091
              19         20         21         22         23         24
     1  C    0.000002   0.000003   0.008424  -0.047718  -0.007794   0.000195
     2  H   -0.000000  -0.000000  -0.000191   0.000938   0.000467   0.000031
     3  H    0.000000  -0.000001   0.001519  -0.005641   0.003600   0.002462
     4  H    0.000000  -0.000000   0.001562   0.004391   0.000159  -0.000076
     5  C   -0.000168  -0.000129  -0.014916   0.358991  -0.060177  -0.005592
     6  C   -0.000005   0.000001   0.000290  -0.036827   0.006009   0.000131
     7  H    0.000001   0.000003  -0.000032   0.003768  -0.000103  -0.000005
     8  H    0.000022   0.000001  -0.000003  -0.004648  -0.000134  -0.000001
     9  H   -0.000000  -0.000000  -0.000016  -0.005024  -0.000070  -0.000003
    10  C    0.003455   0.003984  -0.041914  -0.059765  -0.003116   0.002786
    11  C    0.000743  -0.039299   0.349736   0.001339   0.001309   0.000614
    12  C    0.006578   0.340299  -0.044292  -0.000066  -0.000023   0.000000
    13  C   -0.045657  -0.040576   0.003723  -0.000042  -0.000001   0.000001
    14  O   -0.003235  -0.000962  -0.000062  -0.000000   0.000000   0.000000
    15  H    0.004219  -0.000472   0.000007  -0.000000   0.000000   0.000000
    16  C    0.341844   0.008497   0.000036   0.000877   0.000011  -0.000030
    17  C   -0.034997   0.000364   0.008038  -0.006130  -0.002251   0.000518
    18  H   -0.004750   0.000015  -0.000215   0.010428   0.000976   0.000012
    19  H    0.608285  -0.000239   0.000017   0.000015  -0.000001  -0.000001
    20  H   -0.000239   0.612186  -0.004832   0.000002   0.000000  -0.000000
    21  H    0.000017  -0.004832   0.608759   0.000298  -0.000082  -0.000046
    22  C    0.000015   0.000002   0.000298   4.870742   0.481573  -0.044290
    23  C   -0.000001   0.000000  -0.000082   0.481573   5.141369   0.341362
    24  H   -0.000001  -0.000000  -0.000046  -0.044290   0.341362   0.637689
    25  C   -0.000000  -0.000000  -0.000001  -0.021968   0.404725  -0.036718
    26  H    0.000000  -0.000000   0.000000   0.004790  -0.052234  -0.008125
    27  C   -0.000000   0.000000   0.000000  -0.039503   0.011970   0.003183
    28  O    0.000000   0.000000   0.000000   0.000223   0.006852  -0.000114
    29  C   -0.000000  -0.000000  -0.000000  -0.023775  -0.047602   0.000437
    30  H   -0.000000  -0.000000  -0.000000   0.005981  -0.000389   0.000028
    31  C    0.000001   0.000000   0.000003   0.523798  -0.046392   0.004361
    32  H    0.000000  -0.000000   0.000000  -0.046513   0.005971  -0.000152
              25         26         27         28         29         30
     1  C    0.000165  -0.000003   0.000007   0.000000  -0.000127   0.000002
     2  H   -0.000079   0.000001  -0.000011   0.000000  -0.000039   0.000001
     3  H   -0.000016   0.000002  -0.000004  -0.000000   0.000006   0.000000
     4  H    0.000001  -0.000000  -0.000000   0.000000   0.000001  -0.000000
     5  C    0.004299  -0.000189   0.000536   0.000001   0.005592  -0.000153
     6  C   -0.000139   0.000002  -0.000003   0.000000   0.000007   0.000002
     7  H    0.000002  -0.000000   0.000000  -0.000000   0.000000  -0.000000
     8  H    0.000004   0.000000  -0.000002   0.000000   0.000024  -0.000000
     9  H   -0.000004   0.000000  -0.000002  -0.000000  -0.000038   0.000001
    10  C    0.000455   0.000005   0.000017  -0.000000   0.000062  -0.000000
    11  C    0.000013  -0.000000   0.000001  -0.000000   0.000003  -0.000000
    12  C   -0.000000  -0.000000  -0.000000   0.000000  -0.000000   0.000000
    13  C    0.000000  -0.000000   0.000000  -0.000000   0.000000   0.000000
    14  O    0.000000   0.000000  -0.000000  -0.000000   0.000000   0.000000
    15  H    0.000000   0.000000   0.000000  -0.000000   0.000000   0.000000
    16  C   -0.000016  -0.000000  -0.000001   0.000000  -0.000004   0.000000
    17  C    0.000075   0.000001  -0.000032   0.000000  -0.000220  -0.000000
    18  H   -0.000367  -0.000001   0.000017   0.000000   0.000291  -0.000000
    19  H   -0.000000   0.000000  -0.000000   0.000000  -0.000000  -0.000000
    20  H   -0.000000  -0.000000   0.000000   0.000000  -0.000000  -0.000000
    21  H   -0.000001   0.000000   0.000000   0.000000  -0.000000  -0.000000
    22  C   -0.021968   0.004790  -0.039503   0.000223  -0.023775   0.005981
    23  C    0.404725  -0.052234   0.011970   0.006852  -0.047602  -0.000389
    24  H   -0.036718  -0.008125   0.003183  -0.000114   0.000437   0.000028
    25  C    5.299638   0.334482   0.423754  -0.075789  -0.060794   0.012164
    26  H    0.334482   0.673816  -0.040736   0.000068   0.009238  -0.000220
    27  C    0.423754  -0.040736   4.361275   0.417991   0.471703  -0.041873
    28  O   -0.075789   0.000068   0.417991   8.591574  -0.076721   0.001819
    29  C   -0.060794   0.009238   0.471703  -0.076721   5.311487   0.322688
    30  H    0.012164  -0.000220  -0.041873   0.001819   0.322688   0.695886
    31  C   -0.046617   0.000128   0.007950   0.008497   0.362683  -0.055528
    32  H    0.000075   0.000026   0.003819  -0.000114  -0.040998  -0.008805
              31         32
     1  C    0.002179   0.000160
     2  H    0.000903  -0.000037
     3  H   -0.000147  -0.000004
     4  H   -0.000058  -0.000004
     5  C   -0.041478  -0.014539
     6  C   -0.012156   0.006296
     7  H    0.000305  -0.000116
     8  H    0.001594   0.001516
     9  H    0.002301   0.002174
    10  C   -0.004062   0.000377
    11  C   -0.000280  -0.000001
    12  C    0.000002   0.000000
    13  C    0.000000  -0.000000
    14  O    0.000000   0.000000
    15  H   -0.000000   0.000000
    16  C    0.000118  -0.000009
    17  C    0.000237  -0.000298
    18  H    0.005917   0.000091
    19  H    0.000001   0.000000
    20  H    0.000000  -0.000000
    21  H    0.000003   0.000000
    22  C    0.523798  -0.046513
    23  C   -0.046392   0.005971
    24  H    0.004361  -0.000152
    25  C   -0.046617   0.000075
    26  H    0.000128   0.000026
    27  C    0.007950   0.003819
    28  O    0.008497  -0.000114
    29  C    0.362683  -0.040998
    30  H   -0.055528  -0.008805
    31  C    5.137439   0.344214
    32  H    0.344214   0.646761
 Mulliken charges:
               1
     1  C   -0.468244
     2  H    0.144261
     3  H    0.141500
     4  H    0.135178
     5  C   -0.028637
     6  C   -0.456118
[...]
 Alpha virt. eigenvalues --    2.73086   2.76236   2.77569   2.78676   2.80061
 Alpha virt. eigenvalues --    2.81261   2.84966   2.86676   2.87949   2.88663
 Alpha virt. eigenvalues --    2.89916   2.90966   2.91326   2.95321   2.96955
 Alpha virt. eigenvalues --    2.97764   3.00260   3.01716   3.02411   3.04432
 Alpha virt. eigenvalues --    3.06111   3.06788   3.08886   3.12722   3.13950
 Alpha virt. eigenvalues --    3.15952   3.17017   3.20226   3.20993   3.23186
 Alpha virt. eigenvalues --    3.25143   3.25875   3.27409   3.29180   3.33454
 Alpha virt. eigenvalues --    3.34664   3.36489   3.38560   3.44008   3.49717
 Alpha virt. eigenvalues --    3.52654   3.53984   3.57851   3.59215   3.61808
 Alpha virt. eigenvalues --    3.77522   3.81789   3.83957   3.84914   3.85540
 Alpha virt. eigenvalues --    3.91985   3.96152   4.00002   4.01820   4.03505
 Alpha virt. eigenvalues --    4.04224   4.04249   4.16626   4.25023   4.28841
 Alpha virt. eigenvalues --    4.35722   4.48253   4.76670   5.05660   5.12243
          Condensed to atoms (all electrons):
               1          2          3          4          5          6
     1  C    7.201478  -0.176937   0.419662   0.355741  -1.566459  -1.298176
     2  H   -0.176937   1.836248  -0.339156  -0.439276  -0.227381  -0.163729
     3  H    0.419662  -0.339156   1.453641  -0.294313   0.133342  -0.030042
     4  H    0.355741  -0.439276  -0.294313   1.603412  -0.047075   0.096833
     5  C   -1.566459  -0.227381   0.133342  -0.047075  30.870786  -1.588843
     6  C   -1.298176  -0.163729  -0.030042   0.096833  -1.588843   7.366163
     7  H    0.047968   0.025321   0.016209  -0.045600  -0.333203  -0.303772
     8  H   -0.045989  -0.008443  -0.012312   0.021263   0.470747   0.309279
     9  H   -0.026727  -0.021383   0.008048   0.000268  -0.033274   0.257581
    10  C    1.723185   0.339876   0.013195  -0.061386  -6.799930  -0.908926
    11  C   -0.410231  -0.124714   0.009469  -0.131007  -1.572620  -0.380774
    12  C    0.240252  -0.058573   0.039373   0.168217   0.344971   0.069522
    13  C    0.104360   0.004407   0.011345  -0.028243  -0.535356  -0.167524
    14  O    0.000832  -0.000100   0.000561   0.001212   0.013701   0.004128
    15  H    0.000873   0.000101  -0.000120  -0.000520  -0.009044  -0.002326
    16  C   -0.404779   0.007379  -0.041545   0.002023  -0.292880   0.571372
    17  C   -0.054713   0.076307  -0.017907  -0.070966  -0.845699  -0.067912
    18  H    0.076021   0.005588   0.005496  -0.008182  -0.145399  -0.111578
    19  H   -0.007622  -0.000527  -0.000337   0.001653   0.038859   0.013251
    20  H    0.023207   0.000265   0.001731   0.000379  -0.028436   0.000795
    21  H    0.043351   0.038972  -0.042861  -0.044081  -0.133300   0.044476
    22  C   -1.326230   0.095732  -0.044649   0.137634  -6.702746   1.965112
    23  C   -0.197191   0.026477  -0.150899   0.006652   0.226798  -0.325296
    24  H    0.073700   0.014317  -0.047107   0.001477  -0.175006  -0.013418
    25  C    0.564868   0.006098   0.006660   0.027235  -0.951497  -0.347011
    26  H   -0.012023   0.001195  -0.001297  -0.000831   0.030355  -0.000539
    27  C    0.001201   0.012040  -0.007208  -0.003394  -0.092392   0.039776
    28  O    0.003462  -0.000110   0.000499   0.000293  -0.001256  -0.001501
    29  C   -0.316695  -0.013570  -0.002535  -0.011926  -0.753911   0.343220
    30  H    0.002900  -0.002415   0.000773   0.000940   0.024932   0.024680
    31  C   -0.119089   0.266820  -0.018536  -0.151704  -1.835843  -0.372967
    32  H   -0.017918   0.015469  -0.002146  -0.008137  -0.364638   0.050623
               7          8          9         10         11         12
     1  C    0.047968  -0.045989  -0.026727   1.723185  -0.410231   0.240252
     2  H    0.025321  -0.008443  -0.021383   0.339876  -0.124714  -0.058573
     3  H    0.016209  -0.012312   0.008048   0.013195   0.009469   0.039373
     4  H   -0.045600   0.021263   0.000268  -0.061386  -0.131007   0.168217
     5  C   -0.333203   0.470747  -0.033274  -6.799930  -1.572620   0.344971
     6  C   -0.303772   0.309279   0.257581  -0.908926  -0.380774   0.069522
     7  H    1.951492  -0.434115  -0.364453   0.072304   0.391068  -0.038584
     8  H   -0.434115   1.487566  -0.261687  -0.363390  -0.075087   0.024540
     9  H   -0.364453  -0.261687   1.425229   0.286043  -0.152853   0.000980
    10  C    0.072304  -0.363390   0.286043  31.535629 -16.011110   5.577451
    11  C    0.391068  -0.075087  -0.152853 -16.011110  33.776727 -10.693446
    12  C   -0.038584   0.024540   0.000980   5.577451 -10.693446  18.540171
    13  C    0.048851  -0.017899  -0.008782  -6.241793   6.711131  -5.697058
    14  O   -0.000881   0.000660   0.000225   0.245205  -0.261908   0.042549
    15  H    0.000532  -0.000690  -0.000112  -0.050082   0.099283  -0.140594
    16  C   -0.050767   0.050859   0.024101   4.111422  -7.572116   4.588290
    17  C    0.000605   0.109106  -0.056898 -11.321976   3.055496  -6.236665
    18  H    0.025914  -0.069688  -0.008238   1.021966   0.141437  -0.031332
    19  H   -0.001291   0.000479   0.000507  -0.306082   0.002087   0.015054
    20  H   -0.004306   0.000010   0.000841  -0.434998   0.572076  -1.613919
    21  H   -0.015129   0.016657  -0.008179   1.658397  -2.613958   0.566043
    22  C    0.206712  -0.144399   0.067991   0.641679  -0.662917   0.138309
    23  C    0.076718  -0.018193  -0.069061  -0.634742   0.104940  -0.003301
    24  H    0.000373   0.000206  -0.003104  -0.023063   0.165485   0.007622
    25  C    0.021801  -0.025701  -0.031500   0.159559   0.226860   0.048422
    26  H    0.000162  -0.000197   0.000465  -0.016223  -0.006979  -0.000091
    27  C   -0.000025  -0.001162   0.001136  -0.025199   0.040298  -0.000743
    28  O   -0.000096   0.000436   0.000128   0.003395  -0.000297  -0.000014
    29  C   -0.067756   0.082502   0.104148  -0.109030  -0.159230  -0.017533
    30  H    0.000003   0.002794  -0.000107  -0.008612   0.000888   0.000531
    31  C   -0.069302  -0.053630  -0.044245   0.905308   0.337568  -0.145648
    32  H    0.046279  -0.041768  -0.046754   0.080649  -0.006156  -0.013792
              13         14         15         16         17         18
     1  C    0.104360   0.000832   0.000873  -0.404779  -0.054713   0.076021
     2  H    0.004407  -0.000100   0.000101   0.007379   0.076307   0.005588
     3  H    0.011345   0.000561  -0.000120  -0.041545  -0.017907   0.005496
     4  H   -0.028243   0.001212  -0.000520   0.002023  -0.070966  -0.008182
     5  C   -0.535356   0.013701  -0.009044  -0.292880  -0.845699  -0.145399
     6  C   -0.167524   0.004128  -0.002326   0.571372  -0.067912  -0.111578
     7  H    0.048851  -0.000881   0.000532  -0.050767   0.000605   0.025914
     8  H   -0.017899   0.000660  -0.000690   0.050859   0.109106  -0.069688
     9  H   -0.008782   0.000225  -0.000112   0.024101  -0.056898  -0.008238
    10  C   -6.241793   0.245205  -0.050082   4.111422 -11.321976   1.021966
    11  C    6.711131  -0.261908   0.099283  -7.572116   3.055496   0.141437
    12  C   -5.697058   0.042549  -0.140594   4.588290  -6.236665  -0.031332
    13  C   11.414474  -0.675819  -0.007362  -4.454619   4.157935  -0.245801
    14  O   -0.675819   9.108100   0.306261   0.329523  -0.019836   0.005316
    15  H   -0.007362   0.306261   0.602970  -0.017016   0.041157   0.001702
    16  C   -4.454619   0.329523  -0.017016  18.139859  -8.782976   0.102310
    17  C    4.157935  -0.019836   0.041157  -8.782976  27.875959  -1.404965
    18  H   -0.245801   0.005316   0.001702   0.102310  -1.404965   2.556732
    19  H    0.546585  -0.106287   0.004974  -1.230702   0.772766  -0.118072
    20  H    1.071249  -0.036601  -0.002898   0.002239   0.219974   0.008680
    21  H   -0.585872  -0.007516  -0.000007   0.224292   0.022524  -0.033562
    22  C   -0.262282   0.001842  -0.001492   0.777001  -1.407416  -0.296677
    23  C    0.069863  -0.000811   0.000524   0.099560   0.059778  -0.003612
    24  H    0.011031  -0.000457   0.000157  -0.024523   0.006412   0.015963
    25  C   -0.006855  -0.000352   0.000238  -0.203414   0.086322  -0.045528
    26  H    0.000247   0.000027  -0.000011   0.002993   0.025694   0.002399
    27  C    0.004120  -0.000079   0.000159  -0.032329   0.016515   0.041614
    28  O    0.000046  -0.000000   0.000007  -0.000902  -0.000634   0.000292
    29  C    0.004725   0.000239  -0.000456   0.207577   0.153884  -0.092415
    30  H   -0.000865   0.000008  -0.000020   0.000356  -0.021245  -0.003446
    31  C    0.058858  -0.000087   0.001261  -0.268120  -0.392696   0.263138
    32  H    0.010617  -0.000196   0.000180   0.024342   0.097668   0.011884
              19         20         21         22         23         24
     1  C   -0.007622   0.023207   0.043351  -1.326230  -0.197191   0.073700
     2  H   -0.000527   0.000265   0.038972   0.095732   0.026477   0.014317
     3  H   -0.000337   0.001731  -0.042861  -0.044649  -0.150899  -0.047107
     4  H    0.001653   0.000379  -0.044081   0.137634   0.006652   0.001477
     5  C    0.038859  -0.028436  -0.133300  -6.702746   0.226798  -0.175006
     6  C    0.013251   0.000795   0.044476   1.965112  -0.325296  -0.013418
     7  H   -0.001291  -0.004306  -0.015129   0.206712   0.076718   0.000373
     8  H    0.000479   0.000010   0.016657  -0.144399  -0.018193   0.000206
     9  H    0.000507   0.000841  -0.008179   0.067991  -0.069061  -0.003104
    10  C   -0.306082  -0.434998   1.658397   0.641679  -0.634742  -0.023063
    11  C    0.002087   0.572076  -2.613958  -0.662917   0.104940   0.165485
    12  C    0.015054  -1.613919   0.566043   0.138309  -0.003301   0.007622
    13  C    0.546585   1.071249  -0.585872  -0.262282   0.069863   0.011031
    14  O   -0.106287  -0.036601  -0.007516   0.001842  -0.000811  -0.000457
    15  H    0.004974  -0.002898  -0.000007  -0.001492   0.000524   0.000157
    16  C   -1.230702   0.002239   0.224292   0.777001   0.099560  -0.024523
    17  C    0.772766   0.219974   0.022524  -1.407416   0.059778   0.006412
    18  H   -0.118072   0.008680  -0.033562  -0.296677  -0.003612   0.015963
    19  H    1.963617  -0.018149   0.012682   0.017684   0.005739  -0.000261
    20  H   -0.018149   1.885218  -0.103053  -0.005055  -0.004250  -0.001227
    21  H    0.012682  -0.103053   2.623521   0.176399  -0.018091  -0.002972
    22  C    0.017684  -0.005055   0.176399  26.467210  -7.364437   0.698478
    23  C    0.005739  -0.004250  -0.018091  -7.364437  23.196304  -2.071099
    24  H   -0.000261  -0.001227  -0.002972   0.698478  -2.071099   2.588670
    25  C   -0.000373  -0.001625   0.012030   1.198228  -5.046533   0.914432
    26  H   -0.000290  -0.000020   0.001012  -0.151277   0.705895  -0.140292
    27  C   -0.003113  -0.000181   0.000829  -2.735309   1.159106  -0.107518
    28  O   -0.000165  -0.000000  -0.000078   0.170807  -0.091235  -0.001264
    29  C    0.006741   0.000195   0.002915   2.211681  -2.517694   0.078293
    30  H    0.000091   0.000009  -0.000135   0.033668   0.117195   0.002983
    31  C   -0.015975  -0.000039  -0.011717 -10.149763  -1.585118  -0.115279
    32  H    0.000335  -0.000210  -0.000547   1.099596  -0.090482  -0.017202
              25         26         27         28         29         30
     1  C    0.564868  -0.012023   0.001201   0.003462  -0.316695   0.002900
     2  H    0.006098   0.001195   0.012040  -0.000110  -0.013570  -0.002415
     3  H    0.006660  -0.001297  -0.007208   0.000499  -0.002535   0.000773
     4  H    0.027235  -0.000831  -0.003394   0.000293  -0.011926   0.000940
     5  C   -0.951497   0.030355  -0.092392  -0.001256  -0.753911   0.024932
     6  C   -0.347011  -0.000539   0.039776  -0.001501   0.343220   0.024680
     7  H    0.021801   0.000162  -0.000025  -0.000096  -0.067756   0.000003
     8  H   -0.025701  -0.000197  -0.001162   0.000436   0.082502   0.002794
     9  H   -0.031500   0.000465   0.001136   0.000128   0.104148  -0.000107
    10  C    0.159559  -0.016223  -0.025199   0.003395  -0.109030  -0.008612
    11  C    0.226860  -0.006979   0.040298  -0.000297  -0.159230   0.000888
    12  C    0.048422  -0.000091  -0.000743  -0.000014  -0.017533   0.000531
    13  C   -0.006855   0.000247   0.004120   0.000046   0.004725  -0.000865
    14  O   -0.000352   0.000027  -0.000079  -0.000000   0.000239   0.000008
    15  H    0.000238  -0.000011   0.000159   0.000007  -0.000456  -0.000020
    16  C   -0.203414   0.002993  -0.032329  -0.000902   0.207577   0.000356
    17  C    0.086322   0.025694   0.016515  -0.000634   0.153884  -0.021245
    18  H   -0.045528   0.002399   0.041614   0.000292  -0.092415  -0.003446
    19  H   -0.000373  -0.000290  -0.003113  -0.000165   0.006741   0.000091
    20  H   -0.001625  -0.000020  -0.000181  -0.000000   0.000195   0.000009
    21  H    0.012030   0.001012   0.000829  -0.000078   0.002915  -0.000135
    22  C    1.198228  -0.151277  -2.735309   0.170807   2.211681   0.033668
    23  C   -5.046533   0.705895   1.159106  -0.091235  -2.517694   0.117195
    24  H    0.914432  -0.140292  -0.107518  -0.001264   0.078293   0.002983
    25  C   12.232582  -0.856443  -1.406799   0.124976   1.900101  -0.168675
    26  H   -0.856443   1.820108   0.195713  -0.033893  -0.162178  -0.010870
    27  C   -1.406799   0.195713   8.249394  -0.353896  -1.618624   0.139153
    28  O    0.124976  -0.033893  -0.353896   9.329463   0.122324  -0.020666
    29  C    1.900101  -0.162178  -1.618624   0.122324  12.372753  -0.959367
    30  H   -0.168675  -0.010870   0.139153  -0.020666  -0.959367   1.793372
    31  C   -2.689694   0.155529   2.132448  -0.099264  -5.586579   0.704716
    32  H    0.066862   0.006039  -0.061323  -0.003934   0.659735  -0.112162
              31         32
     1  C   -0.119089  -0.017918
     2  H    0.266820   0.015469
     3  H   -0.018536  -0.002146
     4  H   -0.151704  -0.008137
     5  C   -1.835843  -0.364638
     6  C   -0.372967   0.050623
     7  H   -0.069302   0.046279
     8  H   -0.053630  -0.041768
     9  H   -0.044245  -0.046754
    10  C    0.905308   0.080649
    11  C    0.337568  -0.006156
    12  C   -0.145648  -0.013792
    13  C    0.058858   0.010617
    14  O   -0.000087  -0.000196
    15  H    0.001261   0.000180
    16  C   -0.268120   0.024342
    17  C   -0.392696   0.097668
    18  H    0.263138   0.011884
    19  H   -0.015975   0.000335
    20  H   -0.000039  -0.000210
    21  H   -0.011717  -0.000547
    22  C  -10.149763   1.099596
    23  C   -1.585118  -0.090482
    24  H   -0.115279  -0.017202
    25  C   -2.689694   0.066862
    26  H    0.155529   0.006039
    27  C    2.132448  -0.061323
    28  O   -0.099264  -0.003934
    29  C   -5.586579   0.659735
    30  H    0.704716  -0.112162
    31  C   26.358429  -2.112130
    32  H   -2.112130   2.616215
 Mulliken charges:
               1
     1  C    1.097718
     2  H   -0.196297
     3  H   -0.067033
     4  H   -0.078589
     5  C   -1.118303
     6  C    0.927523
     7  H   -0.203033
     8  H   -0.002752
     9  H   -0.040332
    10  C    0.941278
    11  C    1.200590
    12  C    0.278994
    13  C    0.706285
    14  O   -0.949457
    15  H    0.172373
    16  C    0.111189
    17  C   -0.075596
    18  H   -0.667957
    19  H   -0.593858
    20  H   -0.531900
    21  H   -0.823042
    22  C    1.148884
    23  C    0.336494
    24  H   -0.835806
    25  C    0.184726
    26  H   -0.554377
    27  C    0.415793
    28  O   -1.146926
    29  C    0.138467
    30  H   -0.541404
    31  C    0.653351
    32  H   -0.886999
 Sum of Mulliken charges =  -1.00000
 Mulliken charges with hydrogens summed into heavy atoms:
               1
     1  C    0.755799
     5  C   -1.118303
     6  C    0.681406
    10  C    0.941278
    11  C    0.377547
    12  C   -0.252906
    13  C    0.706285
    14  O   -0.777084
    16  C   -0.482668
    17  C   -0.743553
    22  C    1.148884
    23  C   -0.499312
    25  C   -0.369652
    27  C    0.415793
    28  O   -1.146926
    29  C   -0.402937
    31  C   -0.233649
 Electronic spatial extent (au):  <R**2>=           4842.8089
 Charge=             -1.0000 electrons
 Dipole moment (field-independent basis, Debye):
    X=             14.4587    Y=              4.4178    Z=              1.5577  Tot=             15.1986
 Quadrupole moment (field-independent basis, Debye-Ang):
   XX=           -196.4406   YY=           -114.7276   ZZ=           -107.1795
   XY=            -28.4360   XZ=             -2.0099   YZ=             -5.8253
 Traceless Quadrupole moment (field-independent basis, Debye-Ang):
   XX=            -56.9914   YY=             24.7216   ZZ=             32.2697
   XY=            -28.4360   XZ=             -2.0099   YZ=             -5.8253
 Octapole moment (field-independent basis, Debye-Ang**2):
  XXX=            325.5084  YYY=            -11.5234  ZZZ=              0.3921  XYY=             85.8402
  XXY=            123.9047  XXZ=             29.6465  XZZ=             12.1796  YZZ=             -6.6189
  YYZ=             12.8228  XYZ=            -15.1498
 Hexadecapole moment (field-independent basis, Debye-Ang**3):
 XXXX=          -6976.0451 YYYY=          -1327.6440 ZZZZ=           -647.0473 XXXY=           -662.7555
 XXXZ=            -52.5940 YYYX=           -231.8647 YYYZ=            -41.5493 ZZZX=             -4.7965
 ZZZY=             -0.0773 XXYY=          -1210.6584 XXZZ=           -912.8082 YYZZ=           -327.9584
 XXYZ=           -106.9956 YYXZ=             30.0695 ZZXY=            -19.9900
 N-N= 1.129959728802D+03 E-N=-3.974007286401D+03  KE= 7.258533287769D+02
 Leave Link  601 at Mon Jul 12 15:04:56 2021, MaxMem=   262144000 cpu:               0.4 elap:               0.3
 (Enter /dades/curu/g16A03_MST/g16/l9999.exe)
 1\1\GINC-PIRINEUS26\SP\RMP2-FC\Aug-CC-pVDZ\C15H15O2(1-)\UBATOR02\12-Ju
 l-2021\0\\#p mp2/aug-cc-pVDZ scf=tight maxdisk=180GB geom=allcheck\\SE
 T_328_BBB212_conf1.geo_135_300 geometry\\-1,1\C,0,-0.5396210616,1.5507
 872804,1.8479057887\H,0,-1.3928535196,2.2235629436,1.72873986\H,0,0.36
 61543725,2.1104394954,1.5985138636\H,0,-0.4872134859,1.2607525697,2.90
 38570019\C,0,-0.7175360215,0.3334780196,0.9150637981\C,0,-1.9712474291
 ,-0.4334352313,1.3861868232\H,0,-1.8280739602,-0.7901614488,2.41018252
 24\H,0,-2.1719416104,-1.3009233228,0.7527347576\H,0,-2.8572777492,0.21
 14410148,1.3689762692\C,0,0.4772076599,-0.632182609,1.0204773707\C,0,1
 .3471348666,-0.6637697862,2.1174276981\C,0,2.387680581,-1.5881578052,2
 .2066699904\C,0,2.5794863127,-2.5223685488,1.1877720067\O,0,3.61571909
 88,-3.4083125461,1.3211435906\H,0,3.6425631545,-3.9860648868,0.5418184
 802\C,0,1.7218184842,-2.5147534397,0.0828535304\C,0,0.6949449752,-1.57
 75336796,0.0091349468\H,0,0.0497721789,-1.557847107,-0.8620573782\H,0,
 1.8630988738,-3.2315785172,-0.7206149139\H,0,3.0576538598,-1.592298030
 9,3.0589920598\H,0,1.2240922321,0.047276145,2.925560445\C,0,-0.8695232
 36,0.8384808179,-0.5241407288\C,0,0.1486496316,1.6180274079,-1.1063014
 448\H,0,1.0418960336,1.8277444012,-0.5209088994\C,0,0.0536812395,2.126
 5044816,-2.3929384689\H,0,0.8626754575,2.7250510731,-2.804640885\C,0,-
 1.0917033981,1.8970218801,-3.2348251902\O,0,-1.1865941549,2.3698282714
 ,-4.4252567772\C,0,-2.1113516461,1.0962058971,-2.6191697531\H,0,-3.004
 4408483,0.882841658,-3.2040884616\C,0,-1.9961802166,0.5960864118,-1.32
 43560579\H,0,-2.8126706747,-0.0011428095,-0.9267118443\\Version=ES64L-
 G16RevA.03\State=1-A\HF=-726.5712572\MP2=-729.0728271\RMSD=6.961e-09\P
 G=C01 [X(C15H15O2)]\\@


 The cat could very well be man's best friend
 but would never stoop to admitting it.
                               -- Doug Larson
 Job cpu time:       0 days  2 hours 39 minutes 39.9 seconds.
 Elapsed time:       0 days  0 hours 47 minutes 56.5 seconds.
 File lengths (MBytes):  RWF=  69166 Int=      0 D2E=      0 Chk=     23 Scr=      1
 Normal termination of Gaussian 16 at Mon Jul 12 15:04:58 2021.
