 Entering Gaussian System, Link 0=g16
 Input=SET_328_BBB299_conf1.geo_000_000_OCTANOL.dat
 Output=SET_328_BBB299_conf1.geo_000_000_OCTANOL.log
 Initial command:
 /dades/curu/g16A03_MST/g16/l1.exe "/tmp/ubator02/1835305/Gau-2686.inp" -scrdir="/tmp/ubator02/1835305/"
 Entering Link 1 = /dades/curu/g16A03_MST/g16/l1.exe PID=      2688.
  
 Copyright (c) 1988,1990,1992,1993,1995,1998,2003,2009,2016,
            Gaussian, Inc.  All Rights Reserved.
  
 This is part of the Gaussian(R) 16 program.  It is based on
 the Gaussian(R) 09 system (copyright 2009, Gaussian, Inc.),
 the Gaussian(R) 03 system (copyright 2003, Gaussian, Inc.),
 the Gaussian(R) 98 system (copyright 1998, Gaussian, Inc.),
 the Gaussian(R) 94 system (copyright 1995, Gaussian, Inc.),
 the Gaussian 92(TM) system (copyright 1992, Gaussian, Inc.),
 the Gaussian 90(TM) system (copyright 1990, Gaussian, Inc.),
 the Gaussian 88(TM) system (copyright 1988, Gaussian, Inc.),
 the Gaussian 86(TM) system (copyright 1986, Carnegie Mellon
 University), and the Gaussian 82(TM) system (copyright 1983,
 Carnegie Mellon University). Gaussian is a federally registered
 trademark of Gaussian, Inc.
  
 This software contains proprietary and confidential information,
 including trade secrets, belonging to Gaussian, Inc.
  
 This software is provided under written license and may be
 used, copied, transmitted, or stored only in accord with that
 written license.
  
 The following legend is applicable only to US Government
 contracts under FAR:
  
                    RESTRICTED RIGHTS LEGEND
  
 Use, reproduction and disclosure by the US Government is
 subject to restrictions as set forth in subparagraphs (a)
 and (c) of the Commercial Computer Software - Restricted
 Rights clause in FAR 52.227-19.
  
 Gaussian, Inc.
 340 Quinnipiac St., Bldg. 40, Wallingford CT 06492
  
  
 ---------------------------------------------------------------
 Warning -- This program may not be used in any manner that
 competes with the business of Gaussian, Inc. or will provide
 assistance to any competitor of Gaussian, Inc.  The licensee
 of this program is prohibited from giving any competitor of
 Gaussian, Inc. access to this program.  By using this program,
 the user acknowledges that Gaussian, Inc. is engaged in the
 business of creating and licensing software in the field of
 computational chemistry and represents and warrants to the
 licensee that it is not a competitor of Gaussian, Inc. and that
 it will not use this program in any manner prohibited above.
 ---------------------------------------------------------------
  

 Cite this work as:
 Gaussian 16, Revision A.03,
 M. J. Frisch, G. W. Trucks, H. B. Schlegel, G. E. Scuseria, 
 M. A. Robb, J. R. Cheeseman, G. Scalmani, V. Barone, 
 G. A. Petersson, H. Nakatsuji, X. Li, M. Caricato, A. V. Marenich, 
 J. Bloino, B. G. Janesko, R. Gomperts, B. Mennucci, H. P. Hratchian, 
 J. V. Ortiz, A. F. Izmaylov, J. L. Sonnenberg, D. Williams-Young, 
 F. Ding, F. Lipparini, F. Egidi, J. Goings, B. Peng, A. Petrone, 
 T. Henderson, D. Ranasinghe, V. G. Zakrzewski, J. Gao, N. Rega, 
 G. Zheng, W. Liang, M. Hada, M. Ehara, K. Toyota, R. Fukuda, 
 J. Hasegawa, M. Ishida, T. Nakajima, Y. Honda, O. Kitao, H. Nakai, 
 T. Vreven, K. Throssell, J. A. Montgomery, Jr., J. E. Peralta, 
 F. Ogliaro, M. J. Bearpark, J. J. Heyd, E. N. Brothers, K. N. Kudin, 
 V. N. Staroverov, T. A. Keith, R. Kobayashi, J. Normand, 
 K. Raghavachari, A. P. Rendell, J. C. Burant, S. S. Iyengar, 
 J. Tomasi, M. Cossi, J. M. Millam, M. Klene, C. Adamo, R. Cammi, 
 J. W. Ochterski, R. L. Martin, K. Morokuma, O. Farkas, 
 J. B. Foresman, and D. J. Fox, Gaussian, Inc., Wallingford CT, 2016.
 
 ******************************************
 Gaussian 16:  ES64L-G16RevA.03 25-Dec-2016
                12-Jul-2021 
 ******************************************
 %mem=800MB
 %nproc=4
 Will use up to    4 processors via shared memory.
 %chk=SET_328_BBB299_conf1.geo_000_000.chk
 ---------------------------------------------------------------
 #p b3lyp/6-31G(d) opt freq scrf=(iefpcm,read,solvent=n-octanol)
 ---------------------------------------------------------------
 1/18=20,19=15,26=3,38=1,40=2/1,3;
 2/9=110,12=2,17=6,18=5,40=1/2;
 3/5=1,6=6,7=1,11=2,25=1,30=1,70=2203,71=1,72=25,74=-5/1,2,3;
 4//1;
 5/5=2,38=5,53=25/2;
 6/7=2,8=2,9=2,10=2,28=1/1;
 7//1,2,3,16;
 1/18=20,19=15,26=3/3(2);
 2/9=110/2;
 99//99;
 2/9=110/2;
 3/5=1,6=6,7=1,11=2,25=1,30=1,70=2205,71=1,72=25,74=-5/1,2,3;
 4/5=5,16=3,69=1/1;
 5/5=2,38=5,53=25/2;
 7//1,2,3,16;
 1/18=20,19=15,26=3/3(-5);
 2/9=110/2;
 6/7=2,8=2,9=2,10=2,19=2,28=1/1;
 99/9=1/99;
 Leave Link    1 at Mon Jul 12 12:45:57 2021, MaxMem=   104857600 cpu:               0.0 elap:               0.0
 (Enter /dades/curu/g16A03_MST/g16/l101.exe)
 -----------------------------------------
 SET_328_BBB299_conf1.geo_000_000 geometry
 -----------------------------------------
 Symbolic Z-matrix:
 Charge = -1 Multiplicity = 1
 O                    -2.703    -0.959     0.209 
 C                    -1.914    -0.098     0.844 
 O                    -2.348     0.638     1.691 
 C                    -0.454     0.023     0.394 
 C                     0.094    -0.724    -0.678 
 O                    -0.507    -1.756    -1.203 
 H                    -1.315    -1.783    -0.66 
 C                     1.338    -0.489    -1.18 
 H                     1.635    -1.141    -1.997 
 C                     2.214     0.421    -0.622 
 H                     3.215     0.537    -1.03 
 C                     1.689     1.21      0.38 
 H                     2.313     2.04      0.702 
 C                     0.339     1.114     0.855 
 H                    -0.041     1.747     1.653 
 
 ITRead=  0  0  0  0  0  0  0  0  0  0  0  0  0  0  0
 MicOpt= -1 -1 -1 -1 -1 -1 -1 -1 -1 -1 -1 -1 -1 -1 -1
 NAtoms=     15 NQM=       15 NQMF=       0 NMMI=      0 NMMIF=      0
                NMic=       0 NMicF=      0.
                    Isotopes and Nuclear Properties:
 (Nuclear quadrupole moments (NQMom) in fm**2, nuclear magnetic moments (NMagM)
  in nuclear magnetons)

  Atom         1           2           3           4           5           6           7           8           9          10
 IAtWgt=          16          12          16          12          12          16           1          12           1          12
 AtmWgt=  15.9949146  12.0000000  15.9949146  12.0000000  12.0000000  15.9949146   1.0078250  12.0000000   1.0078250  12.0000000
 NucSpn=           0           0           0           0           0           0           1           0           1           0
 AtZEff=  -0.0000000  -0.0000000  -0.0000000  -0.0000000  -0.0000000  -0.0000000  -0.0000000  -0.0000000  -0.0000000  -0.0000000
 NQMom=    0.0000000   0.0000000   0.0000000   0.0000000   0.0000000   0.0000000   0.0000000   0.0000000   0.0000000   0.0000000
 NMagM=    0.0000000   0.0000000   0.0000000   0.0000000   0.0000000   0.0000000   2.7928460   0.0000000   2.7928460   0.0000000
 AtZNuc=   8.0000000   6.0000000   8.0000000   6.0000000   6.0000000   8.0000000   1.0000000   6.0000000   1.0000000   6.0000000

  Atom        11          12          13          14          15
 IAtWgt=           1          12           1          12           1
 AtmWgt=   1.0078250  12.0000000   1.0078250  12.0000000   1.0078250
 NucSpn=           1           0           1           0           1
 AtZEff=  -0.0000000  -0.0000000  -0.0000000  -0.0000000  -0.0000000
 NQMom=    0.0000000   0.0000000   0.0000000   0.0000000   0.0000000
 NMagM=    2.7928460   0.0000000   2.7928460   0.0000000   2.7928460
 AtZNuc=   1.0000000   6.0000000   1.0000000   6.0000000   1.0000000
 Leave Link  101 at Mon Jul 12 12:45:57 2021, MaxMem=   104857600 cpu:               0.1 elap:               0.1
 (Enter /dades/curu/g16A03_MST/g16/l103.exe)

 GradGradGradGradGradGradGradGradGradGradGradGradGradGradGradGradGradGrad
 Berny optimization.
 Initialization pass.
                           ----------------------------
                           !    Initial Parameters    !
                           ! (Angstroms and Degrees)  !
 --------------------------                            --------------------------
 ! Name  Definition              Value          Derivative Info.                !
 --------------------------------------------------------------------------------
 ! R1    R(1,2)                  1.3293         estimate D2E/DX2                !
 ! R2    R(2,3)                  1.2031         estimate D2E/DX2                !
 ! R3    R(2,4)                  1.5326         estimate D2E/DX2                !
 ! R4    R(4,5)                  1.4169         estimate D2E/DX2                !
 ! R5    R(4,14)                 1.4254         estimate D2E/DX2                !
 ! R6    R(5,6)                  1.3045         estimate D2E/DX2                !
 ! R7    R(5,8)                  1.3619         estimate D2E/DX2                !
 ! R8    R(6,7)                  0.9739         estimate D2E/DX2                !
 ! R9    R(8,9)                  1.0866         estimate D2E/DX2                !
 ! R10   R(8,10)                 1.3809         estimate D2E/DX2                !
 ! R11   R(10,11)                1.0872         estimate D2E/DX2                !
 ! R12   R(10,12)                1.3792         estimate D2E/DX2                !
 ! R13   R(12,13)                1.0872         estimate D2E/DX2                !
 ! R14   R(12,14)                1.4343         estimate D2E/DX2                !
 ! R15   R(14,15)                1.0871         estimate D2E/DX2                !
 ! A1    A(1,2,3)              121.2266         estimate D2E/DX2                !
 ! A2    A(1,2,4)              118.445          estimate D2E/DX2                !
 ! A3    A(3,2,4)              120.1371         estimate D2E/DX2                !
 ! A4    A(2,4,5)              123.2978         estimate D2E/DX2                !
 ! A5    A(2,4,14)             119.7011         estimate D2E/DX2                !
 ! A6    A(5,4,14)             115.6627         estimate D2E/DX2                !
 ! A7    A(4,5,6)              122.9137         estimate D2E/DX2                !
 ! A8    A(4,5,8)              122.7654         estimate D2E/DX2                !
 ! A9    A(6,5,8)              114.1406         estimate D2E/DX2                !
 ! A10   A(5,6,7)              100.3565         estimate D2E/DX2                !
 ! A11   A(5,8,9)              115.0405         estimate D2E/DX2                !
 ! A12   A(5,8,10)             122.9716         estimate D2E/DX2                !
 ! A13   A(9,8,10)             121.7245         estimate D2E/DX2                !
 ! A14   A(8,10,11)            120.1831         estimate D2E/DX2                !
 ! A15   A(8,10,12)            115.4101         estimate D2E/DX2                !
 ! A16   A(11,10,12)           124.2014         estimate D2E/DX2                !
 ! A17   A(10,12,13)           115.6863         estimate D2E/DX2                !
 ! A18   A(10,12,14)           124.096          estimate D2E/DX2                !
 ! A19   A(13,12,14)           119.5528         estimate D2E/DX2                !
 ! A20   A(4,14,12)            117.8889         estimate D2E/DX2                !
 ! A21   A(4,14,15)            119.2493         estimate D2E/DX2                !
 ! A22   A(12,14,15)           122.2149         estimate D2E/DX2                !
 ! D1    D(1,2,4,5)              0.8922         estimate D2E/DX2                !
 ! D2    D(1,2,4,14)           167.0993         estimate D2E/DX2                !
 ! D3    D(3,2,4,5)           -174.1432         estimate D2E/DX2                !
 ! D4    D(3,2,4,14)            -7.9361         estimate D2E/DX2                !
 ! D5    D(2,4,5,6)            -13.7769         estimate D2E/DX2                !
 ! D6    D(2,4,5,8)            171.3919         estimate D2E/DX2                !
 ! D7    D(14,4,5,6)           179.5057         estimate D2E/DX2                !
 ! D8    D(14,4,5,8)             4.6745         estimate D2E/DX2                !
 ! D9    D(2,4,14,12)         -178.2892         estimate D2E/DX2                !
 ! D10   D(2,4,14,15)           10.7219         estimate D2E/DX2                !
 ! D11   D(5,4,14,12)          -11.0617         estimate D2E/DX2                !
 ! D12   D(5,4,14,15)          177.9494         estimate D2E/DX2                !
 ! D13   D(4,5,6,7)              0.0381         estimate D2E/DX2                !
 ! D14   D(8,5,6,7)            175.2761         estimate D2E/DX2                !
 ! D15   D(4,5,8,9)            179.5735         estimate D2E/DX2                !
 ! D16   D(4,5,8,10)             5.3834         estimate D2E/DX2                !
 ! D17   D(6,5,8,9)              4.3275         estimate D2E/DX2                !
 ! D18   D(6,5,8,10)          -169.8626         estimate D2E/DX2                !
 ! D19   D(5,8,10,11)          176.941          estimate D2E/DX2                !
 ! D20   D(5,8,10,12)           -8.0515         estimate D2E/DX2                !
 ! D21   D(9,8,10,11)            3.1309         estimate D2E/DX2                !
 ! D22   D(9,8,10,12)          178.1384         estimate D2E/DX2                !
 ! D23   D(8,10,12,13)        -169.7109         estimate D2E/DX2                !
 ! D24   D(8,10,12,14)           0.8698         estimate D2E/DX2                !
 ! D25   D(11,10,12,13)          5.0705         estimate D2E/DX2                !
 ! D26   D(11,10,12,14)        175.6512         estimate D2E/DX2                !
 ! D27   D(10,12,14,4)           8.8071         estimate D2E/DX2                !
 ! D28   D(10,12,14,15)        179.5119         estimate D2E/DX2                !
 ! D29   D(13,12,14,4)         179.0458         estimate D2E/DX2                !
 ! D30   D(13,12,14,15)        -10.2494         estimate D2E/DX2                !
 --------------------------------------------------------------------------------
 Trust Radius=3.00D-01 FncErr=1.00D-07 GrdErr=1.00D-06 EigMax=2.50D+02 EigMin=1.00D-04
 Number of steps in this run=     77 maximum allowed number of steps=    100.
 GradGradGradGradGradGradGradGradGradGradGradGradGradGradGradGradGradGrad

 Leave Link  103 at Mon Jul 12 12:45:57 2021, MaxMem=   104857600 cpu:               0.0 elap:               0.2
 (Enter /dades/curu/g16A03_MST/g16/l202.exe)
                          Input orientation:                          
 ---------------------------------------------------------------------
 Center     Atomic      Atomic             Coordinates (Angstroms)
 Number     Number       Type             X           Y           Z
 ---------------------------------------------------------------------
      1          8           0       -2.703000   -0.959000    0.209000
      2          6           0       -1.914000   -0.098000    0.844000
      3          8           0       -2.348000    0.638000    1.691000
      4          6           0       -0.454000    0.023000    0.394000
      5          6           0        0.094000   -0.724000   -0.678000
      6          8           0       -0.507000   -1.756000   -1.203000
      7          1           0       -1.315000   -1.783000   -0.660000
      8          6           0        1.338000   -0.489000   -1.180000
      9          1           0        1.635000   -1.141000   -1.997000
     10          6           0        2.214000    0.421000   -0.622000
     11          1           0        3.215000    0.537000   -1.030000
     12          6           0        1.689000    1.210000    0.380000
     13          1           0        2.313000    2.040000    0.702000
     14          6           0        0.339000    1.114000    0.855000
     15          1           0       -0.041000    1.747000    1.653000
 ---------------------------------------------------------------------
                    Distance matrix (angstroms):
                    1          2          3          4          5
     1  O    0.000000
     2  C    1.329311   0.000000
     3  O    2.207432   1.203105   0.000000
     4  C    2.461006   1.532560   2.376483   0.000000
     5  C    2.943672   2.596233   3.664774   1.416862   0.000000
     6  O    2.729720   2.986440   4.182792   2.391246   1.304550
     7  H    1.833216   2.336673   3.529239   2.261387   1.762693
     8  C    4.298826   3.850320   4.806180   2.439443   1.361898
     9  H    4.870093   4.664175   5.712309   3.381671   2.070829
    10  C    5.174152   4.411224   5.119463   2.882513   2.410096
    11  H    6.228632   5.497430   6.193627   3.969072   3.384474
    12  C    4.901374   3.861058   4.282905   2.449819   2.720982
    13  H    5.864922   4.739065   4.966754   3.437942   3.803690
    14  C    3.737433   2.558334   2.854022   1.425360   2.405901
    15  H    4.061258   2.750752   2.559995   2.174356   3.399651
                    6          7          8          9         10
     6  O    0.000000
     7  H    0.973880   0.000000
     8  C    2.238268   2.997206   0.000000
     9  H    2.365761   3.301853   1.086647   0.000000
    10  C    3.532808   4.160877   1.380884   2.160025   0.000000
    11  H    4.375050   5.102960   2.144366   2.499435   1.087162
    12  C    4.015652   4.366196   2.333110   3.343687   1.379185
    13  H    5.098141   5.443598   3.299756   4.226470   2.093786
    14  C    3.631526   3.663816   2.776479   3.859863   2.485438
    15  H    4.543666   4.408395   3.863577   4.946920   3.466832
                   11         12         13         14         15
    11  H    0.000000
    12  C    2.183965   0.000000
    13  H    2.464232   1.087180   0.000000
    14  C    3.486765   1.434343   2.185763   0.000000
    15  H    4.389092   2.214000   2.555693   1.087149   0.000000
 Stoichiometry    C7H5O3(1-)
 Framework group  C1[X(C7H5O3)]
 Deg. of freedom    39
 Full point group                 C1      NOp   1
 Largest Abelian subgroup         C1      NOp   1
 Largest concise Abelian subgroup C1      NOp   1
                         Standard orientation:                         
 ---------------------------------------------------------------------
 Center     Atomic      Atomic             Coordinates (Angstroms)
 Number     Number       Type             X           Y           Z
 ---------------------------------------------------------------------
      1          8           0       -2.464906    0.791673    0.128350
      2          6           0       -1.793085   -0.345224   -0.023929
      3          8           0       -2.355549   -1.408669   -0.010549
      4          6           0       -0.263689   -0.284603   -0.101480
      5          6           0        0.473070    0.921435   -0.000710
      6          8           0       -0.079303    2.099514   -0.094847
      7          1           0       -1.009499    1.846219   -0.232760
      8          6           0        1.830933    0.949393    0.100249
      9          1           0        2.267091    1.942665    0.163337
     10          6           0        2.615070   -0.183268    0.005122
     11          1           0        3.698588   -0.102683    0.042743
     12          6           0        1.927215   -1.378240   -0.027246
     13          1           0        2.534453   -2.274383    0.073499
     14          6           0        0.497372   -1.484303    0.013232
     15          1           0       -0.013881   -2.443095   -0.021874
 ---------------------------------------------------------------------
 Rotational constants (GHZ):           2.4715068           1.1895465           0.8049802
 Leave Link  202 at Mon Jul 12 12:45:57 2021, MaxMem=   104857600 cpu:               0.1 elap:               0.1
 (Enter /dades/curu/g16A03_MST/g16/l301.exe)
 Standard basis: 6-31G(d) (6D, 7F)
 Ernie: Thresh=  0.10000D-02 Tol=  0.10000D-05 Strict=F.
 There are   160 symmetry adapted cartesian basis functions of A   symmetry.
 There are   160 symmetry adapted basis functions of A   symmetry.
   160 basis functions,   300 primitive gaussians,   160 cartesian basis functions
    36 alpha electrons       36 beta electrons
       nuclear repulsion energy       488.1645849837 Hartrees.
 IExCor=  402 DFT=T Ex+Corr=B3LYP ExCW=0 ScaHFX=  0.200000
 ScaDFX=  0.800000  0.720000  1.000000  0.810000 ScalE2=  1.000000  1.000000
 IRadAn=      5 IRanWt=     -1 IRanGd=            0 ICorTp=0 IEmpDi=  4
 NAtoms=   15 NActive=   15 NUniq=   15 SFac= 1.00D+00 NAtFMM=   60 NAOKFM=F Big=F
 Integral buffers will be    131072 words long.
 Raffenetti 2 integral format.
 Two-electron integral symmetry is turned on.
 Using the following non-standard input for PCM:
 MSTModel=DFT cav MSTCharged
 --- end of non-standard input.
 MST model for solvation energy: B3LYP parametrization.
 MST cavity parameters:
 ISph   IAn     Re0     Alpha   Atom Type   QCorr
 ------------------------------------------------
   1      8     1.40     1.15      O          T
   2      6     1.50     1.15      C          T
   3      8     1.40     1.15      O          T
   4      6     1.50     1.50      C          F
   5      6     1.50     1.50      C          F
   6      8     1.40     1.50      OH         F
   7      1     0.90     1.50      OH         F
   8      6     1.50     1.50      CH         F
   9      1     1.20     1.50      CH         F
  10      6     1.50     1.50      CH         F
  11      1     1.20     1.50      CH         F
  12      6     1.50     1.50      CH         F
  13      1     1.20     1.50      CH         F
  14      6     1.50     1.50      CH         F
  15      1     1.20     1.50      CH         F
 ------------------------------------------------------------------------------
 Polarizable Continuum Model (PCM)
 =================================
 Model                : PCM.
 Atomic radii         : MST.
 Polarization charges : Total charges.
 Charge compensation  : None.
 Solution method      : On-the-fly selection.
 Cavity type          : Scaled VdW (van der Waals Surface) (Alpha=1.500).
 Cavity algorithm     : GePol (No added spheres)
                        Default sphere list used, NSphG=   15.
                        Lebedev-Laikov grids with approx.  5.0 points / Ang**2.
                        Smoothing algorithm: York/Karplus (Gamma=1.0000).
                        Polarization charges: spherical gaussians, with
                                              point-specific exponents (IZeta= 3).
                        Self-potential: point-specific (ISelfS= 7).
                        Self-field    : sphere-specific E.n sum rule (ISelfD= 2).
 1st derivatives      : Analytical E(r).r(x)/FMM algorithm (CHGder, D1EAlg=3).
                        Cavity 1st derivative terms included.
 Solvent              : n-Octanol, Eps=   9.862900 Eps(inf)=   2.043470
 ------------------------------------------------------------------------------
 Spheres list:
 ISph  on   Nord     Re0    Alpha      Xe            Ye            Ze
    1   O      1    1.4000  1.150     -2.464906      0.791673      0.128350
    2   C      2    1.5000  1.150     -1.793085     -0.345224     -0.023929
    3   O      3    1.4000  1.150     -2.355549     -1.408669     -0.010549
    4   C      4    1.5000  1.500     -0.263689     -0.284603     -0.101480
    5   C      5    1.5000  1.500      0.473070      0.921435     -0.000710
    6   O      6    1.4000  1.500     -0.079303      2.099514     -0.094847
    7   H      7    0.9000  1.500     -1.009499      1.846219     -0.232760
    8   C      8    1.5000  1.500      1.830933      0.949393      0.100249
    9   H      9    1.2000  1.500      2.267091      1.942665      0.163337
   10   C     10    1.5000  1.500      2.615070     -0.183268      0.005122
   11   H     11    1.2000  1.500      3.698588     -0.102683      0.042743
   12   C     12    1.5000  1.500      1.927215     -1.378240     -0.027246
   13   H     13    1.2000  1.500      2.534453     -2.274383      0.073499
   14   C     14    1.5000  1.500      0.497372     -1.484303      0.013232
   15   H     15    1.2000  1.500     -0.013881     -2.443095     -0.021874
 ------------------------------------------------------------------------------
 GePol: Number of generator spheres                  =      15
 GePol: Total number of spheres                      =      15
 GePol: Number of exposed spheres                    =      15 (100.00%)
 GePol: Number of points                             =    1591
 GePol: Average weight of points                     =       0.12
 GePol: Minimum weight of points                     =   0.10D-10
 GePol: Maximum weight of points                     =    0.21373
 GePol: Number of points with low weight             =      88
 GePol: Fraction of low-weight points (<1% of avg)   =       5.53%
 GePol: Cavity surface area                          =    185.051 Ang**2
 GePol: Cavity volume                                =    188.182 Ang**3
 Surface areas from nonelectrostatic (unscaled) cavity and vdw tensions:
 Sphere =    1 Type =  O   Surf =       15.569 Tension =       -0.185
 Sphere =    2 Type =  C   Surf =        7.399 Tension =       -0.205
 Sphere =    3 Type =  O   Surf =       16.086 Tension =       -0.185
 Sphere =    4 Type =  C   Surf =        6.680 Tension =       -0.205
 Sphere =    5 Type =  C   Surf =        6.339 Tension =       -0.205
 Sphere =    6 Type =  OH  Surf =       13.926 Tension =       -0.238
 Sphere =    7 Type =  OH  Surf =        2.672 Tension =       -0.238
 Sphere =    8 Type =  CH  Surf =        7.384 Tension =       -0.195
 Sphere =    9 Type =  CH  Surf =       10.022 Tension =       -0.195
 Sphere =   10 Type =  CH  Surf =        7.826 Tension =       -0.195
 Sphere =   11 Type =  CH  Surf =       10.265 Tension =       -0.195
 Sphere =   12 Type =  CH  Surf =        7.778 Tension =       -0.195
 Sphere =   13 Type =  CH  Surf =       10.200 Tension =       -0.195
 Sphere =   14 Type =  CH  Surf =        7.986 Tension =       -0.195
 Sphere =   15 Type =  CH  Surf =       10.097 Tension =       -0.195
 PCM non-electrostatic energy =        -0.0087891285 Hartrees.
 Nuclear repulsion after PCM non-electrostatic terms =      488.1557958552 Hartrees.
 Leave Link  301 at Mon Jul 12 12:45:58 2021, MaxMem=   104857600 cpu:               0.1 elap:               0.2
 (Enter /dades/curu/g16A03_MST/g16/l302.exe)
 NPDir=0 NMtPBC=     1 NCelOv=     1 NCel=       1 NClECP=     1 NCelD=      1
         NCelK=      1 NCelE2=     1 NClLst=     1 CellRange=     0.0.
 One-electron integrals computed using PRISM.
 One-electron integral symmetry used in STVInt
 NBasis=   160 RedAO= T EigKep=  5.56D-04  NBF=   160
 NBsUse=   160 1.00D-06 EigRej= -1.00D+00 NBFU=   160
 Precomputing XC quadrature grid using
 IXCGrd= 4 IRadAn=           5 IRanWt=          -1 IRanGd=           0 AccXCQ= 0.00D+00.
 Generated NRdTot=       0 NPtTot=           0 NUsed=           0 NTot=          32
 NSgBfM=   160   160   160   160   160 MxSgAt=    15 MxSgA2=    15.
 Leave Link  302 at Mon Jul 12 12:45:59 2021, MaxMem=   104857600 cpu:               0.9 elap:               0.4
 (Enter /dades/curu/g16A03_MST/g16/l303.exe)
 DipDrv:  MaxL=1.
 Leave Link  303 at Mon Jul 12 12:45:59 2021, MaxMem=   104857600 cpu:               0.1 elap:               0.1
 (Enter /dades/curu/g16A03_MST/g16/l401.exe)
 ExpMin= 1.61D-01 ExpMax= 5.48D+03 ExpMxC= 8.25D+02 IAcc=3 IRadAn=         5 AccDes= 0.00D+00
 Harris functional with IExCor=  402 and IRadAn=       5 diagonalized for initial guess.
 HarFok:  IExCor=  402 AccDes= 0.00D+00 IRadAn=         5 IDoV= 1 UseB2=F ITyADJ=14
 ICtDFT=  3500011 ScaDFX=  1.000000  1.000000  1.000000  1.000000
 FoFCou: FMM=F IPFlag=           0 FMFlag=      100000 FMFlg1=           0
         NFxFlg=           0 DoJE=T BraDBF=F KetDBF=T FulRan=T
         wScrn=  0.000000 ICntrl=       500 IOpCl=  0 I1Cent=   200000004 NGrid=           0
         NMat0=    1 NMatS0=      1 NMatT0=    0 NMatD0=    1 NMtDS0=    0 NMtDT0=    0
 Petite list used in FoFCou.
 Harris En= -495.676603662724    
 JPrj=0 DoOrth=F DoCkMO=F.
 Leave Link  401 at Mon Jul 12 12:46:01 2021, MaxMem=   104857600 cpu:               8.1 elap:               2.2
 (Enter /dades/curu/g16A03_MST/g16/l502.exe)
 Keep R1 ints in memory in canonical form, NReq=86904867.
 FoFCou: FMM=F IPFlag=           0 FMFlag=           0 FMFlg1=           0
         NFxFlg=           0 DoJE=F BraDBF=F KetDBF=F FulRan=T
         wScrn=  0.000000 ICntrl=       600 IOpCl=  0 I1Cent=           0 NGrid=           0
         NMat0=    1 NMatS0=  12880 NMatT0=    0 NMatD0=    1 NMtDS0=    0 NMtDT0=    0
 Symmetry not used in FoFCou.
 Two-electron integral symmetry not used.
 Closed shell SCF:
 Using DIIS extrapolation, IDIIS=  1040.
 NGot=   104857600 LenX=    21850023 LenY=    21823982
 Requested convergence on RMS density matrix=1.00D-08 within 128 cycles.
 Requested convergence on MAX density matrix=1.00D-06.
 Requested convergence on             energy=1.00D-06.
 No special actions if energy rises.

 Cycle   1  Pass 1  IDiag  1:
 Inv3:  Mode=1 IEnd=     7593843.
 Iteration    1 A*A^-1 deviation from unit magnitude is 3.11D-15 for   1103.
 Iteration    1 A*A^-1 deviation from orthogonality  is 1.89D-15 for   1493    215.
 Iteration    1 A^-1*A deviation from unit magnitude is 3.11D-15 for    181.
 Iteration    1 A^-1*A deviation from orthogonality  is 3.19D-15 for   1577   1350.
 E= -495.277756532748    
 DIIS: error= 3.77D-02 at cycle   1 NSaved=   1.
 NSaved= 1 IEnMin= 1 EnMin= -495.277756532748     IErMin= 1 ErrMin= 3.77D-02
 ErrMax= 3.77D-02  0.00D+00 EMaxC= 1.00D-01 BMatC= 3.42D-01 BMatP= 3.42D-01
 IDIUse=3 WtCom= 6.23D-01 WtEn= 3.77D-01
 Coeff-Com:  0.100D+01
 Coeff-En:   0.100D+01
 Coeff:      0.100D+01
 Gap=     0.181 Goal=   None    Shift=    0.000
 GapD=    0.181 DampG=1.000 DampE=0.500 DampFc=0.5000 IDamp=-1.
 Damping current iteration by 5.00D-01
 RMSDP=8.62D-03 MaxDP=1.90D-01              OVMax= 2.09D-01

 Cycle   2  Pass 1  IDiag  1:
 E= -495.391516164286     Delta-E=       -0.113759631538 Rises=F Damp=T
 DIIS: error= 1.08D-02 at cycle   2 NSaved=   2.
 NSaved= 2 IEnMin= 2 EnMin= -495.391516164286     IErMin= 2 ErrMin= 1.08D-02
 ErrMax= 1.08D-02  0.00D+00 EMaxC= 1.00D-01 BMatC= 2.80D-02 BMatP= 3.42D-01
 IDIUse=3 WtCom= 8.92D-01 WtEn= 1.08D-01
 Coeff-Com:  0.139D+00 0.861D+00
 Coeff-En:   0.207D+00 0.793D+00
 Coeff:      0.146D+00 0.854D+00
 Gap=     0.212 Goal=   None    Shift=    0.000
 RMSDP=2.10D-03 MaxDP=5.54D-02 DE=-1.14D-01 OVMax= 1.70D-01

 Cycle   3  Pass 1  IDiag  1:
 E= -495.549101779371     Delta-E=       -0.157585615085 Rises=F Damp=F
 DIIS: error= 1.02D-02 at cycle   3 NSaved=   3.
 NSaved= 3 IEnMin= 3 EnMin= -495.549101779371     IErMin= 3 ErrMin= 1.02D-02
 ErrMax= 1.02D-02  0.00D+00 EMaxC= 1.00D-01 BMatC= 1.92D-02 BMatP= 2.80D-02
 IDIUse=3 WtCom= 8.98D-01 WtEn= 1.02D-01
 Coeff-Com:  0.262D-01 0.451D+00 0.523D+00
 Coeff-En:   0.000D+00 0.000D+00 0.100D+01
 Coeff:      0.235D-01 0.404D+00 0.572D+00
 Gap=     0.190 Goal=   None    Shift=    0.000
 RMSDP=1.28D-03 MaxDP=3.27D-02 DE=-1.58D-01 OVMax= 4.85D-02

 Cycle   4  Pass 1  IDiag  1:
 E= -495.564178679308     Delta-E=       -0.015076899938 Rises=F Damp=F
 DIIS: error= 3.05D-03 at cycle   4 NSaved=   4.
 NSaved= 4 IEnMin= 4 EnMin= -495.564178679308     IErMin= 4 ErrMin= 3.05D-03
 ErrMax= 3.05D-03  0.00D+00 EMaxC= 1.00D-01 BMatC= 3.39D-03 BMatP= 1.92D-02
 IDIUse=3 WtCom= 9.69D-01 WtEn= 3.05D-02
 Coeff-Com:  0.523D-02 0.772D-01 0.309D+00 0.609D+00
 Coeff-En:   0.000D+00 0.000D+00 0.155D+00 0.845D+00
 Coeff:      0.507D-02 0.748D-01 0.304D+00 0.616D+00
 Gap=     0.190 Goal=   None    Shift=    0.000
 RMSDP=4.63D-04 MaxDP=1.24D-02 DE=-1.51D-02 OVMax= 1.96D-02

 Cycle   5  Pass 1  IDiag  1:
 E= -495.567018041841     Delta-E=       -0.002839362532 Rises=F Damp=F
 DIIS: error= 1.59D-03 at cycle   5 NSaved=   5.
 NSaved= 5 IEnMin= 5 EnMin= -495.567018041841     IErMin= 5 ErrMin= 1.59D-03
 ErrMax= 1.59D-03  0.00D+00 EMaxC= 1.00D-01 BMatC= 4.05D-04 BMatP= 3.39D-03
 IDIUse=3 WtCom= 9.84D-01 WtEn= 1.59D-02
 Coeff-Com:  0.189D-02 0.102D-01 0.146D+00 0.384D+00 0.458D+00
 Coeff-En:   0.000D+00 0.000D+00 0.000D+00 0.204D-01 0.980D+00
 Coeff:      0.186D-02 0.101D-01 0.144D+00 0.378D+00 0.466D+00
 Gap=     0.189 Goal=   None    Shift=    0.000
 RMSDP=1.34D-04 MaxDP=4.28D-03 DE=-2.84D-03 OVMax= 7.16D-03

 Cycle   6  Pass 1  IDiag  1:
 E= -495.567333269321     Delta-E=       -0.000315227480 Rises=F Damp=F
 DIIS: error= 5.05D-04 at cycle   6 NSaved=   6.
 NSaved= 6 IEnMin= 6 EnMin= -495.567333269321     IErMin= 6 ErrMin= 5.05D-04
 ErrMax= 5.05D-04  0.00D+00 EMaxC= 1.00D-01 BMatC= 2.88D-05 BMatP= 4.05D-04
 IDIUse=3 WtCom= 9.95D-01 WtEn= 5.05D-03
 Coeff-Com:  0.710D-03-0.695D-03 0.551D-01 0.160D+00 0.270D+00 0.515D+00
 Coeff-En:   0.000D+00 0.000D+00 0.000D+00 0.000D+00 0.000D+00 0.100D+01
 Coeff:      0.707D-03-0.691D-03 0.549D-01 0.159D+00 0.268D+00 0.518D+00
 Gap=     0.189 Goal=   None    Shift=    0.000
 RMSDP=3.84D-05 MaxDP=1.24D-03 DE=-3.15D-04 OVMax= 2.17D-03

 Cycle   7  Pass 1  IDiag  1:
 E= -495.567353170356     Delta-E=       -0.000019901036 Rises=F Damp=F
 DIIS: error= 1.25D-04 at cycle   7 NSaved=   7.
 NSaved= 7 IEnMin= 7 EnMin= -495.567353170356     IErMin= 7 ErrMin= 1.25D-04
 ErrMax= 1.25D-04  0.00D+00 EMaxC= 1.00D-01 BMatC= 2.72D-06 BMatP= 2.88D-05
 IDIUse=3 WtCom= 9.99D-01 WtEn= 1.25D-03
 Coeff-Com:  0.287D-03-0.133D-02 0.193D-01 0.590D-01 0.116D+00 0.307D+00
 Coeff-Com:  0.500D+00
 Coeff-En:   0.000D+00 0.000D+00 0.000D+00 0.000D+00 0.000D+00 0.394D-01
 Coeff-En:   0.961D+00
 Coeff:      0.287D-03-0.132D-02 0.193D-01 0.589D-01 0.115D+00 0.307D+00
 Coeff:      0.500D+00
 Gap=     0.189 Goal=   None    Shift=    0.000
 RMSDP=1.13D-05 MaxDP=2.92D-04 DE=-1.99D-05 OVMax= 5.47D-04

 Cycle   8  Pass 1  IDiag  1:
 E= -495.567355481840     Delta-E=       -0.000002311484 Rises=F Damp=F
 DIIS: error= 2.25D-05 at cycle   8 NSaved=   8.
 NSaved= 8 IEnMin= 8 EnMin= -495.567355481840     IErMin= 8 ErrMin= 2.25D-05
 ErrMax= 2.25D-05  0.00D+00 EMaxC= 1.00D-01 BMatC= 1.32D-07 BMatP= 2.72D-06
 IDIUse=1 WtCom= 1.00D+00 WtEn= 0.00D+00
 Coeff-Com:  0.106D-03-0.676D-03 0.578D-02 0.183D-01 0.394D-01 0.122D+00
 Coeff-Com:  0.256D+00 0.559D+00
 Coeff:      0.106D-03-0.676D-03 0.578D-02 0.183D-01 0.394D-01 0.122D+00
 Coeff:      0.256D+00 0.559D+00
 Gap=     0.189 Goal=   None    Shift=    0.000
 RMSDP=3.11D-06 MaxDP=6.18D-05 DE=-2.31D-06 OVMax= 1.81D-04

 Cycle   9  Pass 1  IDiag  1:
 E= -495.567355603070     Delta-E=       -0.000000121230 Rises=F Damp=F
 DIIS: error= 5.15D-06 at cycle   9 NSaved=   9.
 NSaved= 9 IEnMin= 9 EnMin= -495.567355603070     IErMin= 9 ErrMin= 5.15D-06
 ErrMax= 5.15D-06  0.00D+00 EMaxC= 1.00D-01 BMatC= 9.92D-09 BMatP= 1.32D-07
 IDIUse=1 WtCom= 1.00D+00 WtEn= 0.00D+00
 Coeff-Com:  0.160D-04-0.130D-03 0.324D-05 0.218D-03 0.179D-02 0.125D-01
 Coeff-Com:  0.421D-01 0.247D+00 0.696D+00
 Coeff:      0.160D-04-0.130D-03 0.324D-05 0.218D-03 0.179D-02 0.125D-01
 Coeff:      0.421D-01 0.247D+00 0.696D+00
 Gap=     0.189 Goal=   None    Shift=    0.000
 RMSDP=7.22D-07 MaxDP=1.65D-05 DE=-1.21D-07 OVMax= 4.17D-05

 Cycle  10  Pass 1  IDiag  1:
 E= -495.567355612608     Delta-E=       -0.000000009538 Rises=F Damp=F
 DIIS: error= 1.32D-06 at cycle  10 NSaved=  10.
 NSaved=10 IEnMin=10 EnMin= -495.567355612608     IErMin=10 ErrMin= 1.32D-06
 ErrMax= 1.32D-06  0.00D+00 EMaxC= 1.00D-01 BMatC= 5.85D-10 BMatP= 9.92D-09
 IDIUse=1 WtCom= 1.00D+00 WtEn= 0.00D+00
 Coeff-Com:  0.245D-05-0.294D-04-0.229D-03-0.648D-03-0.872D-03 0.698D-03
 Coeff-Com:  0.823D-02 0.870D-01 0.313D+00 0.593D+00
 Coeff:      0.245D-05-0.294D-04-0.229D-03-0.648D-03-0.872D-03 0.698D-03
 Coeff:      0.823D-02 0.870D-01 0.313D+00 0.593D+00
 Gap=     0.189 Goal=   None    Shift=    0.000
 RMSDP=1.97D-07 MaxDP=7.27D-06 DE=-9.54D-09 OVMax= 1.26D-05

 Cycle  11  Pass 1  IDiag  1:
 E= -495.567355613129     Delta-E=       -0.000000000520 Rises=F Damp=F
 DIIS: error= 5.20D-07 at cycle  11 NSaved=  11.
 NSaved=11 IEnMin=11 EnMin= -495.567355613129     IErMin=11 ErrMin= 5.20D-07
 ErrMax= 5.20D-07  0.00D+00 EMaxC= 1.00D-01 BMatC= 8.02D-11 BMatP= 5.85D-10
 IDIUse=1 WtCom= 1.00D+00 WtEn= 0.00D+00
 Coeff-Com: -0.838D-06 0.147D-05-0.110D-03-0.334D-03-0.648D-03-0.101D-02
 Coeff-Com: -0.787D-03 0.128D-01 0.672D-01 0.302D+00 0.621D+00
 Coeff:     -0.838D-06 0.147D-05-0.110D-03-0.334D-03-0.648D-03-0.101D-02
 Coeff:     -0.787D-03 0.128D-01 0.672D-01 0.302D+00 0.621D+00
 Gap=     0.189 Goal=   None    Shift=    0.000
 RMSDP=6.60D-08 MaxDP=2.46D-06 DE=-5.20D-10 OVMax= 4.37D-06

 Cycle  12  Pass 1  IDiag  1:
 E= -495.567355613198     Delta-E=       -0.000000000069 Rises=F Damp=F
 DIIS: error= 1.48D-07 at cycle  12 NSaved=  12.
 NSaved=12 IEnMin=12 EnMin= -495.567355613198     IErMin=12 ErrMin= 1.48D-07
 ErrMax= 1.48D-07  0.00D+00 EMaxC= 1.00D-01 BMatC= 4.10D-12 BMatP= 8.02D-11
 IDIUse=1 WtCom= 1.00D+00 WtEn= 0.00D+00
 Coeff-Com: -0.560D-06 0.196D-05-0.391D-04-0.120D-03-0.265D-03-0.472D-03
 Coeff-Com: -0.744D-03 0.200D-02 0.152D-01 0.113D+00 0.283D+00 0.588D+00
 Coeff:     -0.560D-06 0.196D-05-0.391D-04-0.120D-03-0.265D-03-0.472D-03
 Coeff:     -0.744D-03 0.200D-02 0.152D-01 0.113D+00 0.283D+00 0.588D+00
 Gap=     0.189 Goal=   None    Shift=    0.000
 RMSDP=1.92D-08 MaxDP=5.40D-07 DE=-6.92D-11 OVMax= 1.19D-06

 Cycle  13  Pass 1  IDiag  1:
 E= -495.567355613203     Delta-E=       -0.000000000005 Rises=F Damp=F
 DIIS: error= 6.50D-08 at cycle  13 NSaved=  13.
 NSaved=13 IEnMin=13 EnMin= -495.567355613203     IErMin=13 ErrMin= 6.50D-08
 ErrMax= 6.50D-08  0.00D+00 EMaxC= 1.00D-01 BMatC= 9.92D-13 BMatP= 4.10D-12
 IDIUse=1 WtCom= 1.00D+00 WtEn= 0.00D+00
 Coeff-Com: -0.202D-06 0.970D-06-0.210D-05-0.694D-05-0.390D-04-0.926D-04
 Coeff-Com: -0.339D-03-0.146D-02-0.511D-02 0.947D-02 0.464D-01 0.349D+00
 Coeff-Com:  0.602D+00
 Coeff:     -0.202D-06 0.970D-06-0.210D-05-0.694D-05-0.390D-04-0.926D-04
 Coeff:     -0.339D-03-0.146D-02-0.511D-02 0.947D-02 0.464D-01 0.349D+00
 Coeff:      0.602D+00
 Gap=     0.189 Goal=   None    Shift=    0.000
 RMSDP=7.20D-09 MaxDP=1.86D-07 DE=-4.89D-12 OVMax= 4.46D-07

 Error on total polarization charges =  0.00679
 SCF Done:  E(RB3LYP) =  -495.567355613     A.U. after   13 cycles
            NFock= 13  Conv=0.72D-08     -V/T= 2.0084
 KE= 4.914213371376D+02 PE=-2.148073796385D+03 EE= 6.729293077786D+02
 Leave Link  502 at Mon Jul 12 12:46:47 2021, MaxMem=   104857600 cpu:             172.7 elap:              45.9
 (Enter /dades/curu/g16A03_MST/g16/l601.exe)
 Copying SCF densities to generalized density rwf, IOpCl= 0 IROHF=0.

 **********************************************************************

            Population analysis using the SCF density.

 **********************************************************************

 Orbital symmetries:
       Occupied  (A) (A) (A) (A) (A) (A) (A) (A) (A) (A) (A) (A)
                 (A) (A) (A) (A) (A) (A) (A) (A) (A) (A) (A) (A)
                 (A) (A) (A) (A) (A) (A) (A) (A) (A) (A) (A) (A)
       Virtual   (A) (A) (A) (A) (A) (A) (A) (A) (A) (A) (A) (A)
                 (A) (A) (A) (A) (A) (A) (A) (A) (A) (A) (A) (A)
                 (A) (A) (A) (A) (A) (A) (A) (A) (A) (A) (A) (A)
                 (A) (A) (A) (A) (A) (A) (A) (A) (A) (A) (A) (A)
                 (A) (A) (A) (A) (A) (A) (A) (A) (A) (A) (A) (A)
                 (A) (A) (A) (A) (A) (A) (A) (A) (A) (A) (A) (A)
                 (A) (A) (A) (A) (A) (A) (A) (A) (A) (A) (A) (A)
                 (A) (A) (A) (A) (A) (A) (A) (A) (A) (A) (A) (A)
                 (A) (A) (A) (A) (A) (A) (A) (A) (A) (A) (A) (A)
                 (A) (A) (A) (A) (A) (A) (A) (A) (A) (A) (A) (A)
                 (A) (A) (A) (A)
 The electronic state is 1-A.
 Alpha  occ. eigenvalues --  -19.13938 -19.06685 -19.05682 -10.24991 -10.22060
 Alpha  occ. eigenvalues --  -10.17727 -10.17339 -10.16778 -10.16484 -10.15479
 Alpha  occ. eigenvalues --   -1.05505  -1.00710  -0.89106  -0.82589  -0.73138
 Alpha  occ. eigenvalues --   -0.70993  -0.61261  -0.57387  -0.53371  -0.48423
 Alpha  occ. eigenvalues --   -0.46384  -0.43465  -0.41380  -0.40604  -0.40160
 Alpha  occ. eigenvalues --   -0.37849  -0.36545  -0.35995  -0.34548  -0.31985
 Alpha  occ. eigenvalues --   -0.31101  -0.23132  -0.22167  -0.21998  -0.20416
 Alpha  occ. eigenvalues --   -0.19277
 Alpha virt. eigenvalues --   -0.00348   0.03567   0.10986   0.11844   0.16927
 Alpha virt. eigenvalues --    0.18222   0.19369   0.19990   0.21219   0.26616
 Alpha virt. eigenvalues --    0.29031   0.31886   0.34570   0.34956   0.37149
 Alpha virt. eigenvalues --    0.41602   0.45112   0.50646   0.53314   0.54883
 Alpha virt. eigenvalues --    0.57593   0.58204   0.59771   0.61418   0.62111
 Alpha virt. eigenvalues --    0.63167   0.63476   0.64250   0.65720   0.66905
 Alpha virt. eigenvalues --    0.68059   0.71866   0.72745   0.76244   0.77875
 Alpha virt. eigenvalues --    0.81672   0.83824   0.85134   0.86799   0.89974
 Alpha virt. eigenvalues --    0.91750   0.93422   0.95350   0.96214   0.97227
 Alpha virt. eigenvalues --    1.00091   1.03821   1.05152   1.06766   1.07196
 Alpha virt. eigenvalues --    1.08572   1.12022   1.15839   1.17828   1.20437
 Alpha virt. eigenvalues --    1.23158   1.28323   1.29839   1.34190   1.36701
 Alpha virt. eigenvalues --    1.38685   1.42906   1.44864   1.47189   1.49503
 Alpha virt. eigenvalues --    1.52689   1.56780   1.62185   1.68617   1.70963
 Alpha virt. eigenvalues --    1.76193   1.77598   1.78104   1.82251   1.85176
 Alpha virt. eigenvalues --    1.87661   1.88896   1.91314   1.92987   1.94115
 Alpha virt. eigenvalues --    1.95354   1.97643   2.01214   2.04597   2.07287
 Alpha virt. eigenvalues --    2.09467   2.10767   2.13598   2.17817   2.20680
 Alpha virt. eigenvalues --    2.24961   2.29381   2.33337   2.34612   2.38326
 Alpha virt. eigenvalues --    2.48334   2.49899   2.54332   2.61064   2.62569
 Alpha virt. eigenvalues --    2.63257   2.65947   2.72865   2.73260   2.76507
 Alpha virt. eigenvalues --    2.81327   2.84712   2.88396   2.91092   2.99370
 Alpha virt. eigenvalues --    3.05313   3.15477   3.27833   3.44463   3.94240
 Alpha virt. eigenvalues --    4.01375   4.09964   4.14097   4.22955   4.33477
 Alpha virt. eigenvalues --    4.41085   4.45942   4.50668   4.76792
          Condensed to atoms (all electrons):
               1          2          3          4          5          6
     1  O    8.473337   0.415821  -0.107544  -0.117832   0.001502  -0.029138
     2  C    0.415821   4.356324   0.566273   0.234991  -0.035168  -0.010801
     3  O   -0.107544   0.566273   8.240250  -0.131832   0.002550  -0.000042
     4  C   -0.117832   0.234991  -0.131832   5.440406   0.392664  -0.065308
     5  C    0.001502  -0.035168   0.002550   0.392664   4.646803   0.338802
     6  O   -0.029138  -0.010801  -0.000042  -0.065308   0.338802   8.295157
     7  H    0.090374   0.006652   0.001385  -0.015999  -0.040487   0.184657
     8  C    0.000440   0.005067  -0.000077  -0.045003   0.524483  -0.078573
     9  H    0.000010  -0.000040   0.000001   0.008895  -0.039835  -0.001179
    10  C   -0.000017  -0.000269  -0.000009  -0.041093  -0.009816   0.004321
    11  H   -0.000000   0.000003  -0.000000   0.000037   0.005173  -0.000089
    12  C   -0.000022   0.004632   0.000823  -0.020972  -0.050532   0.000113
    13  H    0.000000  -0.000064   0.000001   0.004245   0.000869   0.000002
    14  C    0.003921  -0.033465   0.006114   0.433101  -0.033370   0.005438
    15  H    0.000263  -0.004366   0.015916  -0.045111   0.004219  -0.000049
               7          8          9         10         11         12
     1  O    0.090374   0.000440   0.000010  -0.000017  -0.000000  -0.000022
     2  C    0.006652   0.005067  -0.000040  -0.000269   0.000003   0.004632
     3  O    0.001385  -0.000077   0.000001  -0.000009  -0.000000   0.000823
     4  C   -0.015999  -0.045003   0.008895  -0.041093   0.000037  -0.020972
     5  C   -0.040487   0.524483  -0.039835  -0.009816   0.005173  -0.050532
     6  O    0.184657  -0.078573  -0.001179   0.004321  -0.000089   0.000113
     7  H    0.361774   0.008189  -0.000126  -0.000252   0.000005  -0.000024
     8  C    0.008189   5.020648   0.337930   0.532819  -0.041181  -0.031148
     9  H   -0.000126   0.337930   0.627326  -0.049929  -0.006584   0.006916
    10  C   -0.000252   0.532819  -0.049929   4.869285   0.362252   0.526285
    11  H    0.000005  -0.041181  -0.006584   0.362252   0.591078  -0.043950
    12  C   -0.000024  -0.031148   0.006916   0.526285  -0.043950   4.998659
    13  H    0.000000   0.005837  -0.000250  -0.049061  -0.006160   0.355699
    14  C   -0.000335  -0.044642   0.000087  -0.024194   0.004131   0.472007
    15  H   -0.000069   0.000434   0.000017   0.003886  -0.000113  -0.037937
              13         14         15
     1  O    0.000000   0.003921   0.000263
     2  C   -0.000064  -0.033465  -0.004366
     3  O    0.000001   0.006114   0.015916
     4  C    0.004245   0.433101  -0.045111
     5  C    0.000869  -0.033370   0.004219
     6  O    0.000002   0.005438  -0.000049
     7  H    0.000000  -0.000335  -0.000069
     8  C    0.005837  -0.044642   0.000434
     9  H   -0.000250   0.000087   0.000017
    10  C   -0.049061  -0.024194   0.003886
    11  H   -0.006160   0.004131  -0.000113
    12  C    0.355699   0.472007  -0.037937
    13  H    0.625419  -0.042607  -0.004686
    14  C   -0.042607   5.095615   0.349051
    15  H   -0.004686   0.349051   0.582011
 Mulliken charges:
               1
     1  O   -0.731115
     2  C    0.494411
     3  O   -0.593808
     4  C   -0.031188
     5  C    0.292143
     6  O   -0.643311
     7  H    0.404255
     8  C   -0.195222
     9  H    0.116761
    10  C   -0.124208
    11  H    0.135398
    12  C   -0.180549
    13  H    0.110755
    14  C   -0.190852
    15  H    0.136533
 Sum of Mulliken charges =  -1.00000
 Mulliken charges with hydrogens summed into heavy atoms:
               1
     1  O   -0.731115
     2  C    0.494411
     3  O   -0.593808
     4  C   -0.031188
     5  C    0.292143
     6  O   -0.239056
     8  C   -0.078462
    10  C    0.011189
    12  C   -0.069795
    14  C   -0.054319
 Electronic spatial extent (au):  <R**2>=           1358.3794
 Charge=             -1.0000 electrons
 Dipole moment (field-independent basis, Debye):
    X=              9.9101    Y=             -0.1272    Z=             -0.4676  Tot=              9.9220
 Quadrupole moment (field-independent basis, Debye-Ang):
   XX=            -83.4158   YY=            -67.1770   ZZ=            -59.2094
   XY=             -3.1870   XZ=              1.7982   YZ=             -0.7717
 Traceless Quadrupole moment (field-independent basis, Debye-Ang):
   XX=            -13.4818   YY=              2.7571   ZZ=             10.7247
   XY=             -3.1870   XZ=              1.7982   YZ=             -0.7717
 Octapole moment (field-independent basis, Debye-Ang**2):
  XXX=             75.8466  YYY=             -0.7111  ZZZ=             -0.2409  XYY=             12.2318
  XXY=             11.2490  XXZ=             -2.3024  XZZ=             -9.8112  YZZ=              3.6434
  YYZ=             -0.0105  XYZ=              1.6255
 Hexadecapole moment (field-independent basis, Debye-Ang**3):
 XXXX=          -1265.6929 YYYY=           -583.4783 ZZZZ=            -57.5653 XXXY=             -9.8996
 XXXZ=              9.8238 YYYX=            -18.9946 YYYZ=             -1.8873 ZZZX=             -0.3691
 ZZZY=             -1.3682 XXYY=           -313.1129 XXZZ=           -204.8033 YYZZ=           -106.4807
 XXYZ=             -3.8326 YYXZ=              3.5055 ZZXY=              3.3979
 N-N= 4.881557958552D+02 E-N=-2.148073798269D+03  KE= 4.914213371376D+02
 No NMR shielding tensors so no spin-rotation constants.
 Leave Link  601 at Mon Jul 12 12:46:47 2021, MaxMem=   104857600 cpu:               0.3 elap:               0.1
 (Enter /dades/curu/g16A03_MST/g16/l701.exe)
 ... and contract with generalized density number  0.
 Compute integral first derivatives.
 D1PCM: PCM CHGder 1st derivatives, ID1Alg=3 FixD1E=F DoIter=F DoCFld=F I1PDM=0.
 GePol: Maximum number of non-zero 1st derivatives   =     234
 Leave Link  701 at Mon Jul 12 12:46:49 2021, MaxMem=   104857600 cpu:               4.9 elap:               1.3
 (Enter /dades/curu/g16A03_MST/g16/l702.exe)
 L702 exits ... SP integral derivatives will be done elsewhere.
 Leave Link  702 at Mon Jul 12 12:46:49 2021, MaxMem=   104857600 cpu:               0.1 elap:               0.0
 (Enter /dades/curu/g16A03_MST/g16/l703.exe)
 Integral derivatives from FoFJK, PRISM(SPDF).
 Compute integral first derivatives, UseDBF=F ICtDFT=           0.
 Calling FoFJK, ICntrl=      2127 FMM=F ISym2X=0 I1Cent= 0 IOpClX= 0 NMat=1 NMatS=1 NMatT=0.
 FoFJK:  IHMeth= 1 ICntrl=    2127 DoSepK=F KAlg= 0 I1Cent=           0 FoldK=F
 IRaf=         0 NMat=       1 IRICut=       1 DoRegI=T DoRafI=F ISym2E= 0 IDoP0=0 IntGTp=1.
 FoFCou: FMM=F IPFlag=           0 FMFlag=      100000 FMFlg1=         800
         NFxFlg=           0 DoJE=F BraDBF=F KetDBF=F FulRan=T
         wScrn=  0.000000 ICntrl=      2127 IOpCl=  0 I1Cent=           0 NGrid=           0
         NMat0=    1 NMatS0=      1 NMatT0=    0 NMatD0=    1 NMtDS0=    0 NMtDT0=    0
 Symmetry not used in FoFCou.
 Leave Link  703 at Mon Jul 12 12:46:55 2021, MaxMem=   104857600 cpu:              27.0 elap:               6.8
 (Enter /dades/curu/g16A03_MST/g16/l716.exe)
 Dipole        = 3.89894640D+00-5.00568217D-02-1.83960296D-01
 ***** Axes restored to original set *****
 -------------------------------------------------------------------
 Center     Atomic                   Forces (Hartrees/Bohr)
 Number     Number              X              Y              Z
 -------------------------------------------------------------------
      1        8           0.043261403    0.009753595    0.007616913
      2        6          -0.012161338   -0.056434330   -0.062588125
      3        8          -0.010501644    0.046024125    0.052720323
      4        6           0.000890097    0.027575358    0.000184528
      5        6           0.003888536    0.020501775    0.026283696
      6        8          -0.025055520   -0.032423238   -0.013505017
      7        1          -0.033453941   -0.009820092   -0.000204124
      8        6           0.038551478   -0.007047258   -0.018694118
      9        1           0.002174325    0.000257288   -0.000101358
     10        6          -0.015006106   -0.003200315   -0.009513617
     11        1          -0.001200583    0.002651441    0.004381082
     12        6          -0.013746218    0.034267509    0.022663045
     13        1          -0.002128663   -0.000060893    0.008257039
     14        6           0.023708443   -0.031896371   -0.012675006
     15        1           0.000779731   -0.000148596   -0.004825261
 -------------------------------------------------------------------
 Cartesian Forces:  Max     0.062588125 RMS     0.023666459
 Leave Link  716 at Mon Jul 12 12:46:55 2021, MaxMem=   104857600 cpu:               0.1 elap:               0.0
 (Enter /dades/curu/g16A03_MST/g16/l103.exe)

 GradGradGradGradGradGradGradGradGradGradGradGradGradGradGradGradGradGrad
 Berny optimization.
 FormGI is forming the generalized inverse of G from B-inverse, IUseBI=4.
 Internal  Forces:  Max     0.069038517 RMS     0.018499642
 Search for a local minimum.
 Step number   1 out of a maximum of   77
 All quantities printed in internal units (Hartrees-Bohrs-Radians)
 RMS Force = .18500D-01 SwitMx=.10000D-02 MixMth= 1
 Mixed Optimization -- RFO/linear search
 Second derivative matrix not updated -- first step.
 ITU=  0
     Eigenvalues ---    0.00335   0.00384   0.01444   0.01721   0.01826
     Eigenvalues ---    0.02029   0.02094   0.02322   0.02363   0.02439
     Eigenvalues ---    0.02485   0.02954   0.15735   0.15853   0.15915
     Eigenvalues ---    0.15952   0.16000   0.21898   0.22460   0.24225
     Eigenvalues ---    0.24254   0.24923   0.25000   0.25000   0.29188
     Eigenvalues ---    0.35141   0.35143   0.35144   0.35203   0.38554
     Eigenvalues ---    0.39982   0.41971   0.47369   0.48074   0.51380
     Eigenvalues ---    0.52592   0.59669   0.65945   1.03278
 RFO step:  Lambda=-5.60118748D-02 EMin= 3.35237495D-03
 Linear search not attempted -- first point.
 Maximum step size (   0.300) exceeded in Quadratic search.
    -- Step size scaled by   0.837
 Iteration  1 RMS(Cart)=  0.09463071 RMS(Int)=  0.00494024
 Iteration  2 RMS(Cart)=  0.00536226 RMS(Int)=  0.00099690
 Iteration  3 RMS(Cart)=  0.00001844 RMS(Int)=  0.00099683
 Iteration  4 RMS(Cart)=  0.00000003 RMS(Int)=  0.00099683
 ITry= 1 IFail=0 DXMaxC= 4.31D-01 DCOld= 1.00D+10 DXMaxT= 3.00D-01 DXLimC= 3.00D+00 Rises=F
 Variable       Old X    -DE/DX   Delta X   Delta X   Delta X     New X
                                 (Linear)    (Quad)   (Total)
    R1        2.51203  -0.03561   0.00000  -0.04565  -0.04565   2.46638
    R2        2.27354   0.06904   0.00000   0.05305   0.05305   2.32659
    R3        2.89612  -0.02023   0.00000  -0.04865  -0.04865   2.84747
    R4        2.67748  -0.00539   0.00000  -0.00929  -0.00905   2.66843
    R5        2.69354  -0.01726   0.00000  -0.03458  -0.03441   2.65913
    R6        2.46524   0.06589   0.00000   0.07706   0.07706   2.54230
    R7        2.57361   0.03954   0.00000   0.05991   0.05996   2.63358
    R8        1.84037   0.02789   0.00000   0.04010   0.04010   1.88047
    R9        2.05347   0.00051   0.00000   0.00104   0.00104   2.05451
   R10        2.60949   0.01527   0.00000   0.02688   0.02667   2.63617
   R11        2.05444  -0.00247   0.00000  -0.00507  -0.00507   2.04937
   R12        2.60628   0.01825   0.00000   0.02796   0.02773   2.63401
   R13        2.05447   0.00118   0.00000   0.00243   0.00243   2.05690
   R14        2.71052  -0.03115   0.00000  -0.06033  -0.06035   2.65016
   R15        2.05441  -0.00389   0.00000  -0.00800  -0.00800   2.04642
    A1        2.11580   0.03327   0.00000   0.09442   0.09035   2.20615
    A2        2.06725  -0.03198   0.00000  -0.08401  -0.08807   1.97919
    A3        2.09679  -0.00051   0.00000   0.00204  -0.00201   2.09478
    A4        2.15195  -0.02368   0.00000  -0.05940  -0.06028   2.09167
    A5        2.08918   0.00612   0.00000   0.02311   0.02260   2.11178
    A6        2.01869   0.01847   0.00000   0.04749   0.04755   2.06625
    A7        2.14525  -0.01193   0.00000  -0.03456  -0.03498   2.11027
    A8        2.14266  -0.01876   0.00000  -0.04521  -0.04525   2.09741
    A9        1.99213   0.03099   0.00000   0.08296   0.08262   2.07474
   A10        1.75155   0.03415   0.00000   0.13229   0.13229   1.88384
   A11        2.00784   0.00925   0.00000   0.02430   0.02420   2.03204
   A12        2.14626  -0.01414   0.00000  -0.02971  -0.03017   2.11609
   A13        2.12449   0.00521   0.00000   0.00883   0.00876   2.13325
   A14        2.09759  -0.00292   0.00000  -0.00782  -0.00767   2.08992
   A15        2.01429   0.01541   0.00000   0.05472   0.05410   2.06839
   A16        2.16772  -0.01226   0.00000  -0.04459  -0.04451   2.12321
   A17        2.01911   0.01489   0.00000   0.05537   0.05546   2.07456
   A18        2.16588  -0.01599   0.00000  -0.05289  -0.05333   2.11256
   A19        2.08659   0.00147   0.00000   0.00238   0.00230   2.08889
   A20        2.05755   0.01607   0.00000   0.03646   0.03646   2.09401
   A21        2.08129  -0.00734   0.00000  -0.01393  -0.01413   2.06716
   A22        2.13305  -0.00828   0.00000  -0.01783  -0.01812   2.11493
    D1        0.01557   0.00523   0.00000   0.09232   0.09286   0.10843
    D2        2.91643   0.01248   0.00000   0.15591   0.15505   3.07148
    D3       -3.03937  -0.00663   0.00000  -0.07350  -0.07264  -3.11201
    D4       -0.13851   0.00061   0.00000  -0.00990  -0.01045  -0.14896
    D5       -0.24045   0.00906   0.00000   0.09410   0.09277  -0.14769
    D6        2.99135   0.00331   0.00000   0.04450   0.04481   3.03616
    D7        3.13296   0.00337   0.00000   0.03523   0.03486  -3.11536
    D8        0.08159  -0.00239   0.00000  -0.01437  -0.01310   0.06849
    D9       -3.11173   0.00041   0.00000  -0.00718  -0.00832  -3.12006
   D10        0.18713  -0.00193   0.00000  -0.03808  -0.03948   0.14765
   D11       -0.19306   0.00156   0.00000   0.03752   0.03859  -0.15447
   D12        3.10580  -0.00078   0.00000   0.00662   0.00743   3.11323
   D13        0.00067   0.00713   0.00000   0.06504   0.06442   0.06508
   D14        3.05914   0.01027   0.00000   0.10519   0.10582  -3.11823
   D15        3.13415   0.00014   0.00000   0.00224   0.00257   3.13672
   D16        0.09396  -0.00390   0.00000  -0.03616  -0.03576   0.05820
   D17        0.07553  -0.00336   0.00000  -0.03841  -0.03901   0.03652
   D18       -2.96466  -0.00739   0.00000  -0.07681  -0.07734  -3.04200
   D19        3.08820   0.00256   0.00000   0.01767   0.01697   3.10517
   D20       -0.14053   0.00473   0.00000   0.04345   0.04327  -0.09725
   D21        0.05464  -0.00186   0.00000  -0.02389  -0.02429   0.03035
   D22        3.10910   0.00032   0.00000   0.00188   0.00202   3.11112
   D23       -2.96201  -0.00317   0.00000  -0.04111  -0.04155  -3.00356
   D24        0.01518  -0.00018   0.00000  -0.00586  -0.00599   0.00919
   D25        0.08850  -0.00029   0.00000  -0.01181  -0.01251   0.07599
   D26        3.06569   0.00270   0.00000   0.02344   0.02305   3.08874
   D27        0.15371  -0.00294   0.00000  -0.03591  -0.03612   0.11760
   D28        3.13307  -0.00034   0.00000  -0.00346  -0.00351   3.12956
   D29        3.12494   0.00125   0.00000   0.00500   0.00436   3.12930
   D30       -0.17889   0.00385   0.00000   0.03745   0.03697  -0.14192
         Item               Value     Threshold  Converged?
 Maximum Force            0.069039     0.000450     NO 
 RMS     Force            0.018500     0.000300     NO 
 Maximum Displacement     0.431236     0.001800     NO 
 RMS     Displacement     0.095433     0.001200     NO 
 Predicted change in Energy=-3.213747D-02
 Lowest energy point so far.  Saving SCF results.
 GradGradGradGradGradGradGradGradGradGradGradGradGradGradGradGradGradGrad

 Leave Link  103 at Mon Jul 12 12:46:55 2021, MaxMem=   104857600 cpu:               0.1 elap:               0.0
 (Enter /dades/curu/g16A03_MST/g16/l202.exe)
                          Input orientation:                          
 ---------------------------------------------------------------------
 Center     Atomic      Atomic             Coordinates (Angstroms)
 Number     Number       Type             X           Y           Z
 ---------------------------------------------------------------------
      1          8           0       -2.483015   -1.077933    0.223357
      2          6           0       -1.862298   -0.089876    0.808061
      3          8           0       -2.311355    0.628910    1.701089
      4          6           0       -0.428207    0.058796    0.370146
      5          6           0        0.072907   -0.742730   -0.678849
      6          8           0       -0.655463   -1.754931   -1.183658
      7          1           0       -1.543200   -1.747628   -0.734111
      8          6           0        1.357352   -0.525578   -1.174074
      9          1           0        1.683031   -1.180678   -1.978299
     10          6           0        2.198921    0.431974   -0.607613
     11          1           0        3.205812    0.557334   -0.990430
     12          6           0        1.689578    1.255991    0.394586
     13          1           0        2.295355    2.087852    0.749263
     14          6           0        0.365135    1.123445    0.836200
     15          1           0       -0.029554    1.755053    1.622331
 ---------------------------------------------------------------------
                    Distance matrix (angstroms):
                    1          2          3          4          5
     1  O    0.000000
     2  C    1.305153   0.000000
     3  O    2.264172   1.231180   0.000000
     4  C    2.352857   1.506814   2.375433   0.000000
     5  C    2.731131   2.526289   3.637335   1.412073   0.000000
     6  O    2.403740   2.862831   4.092241   2.399074   1.345328
     7  H    1.499495   2.286538   3.488293   2.392856   1.903858
     8  C    4.123873   3.805896   4.801959   2.431940   1.393629
     9  H    4.713150   4.639290   5.724301   3.392465   2.114915
    10  C    4.989074   4.332432   5.070648   2.827911   2.430008
    11  H    6.042362   5.416567   6.139098   3.912264   3.406221
    12  C    4.784042   3.820752   4.255308   2.432877   2.785816
    13  H    5.756005   4.693830   4.925064   3.417395   3.871817
    14  C    3.651521   2.536612   2.855905   1.407152   2.421441
    15  H    4.000301   2.725023   2.545783   2.145735   3.397771
                    6          7          8          9         10
     6  O    0.000000
     7  H    0.995100   0.000000
     8  C    2.358564   3.178077   0.000000
     9  H    2.535700   3.503998   1.087198   0.000000
    10  C    3.641687   4.332451   1.394999   2.178432   0.000000
    11  H    4.504814   5.285042   2.150170   2.513053   1.084479
    12  C    4.129857   4.554836   2.396885   3.401173   1.393857
    13  H    5.216367   5.625460   3.377735   4.300909   2.142976
    14  C    3.661488   3.788229   2.782979   3.868751   2.434235
    15  H    4.537105   4.484720   3.865834   4.951363   3.418961
                   11         12         13         14         15
    11  H    0.000000
    12  C    2.169183   0.000000
    13  H    2.489568   1.088464   0.000000
    14  C    3.424399   1.402406   2.159488   0.000000
    15  H    4.327661   2.170677   2.505635   1.082917   0.000000
 Stoichiometry    C7H5O3(1-)
 Framework group  C1[X(C7H5O3)]
 Deg. of freedom    39
 Full point group                 C1      NOp   1
 RotChk:  IX=0 Diff= 6.35D-02
 Largest Abelian subgroup         C1      NOp   1
 Largest concise Abelian subgroup C1      NOp   1
                         Standard orientation:                         
 ---------------------------------------------------------------------
 Center     Atomic      Atomic             Coordinates (Angstroms)
 Number     Number       Type             X           Y           Z
 ---------------------------------------------------------------------
      1          8           0       -2.327079    0.749482    0.018574
      2          6           0       -1.730465   -0.411314    0.023738
      3          8           0       -2.277480   -1.514085    0.001903
      4          6           0       -0.229024   -0.312800   -0.056648
      5          6           0        0.396523    0.951661    0.004813
      6          8           0       -0.328627    2.084112   -0.035429
      7          1           0       -1.291034    1.831453   -0.048043
      8          6           0        1.786085    1.043868    0.057887
      9          1           0        2.203233    2.047010    0.099031
     10          6           0        2.590108   -0.093628   -0.017436
     11          1           0        3.669678    0.008986   -0.007887
     12          6           0        1.974315   -1.344027   -0.029193
     13          1           0        2.594249   -2.235730    0.043626
     14          6           0        0.577896   -1.462917    0.022009
     15          1           0        0.096730   -2.432856    0.001863
 ---------------------------------------------------------------------
 Rotational constants (GHZ):           2.4249303           1.2444499           0.8227897
 Leave Link  202 at Mon Jul 12 12:46:55 2021, MaxMem=   104857600 cpu:               0.1 elap:               0.0
 (Enter /dades/curu/g16A03_MST/g16/l301.exe)
 Standard basis: 6-31G(d) (6D, 7F)
 Ernie: Thresh=  0.10000D-02 Tol=  0.10000D-05 Strict=F.
 There are   160 symmetry adapted cartesian basis functions of A   symmetry.
 There are   160 symmetry adapted basis functions of A   symmetry.
   160 basis functions,   300 primitive gaussians,   160 cartesian basis functions
    36 alpha electrons       36 beta electrons
       nuclear repulsion energy       490.7200578477 Hartrees.
 IExCor=  402 DFT=T Ex+Corr=B3LYP ExCW=0 ScaHFX=  0.200000
 ScaDFX=  0.800000  0.720000  1.000000  0.810000 ScalE2=  1.000000  1.000000
 IRadAn=      5 IRanWt=     -1 IRanGd=            0 ICorTp=0 IEmpDi=  4
 NAtoms=   15 NActive=   15 NUniq=   15 SFac= 1.00D+00 NAtFMM=   60 NAOKFM=F Big=F
 Integral buffers will be    131072 words long.
 Raffenetti 2 integral format.
 Two-electron integral symmetry is turned on.
 ------------------------------------------------------------------------------
 Polarizable Continuum Model (PCM)
 =================================
 Model                : PCM.
 Atomic radii         : MST.
 Polarization charges : Total charges.
 Charge compensation  : None.
 Solution method      : On-the-fly selection.
 Cavity type          : Scaled VdW (van der Waals Surface) (Alpha=1.500).
 Cavity algorithm     : GePol (No added spheres)
                        Default sphere list used, NSphG=   15.
                        Lebedev-Laikov grids with approx.  5.0 points / Ang**2.
                        Smoothing algorithm: York/Karplus (Gamma=1.0000).
                        Polarization charges: spherical gaussians, with
                                              point-specific exponents (IZeta= 3).
                        Self-potential: point-specific (ISelfS= 7).
                        Self-field    : sphere-specific E.n sum rule (ISelfD= 2).
 1st derivatives      : Analytical E(r).r(x)/FMM algorithm (CHGder, D1EAlg=3).
                        Cavity 1st derivative terms included.
 Solvent              : n-Octanol, Eps=   9.862900 Eps(inf)=   2.043470
 ------------------------------------------------------------------------------
 Spheres list:
 ISph  on   Nord     Re0    Alpha      Xe            Ye            Ze
    1   O      1    1.4000  1.150     -2.327079      0.749482      0.018574
    2   C      2    1.5000  1.150     -1.730465     -0.411314      0.023738
    3   O      3    1.4000  1.150     -2.277480     -1.514085      0.001903
    4   C      4    1.5000  1.500     -0.229024     -0.312800     -0.056648
    5   C      5    1.5000  1.500      0.396523      0.951661      0.004813
    6   O      6    1.4000  1.500     -0.328627      2.084112     -0.035429
    7   H      7    0.9000  1.500     -1.291034      1.831453     -0.048043
    8   C      8    1.5000  1.500      1.786085      1.043868      0.057887
    9   H      9    1.2000  1.500      2.203233      2.047010      0.099031
   10   C     10    1.5000  1.500      2.590108     -0.093628     -0.017436
   11   H     11    1.2000  1.500      3.669678      0.008986     -0.007887
   12   C     12    1.5000  1.500      1.974315     -1.344027     -0.029193
   13   H     13    1.2000  1.500      2.594249     -2.235730      0.043626
   14   C     14    1.5000  1.500      0.577896     -1.462917      0.022009
   15   H     15    1.2000  1.500      0.096730     -2.432856      0.001863
 ------------------------------------------------------------------------------
 GePol: Number of generator spheres                  =      15
 GePol: Total number of spheres                      =      15
 GePol: Number of exposed spheres                    =      15 (100.00%)
 GePol: Number of points                             =    1596
 GePol: Average weight of points                     =       0.12
 GePol: Minimum weight of points                     =   0.92D-09
 GePol: Maximum weight of points                     =    0.21373
 GePol: Number of points with low weight             =     100
 GePol: Fraction of low-weight points (<1% of avg)   =       6.27%
 GePol: Cavity surface area                          =    184.190 Ang**2
 GePol: Cavity volume                                =    187.766 Ang**3
 Surface areas from nonelectrostatic (unscaled) cavity and vdw tensions:
 Sphere =    1 Type =  O   Surf =       14.302 Tension =       -0.185
 Sphere =    2 Type =  C   Surf =        7.369 Tension =       -0.205
 Sphere =    3 Type =  O   Surf =       16.258 Tension =       -0.185
 Sphere =    4 Type =  C   Surf =        6.423 Tension =       -0.205
 Sphere =    5 Type =  C   Surf =        6.569 Tension =       -0.205
 Sphere =    6 Type =  OH  Surf =       14.026 Tension =       -0.238
 Sphere =    7 Type =  OH  Surf =        1.970 Tension =       -0.238
 Sphere =    8 Type =  CH  Surf =        7.692 Tension =       -0.195
 Sphere =    9 Type =  CH  Surf =       10.201 Tension =       -0.195
 Sphere =   10 Type =  CH  Surf =        7.848 Tension =       -0.195
 Sphere =   11 Type =  CH  Surf =       10.236 Tension =       -0.195
 Sphere =   12 Type =  CH  Surf =        7.806 Tension =       -0.195
 Sphere =   13 Type =  CH  Surf =       10.240 Tension =       -0.195
 Sphere =   14 Type =  CH  Surf =        7.754 Tension =       -0.195
 Sphere =   15 Type =  CH  Surf =       10.007 Tension =       -0.195
 PCM non-electrostatic energy =        -0.0087391384 Hartrees.
 Nuclear repulsion after PCM non-electrostatic terms =      490.7113187093 Hartrees.
 Leave Link  301 at Mon Jul 12 12:46:56 2021, MaxMem=   104857600 cpu:               0.1 elap:               0.1
 (Enter /dades/curu/g16A03_MST/g16/l302.exe)
 NPDir=0 NMtPBC=     1 NCelOv=     1 NCel=       1 NClECP=     1 NCelD=      1
         NCelK=      1 NCelE2=     1 NClLst=     1 CellRange=     0.0.
 One-electron integrals computed using PRISM.
 One-electron integral symmetry used in STVInt
 NBasis=   160 RedAO= T EigKep=  5.01D-04  NBF=   160
 NBsUse=   160 1.00D-06 EigRej= -1.00D+00 NBFU=   160
 Precomputing XC quadrature grid using
 IXCGrd= 4 IRadAn=           5 IRanWt=          -1 IRanGd=           0 AccXCQ= 0.00D+00.
 Generated NRdTot=       0 NPtTot=           0 NUsed=           0 NTot=          32
 NSgBfM=   160   160   160   160   160 MxSgAt=    15 MxSgA2=    15.
 Leave Link  302 at Mon Jul 12 12:46:56 2021, MaxMem=   104857600 cpu:               0.9 elap:               0.3
 (Enter /dades/curu/g16A03_MST/g16/l303.exe)
 DipDrv:  MaxL=1.
 Leave Link  303 at Mon Jul 12 12:46:56 2021, MaxMem=   104857600 cpu:               0.1 elap:               0.0
 (Enter /dades/curu/g16A03_MST/g16/l401.exe)
 Initial guess from the checkpoint file:  "SET_328_BBB299_conf1.geo_000_000.chk"
 B after Tr=     0.000000    0.000000   -0.000000
         Rot=    0.999761    0.000497   -0.000927   -0.021830 Ang=   2.50 deg.
 Guess basis will be translated and rotated to current coordinates.
 JPrj=2 DoOrth=T DoCkMO=T.
 Generating alternative initial guess.
 ExpMin= 1.61D-01 ExpMax= 5.48D+03 ExpMxC= 8.25D+02 IAcc=2 IRadAn=         4 AccDes= 0.00D+00
 Harris functional with IExCor=  402 and IRadAn=       4 diagonalized for initial guess.
 HarFok:  IExCor=  402 AccDes= 0.00D+00 IRadAn=         4 IDoV= 1 UseB2=F ITyADJ=14
 ICtDFT=  3500011 ScaDFX=  1.000000  1.000000  1.000000  1.000000
 FoFCou: FMM=F IPFlag=           0 FMFlag=      100000 FMFlg1=           0
         NFxFlg=           0 DoJE=T BraDBF=F KetDBF=T FulRan=T
         wScrn=  0.000000 ICntrl=       500 IOpCl=  0 I1Cent=   200000004 NGrid=           0
         NMat0=    1 NMatS0=      1 NMatT0=    0 NMatD0=    1 NMtDS0=    0 NMtDT0=    0
 Petite list used in FoFCou.
 Harris En= -495.693042152708    
 Leave Link  401 at Mon Jul 12 12:46:57 2021, MaxMem=   104857600 cpu:               3.5 elap:               0.9
 (Enter /dades/curu/g16A03_MST/g16/l502.exe)
 Keep R1 ints in memory in canonical form, NReq=86904867.
 FoFCou: FMM=F IPFlag=           0 FMFlag=           0 FMFlg1=           0
         NFxFlg=           0 DoJE=F BraDBF=F KetDBF=F FulRan=T
         wScrn=  0.000000 ICntrl=       600 IOpCl=  0 I1Cent=           0 NGrid=           0
         NMat0=    1 NMatS0=  12880 NMatT0=    0 NMatD0=    1 NMtDS0=    0 NMtDT0=    0
 Symmetry not used in FoFCou.
 Two-electron integral symmetry not used.
 Closed shell SCF:
 Using DIIS extrapolation, IDIIS=  1040.
 NGot=   104857600 LenX=    21850023 LenY=    21823982
 Requested convergence on RMS density matrix=1.00D-08 within 128 cycles.
 Requested convergence on MAX density matrix=1.00D-06.
 Requested convergence on             energy=1.00D-06.
 No special actions if energy rises.

 Cycle   1  Pass 1  IDiag  1:
 Inv3:  Mode=1 IEnd=     7641648.
 Iteration    1 A*A^-1 deviation from unit magnitude is 5.33D-15 for    381.
 Iteration    1 A*A^-1 deviation from orthogonality  is 2.10D-15 for   1572   1017.
 Iteration    1 A^-1*A deviation from unit magnitude is 5.77D-15 for    381.
 Iteration    1 A^-1*A deviation from orthogonality  is 1.26D-15 for   1568    225.
 E= -495.559829411837    
 DIIS: error= 6.36D-03 at cycle   1 NSaved=   1.
 NSaved= 1 IEnMin= 1 EnMin= -495.559829411837     IErMin= 1 ErrMin= 6.36D-03
 ErrMax= 6.36D-03  0.00D+00 EMaxC= 1.00D-01 BMatC= 1.69D-02 BMatP= 1.69D-02
 IDIUse=3 WtCom= 9.36D-01 WtEn= 6.36D-02
 Coeff-Com:  0.100D+01
 Coeff-En:   0.100D+01
 Coeff:      0.100D+01
 Gap=     1.852 Goal=   None    Shift=    0.000
 GapD=    1.852 DampG=2.000 DampE=1.000 DampFc=2.0000 IDamp=-1.
 RMSDP=2.13D-03 MaxDP=4.27D-02              OVMax= 4.62D-02

 Cycle   2  Pass 1  IDiag  1:
 E= -495.586752418775     Delta-E=       -0.026923006939 Rises=F Damp=F
 DIIS: error= 2.65D-03 at cycle   2 NSaved=   2.
 NSaved= 2 IEnMin= 2 EnMin= -495.586752418775     IErMin= 2 ErrMin= 2.65D-03
 ErrMax= 2.65D-03  0.00D+00 EMaxC= 1.00D-01 BMatC= 1.89D-03 BMatP= 1.69D-02
 IDIUse=3 WtCom= 9.73D-01 WtEn= 2.65D-02
 Coeff-Com:  0.112D+00 0.888D+00
 Coeff-En:   0.000D+00 0.100D+01
 Coeff:      0.109D+00 0.891D+00
 Gap=     0.197 Goal=   None    Shift=    0.000
 RMSDP=5.99D-04 MaxDP=1.60D-02 DE=-2.69D-02 OVMax= 3.43D-02

 Cycle   3  Pass 1  IDiag  1:
 E= -495.585350979129     Delta-E=        0.001401439646 Rises=F Damp=F
 DIIS: error= 3.62D-03 at cycle   3 NSaved=   3.
 NSaved= 3 IEnMin= 2 EnMin= -495.586752418775     IErMin= 2 ErrMin= 2.65D-03
 ErrMax= 3.62D-03  0.00D+00 EMaxC= 1.00D-01 BMatC= 3.65D-03 BMatP= 1.89D-03
 IDIUse=3 WtCom= 1.42D-01 WtEn= 8.58D-01
 Coeff-Com: -0.313D-01 0.597D+00 0.435D+00
 Coeff-En:   0.000D+00 0.628D+00 0.372D+00
 Coeff:     -0.446D-02 0.623D+00 0.381D+00
 Gap=     0.192 Goal=   None    Shift=    0.000
 RMSDP=3.51D-04 MaxDP=8.91D-03 DE= 1.40D-03 OVMax= 1.99D-02

 Cycle   4  Pass 1  IDiag  1:
 E= -495.588430227668     Delta-E=       -0.003079248539 Rises=F Damp=F
 DIIS: error= 3.49D-04 at cycle   4 NSaved=   4.
 NSaved= 4 IEnMin= 4 EnMin= -495.588430227668     IErMin= 4 ErrMin= 3.49D-04
 ErrMax= 3.49D-04  0.00D+00 EMaxC= 1.00D-01 BMatC= 3.42D-05 BMatP= 1.89D-03
 IDIUse=3 WtCom= 9.97D-01 WtEn= 3.49D-03
 Coeff-Com: -0.163D-01 0.205D+00 0.122D+00 0.689D+00
 Coeff-En:   0.000D+00 0.000D+00 0.000D+00 0.100D+01
 Coeff:     -0.162D-01 0.204D+00 0.121D+00 0.690D+00
 Gap=     0.191 Goal=   None    Shift=    0.000
 RMSDP=6.08D-05 MaxDP=1.46D-03 DE=-3.08D-03 OVMax= 3.18D-03

 Cycle   5  Pass 1  IDiag  1:
 E= -495.588445274268     Delta-E=       -0.000015046600 Rises=F Damp=F
 DIIS: error= 3.52D-04 at cycle   5 NSaved=   5.
 NSaved= 5 IEnMin= 5 EnMin= -495.588445274268     IErMin= 4 ErrMin= 3.49D-04
 ErrMax= 3.52D-04  0.00D+00 EMaxC= 1.00D-01 BMatC= 2.04D-05 BMatP= 3.42D-05
 IDIUse=3 WtCom= 9.96D-01 WtEn= 3.52D-03
 Coeff-Com: -0.709D-02 0.658D-01 0.324D-01 0.459D+00 0.450D+00
 Coeff-En:   0.000D+00 0.000D+00 0.000D+00 0.351D+00 0.649D+00
 Coeff:     -0.706D-02 0.656D-01 0.323D-01 0.459D+00 0.450D+00
 Gap=     0.191 Goal=   None    Shift=    0.000
 RMSDP=3.07D-05 MaxDP=8.18D-04 DE=-1.50D-05 OVMax= 1.57D-03

 Cycle   6  Pass 1  IDiag  1:
 E= -495.588461735188     Delta-E=       -0.000016460919 Rises=F Damp=F
 DIIS: error= 4.77D-05 at cycle   6 NSaved=   6.
 NSaved= 6 IEnMin= 6 EnMin= -495.588461735188     IErMin= 6 ErrMin= 4.77D-05
 ErrMax= 4.77D-05  0.00D+00 EMaxC= 1.00D-01 BMatC= 4.94D-07 BMatP= 2.04D-05
 IDIUse=1 WtCom= 1.00D+00 WtEn= 0.00D+00
 Coeff-Com: -0.146D-02 0.843D-02 0.347D-02 0.127D+00 0.187D+00 0.676D+00
 Coeff:     -0.146D-02 0.843D-02 0.347D-02 0.127D+00 0.187D+00 0.676D+00
 Gap=     0.191 Goal=   None    Shift=    0.000
 RMSDP=6.60D-06 MaxDP=1.42D-04 DE=-1.65D-05 OVMax= 2.86D-04

 Cycle   7  Pass 1  IDiag  1:
 E= -495.588462144282     Delta-E=       -0.000000409094 Rises=F Damp=F
 DIIS: error= 1.69D-05 at cycle   7 NSaved=   7.
 NSaved= 7 IEnMin= 7 EnMin= -495.588462144282     IErMin= 7 ErrMin= 1.69D-05
 ErrMax= 1.69D-05  0.00D+00 EMaxC= 1.00D-01 BMatC= 1.00D-07 BMatP= 4.94D-07
 IDIUse=1 WtCom= 1.00D+00 WtEn= 0.00D+00
 Coeff-Com:  0.210D-03-0.511D-02-0.277D-02 0.350D-02 0.351D-01 0.358D+00
 Coeff-Com:  0.611D+00
 Coeff:      0.210D-03-0.511D-02-0.277D-02 0.350D-02 0.351D-01 0.358D+00
 Coeff:      0.611D+00
 Gap=     0.191 Goal=   None    Shift=    0.000
 RMSDP=2.46D-06 MaxDP=7.87D-05 DE=-4.09D-07 OVMax= 1.27D-04

 Cycle   8  Pass 1  IDiag  1:
 E= -495.588462245147     Delta-E=       -0.000000100865 Rises=F Damp=F
 DIIS: error= 4.93D-06 at cycle   8 NSaved=   8.
 NSaved= 8 IEnMin= 8 EnMin= -495.588462245147     IErMin= 8 ErrMin= 4.93D-06
 ErrMax= 4.93D-06  0.00D+00 EMaxC= 1.00D-01 BMatC= 7.87D-09 BMatP= 1.00D-07
 IDIUse=1 WtCom= 1.00D+00 WtEn= 0.00D+00
 Coeff-Com:  0.218D-03-0.317D-02-0.168D-02-0.873D-02 0.522D-03 0.119D+00
 Coeff-Com:  0.297D+00 0.597D+00
 Coeff:      0.218D-03-0.317D-02-0.168D-02-0.873D-02 0.522D-03 0.119D+00
 Coeff:      0.297D+00 0.597D+00
 Gap=     0.191 Goal=   None    Shift=    0.000
 RMSDP=7.77D-07 MaxDP=2.16D-05 DE=-1.01D-07 OVMax= 3.63D-05

 Cycle   9  Pass 1  IDiag  1:
 E= -495.588462253469     Delta-E=       -0.000000008322 Rises=F Damp=F
 DIIS: error= 1.72D-06 at cycle   9 NSaved=   9.
 NSaved= 9 IEnMin= 9 EnMin= -495.588462253469     IErMin= 9 ErrMin= 1.72D-06
 ErrMax= 1.72D-06  0.00D+00 EMaxC= 1.00D-01 BMatC= 6.38D-10 BMatP= 7.87D-09
 IDIUse=1 WtCom= 1.00D+00 WtEn= 0.00D+00
 Coeff-Com:  0.616D-04-0.685D-03-0.400D-03-0.375D-02-0.383D-02 0.954D-02
 Coeff-Com:  0.527D-01 0.248D+00 0.699D+00
 Coeff:      0.616D-04-0.685D-03-0.400D-03-0.375D-02-0.383D-02 0.954D-02
 Coeff:      0.527D-01 0.248D+00 0.699D+00
 Gap=     0.191 Goal=   None    Shift=    0.000
 RMSDP=2.60D-07 MaxDP=5.42D-06 DE=-8.32D-09 OVMax= 1.27D-05

 Cycle  10  Pass 1  IDiag  1:
 E= -495.588462254037     Delta-E=       -0.000000000568 Rises=F Damp=F
 DIIS: error= 1.05D-06 at cycle  10 NSaved=  10.
 NSaved=10 IEnMin=10 EnMin= -495.588462254037     IErMin=10 ErrMin= 1.05D-06
 ErrMax= 1.05D-06  0.00D+00 EMaxC= 1.00D-01 BMatC= 2.15D-10 BMatP= 6.38D-10
 IDIUse=1 WtCom= 1.00D+00 WtEn= 0.00D+00
 Coeff-Com:  0.824D-05 0.281D-04-0.951D-05-0.111D-02-0.250D-02-0.115D-01
 Coeff-Com: -0.972D-02 0.717D-01 0.430D+00 0.523D+00
 Coeff:      0.824D-05 0.281D-04-0.951D-05-0.111D-02-0.250D-02-0.115D-01
 Coeff:     -0.972D-02 0.717D-01 0.430D+00 0.523D+00
 Gap=     0.191 Goal=   None    Shift=    0.000
 RMSDP=9.72D-08 MaxDP=2.50D-06 DE=-5.68D-10 OVMax= 4.32D-06

 Cycle  11  Pass 1  IDiag  1:
 E= -495.588462254235     Delta-E=       -0.000000000198 Rises=F Damp=F
 DIIS: error= 1.05D-07 at cycle  11 NSaved=  11.
 NSaved=11 IEnMin=11 EnMin= -495.588462254235     IErMin=11 ErrMin= 1.05D-07
 ErrMax= 1.05D-07  0.00D+00 EMaxC= 1.00D-01 BMatC= 4.03D-12 BMatP= 2.15D-10
 IDIUse=1 WtCom= 1.00D+00 WtEn= 0.00D+00
 Coeff-Com: -0.185D-05 0.616D-04 0.343D-04-0.132D-03-0.555D-03-0.464D-02
 Coeff-Com: -0.708D-02 0.708D-02 0.101D+00 0.175D+00 0.729D+00
 Coeff:     -0.185D-05 0.616D-04 0.343D-04-0.132D-03-0.555D-03-0.464D-02
 Coeff:     -0.708D-02 0.708D-02 0.101D+00 0.175D+00 0.729D+00
 Gap=     0.191 Goal=   None    Shift=    0.000
 RMSDP=1.99D-08 MaxDP=4.06D-07 DE=-1.98D-10 OVMax= 9.56D-07

 Cycle  12  Pass 1  IDiag  1:
 E= -495.588462254232     Delta-E=        0.000000000003 Rises=F Damp=F
 DIIS: error= 1.06D-07 at cycle  12 NSaved=  12.
 NSaved=12 IEnMin=11 EnMin= -495.588462254235     IErMin=11 ErrMin= 1.05D-07
 ErrMax= 1.06D-07  0.00D+00 EMaxC= 1.00D-01 BMatC= 1.19D-12 BMatP= 4.03D-12
 IDIUse=1 WtCom= 1.00D+00 WtEn= 0.00D+00
 Coeff-Com: -0.130D-05 0.294D-04 0.201D-04-0.152D-05-0.121D-03-0.170D-02
 Coeff-Com: -0.315D-02-0.158D-02 0.215D-01 0.545D-01 0.415D+00 0.516D+00
 Coeff:     -0.130D-05 0.294D-04 0.201D-04-0.152D-05-0.121D-03-0.170D-02
[...]
 DIIS: error= 3.98D-06 at cycle   2 NSaved=   2.
 NSaved= 2 IEnMin= 2 EnMin= -492.711850601003     IErMin= 2 ErrMin= 3.98D-06
 ErrMax= 3.98D-06  0.00D+00 EMaxC= 1.00D-01 BMatC= 1.86D-09 BMatP= 4.33D-09
 IDIUse=1 WtCom= 1.00D+00 WtEn= 0.00D+00
 Coeff-Com:  0.126D+00 0.874D+00
 Coeff:      0.126D+00 0.874D+00
 Gap=     0.289 Goal=   None    Shift=    0.000
 RMSDP=1.20D-06 MaxDP=3.66D-05 DE=-1.45D-08 OVMax= 3.53D-05

 Cycle  12  Pass 1  IDiag  1:
 RMSU=  5.91D-07    CP:  1.00D+00  1.36D+00
 E= -492.711850606837     Delta-E=       -0.000000005834 Rises=F Damp=F
 DIIS: error= 2.27D-06 at cycle   3 NSaved=   3.
 NSaved= 3 IEnMin= 3 EnMin= -492.711850606837     IErMin= 3 ErrMin= 2.27D-06
 ErrMax= 2.27D-06  0.00D+00 EMaxC= 1.00D-01 BMatC= 8.72D-10 BMatP= 1.86D-09
 IDIUse=1 WtCom= 1.00D+00 WtEn= 0.00D+00
 Coeff-Com: -0.735D+00 0.204D-01 0.171D+01
 Coeff:     -0.735D+00 0.204D-01 0.171D+01
 Gap=     0.289 Goal=   None    Shift=    0.000
 RMSDP=3.03D-06 MaxDP=1.05D-04 DE=-5.83D-09 OVMax= 6.99D-05

 Cycle  13  Pass 1  IDiag  1:
 RMSU=  3.69D-07    CP:  1.00D+00  2.38D+00  1.97D+00
 E= -492.711850612350     Delta-E=       -0.000000005514 Rises=F Damp=F
 DIIS: error= 2.99D-07 at cycle   4 NSaved=   4.
 NSaved= 4 IEnMin= 4 EnMin= -492.711850612350     IErMin= 4 ErrMin= 2.99D-07
 ErrMax= 2.99D-07  0.00D+00 EMaxC= 1.00D-01 BMatC= 3.69D-11 BMatP= 8.72D-10
 IDIUse=1 WtCom= 1.00D+00 WtEn= 0.00D+00
 Coeff-Com: -0.178D+00-0.498D-01 0.394D+00 0.833D+00
 Coeff:     -0.178D+00-0.498D-01 0.394D+00 0.833D+00
 Gap=     0.289 Goal=   None    Shift=    0.000
 RMSDP=3.40D-07 MaxDP=1.17D-05 DE=-5.51D-09 OVMax= 6.99D-06

 Cycle  14  Pass 1  IDiag  1:
 RMSU=  8.67D-08    CP:  1.00D+00  2.50D+00  2.04D+00  1.17D+00
 E= -492.711850612440     Delta-E=       -0.000000000089 Rises=F Damp=F
 DIIS: error= 1.54D-07 at cycle   5 NSaved=   5.
 NSaved= 5 IEnMin= 5 EnMin= -492.711850612440     IErMin= 5 ErrMin= 1.54D-07
 ErrMax= 1.54D-07  0.00D+00 EMaxC= 1.00D-01 BMatC= 5.62D-12 BMatP= 3.69D-11
 IDIUse=1 WtCom= 1.00D+00 WtEn= 0.00D+00
 Coeff-Com:  0.156D+00-0.108D-01-0.355D+00 0.165D-01 0.119D+01
 Coeff:      0.156D+00-0.108D-01-0.355D+00 0.165D-01 0.119D+01
 Gap=     0.289 Goal=   None    Shift=    0.000
 RMSDP=1.21D-07 MaxDP=3.56D-06 DE=-8.92D-11 OVMax= 2.95D-06

 Cycle  15  Pass 1  IDiag  1:
 RMSU=  3.45D-08    CP:  1.00D+00  2.53D+00  2.10D+00  1.32D+00  1.31D+00
 E= -492.711850612475     Delta-E=       -0.000000000035 Rises=F Damp=F
 DIIS: error= 2.83D-08 at cycle   6 NSaved=   6.
 NSaved= 6 IEnMin= 6 EnMin= -492.711850612475     IErMin= 6 ErrMin= 2.83D-08
 ErrMax= 2.83D-08  0.00D+00 EMaxC= 1.00D-01 BMatC= 6.05D-13 BMatP= 5.62D-12
 IDIUse=1 WtCom= 1.00D+00 WtEn= 0.00D+00
 Coeff-Com:  0.459D-01 0.294D-02-0.986D-01-0.854D-01 0.239D+00 0.896D+00
 Coeff:      0.459D-01 0.294D-02-0.986D-01-0.854D-01 0.239D+00 0.896D+00
 Gap=     0.289 Goal=   None    Shift=    0.000
 RMSDP=2.21D-08 MaxDP=8.80D-07 DE=-3.51D-11 OVMax= 3.74D-07

 Cycle  16  Pass 1  IDiag  1:
 RMSU=  1.35D-08    CP:  1.00D+00  2.53D+00  2.09D+00  1.35D+00  1.39D+00
                    CP:  1.20D+00
 E= -492.711850612479     Delta-E=       -0.000000000004 Rises=F Damp=F
 DIIS: error= 1.62D-08 at cycle   7 NSaved=   7.
 NSaved= 7 IEnMin= 7 EnMin= -492.711850612479     IErMin= 7 ErrMin= 1.62D-08
 ErrMax= 1.62D-08  0.00D+00 EMaxC= 1.00D-01 BMatC= 7.26D-14 BMatP= 6.05D-13
 IDIUse=1 WtCom= 1.00D+00 WtEn= 0.00D+00
 Coeff-Com: -0.146D-01-0.123D-03 0.342D-01-0.139D-01-0.110D+00 0.559D-01
 Coeff-Com:  0.105D+01
 Coeff:     -0.146D-01-0.123D-03 0.342D-01-0.139D-01-0.110D+00 0.559D-01
 Coeff:      0.105D+01
 Gap=     0.289 Goal=   None    Shift=    0.000
 RMSDP=1.03D-08 MaxDP=2.77D-07 DE=-3.75D-12 OVMax= 2.26D-07

 Cycle  17  Pass 1  IDiag  1:
 RMSU=  4.37D-09    CP:  1.00D+00  2.53D+00  2.10D+00  1.34D+00  1.40D+00
                    CP:  1.33D+00  1.19D+00
 E= -492.711850612475     Delta-E=        0.000000000003 Rises=F Damp=F
 DIIS: error= 6.67D-09 at cycle   8 NSaved=   8.
 NSaved= 8 IEnMin= 7 EnMin= -492.711850612479     IErMin= 8 ErrMin= 6.67D-09
 ErrMax= 6.67D-09  0.00D+00 EMaxC= 1.00D-01 BMatC= 1.97D-14 BMatP= 7.26D-14
 IDIUse=1 WtCom= 1.00D+00 WtEn= 0.00D+00
 Coeff-Com: -0.116D-01-0.897D-03 0.269D-01 0.808D-02-0.678D-01-0.141D+00
 Coeff-Com:  0.255D+00 0.932D+00
 Coeff:     -0.116D-01-0.897D-03 0.269D-01 0.808D-02-0.678D-01-0.141D+00
 Coeff:      0.255D+00 0.932D+00
 Gap=     0.289 Goal=   None    Shift=    0.000
 RMSDP=3.98D-09 MaxDP=8.40D-08 DE= 3.18D-12 OVMax= 1.10D-07

 SCF Done:  E(RHF) =  -492.711850612     A.U. after   17 cycles
            NFock= 17  Conv=0.40D-08     -V/T= 2.0013
 KE= 4.920906793267D+02 PE=-2.147190055017D+03 EE= 6.736735556511D+02
 Leave Link  502 at Mon Jul 12 13:03:50 2021, MaxMem=   262144000 cpu:             594.5 elap:             150.1
 (Enter /dades/curu/g16A03_MST/g16/l801.exe)
 ExpMin= 2.97D-02 ExpMax= 1.17D+04 ExpMxC= 4.01D+02 IAcc=3 IRadAn=         5 AccDes= 0.00D+00
 HarFok:  IExCor=  205 AccDes= 0.00D+00 IRadAn=         5 IDoV=-2 UseB2=F ITyADJ=14
 ICtDFT= 12500011 ScaDFX=  1.000000  1.000000  1.000000  1.000000
 Largest valence mixing into a core orbital is  1.18D-04
 Largest core mixing into a valence orbital is  4.39D-05
 Range of M.O.s used for correlation:    11   275
 NBasis=   275 NAE=    36 NBE=    36 NFC=    10 NFV=     0
 NROrb=    265 NOA=    26 NOB=    26 NVA=   239 NVB=   239

 **** Warning!!: The largest alpha MO coefficient is  0.14246365D+03

 Leave Link  801 at Mon Jul 12 13:03:50 2021, MaxMem=   262144000 cpu:               0.8 elap:               0.2
 (Enter /dades/curu/g16A03_MST/g16/l906.exe)
 FulOut=F Deriv=F AODrv=F NAtomX=    15
   MMem=          33  MDisk=          26 MDiskD=          26
  W3Min=     1833130 MinDsk=     2275006 NBas6D=         295
 NBas2D=       44080    NTT=       43660    LW2=     2000000
    MDV=   261548225 MDiskM=       12219 NBas2p=       43203
 Fully direct method using O(OVN) memory.
 IMap=   1   2   3   4   5   6   7   8   9  10  11  12  13  14  15  16  17  18  19  20
 IMap=  21  22  23  24  25  26
 JobTyp=1 Pass  1:  I=   1 to  26 NPSUse=  4 ParTrn=T ParDer=T DoDerP=F.
 Spin components of T(2) and E(2):
     alpha-alpha T2 =       0.7620540936D-01 E2=     -0.2141863535D+00
     alpha-beta  T2 =       0.3747652310D+00 E2=     -0.1115849023D+01
     beta-beta   T2 =       0.7620540936D-01 E2=     -0.2141863535D+00
 The integrals were generated   1 times.
 ANorm=    0.1235789646D+01
 E2 =    -0.1544221730D+01 EUMP2 =    -0.49425607234236D+03
 Leave Link  906 at Mon Jul 12 13:04:43 2021, MaxMem=   262144000 cpu:             210.6 elap:              52.8
 (Enter /dades/curu/g16A03_MST/g16/l601.exe)
 Copying SCF densities to generalized density rwf, IOpCl= 0 IROHF=0.

 **********************************************************************

            Population analysis using the SCF density.

 **********************************************************************

 Orbital symmetries:
       Occupied  (A) (A) (A) (A) (A) (A) (A) (A) (A) (A) (A) (A)
                 (A) (A) (A) (A) (A) (A) (A) (A) (A) (A) (A) (A)
                 (A) (A) (A) (A) (A) (A) (A) (A) (A) (A) (A) (A)
       Virtual   (A) (A) (A) (A) (A) (A) (A) (A) (A) (A) (A) (A)
                 (A) (A) (A) (A) (A) (A) (A) (A) (A) (A) (A) (A)
                 (A) (A) (A) (A) (A) (A) (A) (A) (A) (A) (A) (A)
                 (A) (A) (A) (A) (A) (A) (A) (A) (A) (A) (A) (A)
                 (A) (A) (A) (A) (A) (A) (A) (A) (A) (A) (A) (A)
                 (A) (A) (A) (A) (A) (A) (A) (A) (A) (A) (A) (A)
                 (A) (A) (A) (A) (A) (A) (A) (A) (A) (A) (A) (A)
                 (A) (A) (A) (A) (A) (A) (A) (A) (A) (A) (A) (A)
                 (A) (A) (A) (A) (A) (A) (A) (A) (A) (A) (A) (A)
                 (A) (A) (A) (A) (A) (A) (A) (A) (A) (A) (A) (A)
                 (A) (A) (A) (A) (A) (A) (A) (A) (A) (A) (A) (A)
                 (A) (A) (A) (A) (A) (A) (A) (A) (A) (A) (A) (A)
                 (A) (A) (A) (A) (A) (A) (A) (A) (A) (A) (A) (A)
                 (A) (A) (A) (A) (A) (A) (A) (A) (A) (A) (A) (A)
                 (A) (A) (A) (A) (A) (A) (A) (A) (A) (A) (A) (A)
                 (A) (A) (A) (A) (A) (A) (A) (A) (A) (A) (A) (A)
                 (A) (A) (A) (A) (A) (A) (A) (A) (A) (A) (A) (A)
                 (A) (A) (A) (A) (A) (A) (A) (A) (A) (A) (A) (A)
                 (A) (A) (A) (A) (A) (A) (A) (A) (A) (A) (A) (A)
                 (A) (A) (A) (A) (A) (A) (A) (A) (A) (A) (A)
 The electronic state is 1-A.
 Alpha  occ. eigenvalues --  -20.42995 -20.34565 -20.33668 -11.18686 -11.17676
 Alpha  occ. eigenvalues --  -11.12978 -11.11445 -11.10794 -11.10756 -11.09585
 Alpha  occ. eigenvalues --   -1.25192  -1.20618  -1.10566  -1.01631  -0.89443
 Alpha  occ. eigenvalues --   -0.87213  -0.72480  -0.68788  -0.61702  -0.56586
 Alpha  occ. eigenvalues --   -0.54584  -0.50965  -0.47509  -0.46526  -0.44454
 Alpha  occ. eigenvalues --   -0.43450  -0.41986  -0.40132  -0.38840  -0.36099
 Alpha  occ. eigenvalues --   -0.34435  -0.24984  -0.24445  -0.23306  -0.20927
 Alpha  occ. eigenvalues --   -0.17606
 Alpha virt. eigenvalues --    0.11263   0.12198   0.13367   0.15393   0.16514
 Alpha virt. eigenvalues --    0.20748   0.20865   0.21610   0.21903   0.22815
 Alpha virt. eigenvalues --    0.23194   0.23222   0.23519   0.24018   0.25219
 Alpha virt. eigenvalues --    0.25635   0.26394   0.26472   0.27433   0.27624
 Alpha virt. eigenvalues --    0.28404   0.29436   0.29918   0.30454   0.31331
 Alpha virt. eigenvalues --    0.32457   0.33561   0.33648   0.35111   0.37652
 Alpha virt. eigenvalues --    0.38984   0.39749   0.41091   0.41659   0.41884
 Alpha virt. eigenvalues --    0.41972   0.43303   0.43406   0.43785   0.45496
 Alpha virt. eigenvalues --    0.46281   0.46475   0.48031   0.48624   0.48753
 Alpha virt. eigenvalues --    0.49417   0.49541   0.50356   0.51777   0.52284
 Alpha virt. eigenvalues --    0.52571   0.54292   0.54775   0.55385   0.56430
 Alpha virt. eigenvalues --    0.57842   0.59871   0.60601   0.60895   0.63506
 Alpha virt. eigenvalues --    0.63760   0.64662   0.66692   0.66828   0.68534
 Alpha virt. eigenvalues --    0.70274   0.71589   0.71627   0.72423   0.73618
 Alpha virt. eigenvalues --    0.73940   0.75126   0.75654   0.78413   0.78505
 Alpha virt. eigenvalues --    0.79891   0.80370   0.80693   0.81578   0.81907
 Alpha virt. eigenvalues --    0.82813   0.83942   0.85306   0.85818   0.86847
 Alpha virt. eigenvalues --    0.88007   0.88864   0.90709   0.91059   0.92363
 Alpha virt. eigenvalues --    0.95091   0.97420   0.97859   0.98884   0.99442
 Alpha virt. eigenvalues --    1.01809   1.02200   1.03342   1.04184   1.04287
 Alpha virt. eigenvalues --    1.05710   1.07131   1.07887   1.08292   1.08624
 Alpha virt. eigenvalues --    1.09928   1.10410   1.12121   1.13787   1.14602
 Alpha virt. eigenvalues --    1.15137   1.17889   1.19063   1.19772   1.19833
 Alpha virt. eigenvalues --    1.21712   1.22880   1.24907   1.26751   1.29552
 Alpha virt. eigenvalues --    1.30191   1.32819   1.34750   1.39686   1.39752
 Alpha virt. eigenvalues --    1.40002   1.43940   1.47433   1.49677   1.52067
 Alpha virt. eigenvalues --    1.55300   1.55827   1.56385   1.57035   1.59383
 Alpha virt. eigenvalues --    1.61383   1.63815   1.64450   1.64510   1.66800
 Alpha virt. eigenvalues --    1.67720   1.69630   1.69910   1.70019   1.72333
 Alpha virt. eigenvalues --    1.73958   1.75026   1.77485   1.79668   1.81527
 Alpha virt. eigenvalues --    1.82792   1.83388   1.83995   1.85629   1.86470
 Alpha virt. eigenvalues --    1.88074   1.88255   1.91992   1.95238   1.96960
 Alpha virt. eigenvalues --    1.97065   1.98681   2.00479   2.03576   2.04996
 Alpha virt. eigenvalues --    2.05747   2.05920   2.07559   2.07821   2.10183
 Alpha virt. eigenvalues --    2.11643   2.13253   2.13315   2.16109   2.16625
 Alpha virt. eigenvalues --    2.19152   2.22960   2.25345   2.25598   2.26416
 Alpha virt. eigenvalues --    2.29926   2.30809   2.34626   2.35339   2.36988
 Alpha virt. eigenvalues --    2.39452   2.39659   2.44139   2.44879   2.46759
 Alpha virt. eigenvalues --    2.47073   2.49284   2.49323   2.52217   2.55243
 Alpha virt. eigenvalues --    2.55363   2.57621   2.59956   2.70868   2.75106
 Alpha virt. eigenvalues --    2.76275   2.77664   2.83658   2.85687   2.92999
 Alpha virt. eigenvalues --    2.93278   2.96784   3.01111   3.09501   3.10265
 Alpha virt. eigenvalues --    3.14317   3.21420   3.25541   3.30629   3.36176
 Alpha virt. eigenvalues --    3.37148   3.41878   3.43536   3.54611   3.60599
 Alpha virt. eigenvalues --    3.71624   3.79302   3.90777   3.93878   3.94688
 Alpha virt. eigenvalues --    3.95929   3.96527   4.01966   4.04609   4.04847
 Alpha virt. eigenvalues --    4.06891   4.12627   4.14898   4.20982   4.28260
 Alpha virt. eigenvalues --    4.35351   4.44117   4.65321   4.81999
          Condensed to atoms (all electrons):
               1          2          3          4          5          6
     1  O    9.141560   0.189438  -0.120086   0.093136   0.044507  -0.083636
     2  C    0.189438   7.339595   0.232793  -0.726769  -0.717893   0.023907
     3  O   -0.120086   0.232793   8.928948   0.062396  -0.026576  -0.007249
     4  C    0.093136  -0.726769   0.062396  10.840426  -2.415278   0.249659
     5  C    0.044507  -0.717893  -0.026576  -2.415278  13.166507  -0.511827
     6  O   -0.083636   0.023907  -0.007249   0.249659  -0.511827   9.199219
     7  H    0.017479  -0.069084   0.006791  -0.069514   0.017094   0.302184
     8  C   -0.093540  -0.355434  -0.012817   0.704732  -3.351446  -0.044424
     9  H    0.003557   0.009255   0.000308  -0.107622   0.986809  -0.069481
    10  C   -0.011877   0.223432  -0.007116  -2.246970   1.816581  -0.131622
    11  H   -0.000289  -0.009681   0.000261   0.056319  -0.177220  -0.004254
    12  C   -0.020636  -0.296771  -0.110312   1.109706  -2.700293   0.071519
    13  H    0.000496   0.014130   0.000669  -0.087692   0.072281   0.002010
    14  C   -0.078281  -0.761092   0.042822  -2.821241  -0.319002   0.031890
    15  H    0.004090   0.065886  -0.030797   0.506668  -0.048402  -0.000578
               7          8          9         10         11         12
     1  O    0.017479  -0.093540   0.003557  -0.011877  -0.000289  -0.020636
     2  C   -0.069084  -0.355434   0.009255   0.223432  -0.009681  -0.296771
     3  O    0.006791  -0.012817   0.000308  -0.007116   0.000261  -0.110312
     4  C   -0.069514   0.704732  -0.107622  -2.246970   0.056319   1.109706
     5  C    0.017094  -3.351446   0.986809   1.816581  -0.177220  -2.700293
     6  O    0.302184  -0.044424  -0.069481  -0.131622  -0.004254   0.071519
     7  H    0.491907   0.021675  -0.002084   0.006222  -0.000228  -0.011629
     8  C    0.021675  12.605047  -1.231913  -2.759948   0.440532   2.928398
     9  H   -0.002084  -1.231913   1.792251   0.324607  -0.078589  -0.263938
    10  C    0.006222  -2.759948   0.324607   9.083768  -0.650077  -2.472251
    11  H   -0.000228   0.440532  -0.078589  -0.650077   1.682274   0.417257
    12  C   -0.011629   2.928398  -0.263938  -2.472251   0.417257  10.705336
    13  H   -0.000002  -0.186963  -0.014736   0.318376  -0.065924  -0.798455
    14  C    0.001211  -3.592349   0.167549   2.212819  -0.138529  -3.291485
    15  H   -0.002282   0.109959   0.008494  -0.163033  -0.009932   0.285595
              13         14         15
     1  O    0.000496  -0.078281   0.004090
     2  C    0.014130  -0.761092   0.065886
     3  O    0.000669   0.042822  -0.030797
     4  C   -0.087692  -2.821241   0.506668
     5  C    0.072281  -0.319002  -0.048402
     6  O    0.002010   0.031890  -0.000578
     7  H   -0.000002   0.001211  -0.002282
     8  C   -0.186963  -3.592349   0.109959
     9  H   -0.014736   0.167549   0.008494
    10  C    0.318376   2.212819  -0.163033
    11  H   -0.065924  -0.138529  -0.009932
    12  C   -0.798455  -3.291485   0.285595
    13  H    1.701032   0.588014  -0.083211
    14  C    0.588014  14.569771  -0.858643
    15  H   -0.083211  -0.858643   1.811339
 Mulliken charges:
               1
     1  O   -1.085918
     2  C    0.838288
     3  O   -0.960035
     4  C    0.852044
     5  C    0.164159
     6  O   -1.027316
     7  H    0.290259
     8  C    0.818490
     9  H   -0.524465
    10  C    0.457088
    11  H   -0.461920
    12  C    0.447958
    13  H   -0.460025
    14  C    0.246545
    15  H   -0.595152
 Sum of Mulliken charges =  -1.00000
 Mulliken charges with hydrogens summed into heavy atoms:
               1
     1  O   -1.085918
     2  C    0.838288
     3  O   -0.960035
     4  C    0.852044
     5  C    0.164159
     6  O   -0.737057
     8  C    0.294025
    10  C   -0.004832
    12  C   -0.012067
    14  C   -0.348607
 Electronic spatial extent (au):  <R**2>=           1353.8262
 Charge=             -1.0000 electrons
 Dipole moment (field-independent basis, Debye):
    X=              8.0827    Y=              0.1790    Z=             -0.0014  Tot=              8.0847
 Quadrupole moment (field-independent basis, Debye-Ang):
   XX=            -86.5686   YY=            -72.4531   ZZ=            -63.3464
   XY=             -4.6381   XZ=             -0.0010   YZ=              0.0052
 Traceless Quadrupole moment (field-independent basis, Debye-Ang):
   XX=            -12.4459   YY=              1.6696   ZZ=             10.7763
   XY=             -4.6381   XZ=             -0.0010   YZ=              0.0052
 Octapole moment (field-independent basis, Debye-Ang**2):
  XXX=             57.2586  YYY=             -1.5045  ZZZ=              0.0029  XYY=             14.0273
  XXY=             18.8497  XXZ=              0.0114  XZZ=            -12.5026  YZZ=              3.8433
  YYZ=             -0.0186  XYZ=             -0.0026
 Hexadecapole moment (field-independent basis, Debye-Ang**3):
 XXXX=          -1315.9481 YYYY=           -652.5562 ZZZZ=            -73.6050 XXXY=            -23.5679
 XXXZ=             -0.0188 YYYX=            -27.1631 YYYZ=              0.0034 ZZZX=              0.0070
 ZZZY=              0.0073 XXYY=           -329.5236 XXZZ=           -220.9383 YYZZ=           -122.5306
 XXYZ=              0.0639 YYXZ=              0.0071 ZZXY=              3.1521
 N-N= 4.887139694268D+02 E-N=-2.147190054908D+03  KE= 4.920906793267D+02
 Leave Link  601 at Mon Jul 12 13:04:43 2021, MaxMem=   262144000 cpu:               0.2 elap:               0.1
 (Enter /dades/curu/g16A03_MST/g16/l9999.exe)
 1\1\GINC-PIRINEUS23\SP\RMP2-FC\Aug-CC-pVDZ\C7H5O3(1-)\UBATOR02\12-Jul-
 2021\0\\#p mp2/aug-cc-pVDZ scf=tight maxdisk=180GB geom=allcheck\\SET_
 328_BBB299_conf1.geo_000_000 geometry\\-1,1\O,0,-2.5397242609,-1.06202
 23755,0.3162795929\C,0,-1.8521805005,-0.1084056808,0.8367368409\O,0,-2
 .2655455171,0.6623614702,1.7319196019\C,0,-0.4447357887,0.0753049527,0
 .3116589925\C,0,0.0779841912,-0.7651636005,-0.7011272044\O,0,-0.655929
 4603,-1.7603312598,-1.2384594191\H,0,-1.544782277,-1.6977434278,-0.744
 4999495\C,0,1.3894183244,-0.5662550168,-1.1642778929\H,0,1.7685496256,
 -1.2220517564,-1.9413279911\C,0,2.1737277799,0.4516265921,-0.631285537
 4\H,0,3.1856014109,0.5940207674,-0.9997087652\C,0,1.6688356422,1.28952
 26877,0.3700282613\H,0,2.2831808597,2.082184293,0.7844890778\C,0,0.369
 3125881,1.0899964469,0.8267560006\H,0,-0.0587126176,1.7169559075,1.600
 8183916\\Version=ES64L-G16RevA.03\State=1-A\HF=-492.7118506\MP2=-494.2
 560723\RMSD=3.976e-09\PG=C01 [X(C7H5O3)]\\@


 SOME PHYSICISTS WOULD PREFER TO COME BACK TO THE IDEA OF AN OBJECTIVE
 REAL WORLD WHOSE SMALLEST PARTS EXIST OBJECTIVELY IN THE SAME SENSE AS
 STONES OR TREES EXIST INDEPENDENTLY OF WHETHER WE OBSERVE THEM.
 THIS, HOWEVER, IS IMPOSSIBLE.  -- WERNER HEISENBERG
 Job cpu time:       0 days  0 hours 13 minutes 37.9 seconds.
 Elapsed time:       0 days  0 hours  3 minutes 26.4 seconds.
 File lengths (MBytes):  RWF=     46 Int=      0 D2E=      0 Chk=      9 Scr=      1
 Normal termination of Gaussian 16 at Mon Jul 12 13:04:43 2021.
