 Entering Gaussian System, Link 0=g16
 Input=SET_328_BBB212_conf1.geo_300_135_OCTANOL.dat
 Output=SET_328_BBB212_conf1.geo_300_135_OCTANOL.log
 Initial command:
 /dades/curu/g16A03_MST/g16/l1.exe "/tmp/ubator02/1835279/Gau-43858.inp" -scrdir="/tmp/ubator02/1835279/"
 Entering Link 1 = /dades/curu/g16A03_MST/g16/l1.exe PID=     43861.
  
 Copyright (c) 1988,1990,1992,1993,1995,1998,2003,2009,2016,
            Gaussian, Inc.  All Rights Reserved.
  
 This is part of the Gaussian(R) 16 program.  It is based on
 the Gaussian(R) 09 system (copyright 2009, Gaussian, Inc.),
 the Gaussian(R) 03 system (copyright 2003, Gaussian, Inc.),
 the Gaussian(R) 98 system (copyright 1998, Gaussian, Inc.),
 the Gaussian(R) 94 system (copyright 1995, Gaussian, Inc.),
 the Gaussian 92(TM) system (copyright 1992, Gaussian, Inc.),
 the Gaussian 90(TM) system (copyright 1990, Gaussian, Inc.),
 the Gaussian 88(TM) system (copyright 1988, Gaussian, Inc.),
 the Gaussian 86(TM) system (copyright 1986, Carnegie Mellon
 University), and the Gaussian 82(TM) system (copyright 1983,
 Carnegie Mellon University). Gaussian is a federally registered
 trademark of Gaussian, Inc.
  
 This software contains proprietary and confidential information,
 including trade secrets, belonging to Gaussian, Inc.
  
 This software is provided under written license and may be
 used, copied, transmitted, or stored only in accord with that
 written license.
  
 The following legend is applicable only to US Government
 contracts under FAR:
  
                    RESTRICTED RIGHTS LEGEND
  
 Use, reproduction and disclosure by the US Government is
 subject to restrictions as set forth in subparagraphs (a)
 and (c) of the Commercial Computer Software - Restricted
 Rights clause in FAR 52.227-19.
  
 Gaussian, Inc.
 340 Quinnipiac St., Bldg. 40, Wallingford CT 06492
  
  
 ---------------------------------------------------------------
 Warning -- This program may not be used in any manner that
 competes with the business of Gaussian, Inc. or will provide
 assistance to any competitor of Gaussian, Inc.  The licensee
 of this program is prohibited from giving any competitor of
 Gaussian, Inc. access to this program.  By using this program,
 the user acknowledges that Gaussian, Inc. is engaged in the
 business of creating and licensing software in the field of
 computational chemistry and represents and warrants to the
 licensee that it is not a competitor of Gaussian, Inc. and that
 it will not use this program in any manner prohibited above.
 ---------------------------------------------------------------
  

 Cite this work as:
 Gaussian 16, Revision A.03,
 M. J. Frisch, G. W. Trucks, H. B. Schlegel, G. E. Scuseria, 
 M. A. Robb, J. R. Cheeseman, G. Scalmani, V. Barone, 
 G. A. Petersson, H. Nakatsuji, X. Li, M. Caricato, A. V. Marenich, 
 J. Bloino, B. G. Janesko, R. Gomperts, B. Mennucci, H. P. Hratchian, 
 J. V. Ortiz, A. F. Izmaylov, J. L. Sonnenberg, D. Williams-Young, 
 F. Ding, F. Lipparini, F. Egidi, J. Goings, B. Peng, A. Petrone, 
 T. Henderson, D. Ranasinghe, V. G. Zakrzewski, J. Gao, N. Rega, 
 G. Zheng, W. Liang, M. Hada, M. Ehara, K. Toyota, R. Fukuda, 
 J. Hasegawa, M. Ishida, T. Nakajima, Y. Honda, O. Kitao, H. Nakai, 
 T. Vreven, K. Throssell, J. A. Montgomery, Jr., J. E. Peralta, 
 F. Ogliaro, M. J. Bearpark, J. J. Heyd, E. N. Brothers, K. N. Kudin, 
 V. N. Staroverov, T. A. Keith, R. Kobayashi, J. Normand, 
 K. Raghavachari, A. P. Rendell, J. C. Burant, S. S. Iyengar, 
 J. Tomasi, M. Cossi, J. M. Millam, M. Klene, C. Adamo, R. Cammi, 
 J. W. Ochterski, R. L. Martin, K. Morokuma, O. Farkas, 
 J. B. Foresman, and D. J. Fox, Gaussian, Inc., Wallingford CT, 2016.
 
 ******************************************
 Gaussian 16:  ES64L-G16RevA.03 25-Dec-2016
                12-Jul-2021 
 ******************************************
 %mem=800MB
 %nproc=4
 Will use up to    4 processors via shared memory.
 %chk=SET_328_BBB212_conf1.geo_300_135.chk
 ---------------------------------------------------------------
 #p b3lyp/6-31G(d) opt freq scrf=(iefpcm,read,solvent=n-octanol)
 ---------------------------------------------------------------
 1/18=20,19=15,26=3,38=1,40=2/1,3;
 2/9=110,12=2,17=6,18=5,40=1/2;
 3/5=1,6=6,7=1,11=2,25=1,30=1,70=2203,71=1,72=25,74=-5/1,2,3;
 4//1;
 5/5=2,38=5,53=25/2;
 6/7=2,8=2,9=2,10=2,28=1/1;
 7//1,2,3,16;
 1/18=20,19=15,26=3/3(2);
 2/9=110/2;
 99//99;
 2/9=110/2;
 3/5=1,6=6,7=1,11=2,25=1,30=1,70=2205,71=1,72=25,74=-5/1,2,3;
 4/5=5,16=3,69=1/1;
 5/5=2,38=5,53=25/2;
 7//1,2,3,16;
 1/18=20,19=15,26=3/3(-5);
 2/9=110/2;
 6/7=2,8=2,9=2,10=2,19=2,28=1/1;
 99/9=1/99;
 Leave Link    1 at Mon Jul 12 12:15:40 2021, MaxMem=   104857600 cpu:               0.0 elap:               0.0
 (Enter /dades/curu/g16A03_MST/g16/l101.exe)
 -----------------------------------------
 SET_328_BBB212_conf1.geo_300_135 geometry
 -----------------------------------------
 Symbolic Z-matrix:
 Charge = -1 Multiplicity = 1
 C                     1.472    -0.823     1.663 
 H                     2.045    -0.031     2.149 
 H                     2.043    -1.274     0.848 
 H                     1.24     -1.648     2.34 
 C                     0.229    -0.15      1.102 
 C                    -0.522     0.5       2.365 
 H                    -1.38      1.141     2.153 
 H                     0.148     1.065     3.016 
 H                    -0.928    -0.264     3.031 
 C                    -0.771    -1.071     0.363 
 C                    -1.888    -0.553    -0.234 
 C                    -2.769    -1.321    -1.001 
 C                    -2.48     -2.717    -1.111 
 O                    -3.409    -3.554    -1.695 
 H                    -4.316    -3.206    -1.63 
 C                    -1.318    -3.236    -0.59 
 C                    -0.582    -2.429     0.247 
 H                     0.239    -2.884     0.795 
 H                    -1.14     -4.286    -0.804 
 H                    -3.668    -0.918    -1.46 
 H                    -2.002     0.511    -0.046 
 C                     0.887     0.954     0.247 
 C                     1.089     2.313     0.541 
 H                     0.884     2.711     1.532 
 C                     1.745     3.21     -0.312 
 H                     1.898     4.252    -0.044 
 C                     2.04      2.765    -1.597 
 O                     2.652     3.633    -2.429 
 C                     1.687     1.505    -2.017 
 H                     1.96      1.179    -3.017 
 C                     1.229     0.584    -1.053 
 H                     1.216    -0.478    -1.286 
 
 ITRead=  0  0  0  0  0  0  0  0  0  0  0  0  0  0  0  0  0  0  0  0
 ITRead=  0  0  0  0  0  0  0  0  0  0  0  0
 MicOpt= -1 -1 -1 -1 -1 -1 -1 -1 -1 -1 -1 -1 -1 -1 -1 -1 -1 -1 -1 -1
 MicOpt= -1 -1 -1 -1 -1 -1 -1 -1 -1 -1 -1 -1
 NAtoms=     32 NQM=       32 NQMF=       0 NMMI=      0 NMMIF=      0
                NMic=       0 NMicF=      0.
                    Isotopes and Nuclear Properties:
 (Nuclear quadrupole moments (NQMom) in fm**2, nuclear magnetic moments (NMagM)
  in nuclear magnetons)

  Atom         1           2           3           4           5           6           7           8           9          10
 IAtWgt=          12           1           1           1          12          12           1           1           1          12
 AtmWgt=  12.0000000   1.0078250   1.0078250   1.0078250  12.0000000  12.0000000   1.0078250   1.0078250   1.0078250  12.0000000
 NucSpn=           0           1           1           1           0           0           1           1           1           0
 AtZEff=  -0.0000000  -0.0000000  -0.0000000  -0.0000000  -0.0000000  -0.0000000  -0.0000000  -0.0000000  -0.0000000  -0.0000000
 NQMom=    0.0000000   0.0000000   0.0000000   0.0000000   0.0000000   0.0000000   0.0000000   0.0000000   0.0000000   0.0000000
 NMagM=    0.0000000   2.7928460   2.7928460   2.7928460   0.0000000   0.0000000   2.7928460   2.7928460   2.7928460   0.0000000
 AtZNuc=   6.0000000   1.0000000   1.0000000   1.0000000   6.0000000   6.0000000   1.0000000   1.0000000   1.0000000   6.0000000

  Atom        11          12          13          14          15          16          17          18          19          20
 IAtWgt=          12          12          12          16           1          12          12           1           1           1
 AtmWgt=  12.0000000  12.0000000  12.0000000  15.9949146   1.0078250  12.0000000  12.0000000   1.0078250   1.0078250   1.0078250
 NucSpn=           0           0           0           0           1           0           0           1           1           1
 AtZEff=  -0.0000000  -0.0000000  -0.0000000  -0.0000000  -0.0000000  -0.0000000  -0.0000000  -0.0000000  -0.0000000  -0.0000000
 NQMom=    0.0000000   0.0000000   0.0000000   0.0000000   0.0000000   0.0000000   0.0000000   0.0000000   0.0000000   0.0000000
 NMagM=    0.0000000   0.0000000   0.0000000   0.0000000   2.7928460   0.0000000   0.0000000   2.7928460   2.7928460   2.7928460
 AtZNuc=   6.0000000   6.0000000   6.0000000   8.0000000   1.0000000   6.0000000   6.0000000   1.0000000   1.0000000   1.0000000

  Atom        21          22          23          24          25          26          27          28          29          30
 IAtWgt=           1          12          12           1          12           1          12          16          12           1
 AtmWgt=   1.0078250  12.0000000  12.0000000   1.0078250  12.0000000   1.0078250  12.0000000  15.9949146  12.0000000   1.0078250
 NucSpn=           1           0           0           1           0           1           0           0           0           1
 AtZEff=  -0.0000000  -0.0000000  -0.0000000  -0.0000000  -0.0000000  -0.0000000  -0.0000000  -0.0000000  -0.0000000  -0.0000000
 NQMom=    0.0000000   0.0000000   0.0000000   0.0000000   0.0000000   0.0000000   0.0000000   0.0000000   0.0000000   0.0000000
 NMagM=    2.7928460   0.0000000   0.0000000   2.7928460   0.0000000   2.7928460   0.0000000   0.0000000   0.0000000   2.7928460
 AtZNuc=   1.0000000   6.0000000   6.0000000   1.0000000   6.0000000   1.0000000   6.0000000   8.0000000   6.0000000   1.0000000

  Atom        31          32
 IAtWgt=          12           1
 AtmWgt=  12.0000000   1.0078250
 NucSpn=           0           1
 AtZEff=  -0.0000000  -0.0000000
 NQMom=    0.0000000   0.0000000
 NMagM=    0.0000000   2.7928460
 AtZNuc=   6.0000000   1.0000000
 Leave Link  101 at Mon Jul 12 12:15:40 2021, MaxMem=   104857600 cpu:               0.2 elap:               0.2
 (Enter /dades/curu/g16A03_MST/g16/l103.exe)

 GradGradGradGradGradGradGradGradGradGradGradGradGradGradGradGradGradGrad
 Berny optimization.
 Initialization pass.
                           ----------------------------
                           !    Initial Parameters    !
                           ! (Angstroms and Degrees)  !
 --------------------------                            --------------------------
 ! Name  Definition              Value          Derivative Info.                !
 --------------------------------------------------------------------------------
 ! R1    R(1,2)                  1.0917         estimate D2E/DX2                !
 ! R2    R(1,3)                  1.0926         estimate D2E/DX2                !
 ! R3    R(1,4)                  1.0921         estimate D2E/DX2                !
 ! R4    R(1,5)                  1.5208         estimate D2E/DX2                !
 ! R5    R(5,6)                  1.6068         estimate D2E/DX2                !
 ! R6    R(5,10)                 1.5474         estimate D2E/DX2                !
 ! R7    R(5,22)                 1.5436         estimate D2E/DX2                !
 ! R8    R(6,7)                  1.0918         estimate D2E/DX2                !
 ! R9    R(6,8)                  1.0918         estimate D2E/DX2                !
 ! R10   R(6,9)                  1.0918         estimate D2E/DX2                !
 ! R11   R(10,11)                1.3684         estimate D2E/DX2                !
 ! R12   R(10,17)                1.376          estimate D2E/DX2                !
 ! R13   R(11,12)                1.398          estimate D2E/DX2                !
 ! R14   R(11,21)                1.0865         estimate D2E/DX2                !
 ! R15   R(12,13)                1.4298         estimate D2E/DX2                !
 ! R16   R(12,20)                1.0869         estimate D2E/DX2                !
 ! R17   R(13,14)                1.3801         estimate D2E/DX2                !
 ! R18   R(13,16)                1.3752         estimate D2E/DX2                !
 ! R19   R(14,15)                0.9736         estimate D2E/DX2                !
 ! R20   R(16,17)                1.3761         estimate D2E/DX2                !
 ! R21   R(16,19)                1.0863         estimate D2E/DX2                !
 ! R22   R(17,18)                1.0869         estimate D2E/DX2                !
 ! R23   R(22,23)                1.405          estimate D2E/DX2                !
 ! R24   R(22,31)                1.3942         estimate D2E/DX2                !
 ! R25   R(23,24)                1.0874         estimate D2E/DX2                !
 ! R26   R(23,25)                1.4009         estimate D2E/DX2                !
 ! R27   R(25,26)                1.0867         estimate D2E/DX2                !
 ! R28   R(25,27)                1.3915         estimate D2E/DX2                !
 ! R29   R(27,28)                1.3491         estimate D2E/DX2                !
 ! R30   R(27,29)                1.3743         estimate D2E/DX2                !
 ! R31   R(29,30)                1.0866         estimate D2E/DX2                !
 ! R32   R(29,31)                1.4097         estimate D2E/DX2                !
 ! R33   R(31,32)                1.0873         estimate D2E/DX2                !
 ! A1    A(2,1,3)              110.9313         estimate D2E/DX2                !
 ! A2    A(2,1,4)              112.5545         estimate D2E/DX2                !
 ! A3    A(2,1,5)              105.7939         estimate D2E/DX2                !
 ! A4    A(3,1,4)              105.1653         estimate D2E/DX2                !
 ! A5    A(3,1,5)              109.5527         estimate D2E/DX2                !
 ! A6    A(4,1,5)              112.9133         estimate D2E/DX2                !
 ! A7    A(1,5,6)              105.729          estimate D2E/DX2                !
 ! A8    A(1,5,10)             116.1676         estimate D2E/DX2                !
 ! A9    A(1,5,22)              99.9285         estimate D2E/DX2                !
 ! A10   A(6,5,10)             108.3083         estimate D2E/DX2                !
 ! A11   A(6,5,22)             110.2            estimate D2E/DX2                !
 ! A12   A(10,5,22)            115.8895         estimate D2E/DX2                !
 ! A13   A(5,6,7)              116.8845         estimate D2E/DX2                !
 ! A14   A(5,6,8)              113.0312         estimate D2E/DX2                !
 ! A15   A(5,6,9)              111.7287         estimate D2E/DX2                !
 ! A16   A(7,6,8)              107.1112         estimate D2E/DX2                !
 ! A17   A(7,6,9)              103.7123         estimate D2E/DX2                !
 ! A18   A(8,6,9)              103.0972         estimate D2E/DX2                !
 ! A19   A(5,10,11)            120.703          estimate D2E/DX2                !
 ! A20   A(5,10,17)            122.6099         estimate D2E/DX2                !
 ! A21   A(11,10,17)           116.6763         estimate D2E/DX2                !
 ! A22   A(10,11,12)           123.0824         estimate D2E/DX2                !
 ! A23   A(10,11,21)           112.3882         estimate D2E/DX2                !
 ! A24   A(12,11,21)           124.5288         estimate D2E/DX2                !
 ! A25   A(11,12,13)           116.821          estimate D2E/DX2                !
 ! A26   A(11,12,20)           123.3174         estimate D2E/DX2                !
 ! A27   A(13,12,20)           119.7824         estimate D2E/DX2                !
 ! A28   A(12,13,14)           119.2503         estimate D2E/DX2                !
 ! A29   A(12,13,16)           120.6722         estimate D2E/DX2                !
 ! A30   A(14,13,16)           120.0152         estimate D2E/DX2                !
 ! A31   A(13,14,15)           112.4607         estimate D2E/DX2                !
 ! A32   A(13,16,17)           117.4563         estimate D2E/DX2                !
 ! A33   A(13,16,19)           115.3811         estimate D2E/DX2                !
 ! A34   A(17,16,19)           126.803          estimate D2E/DX2                !
 ! A35   A(10,17,16)           123.8214         estimate D2E/DX2                !
 ! A36   A(10,17,18)           118.3199         estimate D2E/DX2                !
 ! A37   A(16,17,18)           117.7221         estimate D2E/DX2                !
 ! A38   A(5,22,23)            129.5794         estimate D2E/DX2                !
 ! A39   A(5,22,31)            115.5449         estimate D2E/DX2                !
 ! A40   A(23,22,31)           114.6154         estimate D2E/DX2                !
 ! A41   A(22,23,24)           121.1712         estimate D2E/DX2                !
 ! A42   A(22,23,25)           124.0027         estimate D2E/DX2                !
 ! A43   A(24,23,25)           114.1308         estimate D2E/DX2                !
 ! A44   A(23,25,26)           121.9857         estimate D2E/DX2                !
 ! A45   A(23,25,27)           117.1804         estimate D2E/DX2                !
 ! A46   A(26,25,27)           120.2996         estimate D2E/DX2                !
 ! A47   A(25,27,28)           117.3811         estimate D2E/DX2                !
 ! A48   A(25,27,29)           121.398          estimate D2E/DX2                !
 ! A49   A(28,27,29)           121.1931         estimate D2E/DX2                !
 ! A50   A(27,29,30)           119.4574         estimate D2E/DX2                !
 ! A51   A(27,29,31)           118.2594         estimate D2E/DX2                !
 ! A52   A(30,29,31)           120.9921         estimate D2E/DX2                !
 ! A53   A(22,31,29)           122.9513         estimate D2E/DX2                !
 ! A54   A(22,31,32)           117.1336         estimate D2E/DX2                !
 ! A55   A(29,31,32)           119.6994         estimate D2E/DX2                !
 ! D1    D(2,1,5,6)            -59.3713         estimate D2E/DX2                !
 ! D2    D(2,1,5,10)          -179.5038         estimate D2E/DX2                !
 ! D3    D(2,1,5,22)            55.0525         estimate D2E/DX2                !
 ! D4    D(3,1,5,6)           -179.0042         estimate D2E/DX2                !
 ! D5    D(3,1,5,10)            60.8633         estimate D2E/DX2                !
 ! D6    D(3,1,5,22)           -64.5804         estimate D2E/DX2                !
 ! D7    D(4,1,5,6)             64.1549         estimate D2E/DX2                !
 ! D8    D(4,1,5,10)           -55.9776         estimate D2E/DX2                !
 ! D9    D(4,1,5,22)           178.5787         estimate D2E/DX2                !
 ! D10   D(1,5,6,7)            172.5154         estimate D2E/DX2                !
 ! D11   D(1,5,6,8)             47.4869         estimate D2E/DX2                !
 ! D12   D(1,5,6,9)            -68.2657         estimate D2E/DX2                !
 ! D13   D(10,5,6,7)           -62.3311         estimate D2E/DX2                !
 ! D14   D(10,5,6,8)           172.6404         estimate D2E/DX2                !
 ! D15   D(10,5,6,9)            56.8878         estimate D2E/DX2                !
 ! D16   D(22,5,6,7)            65.3885         estimate D2E/DX2                !
 ! D17   D(22,5,6,8)           -59.6399         estimate D2E/DX2                !
 ! D18   D(22,5,6,9)          -175.3925         estimate D2E/DX2                !
 ! D19   D(1,5,10,11)         -176.8214         estimate D2E/DX2                !
 ! D20   D(1,5,10,17)            1.9447         estimate D2E/DX2                !
 ! D21   D(6,5,10,11)           64.4455         estimate D2E/DX2                !
 ! D22   D(6,5,10,17)         -116.7884         estimate D2E/DX2                !
 ! D23   D(22,5,10,11)         -59.9481         estimate D2E/DX2                !
 ! D24   D(22,5,10,17)         118.8181         estimate D2E/DX2                !
 ! D25   D(1,5,22,23)          -99.3609         estimate D2E/DX2                !
 ! D26   D(1,5,22,31)           86.8831         estimate D2E/DX2                !
 ! D27   D(6,5,22,23)           11.5949         estimate D2E/DX2                !
 ! D28   D(6,5,22,31)         -162.161          estimate D2E/DX2                !
 ! D29   D(10,5,22,23)         135.0052         estimate D2E/DX2                !
 ! D30   D(10,5,22,31)         -38.7508         estimate D2E/DX2                !
 ! D31   D(5,10,11,12)         174.9086         estimate D2E/DX2                !
 ! D32   D(5,10,11,21)          -4.831          estimate D2E/DX2                !
 ! D33   D(17,10,11,12)         -3.9283         estimate D2E/DX2                !
 ! D34   D(17,10,11,21)        176.3322         estimate D2E/DX2                !
 ! D35   D(5,10,17,16)        -168.2931         estimate D2E/DX2                !
 ! D36   D(5,10,17,18)           7.3552         estimate D2E/DX2                !
 ! D37   D(11,10,17,16)         10.5196         estimate D2E/DX2                !
 ! D38   D(11,10,17,18)       -173.8321         estimate D2E/DX2                !
 ! D39   D(10,11,12,13)          1.9581         estimate D2E/DX2                !
 ! D40   D(10,11,12,20)        178.7075         estimate D2E/DX2                !
 ! D41   D(21,11,12,13)       -178.3342         estimate D2E/DX2                !
 ! D42   D(21,11,12,20)         -1.5848         estimate D2E/DX2                !
 ! D43   D(11,12,13,14)        171.0271         estimate D2E/DX2                !
 ! D44   D(11,12,13,16)         -6.1023         estimate D2E/DX2                !
 ! D45   D(20,12,13,14)         -5.8433         estimate D2E/DX2                !
 ! D46   D(20,12,13,16)        177.0273         estimate D2E/DX2                !
 ! D47   D(12,13,14,15)        -25.2843         estimate D2E/DX2                !
 ! D48   D(16,13,14,15)        151.8644         estimate D2E/DX2                !
 ! D49   D(12,13,16,17)         12.0248         estimate D2E/DX2                !
 ! D50   D(12,13,16,19)       -174.3863         estimate D2E/DX2                !
 ! D51   D(14,13,16,17)       -165.0827         estimate D2E/DX2                !
 ! D52   D(14,13,16,19)          8.5062         estimate D2E/DX2                !
 ! D53   D(13,16,17,10)        -14.6479         estimate D2E/DX2                !
 ! D54   D(13,16,17,18)        169.6797         estimate D2E/DX2                !
 ! D55   D(19,16,17,10)        172.5903         estimate D2E/DX2                !
 ! D56   D(19,16,17,18)         -3.0821         estimate D2E/DX2                !
 ! D57   D(5,22,23,24)           7.9346         estimate D2E/DX2                !
 ! D58   D(5,22,23,25)         177.8106         estimate D2E/DX2                !
 ! D59   D(31,22,23,24)       -178.262          estimate D2E/DX2                !
 ! D60   D(31,22,23,25)         -8.386          estimate D2E/DX2                !
 ! D61   D(5,22,31,29)         172.1186         estimate D2E/DX2                !
 ! D62   D(5,22,31,32)         -13.2423         estimate D2E/DX2                !
 ! D63   D(23,22,31,29)         -2.5908         estimate D2E/DX2                !
 ! D64   D(23,22,31,32)        172.0483         estimate D2E/DX2                !
 ! D65   D(22,23,25,26)       -178.9498         estimate D2E/DX2                !
 ! D66   D(22,23,25,27)          9.4167         estimate D2E/DX2                !
 ! D67   D(24,23,25,26)         -8.4355         estimate D2E/DX2                !
 ! D68   D(24,23,25,27)        179.931          estimate D2E/DX2                !
 ! D69   D(23,25,27,28)        178.9358         estimate D2E/DX2                !
 ! D70   D(23,25,27,29)          0.8324         estimate D2E/DX2                !
 ! D71   D(26,25,27,28)          7.1539         estimate D2E/DX2                !
 ! D72   D(26,25,27,29)       -170.9495         estimate D2E/DX2                !
 ! D73   D(25,27,29,30)       -178.1272         estimate D2E/DX2                !
 ! D74   D(25,27,29,31)        -10.9699         estimate D2E/DX2                !
 ! D75   D(28,27,29,30)          3.8416         estimate D2E/DX2                !
 ! D76   D(28,27,29,31)        170.9989         estimate D2E/DX2                !
 ! D77   D(27,29,31,22)         12.063          estimate D2E/DX2                !
 ! D78   D(27,29,31,32)       -162.4442         estimate D2E/DX2                !
 ! D79   D(30,29,31,22)        179.0148         estimate D2E/DX2                !
 ! D80   D(30,29,31,32)          4.5076         estimate D2E/DX2                !
 --------------------------------------------------------------------------------
 Trust Radius=3.00D-01 FncErr=1.00D-07 GrdErr=1.00D-06 EigMax=2.50D+02 EigMin=1.00D-04
 Number of steps in this run=    178 maximum allowed number of steps=    192.
 GradGradGradGradGradGradGradGradGradGradGradGradGradGradGradGradGradGrad

 Leave Link  103 at Mon Jul 12 12:15:40 2021, MaxMem=   104857600 cpu:               0.0 elap:               0.0
 (Enter /dades/curu/g16A03_MST/g16/l202.exe)
                          Input orientation:                          
 ---------------------------------------------------------------------
 Center     Atomic      Atomic             Coordinates (Angstroms)
 Number     Number       Type             X           Y           Z
 ---------------------------------------------------------------------
      1          6           0        1.472000   -0.823000    1.663000
      2          1           0        2.045000   -0.031000    2.149000
      3          1           0        2.043000   -1.274000    0.848000
      4          1           0        1.240000   -1.648000    2.340000
      5          6           0        0.229000   -0.150000    1.102000
      6          6           0       -0.522000    0.500000    2.365000
      7          1           0       -1.380000    1.141000    2.153000
      8          1           0        0.148000    1.065000    3.016000
      9          1           0       -0.928000   -0.264000    3.031000
     10          6           0       -0.771000   -1.071000    0.363000
     11          6           0       -1.888000   -0.553000   -0.234000
     12          6           0       -2.769000   -1.321000   -1.001000
     13          6           0       -2.480000   -2.717000   -1.111000
     14          8           0       -3.409000   -3.554000   -1.695000
     15          1           0       -4.316000   -3.206000   -1.630000
     16          6           0       -1.318000   -3.236000   -0.590000
     17          6           0       -0.582000   -2.429000    0.247000
     18          1           0        0.239000   -2.884000    0.795000
     19          1           0       -1.140000   -4.286000   -0.804000
     20          1           0       -3.668000   -0.918000   -1.460000
     21          1           0       -2.002000    0.511000   -0.046000
     22          6           0        0.887000    0.954000    0.247000
     23          6           0        1.089000    2.313000    0.541000
     24          1           0        0.884000    2.711000    1.532000
     25          6           0        1.745000    3.210000   -0.312000
     26          1           0        1.898000    4.252000   -0.044000
     27          6           0        2.040000    2.765000   -1.597000
     28          8           0        2.652000    3.633000   -2.429000
     29          6           0        1.687000    1.505000   -2.017000
     30          1           0        1.960000    1.179000   -3.017000
     31          6           0        1.229000    0.584000   -1.053000
     32          1           0        1.216000   -0.478000   -1.286000
 ---------------------------------------------------------------------
                    Distance matrix (angstroms):
                    1          2          3          4          5
     1  C    0.000000
     2  H    1.091691   0.000000
     3  H    1.092551   1.799348   0.000000
     4  H    1.092144   1.816369   1.735151   0.000000
     5  C    1.520756   2.099578   2.149067   2.190609   0.000000
     6  C    2.493826   2.630229   3.468082   2.778340   1.606758
     7  H    3.497328   3.619976   4.387731   3.831173   2.315203
     8  H    2.673599   2.356165   3.709740   3.001634   2.268520
     9  H    2.818493   3.109814   3.822621   2.663299   2.252262
    10  C    2.604334   3.493029   2.862696   2.878468   1.547373
    11  C    3.867959   4.628138   4.140450   4.196294   2.535546
    12  C    5.032989   5.895863   5.155226   5.228890   3.844718
    13  C    5.186580   6.190139   5.135899   5.185611   4.338841
    14  O    6.523702   7.545461   6.433471   6.444165   5.713621
    15  H    7.072728   8.051322   7.092953   7.004099   6.120456
    16  C    4.322346   5.392950   4.148929   4.201191   3.844407
    17  C    2.967020   4.033502   2.930162   2.882758   2.565655
    18  H    2.553710   3.637934   2.418538   2.217368   2.751201
    19  H    4.990090   6.080252   4.683240   4.744279   4.755365
    20  H    6.015127   6.815425   6.170018   6.249909   4.726550
    21  H    4.094986   4.635731   4.510819   4.567805   2.594646
    22  C    2.346276   2.434911   2.580992   3.357925   1.543634
    23  C    3.352621   2.998989   3.724370   4.353013   2.668462
    24  H    3.584977   3.040917   4.206110   4.447525   2.966352
    25  C    4.498916   4.080515   4.641192   5.557724   3.948069
    26  H    5.371308   4.814036   5.599408   6.397376   4.845253
    27  C    4.880980   4.674415   4.721393   5.967792   4.365953
    28  O    6.163830   5.895034   5.931969   7.254383   5.714016
    29  C    4.359840   4.454550   4.007219   5.396727   3.820072
    30  H    5.113565   5.306494   4.578463   6.099818   4.661412
    31  C    3.068445   3.361084   2.780029   4.061329   2.486520
    32  H    2.980128   3.561780   2.423118   3.810164   2.604668
                    6          7          8          9         10
     6  C    0.000000
     7  H    1.091782   0.000000
     8  H    1.091754   1.756510   0.000000
     9  H    1.091828   1.717327   1.710042   0.000000
    10  C    2.556960   2.909970   3.527813   2.791795   0.000000
    11  C    3.119225   2.970769   4.162418   3.415457   1.368365
    12  C    4.437906   4.235384   5.508010   4.556704   2.432077
    13  C    5.124981   5.171833   6.184015   5.057873   2.793327
    14  O    6.422872   6.400545   7.495394   6.270131   4.166497
    15  H    6.639947   6.467426   7.730075   6.469840   4.593180
    16  C    4.829424   5.165852   5.800948   4.700694   2.427889
    17  C    3.615047   4.124868   4.517554   3.543670   1.375987
    18  H    3.807293   4.545982   4.531636   3.636755   2.119833
    19  H    5.773238   6.184964   6.699593   5.561354   3.440098
    20  H    5.151569   4.746387   6.207151   5.301358   3.426273
    21  H    2.829036   2.370524   3.782230   3.349930   2.045817
    22  C    2.584051   2.967675   2.868066   3.539549   2.619741
    23  C    3.034677   3.173025   2.927219   4.112094   3.865584
    24  H    2.749408   2.824223   2.335223   3.792225   4.290584
    25  C    4.432800   4.485823   4.269311   5.512645   5.011271
    26  H    5.073183   5.024979   4.752165   6.151110   5.968546
    27  C    5.233690   5.328816   5.267773   6.277121   5.143755
    28  O    6.547702   6.592557   6.520174   7.603592   6.452892
    29  C    5.009155   5.189209   5.281402   5.953981   4.282749
    30  H    5.965508   6.155156   6.300272   6.855735   4.893390
    31  C    3.841325   4.170799   4.237533   4.695829   2.957039
    32  H    4.160160   4.602944   4.693472   4.824834   2.649343
                   11         12         13         14         15
    11  C    0.000000
    12  C    1.397954   0.000000
    13  C    2.408836   1.429838   0.000000
    14  O    3.667964   2.424361   1.380096   0.000000
    15  H    3.857773   2.518348   1.969614   0.973642   0.000000
    16  C    2.765886   2.437529   1.375153   2.386300   3.173406
    17  C    2.335888   2.751025   2.351491   3.609559   4.250837
    18  H    3.319116   3.836228   3.324708   4.467315   5.170332
    19  H    3.849635   3.388757   2.086051   2.545205   3.454801
    20  H    2.191963   1.086872   2.183929   2.659098   2.384061
    21  H    1.086479   2.203755   3.432593   4.606851   4.656151
    22  C    3.194219   4.483243   5.163051   6.522963   6.920978
    23  C    4.204416   5.519772   6.384964   7.723561   8.024128
    24  H    4.632109   6.001460   6.911232   8.251885   8.488176
    25  C    5.231151   6.432797   7.322456   8.615573   8.924007
    26  H    6.120288   7.331785   8.298936   9.582468   9.836206
    27  C    5.319406   6.338540   7.121722   8.344517   8.720818
    28  O    6.553794   7.481213   8.270251   9.430135   9.796088
    29  C    4.493893   5.373497   6.000834   7.187933   7.640635
    30  H    5.054900   5.716441   6.206871   7.278402   7.780756
    31  C    3.417487   4.428965   4.965546   6.248700   6.741221
    32  H    3.278284   4.083148   4.324831   5.569532   6.177649
                   16         17         18         19         20
    16  C    0.000000
    17  C    1.376050   0.000000
    18  H    2.113381   1.086908   0.000000
    19  H    1.086269   2.205542   2.534570   0.000000
    20  H    3.413579   3.836713   4.920857   4.261988   0.000000
    21  H    3.847571   3.278086   4.153960   4.932425   2.610937
    22  C    4.808190   3.688177   3.930706   5.715849   5.212126
    23  C    6.153390   5.036392   5.272175   7.093960   6.088712
    24  H    6.687189   5.497270   5.680072   7.649280   6.545411
    25  C    7.142140   6.125825   6.374192   8.047068   6.903539
    26  H    8.167675   7.132380   7.374191   9.094201   7.727504
    27  C    6.949979   6.103512   6.393471   7.775465   6.794448
    28  O    8.144076   7.373437   7.660812   8.929191   7.848118
    29  C    5.791669   5.074486   5.409932   6.557361   5.903999
    30  H    6.010644   5.489365   5.831051   6.661351   6.204518
    31  C    4.614540   3.748051   4.052435   5.421352   5.138313
    32  H    3.809480   3.064195   3.327751   4.503768   4.906866
                   21         22         23         24         25
    21  H    0.000000
    22  C    2.937417   0.000000
    23  C    3.625749   1.405034   0.000000
    24  H    3.957156   2.176760   1.087433   0.000000
    25  C    4.625513   2.477535   1.400912   2.095390   0.000000
    26  H    5.404173   3.461735   2.180923   2.426243   1.086737
    27  C    4.880971   2.830100   2.383222   3.336149   1.391501
    28  O    6.089769   4.177708   3.606421   4.434572   2.341638
    29  C    4.299023   2.463594   2.748424   3.833360   2.411932
    30  H    4.997050   3.443203   3.834574   4.919167   3.389426
    31  C    3.385076   1.394225   2.355818   3.365320   2.776907
    32  H    3.587652   2.123430   3.338224   4.268614   3.850956
                   26         27         28         29         30
    26  H    0.000000
    27  C    2.154795   0.000000
    28  O    2.576801   1.349145   0.000000
    29  C    3.388696   1.374267   2.372626   0.000000
    30  H    4.276202   2.130304   2.616625   1.086649   0.000000
    31  C    3.862624   2.389648   3.635204   1.409717   2.178459
    32  H    4.937670   3.360468   4.502096   2.165292   2.509093
                   31         32
    31  C    0.000000
    32  H    1.087337   0.000000
 Stoichiometry    C15H15O2(1-)
 Framework group  C1[X(C15H15O2)]
 Deg. of freedom    90
 Full point group                 C1      NOp   1
 Largest Abelian subgroup         C1      NOp   1
 Largest concise Abelian subgroup C1      NOp   1
                         Standard orientation:                         
 ---------------------------------------------------------------------
 Center     Atomic      Atomic             Coordinates (Angstroms)
 Number     Number       Type             X           Y           Z
 ---------------------------------------------------------------------
      1          6           0        0.296389    2.193785    1.348386
      2          1           0        1.257369    2.695571    1.219861
      3          1           0        0.325933    1.505167    2.196088
      4          1           0       -0.513256    2.890947    1.574699
      5          6           0        0.062944    1.411675    0.065224
      6          6           0        0.062564    2.501652   -1.115293
      7          1           0        0.033761    2.121411   -2.138316
      8          1           0        0.901836    3.197261   -1.054654
      9          1           0       -0.807761    3.158479   -1.058713
     10          6           0       -1.257524    0.608898   -0.013978
     11          6           0       -1.532183   -0.179032   -1.098484
     12          6           0       -2.658070   -1.003968   -1.176792
     13          6           0       -3.563918   -0.965889   -0.071158
     14          8           0       -4.779264   -1.611890   -0.172555
     15          1           0       -5.075890   -1.703677   -1.095358
     16          6           0       -3.259605   -0.246451    1.060588
     17          6           0       -2.195958    0.623891    0.992231
     18          1           0       -2.055415    1.316391    1.818101
     19          1           0       -3.961477   -0.352976    1.882786
     20          1           0       -2.890640   -1.615868   -2.044421
     21          1           0       -0.778627   -0.090070   -1.876092
     22          6           0        1.361807    0.578715    0.021193
     23          6           0        2.539651    0.795208   -0.713609
     24          1           0        2.691822    1.713838   -1.275278
     25          6           0        3.675628   -0.020449   -0.631048
     26          1           0        4.576243    0.187295   -1.202652
     27          6           0        3.552010   -1.212799    0.075560
     28          8           0        4.637233   -2.011835    0.138993
     29          6           0        2.361047   -1.582693    0.652964
     30          1           0        2.307808   -2.505914    1.223606
     31          6           0        1.326536   -0.627376    0.719737
     32          1           0        0.496637   -0.779055    1.405713
 ---------------------------------------------------------------------
 Rotational constants (GHZ):           0.8793453           0.2620554           0.2303276
 Leave Link  202 at Mon Jul 12 12:15:40 2021, MaxMem=   104857600 cpu:               0.0 elap:               0.0
 (Enter /dades/curu/g16A03_MST/g16/l301.exe)
 Standard basis: 6-31G(d) (6D, 7F)
 Ernie: Thresh=  0.10000D-02 Tol=  0.10000D-05 Strict=F.
 There are   285 symmetry adapted cartesian basis functions of A   symmetry.
 There are   285 symmetry adapted basis functions of A   symmetry.
   285 basis functions,   536 primitive gaussians,   285 cartesian basis functions
    61 alpha electrons       61 beta electrons
       nuclear repulsion energy      1130.7111885267 Hartrees.
 IExCor=  402 DFT=T Ex+Corr=B3LYP ExCW=0 ScaHFX=  0.200000
 ScaDFX=  0.800000  0.720000  1.000000  0.810000 ScalE2=  1.000000  1.000000
 IRadAn=      5 IRanWt=     -1 IRanGd=            0 ICorTp=0 IEmpDi=  4
 NAtoms=   32 NActive=   32 NUniq=   32 SFac= 1.00D+00 NAtFMM=   60 NAOKFM=F Big=F
 Integral buffers will be    131072 words long.
 Raffenetti 2 integral format.
 Two-electron integral symmetry is turned on.
 Using the following non-standard input for PCM:
 MSTModel=DFT cav MSTCharged
 --- end of non-standard input.
 MST model for solvation energy: B3LYP parametrization.
 MST cavity parameters:
 ISph   IAn     Re0     Alpha   Atom Type   QCorr
 ------------------------------------------------
   1      6     1.50     1.50      CH3        F
   2      1     1.20     1.50      CH3        F
   3      1     1.20     1.50      CH3        F
   4      1     1.20     1.50      CH3        F
   5      6     1.50     1.50      C          F
   6      6     1.50     1.50      CH3        F
   7      1     1.20     1.50      CH3        F
   8      1     1.20     1.50      CH3        F
   9      1     1.20     1.50      CH3        F
  10      6     1.50     1.50      C          F
  11      6     1.50     1.50      CH         F
  12      6     1.50     1.50      CH         F
  13      6     1.50     1.50      C          F
  14      8     1.40     1.50      OH         F
  15      1     0.90     1.50      OH         F
  16      6     1.50     1.50      CH         F
  17      6     1.50     1.50      CH         F
  18      1     1.20     1.50      CH         F
  19      1     1.20     1.50      CH         F
  20      1     1.20     1.50      CH         F
  21      1     1.20     1.50      CH         F
  22      6     1.50     1.50      C          F
  23      6     1.50     1.50      CH         F
  24      1     1.20     1.50      CH         F
  25      6     1.50     1.50      CH         F
  26      1     1.20     1.50      CH         F
  27      6     1.50     1.50      C          F
  28      8     1.40     1.15      O          T
  29      6     1.50     1.50      CH         F
  30      1     1.20     1.50      CH         F
  31      6     1.50     1.50      CH         F
  32      1     1.20     1.50      CH         F
 ------------------------------------------------------------------------------
 Polarizable Continuum Model (PCM)
 =================================
 Model                : PCM.
 Atomic radii         : MST.
 Polarization charges : Total charges.
 Charge compensation  : None.
 Solution method      : On-the-fly selection.
 Cavity type          : Scaled VdW (van der Waals Surface) (Alpha=1.500).
 Cavity algorithm     : GePol (No added spheres)
                        Default sphere list used, NSphG=   32.
                        Lebedev-Laikov grids with approx.  5.0 points / Ang**2.
                        Smoothing algorithm: York/Karplus (Gamma=1.0000).
                        Polarization charges: spherical gaussians, with
                                              point-specific exponents (IZeta= 3).
                        Self-potential: point-specific (ISelfS= 7).
                        Self-field    : sphere-specific E.n sum rule (ISelfD= 2).
 1st derivatives      : Analytical E(r).r(x)/FMM algorithm (CHGder, D1EAlg=3).
                        Cavity 1st derivative terms included.
 Solvent              : n-Octanol, Eps=   9.862900 Eps(inf)=   2.043470
 ------------------------------------------------------------------------------
 GePol: Number of generator spheres                  =      32
 GePol: Total number of spheres                      =      32
 GePol: Number of exposed spheres                    =      32 (100.00%)
 GePol: Number of points                             =    2967
 GePol: Average weight of points                     =       0.11
 GePol: Minimum weight of points                     =   0.22D-11
 GePol: Maximum weight of points                     =    0.20790
 GePol: Number of points with low weight             =     178
 GePol: Fraction of low-weight points (<1% of avg)   =       6.00%
 GePol: Cavity surface area                          =    320.296 Ang**2
 GePol: Cavity volume                                =    375.478 Ang**3
 Surface areas from nonelectrostatic (unscaled) cavity and vdw tensions:
 Sphere =    1 Type =  CH3 Surf =        4.086 Tension =       -0.183
 Sphere =    2 Type =  CH3 Surf =        9.583 Tension =       -0.183
 Sphere =    3 Type =  CH3 Surf =        9.852 Tension =       -0.183
 Sphere =    4 Type =  CH3 Surf =        9.598 Tension =       -0.183
 Sphere =    5 Type =  C   Surf =        2.072 Tension =       -0.205
 Sphere =    6 Type =  CH3 Surf =        4.919 Tension =       -0.183
 Sphere =    7 Type =  CH3 Surf =       10.008 Tension =       -0.183
 Sphere =    8 Type =  CH3 Surf =        9.685 Tension =       -0.183
 Sphere =    9 Type =  CH3 Surf =       10.054 Tension =       -0.183
 Sphere =   10 Type =  C   Surf =        5.671 Tension =       -0.205
 Sphere =   11 Type =  CH  Surf =        7.578 Tension =       -0.195
 Sphere =   12 Type =  CH  Surf =        8.006 Tension =       -0.195
 Sphere =   13 Type =  C   Surf =        6.753 Tension =       -0.205
 Sphere =   14 Type =  OH  Surf =       14.423 Tension =       -0.238
 Sphere =   15 Type =  OH  Surf =        4.481 Tension =       -0.238
 Sphere =   16 Type =  CH  Surf =        7.697 Tension =       -0.195
 Sphere =   17 Type =  CH  Surf =        7.417 Tension =       -0.195
 Sphere =   18 Type =  CH  Surf =        9.073 Tension =       -0.195
 Sphere =   19 Type =  CH  Surf =       10.198 Tension =       -0.195
 Sphere =   20 Type =  CH  Surf =       10.265 Tension =       -0.195
 Sphere =   21 Type =  CH  Surf =        9.879 Tension =       -0.195
 Sphere =   22 Type =  C   Surf =        5.528 Tension =       -0.205
 Sphere =   23 Type =  CH  Surf =        7.714 Tension =       -0.195
 Sphere =   24 Type =  CH  Surf =        9.871 Tension =       -0.195
 Sphere =   25 Type =  CH  Surf =        7.774 Tension =       -0.195
 Sphere =   26 Type =  CH  Surf =       10.238 Tension =       -0.195
 Sphere =   27 Type =  C   Surf =        6.580 Tension =       -0.205
 Sphere =   28 Type =  O   Surf =       17.007 Tension =       -0.185
 Sphere =   29 Type =  CH  Surf =        7.798 Tension =       -0.195
 Sphere =   30 Type =  CH  Surf =       10.231 Tension =       -0.195
 Sphere =   31 Type =  CH  Surf =        7.504 Tension =       -0.195
 Sphere =   32 Type =  CH  Surf =        9.887 Tension =       -0.195
 PCM non-electrostatic energy =        -0.0136722914 Hartrees.
 Nuclear repulsion after PCM non-electrostatic terms =     1130.6975162352 Hartrees.
 Leave Link  301 at Mon Jul 12 12:15:40 2021, MaxMem=   104857600 cpu:               0.1 elap:               0.1
 (Enter /dades/curu/g16A03_MST/g16/l302.exe)
 NPDir=0 NMtPBC=     1 NCelOv=     1 NCel=       1 NClECP=     1 NCelD=      1
         NCelK=      1 NCelE2=     1 NClLst=     1 CellRange=     0.0.
 One-electron integrals computed using PRISM.
 One-electron integral symmetry used in STVInt
 NBasis=   285 RedAO= T EigKep=  4.88D-04  NBF=   285
 NBsUse=   285 1.00D-06 EigRej= -1.00D+00 NBFU=   285
 Precomputing XC quadrature grid using
 IXCGrd= 4 IRadAn=           5 IRanWt=          -1 IRanGd=           0 AccXCQ= 0.00D+00.
 Generated NRdTot=       0 NPtTot=           0 NUsed=           0 NTot=          32
 NSgBfM=   283   283   283   283   283 MxSgAt=    32 MxSgA2=    32.
 Leave Link  302 at Mon Jul 12 12:15:41 2021, MaxMem=   104857600 cpu:               3.4 elap:               0.9
 (Enter /dades/curu/g16A03_MST/g16/l303.exe)
 DipDrv:  MaxL=1.
 Leave Link  303 at Mon Jul 12 12:15:41 2021, MaxMem=   104857600 cpu:               0.1 elap:               0.0
 (Enter /dades/curu/g16A03_MST/g16/l401.exe)
 ExpMin= 1.61D-01 ExpMax= 5.48D+03 ExpMxC= 8.25D+02 IAcc=3 IRadAn=         5 AccDes= 0.00D+00
 Harris functional with IExCor=  402 and IRadAn=       5 diagonalized for initial guess.
 HarFok:  IExCor=  402 AccDes= 0.00D+00 IRadAn=         5 IDoV= 1 UseB2=F ITyADJ=14
 ICtDFT=  3500011 ScaDFX=  1.000000  1.000000  1.000000  1.000000
 FoFCou: FMM=F IPFlag=           0 FMFlag=      100000 FMFlg1=           0
         NFxFlg=           0 DoJE=T BraDBF=F KetDBF=T FulRan=T
         wScrn=  0.000000 ICntrl=       500 IOpCl=  0 I1Cent=   200000004 NGrid=           0
         NMat0=    1 NMatS0=      1 NMatT0=    0 NMatD0=    1 NMtDS0=    0 NMtDT0=    0
 Petite list used in FoFCou.
 Harris En= -731.327231842459    
 JPrj=0 DoOrth=F DoCkMO=F.
 Leave Link  401 at Mon Jul 12 12:15:48 2021, MaxMem=   104857600 cpu:              26.4 elap:               6.7
 (Enter /dades/curu/g16A03_MST/g16/l502.exe)
 Integral symmetry usage will be decided dynamically.
 Closed shell SCF:
 Using DIIS extrapolation, IDIIS=  1040.
 NGot=   104857600 LenX=   104690183 LenY=   104608517
 Requested convergence on RMS density matrix=1.00D-08 within 128 cycles.
 Requested convergence on MAX density matrix=1.00D-06.
 Requested convergence on             energy=1.00D-06.
 No special actions if energy rises.
 Fock matrices will be formed incrementally for  20 cycles.

 Cycle   1  Pass 1  IDiag  1:
 FoFJK:  IHMeth= 1 ICntrl=       0 DoSepK=F KAlg= 0 I1Cent=           0 FoldK=F
 IRaf= 840000000 NMat=       1 IRICut=       1 DoRegI=T DoRafI=F ISym2E= 0 IDoP0=0 IntGTp=1.
 FoFCou: FMM=F IPFlag=           0 FMFlag=      100000 FMFlg1=           0
         NFxFlg=           0 DoJE=F BraDBF=F KetDBF=F FulRan=T
         wScrn=  0.000000 ICntrl=         0 IOpCl=  0 I1Cent=           0 NGrid=           0
         NMat0=    1 NMatS0=      1 NMatT0=    0 NMatD0=    1 NMtDS0=    0 NMtDT0=    0
 Symmetry not used in FoFCou.
 Inv3:  Mode=1 IEnd=    26409267.
 Iteration    1 A*A^-1 deviation from unit magnitude is 5.33D-15 for   2940.
 Iteration    1 A*A^-1 deviation from orthogonality  is 2.45D-15 for   2940   1614.
 Iteration    1 A^-1*A deviation from unit magnitude is 5.11D-15 for   2940.
 Iteration    1 A^-1*A deviation from orthogonality  is 5.32D-15 for   2948   1582.
 E= -730.629746326465    
 DIIS: error= 2.47D-02 at cycle   1 NSaved=   1.
 NSaved= 1 IEnMin= 1 EnMin= -730.629746326465     IErMin= 1 ErrMin= 2.47D-02
 ErrMax= 2.47D-02  0.00D+00 EMaxC= 1.00D-01 BMatC= 5.09D-01 BMatP= 5.09D-01
 IDIUse=3 WtCom= 7.53D-01 WtEn= 2.47D-01
 Coeff-Com:  0.100D+01
 Coeff-En:   0.100D+01
 Coeff:      0.100D+01
 Gap=     0.122 Goal=   None    Shift=    0.000
 GapD=    0.122 DampG=1.000 DampE=0.500 DampFc=0.5000 IDamp=-1.
 Damping current iteration by 5.00D-01
 RMSDP=6.51D-03 MaxDP=2.08D-01              OVMax= 2.68D-01

 Cycle   2  Pass 1  IDiag  1:
 RMSU=  3.23D-03    CP:  9.80D-01
 E= -730.865240553831     Delta-E=       -0.235494227366 Rises=F Damp=T
 DIIS: error= 1.22D-02 at cycle   2 NSaved=   2.
 NSaved= 2 IEnMin= 2 EnMin= -730.865240553831     IErMin= 2 ErrMin= 1.22D-02
 ErrMax= 1.22D-02  0.00D+00 EMaxC= 1.00D-01 BMatC= 2.80D-02 BMatP= 5.09D-01
 IDIUse=3 WtCom= 8.78D-01 WtEn= 1.22D-01
 Coeff-Com:  0.588D-01 0.941D+00
 Coeff-En:   0.678D-01 0.932D+00
 Coeff:      0.599D-01 0.940D+00
 Gap=     0.206 Goal=   None    Shift=    0.000
 RMSDP=1.67D-03 MaxDP=6.71D-02 DE=-2.35D-01 OVMax= 1.69D-01

 Cycle   3  Pass 1  IDiag  1:
 RMSU=  1.50D-03    CP:  9.68D-01  7.87D-01
 E= -731.121061296966     Delta-E=       -0.255820743135 Rises=F Damp=F
 DIIS: error= 1.07D-02 at cycle   3 NSaved=   3.
 NSaved= 3 IEnMin= 3 EnMin= -731.121061296966     IErMin= 3 ErrMin= 1.07D-02
 ErrMax= 1.07D-02  0.00D+00 EMaxC= 1.00D-01 BMatC= 2.79D-02 BMatP= 2.80D-02
 IDIUse=3 WtCom= 8.93D-01 WtEn= 1.07D-01
 Coeff-Com: -0.942D-02 0.501D+00 0.508D+00
 Coeff-En:   0.000D+00 0.000D+00 0.100D+01
 Coeff:     -0.841D-02 0.447D+00 0.561D+00
 Gap=     0.135 Goal=   None    Shift=    0.000
 RMSDP=9.46D-04 MaxDP=4.81D-02 DE=-2.56D-01 OVMax= 8.26D-02

 Cycle   4  Pass 1  IDiag  1:
 RMSU=  7.10D-04    CP:  9.71D-01  8.59D-01  6.17D-01
 E= -731.137808934842     Delta-E=       -0.016747637876 Rises=F Damp=F
 DIIS: error= 5.72D-03 at cycle   4 NSaved=   4.
 NSaved= 4 IEnMin= 4 EnMin= -731.137808934842     IErMin= 4 ErrMin= 5.72D-03
 ErrMax= 5.72D-03  0.00D+00 EMaxC= 1.00D-01 BMatC= 8.13D-03 BMatP= 2.79D-02
 IDIUse=3 WtCom= 9.43D-01 WtEn= 5.72D-02
 Coeff-Com: -0.868D-02 0.753D-01 0.358D+00 0.575D+00
 Coeff-En:   0.000D+00 0.000D+00 0.263D+00 0.737D+00
 Coeff:     -0.818D-02 0.710D-01 0.353D+00 0.585D+00
 Gap=     0.136 Goal=   None    Shift=    0.000
 RMSDP=3.85D-04 MaxDP=1.81D-02 DE=-1.67D-02 OVMax= 3.04D-02

 Cycle   5  Pass 1  IDiag  1:
 RMSU=  1.24D-04    CP:  9.70D-01  8.35D-01  7.47D-01  5.83D-01
 E= -731.144524469566     Delta-E=       -0.006715534724 Rises=F Damp=F
 DIIS: error= 5.03D-04 at cycle   5 NSaved=   5.
 NSaved= 5 IEnMin= 5 EnMin= -731.144524469566     IErMin= 5 ErrMin= 5.03D-04
 ErrMax= 5.03D-04  0.00D+00 EMaxC= 1.00D-01 BMatC= 1.74D-04 BMatP= 8.13D-03
 IDIUse=3 WtCom= 9.95D-01 WtEn= 5.03D-03
 Coeff-Com: -0.313D-02 0.126D-01 0.135D+00 0.270D+00 0.586D+00
 Coeff-En:   0.000D+00 0.000D+00 0.000D+00 0.000D+00 0.100D+01
 Coeff:     -0.311D-02 0.125D-01 0.134D+00 0.269D+00 0.588D+00
 Gap=     0.135 Goal=   None    Shift=    0.000
 RMSDP=5.71D-05 MaxDP=2.34D-03 DE=-6.72D-03 OVMax= 3.21D-03

 Cycle   6  Pass 1  IDiag  1:
 RMSU=  4.15D-05    CP:  9.70D-01  8.39D-01  7.43D-01  6.08D-01  7.43D-01
 E= -731.144656797039     Delta-E=       -0.000132327473 Rises=F Damp=F
 DIIS: error= 1.88D-04 at cycle   6 NSaved=   6.
 NSaved= 6 IEnMin= 6 EnMin= -731.144656797039     IErMin= 6 ErrMin= 1.88D-04
 ErrMax= 1.88D-04  0.00D+00 EMaxC= 1.00D-01 BMatC= 2.18D-05 BMatP= 1.74D-04
 IDIUse=3 WtCom= 9.98D-01 WtEn= 1.88D-03
 Coeff-Com: -0.919D-03 0.318D-03 0.377D-01 0.890D-01 0.318D+00 0.556D+00
 Coeff-En:   0.000D+00 0.000D+00 0.000D+00 0.000D+00 0.459D-01 0.954D+00
 Coeff:     -0.917D-03 0.318D-03 0.377D-01 0.888D-01 0.318D+00 0.557D+00
 Gap=     0.135 Goal=   None    Shift=    0.000
 RMSDP=1.86D-05 MaxDP=8.11D-04 DE=-1.32D-04 OVMax= 1.11D-03

 Cycle   7  Pass 1  IDiag  1:
 RMSU=  9.70D-06    CP:  9.70D-01  8.38D-01  7.44D-01  6.14D-01  7.59D-01
                    CP:  6.49D-01
 E= -731.144675322987     Delta-E=       -0.000018525947 Rises=F Damp=F
 DIIS: error= 4.10D-05 at cycle   7 NSaved=   7.
 NSaved= 7 IEnMin= 7 EnMin= -731.144675322987     IErMin= 7 ErrMin= 4.10D-05
 ErrMax= 4.10D-05  0.00D+00 EMaxC= 1.00D-01 BMatC= 1.25D-06 BMatP= 2.18D-05
 IDIUse=1 WtCom= 1.00D+00 WtEn= 0.00D+00
 Coeff-Com: -0.332D-03-0.342D-03 0.130D-01 0.332D-01 0.139D+00 0.293D+00
 Coeff-Com:  0.522D+00
 Coeff:     -0.332D-03-0.342D-03 0.130D-01 0.332D-01 0.139D+00 0.293D+00
 Coeff:      0.522D+00
 Gap=     0.135 Goal=   None    Shift=    0.000
 RMSDP=6.29D-06 MaxDP=1.60D-04 DE=-1.85D-05 OVMax= 4.38D-04

 Cycle   8  Pass 1  IDiag  1:
 RMSU=  3.73D-06    CP:  9.70D-01  8.38D-01  7.45D-01  6.16D-01  7.58D-01
                    CP:  6.50D-01  5.08D-01
 E= -731.144676403370     Delta-E=       -0.000001080384 Rises=F Damp=F
 DIIS: error= 1.54D-05 at cycle   8 NSaved=   8.
 NSaved= 8 IEnMin= 8 EnMin= -731.144676403370     IErMin= 8 ErrMin= 1.54D-05
 ErrMax= 1.54D-05  0.00D+00 EMaxC= 1.00D-01 BMatC= 1.70D-07 BMatP= 1.25D-06
 IDIUse=1 WtCom= 1.00D+00 WtEn= 0.00D+00
 Coeff-Com: -0.297D-04-0.295D-03 0.125D-02 0.434D-02 0.265D-01 0.724D-01
 Coeff-Com:  0.293D+00 0.603D+00
 Coeff:     -0.297D-04-0.295D-03 0.125D-02 0.434D-02 0.265D-01 0.724D-01
 Coeff:      0.293D+00 0.603D+00
 Gap=     0.135 Goal=   None    Shift=    0.000
 RMSDP=2.19D-06 MaxDP=7.07D-05 DE=-1.08D-06 OVMax= 1.52D-04

 Cycle   9  Pass 1  IDiag  1:
 RMSU=  1.04D-06    CP:  9.70D-01  8.38D-01  7.45D-01  6.15D-01  7.62D-01
                    CP:  6.58D-01  6.35D-01  6.71D-01
 E= -731.144676562707     Delta-E=       -0.000000159337 Rises=F Damp=F
 DIIS: error= 4.74D-06 at cycle   9 NSaved=   9.
 NSaved= 9 IEnMin= 9 EnMin= -731.144676562707     IErMin= 9 ErrMin= 4.74D-06
 ErrMax= 4.74D-06  0.00D+00 EMaxC= 1.00D-01 BMatC= 2.28D-08 BMatP= 1.70D-07
 IDIUse=1 WtCom= 1.00D+00 WtEn= 0.00D+00
 Coeff-Com:  0.942D-05-0.133D-03-0.437D-03-0.443D-03 0.356D-02 0.175D-01
 Coeff-Com:  0.129D+00 0.351D+00 0.500D+00
 Coeff:      0.942D-05-0.133D-03-0.437D-03-0.443D-03 0.356D-02 0.175D-01
 Coeff:      0.129D+00 0.351D+00 0.500D+00
 Gap=     0.135 Goal=   None    Shift=    0.000
 RMSDP=6.99D-07 MaxDP=2.00D-05 DE=-1.59D-07 OVMax= 5.34D-05

 Cycle  10  Pass 1  IDiag  1:
 RMSU=  4.03D-07    CP:  9.70D-01  8.38D-01  7.45D-01  6.15D-01  7.62D-01
                    CP:  6.59D-01  6.18D-01  7.48D-01  5.81D-01
 E= -731.144676583583     Delta-E=       -0.000000020875 Rises=F Damp=F
 DIIS: error= 2.18D-06 at cycle  10 NSaved=  10.
 NSaved=10 IEnMin=10 EnMin= -731.144676583583     IErMin=10 ErrMin= 2.18D-06
 ErrMax= 2.18D-06  0.00D+00 EMaxC= 1.00D-01 BMatC= 1.64D-09 BMatP= 2.28D-08
 IDIUse=1 WtCom= 1.00D+00 WtEn= 0.00D+00
 Coeff-Com:  0.728D-05-0.269D-04-0.350D-03-0.730D-03-0.143D-02-0.314D-03
 Coeff-Com:  0.277D-01 0.968D-01 0.256D+00 0.622D+00
 Coeff:      0.728D-05-0.269D-04-0.350D-03-0.730D-03-0.143D-02-0.314D-03
 Coeff:      0.277D-01 0.968D-01 0.256D+00 0.622D+00
 Gap=     0.135 Goal=   None    Shift=    0.000
 RMSDP=2.37D-07 MaxDP=6.63D-06 DE=-2.09D-08 OVMax= 1.94D-05

 Cycle  11  Pass 1  IDiag  1:
 RMSU=  1.24D-07    CP:  9.70D-01  8.38D-01  7.45D-01  6.15D-01  7.62D-01
                    CP:  6.59D-01  6.26D-01  7.45D-01  6.78D-01  6.52D-01
 E= -731.144676585095     Delta-E=       -0.000000001512 Rises=F Damp=F
 DIIS: error= 8.21D-07 at cycle  11 NSaved=  11.
 NSaved=11 IEnMin=11 EnMin= -731.144676585095     IErMin=11 ErrMin= 8.21D-07
 ErrMax= 8.21D-07  0.00D+00 EMaxC= 1.00D-01 BMatC= 2.62D-10 BMatP= 1.64D-09
 IDIUse=1 WtCom= 1.00D+00 WtEn= 0.00D+00
 Coeff-Com:  0.322D-05-0.379D-05-0.170D-03-0.392D-03-0.109D-02-0.147D-02
 Coeff-Com:  0.639D-02 0.296D-01 0.110D+00 0.370D+00 0.487D+00
 Coeff:      0.322D-05-0.379D-05-0.170D-03-0.392D-03-0.109D-02-0.147D-02
 Coeff:      0.639D-02 0.296D-01 0.110D+00 0.370D+00 0.487D+00
 Gap=     0.135 Goal=   None    Shift=    0.000
 RMSDP=7.00D-08 MaxDP=2.48D-06 DE=-1.51D-09 OVMax= 5.73D-06

 Cycle  12  Pass 1  IDiag  1:
 RMSU=  4.07D-08    CP:  9.70D-01  8.38D-01  7.45D-01  6.15D-01  7.62D-01
                    CP:  6.59D-01  6.27D-01  7.45D-01  6.72D-01  7.24D-01
                    CP:  6.20D-01
 E= -731.144676585402     Delta-E=       -0.000000000307 Rises=F Damp=F
 DIIS: error= 1.71D-07 at cycle  12 NSaved=  12.
 NSaved=12 IEnMin=12 EnMin= -731.144676585402     IErMin=12 ErrMin= 1.71D-07
 ErrMax= 1.71D-07  0.00D+00 EMaxC= 1.00D-01 BMatC= 1.04D-11 BMatP= 2.62D-10
 IDIUse=1 WtCom= 1.00D+00 WtEn= 0.00D+00
 Coeff-Com:  0.123D-06 0.218D-05-0.240D-04-0.645D-04-0.273D-03-0.606D-03
 Coeff-Com: -0.155D-02-0.164D-02 0.748D-02 0.648D-01 0.191D+00 0.740D+00
 Coeff:      0.123D-06 0.218D-05-0.240D-04-0.645D-04-0.273D-03-0.606D-03
 Coeff:     -0.155D-02-0.164D-02 0.748D-02 0.648D-01 0.191D+00 0.740D+00
 Gap=     0.135 Goal=   None    Shift=    0.000
 RMSDP=1.88D-08 MaxDP=4.83D-07 DE=-3.07D-10 OVMax= 1.49D-06

 Cycle  13  Pass 1  IDiag  1:
 RMSU=  1.32D-08    CP:  9.70D-01  8.38D-01  7.45D-01  6.15D-01  7.62D-01
                    CP:  6.59D-01  6.27D-01  7.47D-01  6.76D-01  7.30D-01
                    CP:  6.83D-01  8.49D-01
 E= -731.144676585380     Delta-E=        0.000000000022 Rises=F Damp=F
 DIIS: error= 7.55D-08 at cycle  13 NSaved=  13.
 NSaved=13 IEnMin=12 EnMin= -731.144676585402     IErMin=13 ErrMin= 7.55D-08
 ErrMax= 7.55D-08  0.00D+00 EMaxC= 1.00D-01 BMatC= 2.55D-12 BMatP= 1.04D-11
 IDIUse=1 WtCom= 1.00D+00 WtEn= 0.00D+00
 Coeff-Com: -0.216D-06 0.148D-05 0.982D-06-0.193D-05-0.543D-04-0.195D-03
 Coeff-Com: -0.135D-02-0.313D-02-0.480D-02 0.653D-02 0.675D-01 0.425D+00
 Coeff-Com:  0.510D+00
 Coeff:     -0.216D-06 0.148D-05 0.982D-06-0.193D-05-0.543D-04-0.195D-03
 Coeff:     -0.135D-02-0.313D-02-0.480D-02 0.653D-02 0.675D-01 0.425D+00
 Coeff:      0.510D+00
 Gap=     0.135 Goal=   None    Shift=    0.000
 RMSDP=6.82D-09 MaxDP=1.99D-07 DE= 2.23D-11 OVMax= 5.19D-07

 Error on total polarization charges =  0.00401
 SCF Done:  E(RB3LYP) =  -731.144676585     A.U. after   13 cycles
            NFock= 13  Conv=0.68D-08     -V/T= 2.0091
 KE= 7.245806730695D+02 PE=-3.978278027849D+03 EE= 1.391855161959D+03
 Leave Link  502 at Mon Jul 12 12:19:09 2021, MaxMem=   104857600 cpu:             776.6 elap:             201.5
 (Enter /dades/curu/g16A03_MST/g16/l601.exe)
 Copying SCF densities to generalized density rwf, IOpCl= 0 IROHF=0.

 **********************************************************************

            Population analysis using the SCF density.

 **********************************************************************

 Orbital symmetries:
       Occupied  (A) (A) (A) (A) (A) (A) (A) (A) (A) (A) (A) (A)
                 (A) (A) (A) (A) (A) (A) (A) (A) (A) (A) (A) (A)
                 (A) (A) (A) (A) (A) (A) (A) (A) (A) (A) (A) (A)
                 (A) (A) (A) (A) (A) (A) (A) (A) (A) (A) (A) (A)
                 (A) (A) (A) (A) (A) (A) (A) (A) (A) (A) (A) (A)
                 (A)
       Virtual   (A) (A) (A) (A) (A) (A) (A) (A) (A) (A) (A) (A)
                 (A) (A) (A) (A) (A) (A) (A) (A) (A) (A) (A) (A)
                 (A) (A) (A) (A) (A) (A) (A) (A) (A) (A) (A) (A)
                 (A) (A) (A) (A) (A) (A) (A) (A) (A) (A) (A) (A)
                 (A) (A) (A) (A) (A) (A) (A) (A) (A) (A) (A) (A)
                 (A) (A) (A) (A) (A) (A) (A) (A) (A) (A) (A) (A)
                 (A) (A) (A) (A) (A) (A) (A) (A) (A) (A) (A) (A)
                 (A) (A) (A) (A) (A) (A) (A) (A) (A) (A) (A) (A)
                 (A) (A) (A) (A) (A) (A) (A) (A) (A) (A) (A) (A)
                 (A) (A) (A) (A) (A) (A) (A) (A) (A) (A) (A) (A)
                 (A) (A) (A) (A) (A) (A) (A) (A) (A) (A) (A) (A)
                 (A) (A) (A) (A) (A) (A) (A) (A) (A) (A) (A) (A)
                 (A) (A) (A) (A) (A) (A) (A) (A) (A) (A) (A) (A)
                 (A) (A) (A) (A) (A) (A) (A) (A) (A) (A) (A) (A)
                 (A) (A) (A) (A) (A) (A) (A) (A) (A) (A) (A) (A)
                 (A) (A) (A) (A) (A) (A) (A) (A) (A) (A) (A) (A)
                 (A) (A) (A) (A) (A) (A) (A) (A) (A) (A) (A) (A)
                 (A) (A) (A) (A) (A) (A) (A) (A) (A) (A) (A) (A)
                 (A) (A) (A) (A) (A) (A) (A) (A)
 The electronic state is 1-A.
 Alpha  occ. eigenvalues --  -19.16052 -18.99933 -10.23684 -10.19002 -10.17932
 Alpha  occ. eigenvalues --  -10.17374 -10.17282 -10.17265 -10.16982 -10.16206
 Alpha  occ. eigenvalues --  -10.15936 -10.15507 -10.14533 -10.14179 -10.13970
 Alpha  occ. eigenvalues --  -10.12333 -10.12214  -1.03610  -0.87241  -0.84948
 Alpha  occ. eigenvalues --   -0.80701  -0.76600  -0.73758  -0.71559  -0.69291
 Alpha  occ. eigenvalues --   -0.66774  -0.66102  -0.61502  -0.59137  -0.56007
 Alpha  occ. eigenvalues --   -0.55464  -0.52892  -0.51730  -0.47492  -0.46170
 Alpha  occ. eigenvalues --   -0.43882  -0.43308  -0.41093  -0.40856  -0.40325
 Alpha  occ. eigenvalues --   -0.40002  -0.38904  -0.38627  -0.37522  -0.36896
 Alpha  occ. eigenvalues --   -0.36121  -0.35671  -0.33820  -0.32385  -0.32211
 Alpha  occ. eigenvalues --   -0.32065  -0.30907  -0.30443  -0.29109  -0.27677
 Alpha  occ. eigenvalues --   -0.24144  -0.23636  -0.20701  -0.19914  -0.15160
 Alpha  occ. eigenvalues --   -0.12758
 Alpha virt. eigenvalues --    0.00776   0.02310   0.04119   0.07484   0.09224
 Alpha virt. eigenvalues --    0.10465   0.12709   0.14328   0.14787   0.15665
 Alpha virt. eigenvalues --    0.16459   0.16800   0.17496   0.18284   0.19218
 Alpha virt. eigenvalues --    0.20418   0.20685   0.21221   0.22766   0.23839
 Alpha virt. eigenvalues --    0.24666   0.24968   0.25690   0.26503   0.28086
 Alpha virt. eigenvalues --    0.28414   0.32067   0.32257   0.34546   0.35622
 Alpha virt. eigenvalues --    0.37339   0.38697   0.39621   0.41258   0.42886
 Alpha virt. eigenvalues --    0.49997   0.51336   0.52618   0.53005   0.53588
 Alpha virt. eigenvalues --    0.53814   0.55263   0.56163   0.56800   0.58036
 Alpha virt. eigenvalues --    0.58253   0.59006   0.60314   0.61246   0.62334
 Alpha virt. eigenvalues --    0.62743   0.63864   0.64316   0.64520   0.65642
 Alpha virt. eigenvalues --    0.66070   0.66574   0.66806   0.69242   0.69647
 Alpha virt. eigenvalues --    0.70768   0.71559   0.73238   0.74133   0.75721
 Alpha virt. eigenvalues --    0.77301   0.78750   0.79614   0.80671   0.83205
 Alpha virt. eigenvalues --    0.83604   0.84341   0.85053   0.85510   0.85913
 Alpha virt. eigenvalues --    0.87842   0.88509   0.88748   0.89485   0.90468
 Alpha virt. eigenvalues --    0.91135   0.91960   0.92276   0.92664   0.94070
 Alpha virt. eigenvalues --    0.95724   0.97152   0.97760   0.99330   0.99859
 Alpha virt. eigenvalues --    1.00538   1.02396   1.03397   1.04067   1.04432
 Alpha virt. eigenvalues --    1.05351   1.06391   1.07927   1.08267   1.11178
 Alpha virt. eigenvalues --    1.13636   1.14840   1.17449   1.18534   1.20131
 Alpha virt. eigenvalues --    1.21089   1.22927   1.25209   1.27421   1.29649
 Alpha virt. eigenvalues --    1.31552   1.32633   1.34396   1.36101   1.37078
 Alpha virt. eigenvalues --    1.38268   1.40427   1.43348   1.44921   1.46154
 Alpha virt. eigenvalues --    1.47867   1.50180   1.52241   1.53847   1.54511
 Alpha virt. eigenvalues --    1.55849   1.59934   1.62211   1.64130   1.65596
 Alpha virt. eigenvalues --    1.70389   1.72306   1.76032   1.76598   1.78760
 Alpha virt. eigenvalues --    1.80575   1.82107   1.84015   1.85173   1.86743
 Alpha virt. eigenvalues --    1.88512   1.90911   1.91805   1.92422   1.92614
 Alpha virt. eigenvalues --    1.95229   1.96307   1.97227   1.98519   1.99867
 Alpha virt. eigenvalues --    2.00367   2.01386   2.02716   2.04092   2.09123
 Alpha virt. eigenvalues --    2.10621   2.11023   2.11863   2.14330   2.14698
 Alpha virt. eigenvalues --    2.17237   2.18454   2.18866   2.21319   2.21922
 Alpha virt. eigenvalues --    2.22758   2.26122   2.26175   2.29340   2.29726
 Alpha virt. eigenvalues --    2.31460   2.32554   2.34242   2.35730   2.37338
 Alpha virt. eigenvalues --    2.40687   2.41826   2.42478   2.43933   2.46337
 Alpha virt. eigenvalues --    2.50408   2.51154   2.58182   2.59497   2.61720
 Alpha virt. eigenvalues --    2.62431   2.64797   2.66437   2.66856   2.68145
 Alpha virt. eigenvalues --    2.70739   2.72525   2.74463   2.78102   2.79886
 Alpha virt. eigenvalues --    2.80790   2.84263   2.90160   2.92854   2.95272
 Alpha virt. eigenvalues --    2.99374   3.03863   3.07359   3.14324   3.22619
 Alpha virt. eigenvalues --    3.42895   3.44747   3.92241   3.98557   4.12045
 Alpha virt. eigenvalues --    4.14587   4.16301   4.17885   4.24007   4.27101
 Alpha virt. eigenvalues --    4.32225   4.34204   4.35323   4.40909   4.46394
 Alpha virt. eigenvalues --    4.54588   4.69170   4.76324   4.81003
          Condensed to atoms (all electrons):
               1          2          3          4          5          6
     1  C    5.231077   0.367649   0.366328   0.328556   0.343596  -0.059492
     2  H    0.367649   0.561976  -0.024747  -0.025238  -0.029304  -0.007619
     3  H    0.366328  -0.024747   0.581377  -0.039477  -0.030525   0.006766
     4  H    0.328556  -0.025238  -0.039477   0.632298  -0.024970  -0.006085
     5  C    0.343596  -0.029304  -0.030525  -0.024970   5.035419   0.334688
     6  C   -0.059492  -0.007619   0.006766  -0.006085   0.334688   5.210745
     7  H    0.005167   0.000014  -0.000182  -0.000089  -0.019939   0.364600
     8  H   -0.006412   0.005219  -0.000010   0.000382  -0.019690   0.358067
     9  H   -0.003727  -0.000183  -0.000125   0.003538  -0.024580   0.357624
    10  C   -0.036351   0.004407  -0.005642  -0.004701   0.371006  -0.047707
    11  C    0.006691  -0.000099  -0.000063  -0.000391  -0.061742  -0.010080
    12  C   -0.000212   0.000003   0.000000   0.000008   0.006772   0.000178
    13  C    0.000010   0.000000  -0.000002  -0.000010  -0.000041   0.000004
    14  O   -0.000000  -0.000000  -0.000000   0.000000   0.000000  -0.000000
    15  H    0.000000   0.000000  -0.000000  -0.000000  -0.000001   0.000000
    16  C   -0.000020  -0.000000  -0.000161   0.000212   0.006780  -0.000137
    17  C   -0.012529   0.000344   0.002241   0.001078  -0.046712   0.002524
    18  H    0.008514  -0.000106   0.001511   0.001637  -0.018575   0.000467
    19  H   -0.000001  -0.000000   0.000002   0.000003  -0.000079   0.000001
    20  H    0.000001  -0.000000   0.000000   0.000000  -0.000135   0.000004
    21  H    0.000336  -0.000021   0.000006  -0.000027  -0.011293   0.002072
    22  C   -0.085322  -0.004506  -0.009182   0.009516   0.356513  -0.039519
    23  C   -0.001883   0.003723  -0.000361  -0.000027  -0.051579  -0.010317
    24  H    0.000278   0.000318   0.000005  -0.000030  -0.011131   0.004019
    25  C   -0.000142  -0.000076   0.000006  -0.000002   0.004771   0.000007
    26  H    0.000002   0.000003   0.000001  -0.000000  -0.000101   0.000002
    27  C   -0.000003   0.000005  -0.000025  -0.000000   0.000185  -0.000009
    28  O    0.000000  -0.000000  -0.000000   0.000000   0.000001  -0.000000
    29  C    0.000119  -0.000114  -0.000041   0.000002   0.005590  -0.000134
    30  H    0.000000  -0.000000   0.000008  -0.000000  -0.000159   0.000002
    31  C   -0.008816  -0.000582   0.005123   0.000232  -0.059024   0.005458
    32  H    0.000399   0.000111   0.003381  -0.000255  -0.013511   0.000297
               7          8          9         10         11         12
     1  C    0.005167  -0.006412  -0.003727  -0.036351   0.006691  -0.000212
     2  H    0.000014   0.005219  -0.000183   0.004407  -0.000099   0.000003
     3  H   -0.000182  -0.000010  -0.000125  -0.005642  -0.000063   0.000000
     4  H   -0.000089   0.000382   0.003538  -0.004701  -0.000391   0.000008
     5  C   -0.019939  -0.019690  -0.024580   0.371006  -0.061742   0.006772
     6  C    0.364600   0.358067   0.357624  -0.047707  -0.010080   0.000178
     7  H    0.577339  -0.032140  -0.037022  -0.004905   0.002363  -0.000009
     8  H   -0.032140   0.587945  -0.036436   0.004440   0.000226   0.000002
     9  H   -0.037022  -0.036436   0.604804  -0.002084   0.000127  -0.000034
    10  C   -0.004905   0.004440  -0.002084   4.667497   0.528623  -0.017324
    11  C    0.002363   0.000226   0.000127   0.528623   5.078919   0.435300
    12  C   -0.000009   0.000002  -0.000034  -0.017324   0.435300   5.158180
    13  C   -0.000001   0.000000  -0.000010  -0.036666  -0.002138   0.489727
    14  O   -0.000000   0.000000   0.000000   0.000437   0.004624  -0.056134
    15  H    0.000000   0.000000   0.000000  -0.000038   0.000490  -0.004257
    16  C    0.000004   0.000001  -0.000011  -0.019270  -0.054055  -0.060812
    17  C   -0.000136  -0.000064   0.000870   0.525501  -0.047899  -0.057350
    18  H   -0.000004  -0.000027  -0.000070  -0.039601   0.009427   0.000403
    19  H    0.000000  -0.000000   0.000000   0.003653  -0.000129   0.007472
    20  H    0.000001  -0.000000  -0.000000   0.002532  -0.032197   0.351381
    21  H    0.003531  -0.000215   0.000063  -0.045658   0.342123  -0.042100
    22  C   -0.003790  -0.005532   0.003713  -0.043299  -0.006016   0.000120
    23  C    0.001697   0.001555   0.000262   0.002017   0.000829   0.000004
    24  H    0.000698   0.002252  -0.000133   0.000049  -0.000032  -0.000000
    25  C   -0.000019   0.000087   0.000000  -0.000043  -0.000003   0.000000
    26  H    0.000002  -0.000003  -0.000000   0.000000   0.000000   0.000000
    27  C   -0.000004  -0.000002   0.000000   0.000015  -0.000006   0.000000
    28  O   -0.000000  -0.000000  -0.000000   0.000000   0.000000   0.000000
    29  C   -0.000001   0.000002   0.000002   0.000391  -0.000127  -0.000024
    30  H    0.000000   0.000000  -0.000000  -0.000007   0.000005  -0.000000
    31  C    0.000013  -0.000135  -0.000098  -0.010272  -0.000781  -0.000179
    32  H    0.000001  -0.000010  -0.000008   0.005776   0.000246  -0.000175
              13         14         15         16         17         18
     1  C    0.000010  -0.000000   0.000000  -0.000020  -0.012529   0.008514
     2  H    0.000000  -0.000000   0.000000  -0.000000   0.000344  -0.000106
     3  H   -0.000002  -0.000000  -0.000000  -0.000161   0.002241   0.001511
     4  H   -0.000010   0.000000  -0.000000   0.000212   0.001078   0.001637
     5  C   -0.000041   0.000000  -0.000001   0.006780  -0.046712  -0.018575
     6  C    0.000004  -0.000000   0.000000  -0.000137   0.002524   0.000467
     7  H   -0.000001  -0.000000   0.000000   0.000004  -0.000136  -0.000004
     8  H    0.000000   0.000000   0.000000   0.000001  -0.000064  -0.000027
     9  H   -0.000010   0.000000   0.000000  -0.000011   0.000870  -0.000070
    10  C   -0.036666   0.000437  -0.000038  -0.019270   0.525501  -0.039601
    11  C   -0.002138   0.004624   0.000490  -0.054055  -0.047899   0.009427
    12  C    0.489727  -0.056134  -0.004257  -0.060812  -0.057350   0.000403
    13  C    4.511085   0.269622  -0.025603   0.541946  -0.007162   0.005263
    14  O    0.269622   8.264524   0.247897  -0.050426   0.002687  -0.000082
    15  H   -0.025603   0.247897   0.338975   0.004456  -0.000167   0.000007
    16  C    0.541946  -0.050426   0.004456   5.003692   0.490898  -0.054991
    17  C   -0.007162   0.002687  -0.000167   0.490898   5.061801   0.350020
    18  H    0.005263  -0.000082   0.000007  -0.054991   0.350020   0.616569
    19  H   -0.041347   0.000051  -0.000410   0.345459  -0.039663  -0.006241
    20  H   -0.041541  -0.004541   0.004272   0.004990   0.000623   0.000018
    21  H    0.002839  -0.000051  -0.000009   0.000664   0.009117  -0.000300
    22  C    0.000033   0.000000   0.000000  -0.000014  -0.001248   0.000114
    23  C    0.000000   0.000000  -0.000000   0.000002  -0.000252  -0.000000
    24  H    0.000000   0.000000  -0.000000   0.000000   0.000002   0.000000
    25  C   -0.000000   0.000000  -0.000000  -0.000000   0.000000   0.000000
    26  H   -0.000000   0.000000  -0.000000   0.000000  -0.000000  -0.000000
    27  C    0.000000  -0.000000  -0.000000   0.000000  -0.000000  -0.000000
    28  O    0.000000   0.000000   0.000000   0.000000  -0.000000   0.000000
    29  C    0.000000   0.000000  -0.000000  -0.000003   0.000067   0.000001
    30  H   -0.000000   0.000000  -0.000000  -0.000000   0.000000  -0.000000
    31  C    0.000011  -0.000000   0.000000  -0.000211   0.000398  -0.000114
    32  H   -0.000030  -0.000000   0.000000   0.000503   0.001701   0.000004
              19         20         21         22         23         24
     1  C   -0.000001   0.000001   0.000336  -0.085322  -0.001883   0.000278
     2  H   -0.000000  -0.000000  -0.000021  -0.004506   0.003723   0.000318
     3  H    0.000002   0.000000   0.000006  -0.009182  -0.000361   0.000005
     4  H    0.000003   0.000000  -0.000027   0.009516  -0.000027  -0.000030
     5  C   -0.000079  -0.000135  -0.011293   0.356513  -0.051579  -0.011131
     6  C    0.000001   0.000004   0.002072  -0.039519  -0.010317   0.004019
     7  H    0.000000   0.000001   0.003531  -0.003790   0.001697   0.000698
     8  H   -0.000000  -0.000000  -0.000215  -0.005532   0.001555   0.002252
     9  H    0.000000  -0.000000   0.000063   0.003713   0.000262  -0.000133
    10  C    0.003653   0.002532  -0.045658  -0.043299   0.002017   0.000049
    11  C   -0.000129  -0.032197   0.342123  -0.006016   0.000829  -0.000032
    12  C    0.007472   0.351381  -0.042100   0.000120   0.000004  -0.000000
    13  C   -0.041347  -0.041541   0.002839   0.000033   0.000000   0.000000
    14  O    0.000051  -0.004541  -0.000051   0.000000   0.000000   0.000000
    15  H   -0.000410   0.004272  -0.000009   0.000000  -0.000000  -0.000000
    16  C    0.345459   0.004990   0.000664  -0.000014   0.000002   0.000000
    17  C   -0.039663   0.000623   0.009117  -0.001248  -0.000252   0.000002
    18  H   -0.006241   0.000018  -0.000300   0.000114  -0.000000   0.000000
    19  H    0.595059  -0.000189   0.000023  -0.000000  -0.000000  -0.000000
    20  H   -0.000189   0.581633  -0.004159  -0.000003  -0.000000   0.000000
    21  H    0.000023  -0.004159   0.604344   0.005714   0.000309  -0.000031
    22  C   -0.000000  -0.000003   0.005714   4.831087   0.517905  -0.050321
    23  C   -0.000000  -0.000000   0.000309   0.517905   5.185862   0.331472
    24  H   -0.000000   0.000000  -0.000031  -0.050321   0.331472   0.675234
    25  C    0.000000  -0.000000  -0.000015  -0.031372   0.374332  -0.041628
    26  H   -0.000000  -0.000000   0.000000   0.004126  -0.047990  -0.007069
    27  C    0.000000  -0.000000  -0.000017  -0.035466   0.009127   0.003820
    28  O    0.000000   0.000000   0.000000   0.000447   0.008167  -0.000142
    29  C   -0.000000  -0.000000  -0.000104  -0.038196  -0.042921   0.000514
    30  H   -0.000000   0.000000   0.000001   0.005024  -0.000459   0.000027
    31  C    0.000000  -0.000001   0.001317   0.522392  -0.048542   0.007471
    32  H   -0.000002  -0.000000   0.000046  -0.051859   0.007513  -0.000263
              25         26         27         28         29         30
     1  C   -0.000142   0.000002  -0.000003   0.000000   0.000119   0.000000
     2  H   -0.000076   0.000003   0.000005  -0.000000  -0.000114  -0.000000
     3  H    0.000006   0.000001  -0.000025  -0.000000  -0.000041   0.000008
     4  H   -0.000002  -0.000000  -0.000000   0.000000   0.000002  -0.000000
     5  C    0.004771  -0.000101   0.000185   0.000001   0.005590  -0.000159
     6  C    0.000007   0.000002  -0.000009  -0.000000  -0.000134   0.000002
     7  H   -0.000019   0.000002  -0.000004  -0.000000  -0.000001   0.000000
     8  H    0.000087  -0.000003  -0.000002  -0.000000   0.000002   0.000000
     9  H    0.000000  -0.000000   0.000000  -0.000000   0.000002  -0.000000
    10  C   -0.000043   0.000000   0.000015   0.000000   0.000391  -0.000007
    11  C   -0.000003   0.000000  -0.000006   0.000000  -0.000127   0.000005
    12  C    0.000000   0.000000   0.000000   0.000000  -0.000024  -0.000000
    13  C   -0.000000  -0.000000   0.000000   0.000000   0.000000  -0.000000
    14  O    0.000000   0.000000  -0.000000   0.000000   0.000000   0.000000
    15  H   -0.000000  -0.000000  -0.000000   0.000000  -0.000000  -0.000000
    16  C   -0.000000   0.000000   0.000000   0.000000  -0.000003  -0.000000
    17  C    0.000000  -0.000000  -0.000000  -0.000000   0.000067   0.000000
    18  H    0.000000  -0.000000  -0.000000   0.000000   0.000001  -0.000000
    19  H    0.000000  -0.000000   0.000000   0.000000  -0.000000  -0.000000
    20  H   -0.000000  -0.000000  -0.000000   0.000000  -0.000000   0.000000
    21  H   -0.000015   0.000000  -0.000017   0.000000  -0.000104   0.000001
    22  C   -0.031372   0.004126  -0.035466   0.000447  -0.038196   0.005024
    23  C    0.374332  -0.047990   0.009127   0.008167  -0.042921  -0.000459
    24  H   -0.041628  -0.007069   0.003820  -0.000142   0.000514   0.000027
    25  C    5.316283   0.336486   0.448500  -0.074303  -0.073968   0.010470
    26  H    0.336486   0.658897  -0.037249   0.001348   0.009349  -0.000182
    27  C    0.448500  -0.037249   4.366163   0.399939   0.464020  -0.042278
    28  O   -0.074303   0.001348   0.399939   8.611132  -0.071517   0.001483
    29  C   -0.073968   0.009349   0.464020  -0.071517   5.289869   0.329594
    30  H    0.010470  -0.000182  -0.042278   0.001483   0.329594   0.676717
    31  C   -0.045579  -0.000147   0.009586   0.006291   0.394990  -0.049150
    32  H    0.000445   0.000023   0.003037  -0.000090  -0.036614  -0.006225
              31         32
     1  C   -0.008816   0.000399
     2  H   -0.000582   0.000111
     3  H    0.005123   0.003381
     4  H    0.000232  -0.000255
     5  C   -0.059024  -0.013511
     6  C    0.005458   0.000297
     7  H    0.000013   0.000001
     8  H   -0.000135  -0.000010
     9  H   -0.000098  -0.000008
    10  C   -0.010272   0.005776
    11  C   -0.000781   0.000246
    12  C   -0.000179  -0.000175
    13  C    0.000011  -0.000030
    14  O   -0.000000  -0.000000
    15  H    0.000000   0.000000
    16  C   -0.000211   0.000503
    17  C    0.000398   0.001701
    18  H   -0.000114   0.000004
    19  H    0.000000  -0.000002
    20  H   -0.000001  -0.000000
    21  H    0.001317   0.000046
    22  C    0.522392  -0.051859
    23  C   -0.048542   0.007513
    24  H    0.007471  -0.000263
    25  C   -0.045579   0.000445
    26  H   -0.000147   0.000023
    27  C    0.009586   0.003037
    28  O    0.006291  -0.000090
    29  C    0.394990  -0.036614
    30  H   -0.049150  -0.006225
    31  C    5.152928   0.336004
    32  H    0.336004   0.652389
 Mulliken charges:
               1
     1  C   -0.443813
     2  H    0.148821
     3  H    0.143789
     4  H    0.123841
     5  C   -0.042232
     6  C   -0.466426
[...]
 Alpha virt. eigenvalues --    2.73285   2.76101   2.77619   2.78713   2.80172
 Alpha virt. eigenvalues --    2.81607   2.84851   2.86923   2.87838   2.88504
 Alpha virt. eigenvalues --    2.90171   2.90902   2.91445   2.95587   2.96693
 Alpha virt. eigenvalues --    2.98431   2.99923   3.01663   3.02404   3.04343
 Alpha virt. eigenvalues --    3.06216   3.06850   3.09029   3.12548   3.14054
 Alpha virt. eigenvalues --    3.16061   3.17029   3.20199   3.21232   3.23290
 Alpha virt. eigenvalues --    3.25310   3.25872   3.27418   3.28827   3.33740
 Alpha virt. eigenvalues --    3.34668   3.36380   3.38428   3.43921   3.49891
 Alpha virt. eigenvalues --    3.52257   3.53794   3.58352   3.59242   3.61751
 Alpha virt. eigenvalues --    3.77732   3.82060   3.83961   3.85298   3.85544
 Alpha virt. eigenvalues --    3.92187   3.96090   3.99885   4.01875   4.03297
 Alpha virt. eigenvalues --    4.04129   4.04247   4.16641   4.25045   4.28799
 Alpha virt. eigenvalues --    4.35895   4.48242   4.78254   5.06099   5.13558
          Condensed to atoms (all electrons):
               1          2          3          4          5          6
     1  C    7.551382  -0.213779   0.428198   0.373473  -1.782219  -1.437633
     2  H   -0.213779   1.881210  -0.358120  -0.444769  -0.251470  -0.175389
     3  H    0.428198  -0.358120   1.461251  -0.289793   0.167416  -0.024459
     4  H    0.373473  -0.444769  -0.289793   1.607501  -0.026500   0.087585
     5  C   -1.782219  -0.251470   0.167416  -0.026500  31.742044  -1.634956
     6  C   -1.437633  -0.175389  -0.024459   0.087585  -1.634956   7.620499
     7  H   -0.030746  -0.007275  -0.010609   0.020208   0.453926   0.300713
     8  H   -0.021902  -0.026031   0.009098   0.003909  -0.035559   0.308199
     9  H   -0.002448   0.028037   0.012426  -0.048172  -0.340299  -0.320167
    10  C    1.846081   0.372096  -0.016025  -0.057208  -7.012149  -0.992492
    11  C   -0.084508   0.074701  -0.008579  -0.072831  -0.672756  -0.090583
    12  C   -0.461110   0.007407  -0.043127  -0.000638  -0.355630   0.619789
    13  C    0.121640   0.004707   0.010994  -0.027987  -0.581712  -0.164264
    14  O    0.000781  -0.000106   0.000584   0.001244   0.015495   0.004128
    15  H    0.001057   0.000104  -0.000126  -0.000506  -0.009383  -0.002376
    16  C    0.274661  -0.058407   0.040304   0.170616   0.218862   0.027161
    17  C   -0.350211  -0.119199   0.009127  -0.153037  -1.795135  -0.432208
    18  H    0.043857   0.042098  -0.044064  -0.045956  -0.213515   0.037272
    19  H    0.023623   0.000293   0.001688   0.000495  -0.025506   0.001153
    20  H   -0.009226  -0.000541  -0.000361   0.001547   0.036271   0.013788
    21  H    0.066984   0.005546   0.003904  -0.008177  -0.157420  -0.101575
    22  C   -1.388030   0.073638  -0.060931   0.144041  -6.746015   2.084738
    23  C   -0.151573   0.289437  -0.034063  -0.159793  -1.715990  -0.419938
    24  H   -0.023081   0.015707  -0.001926  -0.008862  -0.452057   0.064329
    25  C   -0.332087  -0.018358   0.000494  -0.012673  -0.836253   0.387400
    26  H    0.002780  -0.002694   0.000813   0.000992   0.032799   0.024810
    27  C    0.005700   0.014222  -0.007966  -0.003498  -0.119626   0.041693
    28  O    0.003183  -0.000179   0.000462   0.000294  -0.001550  -0.001404
    29  C    0.596245   0.003777   0.010324   0.029138  -1.001041  -0.378715
    30  H   -0.010293   0.001261  -0.000848  -0.000889   0.025619  -0.001025
    31  C   -0.217329   0.045459  -0.147244   0.002564   0.157348  -0.324116
    32  H    0.070903   0.017680  -0.046904  -0.000425  -0.194924  -0.015752
               7          8          9         10         11         12
     1  C   -0.030746  -0.021902  -0.002448   1.846081  -0.084508  -0.461110
     2  H   -0.007275  -0.026031   0.028037   0.372096   0.074701   0.007407
     3  H   -0.010609   0.009098   0.012426  -0.016025  -0.008579  -0.043127
     4  H    0.020208   0.003909  -0.048172  -0.057208  -0.072831  -0.000638
     5  C    0.453926  -0.035559  -0.340299  -7.012149  -0.672756  -0.355630
     6  C    0.300713   0.308199  -0.320167  -0.992492  -0.090583   0.619789
     7  H    1.484203  -0.259663  -0.429965  -0.358124   0.098757   0.053420
     8  H   -0.259663   1.430756  -0.379053   0.264967  -0.043038   0.030008
     9  H   -0.429965  -0.379053   1.972599   0.089310  -0.008312  -0.051695
    10  C   -0.358124   0.264967   0.089310  31.376789 -11.207778   4.041784
    11  C    0.098757  -0.043038  -0.008312 -11.207778  27.765908  -8.723679
    12  C    0.053420   0.030008  -0.051695   4.041784  -8.723679  17.985531
    13  C   -0.016944  -0.008636   0.045529  -6.102946   4.032761  -4.357020
    14  O    0.000695   0.000237  -0.000871   0.241775  -0.019251   0.328261
    15  H   -0.000680  -0.000124   0.000491  -0.049216   0.041544  -0.016032
    16  C    0.022564  -0.003271  -0.029965   5.447202  -6.118992   4.489264
    17  C   -0.076299  -0.168810   0.404100 -15.710275   2.852590  -7.414147
    18  H    0.015201  -0.009063  -0.009034   1.678632   0.004944   0.231342
    19  H    0.000121   0.000869  -0.004227  -0.430828   0.214197   0.003077
    20  H    0.000594   0.000517  -0.000993  -0.311458   0.740699  -1.202350
    21  H   -0.065873  -0.009533   0.025466   1.029507  -1.479486   0.178772
    22  C   -0.143419   0.057890   0.244824   0.587226  -1.296359   0.740263
    23  C   -0.038823  -0.070299  -0.071169   0.785589  -0.360172  -0.253220
    24  H   -0.044003  -0.040342   0.048183   0.108636   0.102532   0.029355
    25  C    0.072750   0.117585  -0.065479  -0.090143   0.157744   0.208757
    26  H    0.002679  -0.000068   0.000030  -0.011122  -0.020387   0.000415
    27  C   -0.000855   0.001318  -0.000140  -0.032277   0.019942  -0.031260
    28  O    0.000388   0.000196  -0.000093   0.003662  -0.000557  -0.001100
    29  C   -0.026490  -0.034542   0.021274   0.209553   0.068644  -0.217151
    30  H   -0.000137   0.000399   0.000137  -0.015138   0.025881   0.003336
    31  C   -0.014142  -0.070744   0.076855  -0.606574   0.091858   0.143283
    32  H   -0.000494  -0.003885   0.001298  -0.026910  -0.004087  -0.030611
              13         14         15         16         17         18
     1  C    0.121640   0.000781   0.001057   0.274661  -0.350211   0.043857
     2  H    0.004707  -0.000106   0.000104  -0.058407  -0.119199   0.042098
     3  H    0.010994   0.000584  -0.000126   0.040304   0.009127  -0.044064
     4  H   -0.027987   0.001244  -0.000506   0.170616  -0.153037  -0.045956
     5  C   -0.581712   0.015495  -0.009383   0.218862  -1.795135  -0.213515
     6  C   -0.164264   0.004128  -0.002376   0.027161  -0.432208   0.037272
     7  H   -0.016944   0.000695  -0.000680   0.022564  -0.076299   0.015201
     8  H   -0.008636   0.000237  -0.000124  -0.003271  -0.168810  -0.009063
     9  H    0.045529  -0.000871   0.000491  -0.029965   0.404100  -0.009034
    10  C   -6.102946   0.241775  -0.049216   5.447202 -15.710275   1.678632
    11  C    4.032761  -0.019251   0.041544  -6.118992   2.852590   0.004944
    12  C   -4.357020   0.328261  -0.016032   4.489264  -7.414147   0.231342
    13  C   11.372249  -0.673269  -0.009285  -5.591101   6.575953  -0.576580
    14  O   -0.673269   9.106323   0.306625   0.039913  -0.258988  -0.007507
    15  H   -0.009285   0.306625   0.602792  -0.138527   0.097519  -0.000111
    16  C   -5.591101   0.039913  -0.138527  18.466773 -10.564873   0.600480
    17  C    6.575953  -0.258988   0.097519 -10.564873  33.691837  -2.620299
    18  H   -0.576580  -0.007507  -0.000111   0.600480  -2.620299   2.648295
    19  H    1.054494  -0.035992  -0.002962  -1.599414   0.572984  -0.101844
    20  H    0.561303  -0.107019   0.004974   0.012971   0.009300   0.012856
    21  H   -0.252685   0.005479   0.001496  -0.021134   0.130305  -0.033102
    22  C   -0.258843   0.002140  -0.001419   0.155398  -0.579645   0.190569
    23  C    0.061346  -0.000136   0.001221  -0.153849   0.397324  -0.012296
    24  H    0.009955  -0.000191   0.000170  -0.012681  -0.015434   0.000044
    25  C    0.007627   0.000219  -0.000405  -0.023791  -0.160921   0.002040
    26  H   -0.000715   0.000007  -0.000019   0.000414   0.000979  -0.000163
    27  C    0.003496  -0.000076   0.000136   0.001230   0.038658   0.001038
    28  O    0.000017  -0.000000   0.000007  -0.000017  -0.000220  -0.000078
    29  C   -0.012979  -0.000391   0.000209   0.068099   0.216715   0.013935
    30  H    0.000048   0.000027  -0.000014   0.000138  -0.007859   0.001127
    31  C    0.065728  -0.000944   0.000399   0.019883   0.018717  -0.009637
    32  H    0.013743  -0.000480   0.000171   0.006463   0.188015  -0.001581
              19         20         21         22         23         24
     1  C    0.023623  -0.009226   0.066984  -1.388030  -0.151573  -0.023081
     2  H    0.000293  -0.000541   0.005546   0.073638   0.289437   0.015707
     3  H    0.001688  -0.000361   0.003904  -0.060931  -0.034063  -0.001926
     4  H    0.000495   0.001547  -0.008177   0.144041  -0.159793  -0.008862
     5  C   -0.025506   0.036271  -0.157420  -6.746015  -1.715990  -0.452057
     6  C    0.001153   0.013788  -0.101575   2.084738  -0.419938   0.064329
     7  H    0.000121   0.000594  -0.065873  -0.143419  -0.038823  -0.044003
     8  H    0.000869   0.000517  -0.009533   0.057890  -0.070299  -0.040342
     9  H   -0.004227  -0.000993   0.025466   0.244824  -0.071169   0.048183
    10  C   -0.430828  -0.311458   1.029507   0.587226   0.785589   0.108636
    11  C    0.214197   0.740699  -1.479486  -1.296359  -0.360172   0.102532
    12  C    0.003077  -1.202350   0.178772   0.740263  -0.253220   0.029355
    13  C    1.054494   0.561303  -0.252685  -0.258843   0.061346   0.009955
    14  O   -0.035992  -0.107019   0.005479   0.002140  -0.000136  -0.000191
    15  H   -0.002962   0.004974   0.001496  -0.001419   0.001221   0.000170
    16  C   -1.599414   0.012971  -0.021134   0.155398  -0.153849  -0.012681
    17  C    0.572984   0.009300   0.130305  -0.579645   0.397324  -0.015434
    18  H   -0.101844   0.012856  -0.033102   0.190569  -0.012296   0.000044
    19  H    1.877987  -0.017808   0.008293  -0.005867  -0.000527  -0.000208
    20  H   -0.017808   1.958102  -0.121278   0.016943  -0.015131   0.000376
    21  H    0.008293  -0.121278   2.533947  -0.263759   0.250774   0.010673
    22  C   -0.005867   0.016943  -0.263759  26.486345 -10.323252   1.144029
    23  C   -0.000527  -0.015131   0.250774 -10.323252  26.639518  -2.136121
    24  H   -0.000208   0.000376   0.010673   1.144029  -2.136121   2.639541
    25  C    0.000103   0.006631  -0.076559   2.208442  -5.630346   0.672587
    26  H    0.000009   0.000069  -0.002672   0.028775   0.718911  -0.111315
    27  C   -0.000133  -0.003056   0.038660  -2.737920   2.117174  -0.059729
    28  O   -0.000001  -0.000138   0.000223   0.169720  -0.098915  -0.003834
    29  C   -0.001239  -0.000719  -0.042224   1.261195  -2.696344   0.067048
    30  H   -0.000020  -0.000269   0.002032  -0.153540   0.152074   0.006014
    31  C   -0.003684   0.006098   0.011145  -7.442008  -1.602167  -0.093353
    32  H   -0.001334  -0.000189   0.016068   0.699263  -0.112453  -0.016989
              25         26         27         28         29         30
     1  C   -0.332087   0.002780   0.005700   0.003183   0.596245  -0.010293
     2  H   -0.018358  -0.002694   0.014222  -0.000179   0.003777   0.001261
     3  H    0.000494   0.000813  -0.007966   0.000462   0.010324  -0.000848
     4  H   -0.012673   0.000992  -0.003498   0.000294   0.029138  -0.000889
     5  C   -0.836253   0.032799  -0.119626  -0.001550  -1.001041   0.025619
     6  C    0.387400   0.024810   0.041693  -0.001404  -0.378715  -0.001025
     7  H    0.072750   0.002679  -0.000855   0.000388  -0.026490  -0.000137
     8  H    0.117585  -0.000068   0.001318   0.000196  -0.034542   0.000399
     9  H   -0.065479   0.000030  -0.000140  -0.000093   0.021274   0.000137
    10  C   -0.090143  -0.011122  -0.032277   0.003662   0.209553  -0.015138
    11  C    0.157744  -0.020387   0.019942  -0.000557   0.068644   0.025881
    12  C    0.208757   0.000415  -0.031260  -0.001100  -0.217151   0.003336
    13  C    0.007627  -0.000715   0.003496   0.000017  -0.012979   0.000048
    14  O    0.000219   0.000007  -0.000076  -0.000000  -0.000391   0.000027
    15  H   -0.000405  -0.000019   0.000136   0.000007   0.000209  -0.000014
    16  C   -0.023791   0.000414   0.001230  -0.000017   0.068099   0.000138
    17  C   -0.160921   0.000979   0.038658  -0.000220   0.216715  -0.007859
    18  H    0.002040  -0.000163   0.001038  -0.000078   0.013935   0.001127
    19  H    0.000103   0.000009  -0.000133  -0.000001  -0.001239  -0.000020
    20  H    0.006631   0.000069  -0.003056  -0.000138  -0.000719  -0.000269
    21  H   -0.076559  -0.002672   0.038660   0.000223  -0.042224   0.002032
    22  C    2.208442   0.028775  -2.737920   0.169720   1.261195  -0.153540
    23  C   -5.630346   0.718911   2.117174  -0.098915  -2.696344   0.152074
    24  H    0.672587  -0.111315  -0.059729  -0.003834   0.067048   0.006014
    25  C   12.439364  -0.970571  -1.613641   0.124027   1.896468  -0.163077
    26  H   -0.970571   1.795666   0.136185  -0.020464  -0.170638  -0.010906
    27  C   -1.613641   0.136185   8.292777  -0.353206  -1.413682   0.193383
    28  O    0.124027  -0.020464  -0.353206   9.329372   0.124571  -0.034535
    29  C    1.896468  -0.170638  -1.413682   0.124571  12.315723  -0.852270
    30  H   -0.163077  -0.010906   0.193383  -0.034535  -0.852270   1.818660
    31  C   -2.521565   0.115225   1.166282  -0.091643  -5.162407   0.715581
    32  H    0.080179   0.003120  -0.107025  -0.001099   0.920873  -0.142652
              31         32
     1  C   -0.217329   0.070903
     2  H    0.045459   0.017680
     3  H   -0.147244  -0.046904
     4  H    0.002564  -0.000425
     5  C    0.157348  -0.194924
     6  C   -0.324116  -0.015752
     7  H   -0.014142  -0.000494
     8  H   -0.070744  -0.003885
     9  H    0.076855   0.001298
    10  C   -0.606574  -0.026910
    11  C    0.091858  -0.004087
    12  C    0.143283  -0.030611
    13  C    0.065728   0.013743
    14  O   -0.000944  -0.000480
    15  H    0.000399   0.000171
    16  C    0.019883   0.006463
    17  C    0.018717   0.188015
    18  H   -0.009637  -0.001581
    19  H   -0.003684  -0.001334
    20  H    0.006098  -0.000189
    21  H    0.011145   0.016068
    22  C   -7.442008   0.699263
    23  C   -1.602167  -0.112453
    24  H   -0.093353  -0.016989
    25  C   -2.521565   0.080179
    26  H    0.115225   0.003120
    27  C    1.166282  -0.107025
    28  O   -0.091643  -0.001099
    29  C   -5.162407   0.920873
    30  H    0.715581  -0.142652
    31  C   23.424782  -2.049140
    32  H   -2.049140   2.571842
 Mulliken charges:
               1
     1  C    1.105627
     2  H   -0.201063
     3  H   -0.061940
     4  H   -0.081894
     5  C   -0.888115
     6  C    0.893797
     7  H   -0.001677
     8  H   -0.041387
     9  H   -0.208477
    10  C    0.947852
    11  C   -0.081347
    12  C    0.064703
    13  C    0.693373
    14  O   -0.948714
    15  H    0.172270
    16  C    0.253625
    17  C    1.223436
    18  H   -0.838902
    19  H   -0.527794
    20  H   -0.592504
    21  H   -0.683797
    22  C    1.105566
    23  C    0.643208
    24  H   -0.899056
    25  C    0.133451
    26  H   -0.542946
    27  C    0.412194
    28  O   -1.147091
    29  C    0.187040
    30  H   -0.552246
    31  C    0.295490
    32  H   -0.832682
 Sum of Mulliken charges =  -1.00000
 Mulliken charges with hydrogens summed into heavy atoms:
               1
     1  C    0.760729
     5  C   -0.888115
     6  C    0.642256
    10  C    0.947852
    11  C   -0.765144
    12  C   -0.527801
    13  C    0.693373
    14  O   -0.776443
    16  C   -0.274169
    17  C    0.384535
    22  C    1.105566
    23  C   -0.255849
    25  C   -0.409494
    27  C    0.412194
    28  O   -1.147091
    29  C   -0.365205
    31  C   -0.537192
 Electronic spatial extent (au):  <R**2>=           4852.0073
 Charge=             -1.0000 electrons
 Dipole moment (field-independent basis, Debye):
    X=            -14.5223    Y=              4.4713    Z=             -1.5870  Tot=             15.2777
 Quadrupole moment (field-independent basis, Debye-Ang):
   XX=           -196.4781   YY=           -115.0639   ZZ=           -106.9425
   XY=             28.7255   XZ=             -1.7176   YZ=              5.8586
 Traceless Quadrupole moment (field-independent basis, Debye-Ang):
   XX=            -56.9833   YY=             24.4309   ZZ=             32.5523
   XY=             28.7255   XZ=             -1.7176   YZ=              5.8586
 Octapole moment (field-independent basis, Debye-Ang**2):
  XXX=           -327.5153  YYY=             -9.9173  ZZZ=             -0.6607  XYY=            -85.0885
  XXY=            124.1153  XXZ=            -30.4961  XZZ=            -13.5781  YZZ=             -6.9713
  YYZ=            -12.9915  XYZ=            -16.3686
 Hexadecapole moment (field-independent basis, Debye-Ang**3):
 XXXX=          -6998.9289 YYYY=          -1327.6344 ZZZZ=           -647.5211 XXXY=            673.5519
 XXXZ=            -44.4783 YYYX=            228.5907 YYYZ=             41.1882 ZZZX=             -4.5316
 ZZZY=              1.4859 XXYY=          -1217.3464 XXZZ=           -912.0304 YYZZ=           -324.7703
 XXYZ=            108.6600 YYXZ=             32.1439 ZZXY=             21.9934
 N-N= 1.129636052958D+03 E-N=-3.973352944658D+03  KE= 7.258539135342D+02
 Leave Link  601 at Mon Jul 12 14:59:04 2021, MaxMem=   262144000 cpu:               0.4 elap:               0.4
 (Enter /dades/curu/g16A03_MST/g16/l9999.exe)
 1\1\GINC-PIRINEUS27\SP\RMP2-FC\Aug-CC-pVDZ\C15H15O2(1-)\UBATOR02\12-Ju
 l-2021\0\\#p mp2/aug-cc-pVDZ scf=tight maxdisk=180GB geom=allcheck\\SE
 T_328_BBB212_conf1.geo_300_135 geometry\\-1,1\C,0,1.5909239085,-1.0316
 16271,1.5426299796\H,0,2.3068004039,-0.3789379041,2.0485524397\H,0,2.1
 001644158,-1.4923018814,0.6922401944\H,0,1.3057838009,-1.8224043175,2.
 2429480917\C,0,0.376092957,-0.1998606358,1.0852551705\C,0,-0.299404429
 3,0.3595303205,2.3541712014\H,0,-1.1808703112,0.9601043476,2.112451354
 2\H,0,0.3941484984,0.9887178068,2.9199679128\H,0,-0.6180356114,-0.4637
 735755,2.9985869082\C,0,-0.6601567517,-1.0787002954,0.3612413105\C,0,-
 1.6590437257,-0.4778629719,-0.4164915099\C,0,-2.6551614883,-1.22133559
 65,-1.0427777189\C,0,-2.6713171178,-2.6141707113,-0.9114175748\O,0,-3.
 6147850917,-3.4083838563,-1.5078070968\H,0,-4.2278659819,-2.8501672309
 ,-2.0124383995\C,0,-1.6858762319,-3.2387117418,-0.1454566567\C,0,-0.70
 12752012,-2.4738178359,0.4810899372\H,0,0.0501883271,-2.9861321894,1.0
 70917103\H,0,-1.6979387197,-4.3198336722,-0.0494908711\H,0,-3.41352574
 84,-0.7210637665,-1.6402518194\H,0,-1.6410109013,0.5997921501,-0.54368
 17898\C,0,0.8686619654,0.9216921363,0.1642404826\C,0,0.7220080885,2.28
 64522185,0.4517935595\H,0,0.2148923135,2.5845047023,1.3655151879\C,0,1
 .2081772316,3.2828550836,-0.3906064547\H,0,1.0716394757,4.3289796767,-
 0.125052477\C,0,1.8972059093,2.9927115142,-1.6166456745\O,0,2.35448082
 42,3.8996627694,-2.402951556\C,0,2.0339153528,1.5846222939,-1.88588823
 18\H,0,2.5477930648,1.3001552149,-2.8019876758\C,0,1.5398956821,0.6086
 709979,-1.0336313676\H,0,1.6734950919,-0.4393767794,-1.2990239589\\Ver
 sion=ES64L-G16RevA.03\State=1-A\HF=-726.5712522\MP2=-729.0727378\RMSD=
 6.843e-09\PG=C01 [X(C15H15O2)]\\@


 EVERYTHING'S GOT A MORAL, IF ONLY YOU CAN FIND IT.

                                    -- LEWIS CARROL, ALICE IN WONDERLAND
 Job cpu time:       0 days  2 hours 53 minutes 48.8 seconds.
 Elapsed time:       0 days  0 hours 55 minutes  9.2 seconds.
 File lengths (MBytes):  RWF=  69180 Int=      0 D2E=      0 Chk=     23 Scr=      1
 Normal termination of Gaussian 16 at Mon Jul 12 14:59:06 2021.
