 Entering Gaussian System, Link 0=g16
 Input=SET_328_BBB87_conf1.geo_075_240_OCTANOL.dat
 Output=SET_328_BBB87_conf1.geo_075_240_OCTANOL.log
 Initial command:
 /dades/curu/g16A03_MST/g16/l1.exe "/tmp/ubator02/1835315/Gau-211729.inp" -scrdir="/tmp/ubator02/1835315/"
 Entering Link 1 = /dades/curu/g16A03_MST/g16/l1.exe PID=    211730.
  
 Copyright (c) 1988,1990,1992,1993,1995,1998,2003,2009,2016,
            Gaussian, Inc.  All Rights Reserved.
  
 This is part of the Gaussian(R) 16 program.  It is based on
 the Gaussian(R) 09 system (copyright 2009, Gaussian, Inc.),
 the Gaussian(R) 03 system (copyright 2003, Gaussian, Inc.),
 the Gaussian(R) 98 system (copyright 1998, Gaussian, Inc.),
 the Gaussian(R) 94 system (copyright 1995, Gaussian, Inc.),
 the Gaussian 92(TM) system (copyright 1992, Gaussian, Inc.),
 the Gaussian 90(TM) system (copyright 1990, Gaussian, Inc.),
 the Gaussian 88(TM) system (copyright 1988, Gaussian, Inc.),
 the Gaussian 86(TM) system (copyright 1986, Carnegie Mellon
 University), and the Gaussian 82(TM) system (copyright 1983,
 Carnegie Mellon University). Gaussian is a federally registered
 trademark of Gaussian, Inc.
  
 This software contains proprietary and confidential information,
 including trade secrets, belonging to Gaussian, Inc.
  
 This software is provided under written license and may be
 used, copied, transmitted, or stored only in accord with that
 written license.
  
 The following legend is applicable only to US Government
 contracts under FAR:
  
                    RESTRICTED RIGHTS LEGEND
  
 Use, reproduction and disclosure by the US Government is
 subject to restrictions as set forth in subparagraphs (a)
 and (c) of the Commercial Computer Software - Restricted
 Rights clause in FAR 52.227-19.
  
 Gaussian, Inc.
 340 Quinnipiac St., Bldg. 40, Wallingford CT 06492
  
  
 ---------------------------------------------------------------
 Warning -- This program may not be used in any manner that
 competes with the business of Gaussian, Inc. or will provide
 assistance to any competitor of Gaussian, Inc.  The licensee
 of this program is prohibited from giving any competitor of
 Gaussian, Inc. access to this program.  By using this program,
 the user acknowledges that Gaussian, Inc. is engaged in the
 business of creating and licensing software in the field of
 computational chemistry and represents and warrants to the
 licensee that it is not a competitor of Gaussian, Inc. and that
 it will not use this program in any manner prohibited above.
 ---------------------------------------------------------------
  

 Cite this work as:
 Gaussian 16, Revision A.03,
 M. J. Frisch, G. W. Trucks, H. B. Schlegel, G. E. Scuseria, 
 M. A. Robb, J. R. Cheeseman, G. Scalmani, V. Barone, 
 G. A. Petersson, H. Nakatsuji, X. Li, M. Caricato, A. V. Marenich, 
 J. Bloino, B. G. Janesko, R. Gomperts, B. Mennucci, H. P. Hratchian, 
 J. V. Ortiz, A. F. Izmaylov, J. L. Sonnenberg, D. Williams-Young, 
 F. Ding, F. Lipparini, F. Egidi, J. Goings, B. Peng, A. Petrone, 
 T. Henderson, D. Ranasinghe, V. G. Zakrzewski, J. Gao, N. Rega, 
 G. Zheng, W. Liang, M. Hada, M. Ehara, K. Toyota, R. Fukuda, 
 J. Hasegawa, M. Ishida, T. Nakajima, Y. Honda, O. Kitao, H. Nakai, 
 T. Vreven, K. Throssell, J. A. Montgomery, Jr., J. E. Peralta, 
 F. Ogliaro, M. J. Bearpark, J. J. Heyd, E. N. Brothers, K. N. Kudin, 
 V. N. Staroverov, T. A. Keith, R. Kobayashi, J. Normand, 
 K. Raghavachari, A. P. Rendell, J. C. Burant, S. S. Iyengar, 
 J. Tomasi, M. Cossi, J. M. Millam, M. Klene, C. Adamo, R. Cammi, 
 J. W. Ochterski, R. L. Martin, K. Morokuma, O. Farkas, 
 J. B. Foresman, and D. J. Fox, Gaussian, Inc., Wallingford CT, 2016.
 
 ******************************************
 Gaussian 16:  ES64L-G16RevA.03 25-Dec-2016
                12-Jul-2021 
 ******************************************
 %mem=800MB
 %nproc=4
 Will use up to    4 processors via shared memory.
 %chk=SET_328_BBB87_conf1.geo_075_240.chk
 ---------------------------------------------------------------
 #p b3lyp/6-31G(d) opt freq scrf=(iefpcm,read,solvent=n-octanol)
 ---------------------------------------------------------------
 1/18=20,19=15,26=3,38=1,40=2/1,3;
 2/9=110,12=2,17=6,18=5,40=1/2;
 3/5=1,6=6,7=1,11=2,25=1,30=1,70=2203,71=1,72=25,74=-5/1,2,3;
 4//1;
 5/5=2,38=5,53=25/2;
 6/7=2,8=2,9=2,10=2,28=1/1;
 7//1,2,3,16;
 1/18=20,19=15,26=3/3(2);
 2/9=110/2;
 99//99;
 2/9=110/2;
 3/5=1,6=6,7=1,11=2,25=1,30=1,70=2205,71=1,72=25,74=-5/1,2,3;
 4/5=5,16=3,69=1/1;
 5/5=2,38=5,53=25/2;
 7//1,2,3,16;
 1/18=20,19=15,26=3/3(-5);
 2/9=110/2;
 6/7=2,8=2,9=2,10=2,19=2,28=1/1;
 99/9=1/99;
 Leave Link    1 at Mon Jul 12 12:51:24 2021, MaxMem=   104857600 cpu:               0.1 elap:               0.0
 (Enter /dades/curu/g16A03_MST/g16/l101.exe)
 ----------------------------------------
 SET_328_BBB87_conf1.geo_075_240 geometry
 ----------------------------------------
 Symbolic Z-matrix:
 Charge =  1 Multiplicity = 1
 N                     1.301     2.008    -0.479 
 H                     1.662     1.208    -0.001 
 H                     1.428     2.821     0.089 
 C                    -0.109     1.818    -0.74 
 H                    -0.416     2.524    -1.516 
 H                    -0.653     2.109     0.163 
 C                    -0.367     0.389    -1.231 
 H                     0.215     0.192    -2.135 
 H                    -1.386     0.322    -1.617 
 C                    -0.276    -0.577    -0.111 
 N                     0.595    -1.594    -0.072 
 C                     0.438    -2.411     0.994 
 H                     1.154    -3.198     1.193 
 C                    -0.687    -2.123     1.713 
 H                    -1.119    -2.659     2.549 
 S                    -1.588    -0.82      1.047 
 H                     1.787     2.127    -1.345 
 
 ITRead=  0  0  0  0  0  0  0  0  0  0  0  0  0  0  0  0  0
 MicOpt= -1 -1 -1 -1 -1 -1 -1 -1 -1 -1 -1 -1 -1 -1 -1 -1 -1
 NAtoms=     17 NQM=       17 NQMF=       0 NMMI=      0 NMMIF=      0
                NMic=       0 NMicF=      0.
                    Isotopes and Nuclear Properties:
 (Nuclear quadrupole moments (NQMom) in fm**2, nuclear magnetic moments (NMagM)
  in nuclear magnetons)

  Atom         1           2           3           4           5           6           7           8           9          10
 IAtWgt=          14           1           1          12           1           1          12           1           1          12
 AtmWgt=  14.0030740   1.0078250   1.0078250  12.0000000   1.0078250   1.0078250  12.0000000   1.0078250   1.0078250  12.0000000
 NucSpn=           2           1           1           0           1           1           0           1           1           0
 AtZEff=  -0.0000000  -0.0000000  -0.0000000  -0.0000000  -0.0000000  -0.0000000  -0.0000000  -0.0000000  -0.0000000  -0.0000000
 NQMom=    2.0440000   0.0000000   0.0000000   0.0000000   0.0000000   0.0000000   0.0000000   0.0000000   0.0000000   0.0000000
 NMagM=    0.4037610   2.7928460   2.7928460   0.0000000   2.7928460   2.7928460   0.0000000   2.7928460   2.7928460   0.0000000
 AtZNuc=   7.0000000   1.0000000   1.0000000   6.0000000   1.0000000   1.0000000   6.0000000   1.0000000   1.0000000   6.0000000

  Atom        11          12          13          14          15          16          17
 IAtWgt=          14          12           1          12           1          32           1
 AtmWgt=  14.0030740  12.0000000   1.0078250  12.0000000   1.0078250  31.9720718   1.0078250
 NucSpn=           2           0           1           0           1           0           1
 AtZEff=  -0.0000000  -0.0000000  -0.0000000  -0.0000000  -0.0000000  -0.0000000  -0.0000000
 NQMom=    2.0440000   0.0000000   0.0000000   0.0000000   0.0000000   0.0000000   0.0000000
 NMagM=    0.4037610   0.0000000   2.7928460   0.0000000   2.7928460   0.0000000   2.7928460
 AtZNuc=   7.0000000   6.0000000   1.0000000   6.0000000   1.0000000  16.0000000   1.0000000
 Leave Link  101 at Mon Jul 12 12:51:24 2021, MaxMem=   104857600 cpu:               0.1 elap:               0.1
 (Enter /dades/curu/g16A03_MST/g16/l103.exe)

 GradGradGradGradGradGradGradGradGradGradGradGradGradGradGradGradGradGrad
 Berny optimization.
 Initialization pass.
                           ----------------------------
                           !    Initial Parameters    !
                           ! (Angstroms and Degrees)  !
 --------------------------                            --------------------------
 ! Name  Definition              Value          Derivative Info.                !
 --------------------------------------------------------------------------------
 ! R1    R(1,2)                  0.9994         estimate D2E/DX2                !
 ! R2    R(1,3)                  0.9999         estimate D2E/DX2                !
 ! R3    R(1,4)                  1.4465         estimate D2E/DX2                !
 ! R4    R(1,17)                 1.0002         estimate D2E/DX2                !
 ! R5    R(4,5)                  1.0931         estimate D2E/DX2                !
 ! R6    R(4,6)                  1.0936         estimate D2E/DX2                !
 ! R7    R(4,7)                  1.5329         estimate D2E/DX2                !
 ! R8    R(7,8)                  1.093          estimate D2E/DX2                !
 ! R9    R(7,9)                  1.0917         estimate D2E/DX2                !
 ! R10   R(7,10)                 1.4818         estimate D2E/DX2                !
 ! R11   R(10,11)                1.3396         estimate D2E/DX2                !
 ! R12   R(10,16)                1.7667         estimate D2E/DX2                !
 ! R13   R(11,12)                1.3522         estimate D2E/DX2                !
 ! R14   R(12,13)                1.0824         estimate D2E/DX2                !
 ! R15   R(12,14)                1.3658         estimate D2E/DX2                !
 ! R16   R(14,15)                1.083          estimate D2E/DX2                !
 ! R17   R(14,16)                1.7185         estimate D2E/DX2                !
 ! A1    A(2,1,3)              109.4689         estimate D2E/DX2                !
 ! A2    A(2,1,4)              109.4668         estimate D2E/DX2                !
 ! A3    A(2,1,17)             109.5026         estimate D2E/DX2                !
 ! A4    A(3,1,4)              109.4583         estimate D2E/DX2                !
 ! A5    A(3,1,17)             109.4761         estimate D2E/DX2                !
 ! A6    A(4,1,17)             109.4547         estimate D2E/DX2                !
 ! A7    A(1,4,5)              108.4832         estimate D2E/DX2                !
 ! A8    A(1,4,6)              107.5142         estimate D2E/DX2                !
 ! A9    A(1,4,7)              110.14           estimate D2E/DX2                !
 ! A10   A(5,4,6)              105.9384         estimate D2E/DX2                !
 ! A11   A(5,4,7)              109.1135         estimate D2E/DX2                !
 ! A12   A(6,4,7)              115.3923         estimate D2E/DX2                !
 ! A13   A(4,7,8)              110.0789         estimate D2E/DX2                !
 ! A14   A(4,7,9)              109.1212         estimate D2E/DX2                !
 ! A15   A(4,7,10)             110.8109         estimate D2E/DX2                !
 ! A16   A(8,7,9)              101.1577         estimate D2E/DX2                !
 ! A17   A(8,7,10)             118.3534         estimate D2E/DX2                !
 ! A18   A(9,7,10)             106.5319         estimate D2E/DX2                !
 ! A19   A(7,10,11)            123.8383         estimate D2E/DX2                !
 ! A20   A(7,10,16)            122.6467         estimate D2E/DX2                !
 ! A21   A(11,10,16)           111.0602         estimate D2E/DX2                !
 ! A22   A(10,11,12)           113.9639         estimate D2E/DX2                !
 ! A23   A(11,12,13)           120.4925         estimate D2E/DX2                !
 ! A24   A(11,12,14)           112.5335         estimate D2E/DX2                !
 ! A25   A(13,12,14)           126.9682         estimate D2E/DX2                !
 ! A26   A(12,14,15)           129.0922         estimate D2E/DX2                !
 ! A27   A(12,14,16)           112.8124         estimate D2E/DX2                !
 ! A28   A(15,14,16)           117.7298         estimate D2E/DX2                !
 ! A29   A(10,16,14)            88.221          estimate D2E/DX2                !
 ! D1    D(2,1,4,5)           -162.3997         estimate D2E/DX2                !
 ! D2    D(2,1,4,6)             83.4519         estimate D2E/DX2                !
 ! D3    D(2,1,4,7)            -43.0377         estimate D2E/DX2                !
 ! D4    D(3,1,4,5)             77.6138         estimate D2E/DX2                !
 ! D5    D(3,1,4,6)            -36.5346         estimate D2E/DX2                !
 ! D6    D(3,1,4,7)           -163.0242         estimate D2E/DX2                !
 ! D7    D(17,1,4,5)           -42.3742         estimate D2E/DX2                !
 ! D8    D(17,1,4,6)          -156.5225         estimate D2E/DX2                !
 ! D9    D(17,1,4,7)            76.9878         estimate D2E/DX2                !
 ! D10   D(1,4,7,8)            -58.2255         estimate D2E/DX2                !
 ! D11   D(1,4,7,9)           -168.3946         estimate D2E/DX2                !
 ! D12   D(1,4,7,10)            74.6075         estimate D2E/DX2                !
 ! D13   D(5,4,7,8)             60.7521         estimate D2E/DX2                !
 ! D14   D(5,4,7,9)            -49.417          estimate D2E/DX2                !
 ! D15   D(5,4,7,10)          -166.4149         estimate D2E/DX2                !
 ! D16   D(6,4,7,8)            179.8432         estimate D2E/DX2                !
 ! D17   D(6,4,7,9)             69.6741         estimate D2E/DX2                !
 ! D18   D(6,4,7,10)           -47.3237         estimate D2E/DX2                !
 ! D19   D(4,7,10,11)         -120.2508         estimate D2E/DX2                !
 ! D20   D(4,7,10,16)           79.1323         estimate D2E/DX2                !
 ! D21   D(8,7,10,11)            8.2447         estimate D2E/DX2                !
 ! D22   D(8,7,10,16)         -152.3723         estimate D2E/DX2                !
 ! D23   D(9,7,10,11)          121.1711         estimate D2E/DX2                !
 ! D24   D(9,7,10,16)          -39.4459         estimate D2E/DX2                !
 ! D25   D(7,10,11,12)        -175.2488         estimate D2E/DX2                !
 ! D26   D(16,10,11,12)        -12.6734         estimate D2E/DX2                !
 ! D27   D(7,10,16,14)         173.4714         estimate D2E/DX2                !
 ! D28   D(11,10,16,14)         10.6527         estimate D2E/DX2                !
 ! D29   D(10,11,12,13)       -172.8836         estimate D2E/DX2                !
 ! D30   D(10,11,12,14)          7.9322         estimate D2E/DX2                !
 ! D31   D(11,12,14,15)        173.4928         estimate D2E/DX2                !
 ! D32   D(11,12,14,16)          0.6912         estimate D2E/DX2                !
 ! D33   D(13,12,14,15)         -5.6274         estimate D2E/DX2                !
 ! D34   D(13,12,14,16)       -178.429          estimate D2E/DX2                !
 ! D35   D(12,14,16,10)         -6.3611         estimate D2E/DX2                !
 ! D36   D(15,14,16,10)        179.9469         estimate D2E/DX2                !
 --------------------------------------------------------------------------------
 Trust Radius=3.00D-01 FncErr=1.00D-07 GrdErr=1.00D-06 EigMax=2.50D+02 EigMin=1.00D-04
 Number of steps in this run=     92 maximum allowed number of steps=    102.
 GradGradGradGradGradGradGradGradGradGradGradGradGradGradGradGradGradGrad

 Leave Link  103 at Mon Jul 12 12:51:24 2021, MaxMem=   104857600 cpu:               0.0 elap:               0.0
 (Enter /dades/curu/g16A03_MST/g16/l202.exe)
                          Input orientation:                          
 ---------------------------------------------------------------------
 Center     Atomic      Atomic             Coordinates (Angstroms)
 Number     Number       Type             X           Y           Z
 ---------------------------------------------------------------------
      1          7           0        1.301000    2.008000   -0.479000
      2          1           0        1.662000    1.208000   -0.001000
      3          1           0        1.428000    2.821000    0.089000
      4          6           0       -0.109000    1.818000   -0.740000
      5          1           0       -0.416000    2.524000   -1.516000
      6          1           0       -0.653000    2.109000    0.163000
      7          6           0       -0.367000    0.389000   -1.231000
      8          1           0        0.215000    0.192000   -2.135000
      9          1           0       -1.386000    0.322000   -1.617000
     10          6           0       -0.276000   -0.577000   -0.111000
     11          7           0        0.595000   -1.594000   -0.072000
     12          6           0        0.438000   -2.411000    0.994000
     13          1           0        1.154000   -3.198000    1.193000
     14          6           0       -0.687000   -2.123000    1.713000
     15          1           0       -1.119000   -2.659000    2.549000
     16         16           0       -1.588000   -0.820000    1.047000
     17          1           0        1.787000    2.127000   -1.345000
 ---------------------------------------------------------------------
                    Distance matrix (angstroms):
                    1          2          3          4          5
     1  N    0.000000
     2  H    0.999402   0.000000
     3  H    0.999861   1.632368   0.000000
     4  C    1.446486   2.013619   2.013857   0.000000
     5  H    2.071162   2.888800   2.462635   1.093097   0.000000
     6  H    2.059243   2.489563   2.200677   1.093630   1.745690
     7  C    2.443131   2.510080   3.298340   1.532869   2.154496
     8  H    2.686929   2.771285   3.650916   2.166766   2.493902
     9  H    3.370105   3.561847   4.132074   2.153572   2.408299
    10  C    3.050341   2.637076   3.806576   2.481845   3.407319
    11  N    3.693032   2.999122   4.495780   3.547335   4.479417
    12  C    4.737305   3.947830   5.401199   4.603304   5.602110
    13  H    5.469884   4.593097   6.125541   5.521948   6.522642
    14  C    5.081552   4.421669   5.617271   4.677903   5.665200
    15  H    6.066801   5.402791   6.524508   5.646340   6.624343
    16  S    4.321178   3.971598   4.823992   3.512813   4.373201
    17  H    1.000156   1.632949   1.633056   2.014031   2.245008
                    6          7          8          9         10
     6  H    0.000000
     7  C    2.232360   0.000000
     8  H    3.115946   1.093046   0.000000
     9  H    2.626606   1.091717   1.687728   0.000000
    10  C    2.726133   1.481836   2.220139   2.075653   0.000000
    11  N    3.914708   2.490184   2.755025   3.159500   1.339571
    12  C    4.723478   3.665876   4.076270   4.196854   2.257073
    13  H    5.700035   4.588658   4.842459   5.170890   3.258060
    14  C    4.507048   3.883256   4.580386   4.189932   2.426111
    15  H    5.352007   4.913676   5.643369   5.129640   3.481519
    16  S    3.199175   2.853385   3.794743   2.905489   1.766736
    17  H    2.868447   2.770082   2.615245   3.660593   3.618058
                   11         12         13         14         15
    11  N    0.000000
    12  C    1.352218   0.000000
    13  H    2.117905   1.082417   0.000000
    14  C    2.260440   1.365844   2.194381   0.000000
    15  H    3.307818   2.214448   2.701071   1.082966   0.000000
    16  S    2.572300   2.576580   3.632460   1.718478   2.420307
    17  H    4.109408   5.280546   5.932770   5.790901   6.820108
                   16         17
    16  S    0.000000
    17  H    5.079084   0.000000
 Stoichiometry    C5H9N2S(1+)
 Framework group  C1[X(C5H9N2S)]
 Deg. of freedom    45
 Full point group                 C1      NOp   1
 Largest Abelian subgroup         C1      NOp   1
 Largest concise Abelian subgroup C1      NOp   1
                         Standard orientation:                         
 ---------------------------------------------------------------------
 Center     Atomic      Atomic             Coordinates (Angstroms)
 Number     Number       Type             X           Y           Z
 ---------------------------------------------------------------------
      1          7           0        2.691499    0.624621   -0.764912
      2          1           0        1.892258    1.186594   -0.975162
      3          1           0        3.143632    0.356765   -1.615531
      4          6           0        2.272813   -0.559920   -0.048054
      5          1           0        3.147165   -0.995006    0.442934
      6          1           0        1.947579   -1.295398   -0.789216
      7          6           0        1.231054   -0.192959    1.014849
      8          1           0        1.646096    0.542381    1.708942
      9          1           0        1.080066   -1.047289    1.677548
     10          6           0       -0.081514    0.092451    0.389113
     11          7           0       -0.719804    1.265274    0.496461
     12          6           0       -1.948780    1.275342   -0.067464
     13          1           0       -2.510446    2.197462   -0.143968
     14          6           0       -2.347394    0.034485   -0.476009
     15          1           0       -3.306605   -0.279884   -0.868314
     16         16           0       -1.182955   -1.183738   -0.139588
     17          1           0        3.328597    1.148522   -0.199274
 ---------------------------------------------------------------------
 Rotational constants (GHZ):           3.4000933           1.1367020           0.9853749
 Leave Link  202 at Mon Jul 12 12:51:24 2021, MaxMem=   104857600 cpu:               0.0 elap:               0.0
 (Enter /dades/curu/g16A03_MST/g16/l301.exe)
 Standard basis: 6-31G(d) (6D, 7F)
 Ernie: Thresh=  0.10000D-02 Tol=  0.10000D-05 Strict=F.
 There are   142 symmetry adapted cartesian basis functions of A   symmetry.
 There are   142 symmetry adapted basis functions of A   symmetry.
   142 basis functions,   284 primitive gaussians,   142 cartesian basis functions
    34 alpha electrons       34 beta electrons
       nuclear repulsion energy       446.2341064857 Hartrees.
 IExCor=  402 DFT=T Ex+Corr=B3LYP ExCW=0 ScaHFX=  0.200000
 ScaDFX=  0.800000  0.720000  1.000000  0.810000 ScalE2=  1.000000  1.000000
 IRadAn=      5 IRanWt=     -1 IRanGd=            0 ICorTp=0 IEmpDi=  4
 NAtoms=   17 NActive=   17 NUniq=   17 SFac= 1.00D+00 NAtFMM=   60 NAOKFM=F Big=F
 Integral buffers will be    131072 words long.
 Raffenetti 2 integral format.
 Two-electron integral symmetry is turned on.
 Using the following non-standard input for PCM:
 MSTModel=DFT cav MSTCharged
 --- end of non-standard input.
 MST model for solvation energy: B3LYP parametrization.
 MST cavity parameters:
 ISph   IAn     Re0     Alpha   Atom Type   QCorr
 ------------------------------------------------
   1      7     1.50     1.15      NH+        T
   2      1     0.90     1.15      NH+        T
   3      1     0.90     1.15      NH+        T
   4      6     1.50     1.50      CN+        F
   5      1     1.20     1.50      CN+        F
   6      1     1.20     1.50      CN+        F
   7      6     1.50     1.50      CH2        F
   8      1     1.20     1.50      CH2        F
   9      1     1.20     1.50      CH2        F
  10      6     1.50     1.50      C          F
  11      7     1.50     1.50      Nc         F
  12      6     1.50     1.50      CH         F
  13      1     1.20     1.50      CH         F
  14      6     1.50     1.50      CH         F
  15      1     1.20     1.50      CH         F
  16     16     1.75     1.50      S          F
  17      1     0.90     1.15      NH+        T
 ------------------------------------------------------------------------------
 Polarizable Continuum Model (PCM)
 =================================
 Model                : PCM.
 Atomic radii         : MST.
 Polarization charges : Total charges.
 Charge compensation  : None.
 Solution method      : On-the-fly selection.
 Cavity type          : Scaled VdW (van der Waals Surface) (Alpha=1.500).
 Cavity algorithm     : GePol (No added spheres)
                        Default sphere list used, NSphG=   17.
                        Lebedev-Laikov grids with approx.  5.0 points / Ang**2.
                        Smoothing algorithm: York/Karplus (Gamma=1.0000).
                        Polarization charges: spherical gaussians, with
                                              point-specific exponents (IZeta= 3).
                        Self-potential: point-specific (ISelfS= 7).
                        Self-field    : sphere-specific E.n sum rule (ISelfD= 2).
 1st derivatives      : Analytical E(r).r(x)/FMM algorithm (CHGder, D1EAlg=3).
                        Cavity 1st derivative terms included.
 Solvent              : n-Octanol, Eps=   9.862900 Eps(inf)=   2.043470
 ------------------------------------------------------------------------------
 Spheres list:
 ISph  on   Nord     Re0    Alpha      Xe            Ye            Ze
    1   N      1    1.5000  1.150      2.691499      0.624621     -0.764912
    2   H      2    0.9000  1.150      1.892258      1.186594     -0.975162
    3   H      3    0.9000  1.150      3.143632      0.356765     -1.615531
    4   C      4    1.5000  1.500      2.272813     -0.559920     -0.048054
    5   H      5    1.2000  1.500      3.147165     -0.995006      0.442934
    6   H      6    1.2000  1.500      1.947579     -1.295398     -0.789216
    7   C      7    1.5000  1.500      1.231054     -0.192959      1.014849
    8   H      8    1.2000  1.500      1.646096      0.542381      1.708942
    9   H      9    1.2000  1.500      1.080066     -1.047289      1.677548
   10   C     10    1.5000  1.500     -0.081514      0.092451      0.389113
   11   N     11    1.5000  1.500     -0.719804      1.265274      0.496461
   12   C     12    1.5000  1.500     -1.948780      1.275342     -0.067464
   13   H     13    1.2000  1.500     -2.510446      2.197462     -0.143968
   14   C     14    1.5000  1.500     -2.347394      0.034485     -0.476009
   15   H     15    1.2000  1.500     -3.306605     -0.279884     -0.868314
   16   S     16    1.7500  1.500     -1.182955     -1.183738     -0.139588
   17   H     17    0.9000  1.150      3.328597      1.148522     -0.199274
 ------------------------------------------------------------------------------
 GePol: Number of generator spheres                  =      17
 GePol: Total number of spheres                      =      17
 GePol: Number of exposed spheres                    =      17 (100.00%)
 GePol: Number of points                             =    1723
 GePol: Average weight of points                     =       0.12
 GePol: Minimum weight of points                     =   0.30D-09
 GePol: Maximum weight of points                     =    0.22065
 GePol: Number of points with low weight             =      92
 GePol: Fraction of low-weight points (<1% of avg)   =       5.34%
 GePol: Cavity surface area                          =    202.846 Ang**2
 GePol: Cavity volume                                =    214.404 Ang**3
 Surface areas from nonelectrostatic (unscaled) cavity and vdw tensions:
 Sphere =    1 Type =  NH+ Surf =       12.307 Tension =       -0.274
 Sphere =    2 Type =  NH+ Surf =        3.844 Tension =       -0.274
 Sphere =    3 Type =  NH+ Surf =        3.853 Tension =       -0.274
 Sphere =    4 Type =  CN+ Surf =        3.858 Tension =       -0.227
 Sphere =    5 Type =  CN+ Surf =        9.968 Tension =       -0.227
 Sphere =    6 Type =  CN+ Surf =       10.025 Tension =       -0.227
 Sphere =    7 Type =  CH2 Surf =        3.799 Tension =       -0.194
 Sphere =    8 Type =  CH2 Surf =       10.045 Tension =       -0.194
 Sphere =    9 Type =  CH2 Surf =        9.827 Tension =       -0.194
 Sphere =   10 Type =  C   Surf =        5.695 Tension =       -0.205
 Sphere =   11 Type =  Nc  Surf =       12.877 Tension =       -0.161
 Sphere =   12 Type =  CH  Surf =        7.814 Tension =       -0.195
 Sphere =   13 Type =  CH  Surf =       10.250 Tension =       -0.195
 Sphere =   14 Type =  CH  Surf =        7.500 Tension =       -0.195
 Sphere =   15 Type =  CH  Surf =       10.209 Tension =       -0.195
 Sphere =   16 Type =  S   Surf =       24.408 Tension =       -0.186
 Sphere =   17 Type =  NH+ Surf =        3.856 Tension =       -0.274
 PCM non-electrostatic energy =        -0.0109879798 Hartrees.
 Nuclear repulsion after PCM non-electrostatic terms =      446.2231185058 Hartrees.
 Leave Link  301 at Mon Jul 12 12:51:24 2021, MaxMem=   104857600 cpu:               0.1 elap:               0.2
 (Enter /dades/curu/g16A03_MST/g16/l302.exe)
 NPDir=0 NMtPBC=     1 NCelOv=     1 NCel=       1 NClECP=     1 NCelD=      1
         NCelK=      1 NCelE2=     1 NClLst=     1 CellRange=     0.0.
 One-electron integrals computed using PRISM.
 One-electron integral symmetry used in STVInt
 NBasis=   142 RedAO= T EigKep=  2.35D-03  NBF=   142
 NBsUse=   142 1.00D-06 EigRej= -1.00D+00 NBFU=   142
 Precomputing XC quadrature grid using
 IXCGrd= 4 IRadAn=           5 IRanWt=          -1 IRanGd=           0 AccXCQ= 0.00D+00.
 Generated NRdTot=       0 NPtTot=           0 NUsed=           0 NTot=          32
 NSgBfM=   142   142   142   142   142 MxSgAt=    17 MxSgA2=    17.
 Leave Link  302 at Mon Jul 12 12:51:24 2021, MaxMem=   104857600 cpu:               1.6 elap:               0.4
 (Enter /dades/curu/g16A03_MST/g16/l303.exe)
 DipDrv:  MaxL=1.
 Leave Link  303 at Mon Jul 12 12:51:24 2021, MaxMem=   104857600 cpu:               0.1 elap:               0.0
 (Enter /dades/curu/g16A03_MST/g16/l401.exe)
 ExpMin= 1.17D-01 ExpMax= 2.19D+04 ExpMxC= 3.30D+03 IAcc=3 IRadAn=         5 AccDes= 0.00D+00
 Harris functional with IExCor=  402 and IRadAn=       5 diagonalized for initial guess.
 HarFok:  IExCor=  402 AccDes= 0.00D+00 IRadAn=         5 IDoV= 1 UseB2=F ITyADJ=14
 ICtDFT=  3500011 ScaDFX=  1.000000  1.000000  1.000000  1.000000
 FoFCou: FMM=F IPFlag=           0 FMFlag=      100000 FMFlg1=           0
         NFxFlg=           0 DoJE=T BraDBF=F KetDBF=T FulRan=T
         wScrn=  0.000000 ICntrl=       500 IOpCl=  0 I1Cent=   200000004 NGrid=           0
         NMat0=    1 NMatS0=      1 NMatT0=    0 NMatD0=    1 NMtDS0=    0 NMtDT0=    0
 Petite list used in FoFCou.
 Harris En= -703.380288279646    
 JPrj=0 DoOrth=F DoCkMO=F.
 Leave Link  401 at Mon Jul 12 12:51:27 2021, MaxMem=   104857600 cpu:               8.3 elap:               2.1
 (Enter /dades/curu/g16A03_MST/g16/l502.exe)
 Keep R1 ints in memory in canonical form, NReq=55416097.
 FoFCou: FMM=F IPFlag=           0 FMFlag=           0 FMFlg1=           0
         NFxFlg=           0 DoJE=F BraDBF=F KetDBF=F FulRan=T
         wScrn=  0.000000 ICntrl=       600 IOpCl=  0 I1Cent=           0 NGrid=           0
         NMat0=    1 NMatS0=  10153 NMatT0=    0 NMatD0=    1 NMtDS0=    0 NMtDT0=    0
 Symmetry not used in FoFCou.
 Two-electron integral symmetry not used.
 Closed shell SCF:
 Using DIIS extrapolation, IDIIS=  1040.
 NGot=   104857600 LenX=    53267895 LenY=    53247290
 Requested convergence on RMS density matrix=1.00D-08 within 128 cycles.
 Requested convergence on MAX density matrix=1.00D-06.
 Requested convergence on             energy=1.00D-06.
 No special actions if energy rises.

 Cycle   1  Pass 1  IDiag  1:
 Inv3:  Mode=1 IEnd=     8906187.
 Iteration    1 A*A^-1 deviation from unit magnitude is 8.33D-15 for    414.
 Iteration    1 A*A^-1 deviation from orthogonality  is 2.48D-15 for   1072    291.
 Iteration    1 A^-1*A deviation from unit magnitude is 8.33D-15 for    414.
 Iteration    1 A^-1*A deviation from orthogonality  is 2.09D-15 for   1707   1619.
 E= -703.278967418548    
 DIIS: error= 2.35D-02 at cycle   1 NSaved=   1.
 NSaved= 1 IEnMin= 1 EnMin= -703.278967418548     IErMin= 1 ErrMin= 2.35D-02
 ErrMax= 2.35D-02  0.00D+00 EMaxC= 1.00D-01 BMatC= 2.02D-01 BMatP= 2.02D-01
 IDIUse=3 WtCom= 7.65D-01 WtEn= 2.35D-01
 Coeff-Com:  0.100D+01
 Coeff-En:   0.100D+01
 Coeff:      0.100D+01
 Gap=     0.238 Goal=   None    Shift=    0.000
 GapD=    0.238 DampG=1.000 DampE=0.500 DampFc=0.5000 IDamp=-1.
 Damping current iteration by 5.00D-01
 RMSDP=9.12D-03 MaxDP=2.38D-01              OVMax= 3.23D-01

 Cycle   2  Pass 1  IDiag  1:
 E= -703.328281693421     Delta-E=       -0.049314274873 Rises=F Damp=T
 DIIS: error= 1.01D-02 at cycle   2 NSaved=   2.
 NSaved= 2 IEnMin= 2 EnMin= -703.328281693421     IErMin= 2 ErrMin= 1.01D-02
 ErrMax= 1.01D-02  0.00D+00 EMaxC= 1.00D-01 BMatC= 3.18D-02 BMatP= 2.02D-01
 IDIUse=3 WtCom= 8.99D-01 WtEn= 1.01D-01
 Coeff-Com:  0.212D+00 0.788D+00
 Coeff-En:   0.378D+00 0.622D+00
 Coeff:      0.229D+00 0.771D+00
 Gap=     0.275 Goal=   None    Shift=    0.000
 RMSDP=3.02D-03 MaxDP=7.51D-02 DE=-4.93D-02 OVMax= 2.76D-01

 Cycle   3  Pass 1  IDiag  1:
 E= -703.465681229123     Delta-E=       -0.137399535703 Rises=F Damp=F
 DIIS: error= 1.10D-02 at cycle   3 NSaved=   3.
 NSaved= 3 IEnMin= 3 EnMin= -703.465681229123     IErMin= 2 ErrMin= 1.01D-02
 ErrMax= 1.10D-02  0.00D+00 EMaxC= 1.00D-01 BMatC= 2.41D-02 BMatP= 3.18D-02
 IDIUse=3 WtCom= 8.90D-01 WtEn= 1.10D-01
 Coeff-Com:  0.652D-01 0.458D+00 0.477D+00
 Coeff-En:   0.000D+00 0.000D+00 0.100D+01
 Coeff:      0.581D-01 0.407D+00 0.534D+00
 Gap=     0.203 Goal=   None    Shift=    0.000
 RMSDP=1.40D-03 MaxDP=4.28D-02 DE=-1.37D-01 OVMax= 6.51D-02

 Cycle   4  Pass 1  IDiag  1:
 E= -703.484103583761     Delta-E=       -0.018422354637 Rises=F Damp=F
 DIIS: error= 4.55D-03 at cycle   4 NSaved=   4.
 NSaved= 4 IEnMin= 4 EnMin= -703.484103583761     IErMin= 4 ErrMin= 4.55D-03
 ErrMax= 4.55D-03  0.00D+00 EMaxC= 1.00D-01 BMatC= 5.27D-03 BMatP= 2.41D-02
 IDIUse=3 WtCom= 9.55D-01 WtEn= 4.55D-02
 Coeff-Com: -0.396D-02 0.815D-01 0.327D+00 0.595D+00
 Coeff-En:   0.000D+00 0.000D+00 0.200D+00 0.800D+00
 Coeff:     -0.378D-02 0.778D-01 0.321D+00 0.605D+00
 Gap=     0.203 Goal=   None    Shift=    0.000
 RMSDP=5.16D-04 MaxDP=1.35D-02 DE=-1.84D-02 OVMax= 2.32D-02

 Cycle   5  Pass 1  IDiag  1:
 E= -703.488713822123     Delta-E=       -0.004610238362 Rises=F Damp=F
 DIIS: error= 8.03D-04 at cycle   5 NSaved=   5.
 NSaved= 5 IEnMin= 5 EnMin= -703.488713822123     IErMin= 5 ErrMin= 8.03D-04
 ErrMax= 8.03D-04  0.00D+00 EMaxC= 1.00D-01 BMatC= 2.01D-04 BMatP= 5.27D-03
 IDIUse=3 WtCom= 9.92D-01 WtEn= 8.03D-03
 Coeff-Com: -0.321D-02 0.101D-01 0.122D+00 0.293D+00 0.578D+00
 Coeff-En:   0.000D+00 0.000D+00 0.000D+00 0.000D+00 0.100D+01
 Coeff:     -0.318D-02 0.999D-02 0.121D+00 0.291D+00 0.581D+00
 Gap=     0.204 Goal=   None    Shift=    0.000
 RMSDP=1.48D-04 MaxDP=5.36D-03 DE=-4.61D-03 OVMax= 6.97D-03

 Cycle   6  Pass 1  IDiag  1:
 E= -703.488900252994     Delta-E=       -0.000186430871 Rises=F Damp=F
 DIIS: error= 2.92D-04 at cycle   6 NSaved=   6.
 NSaved= 6 IEnMin= 6 EnMin= -703.488900252994     IErMin= 6 ErrMin= 2.92D-04
 ErrMax= 2.92D-04  0.00D+00 EMaxC= 1.00D-01 BMatC= 2.79D-05 BMatP= 2.01D-04
 IDIUse=3 WtCom= 9.97D-01 WtEn= 2.92D-03
 Coeff-Com: -0.122D-02-0.217D-02 0.410D-01 0.115D+00 0.330D+00 0.518D+00
 Coeff-En:   0.000D+00 0.000D+00 0.000D+00 0.000D+00 0.459D-01 0.954D+00
 Coeff:     -0.121D-02-0.217D-02 0.409D-01 0.115D+00 0.329D+00 0.519D+00
 Gap=     0.204 Goal=   None    Shift=    0.000
 RMSDP=4.65D-05 MaxDP=1.46D-03 DE=-1.86D-04 OVMax= 3.26D-03

 Cycle   7  Pass 1  IDiag  1:
 E= -703.488925673204     Delta-E=       -0.000025420210 Rises=F Damp=F
 DIIS: error= 1.07D-04 at cycle   7 NSaved=   7.
 NSaved= 7 IEnMin= 7 EnMin= -703.488925673204     IErMin= 7 ErrMin= 1.07D-04
 ErrMax= 1.07D-04  0.00D+00 EMaxC= 1.00D-01 BMatC= 3.26D-06 BMatP= 2.79D-05
 IDIUse=3 WtCom= 9.99D-01 WtEn= 1.07D-03
 Coeff-Com: -0.319D-03-0.214D-02 0.141D-01 0.421D-01 0.138D+00 0.310D+00
 Coeff-Com:  0.498D+00
 Coeff-En:   0.000D+00 0.000D+00 0.000D+00 0.000D+00 0.000D+00 0.735D-01
 Coeff-En:   0.927D+00
 Coeff:     -0.319D-03-0.213D-02 0.141D-01 0.420D-01 0.138D+00 0.310D+00
 Coeff:      0.498D+00
 Gap=     0.204 Goal=   None    Shift=    0.000
 RMSDP=1.65D-05 MaxDP=4.82D-04 DE=-2.54D-05 OVMax= 1.00D-03

 Cycle   8  Pass 1  IDiag  1:
 E= -703.488929086810     Delta-E=       -0.000003413606 Rises=F Damp=F
 DIIS: error= 2.53D-05 at cycle   8 NSaved=   8.
 NSaved= 8 IEnMin= 8 EnMin= -703.488929086810     IErMin= 8 ErrMin= 2.53D-05
 ErrMax= 2.53D-05  0.00D+00 EMaxC= 1.00D-01 BMatC= 2.22D-07 BMatP= 3.26D-06
 IDIUse=1 WtCom= 1.00D+00 WtEn= 0.00D+00
 Coeff-Com:  0.123D-03-0.895D-03 0.326D-03 0.102D-02 0.993D-02 0.616D-01
 Coeff-Com:  0.235D+00 0.693D+00
 Coeff:      0.123D-03-0.895D-03 0.326D-03 0.102D-02 0.993D-02 0.616D-01
 Coeff:      0.235D+00 0.693D+00
 Gap=     0.204 Goal=   None    Shift=    0.000
 RMSDP=4.17D-06 MaxDP=1.12D-04 DE=-3.41D-06 OVMax= 2.27D-04

 Cycle   9  Pass 1  IDiag  1:
 E= -703.488929314269     Delta-E=       -0.000000227459 Rises=F Damp=F
 DIIS: error= 7.72D-06 at cycle   9 NSaved=   9.
 NSaved= 9 IEnMin= 9 EnMin= -703.488929314269     IErMin= 9 ErrMin= 7.72D-06
 ErrMax= 7.72D-06  0.00D+00 EMaxC= 1.00D-01 BMatC= 1.52D-08 BMatP= 2.22D-07
 IDIUse=1 WtCom= 1.00D+00 WtEn= 0.00D+00
 Coeff-Com:  0.947D-04-0.281D-03-0.650D-03-0.225D-02-0.457D-02 0.682D-02
 Coeff-Com:  0.721D-01 0.309D+00 0.620D+00
 Coeff:      0.947D-04-0.281D-03-0.650D-03-0.225D-02-0.457D-02 0.682D-02
 Coeff:      0.721D-01 0.309D+00 0.620D+00
 Gap=     0.204 Goal=   None    Shift=    0.000
 RMSDP=1.35D-06 MaxDP=4.90D-05 DE=-2.27D-07 OVMax= 5.14D-05

 Cycle  10  Pass 1  IDiag  1:
 E= -703.488929330786     Delta-E=       -0.000000016516 Rises=F Damp=F
 DIIS: error= 1.83D-06 at cycle  10 NSaved=  10.
 NSaved=10 IEnMin=10 EnMin= -703.488929330786     IErMin=10 ErrMin= 1.83D-06
 ErrMax= 1.83D-06  0.00D+00 EMaxC= 1.00D-01 BMatC= 1.05D-09 BMatP= 1.52D-08
 IDIUse=1 WtCom= 1.00D+00 WtEn= 0.00D+00
 Coeff-Com:  0.316D-04-0.542D-04-0.269D-03-0.101D-02-0.262D-02-0.205D-02
 Coeff-Com:  0.124D-01 0.767D-01 0.262D+00 0.655D+00
 Coeff:      0.316D-04-0.542D-04-0.269D-03-0.101D-02-0.262D-02-0.205D-02
 Coeff:      0.124D-01 0.767D-01 0.262D+00 0.655D+00
 Gap=     0.204 Goal=   None    Shift=    0.000
 RMSDP=2.90D-07 MaxDP=9.34D-06 DE=-1.65D-08 OVMax= 1.32D-05

 Cycle  11  Pass 1  IDiag  1:
 E= -703.488929331665     Delta-E=       -0.000000000879 Rises=F Damp=F
 DIIS: error= 7.90D-07 at cycle  11 NSaved=  11.
 NSaved=11 IEnMin=11 EnMin= -703.488929331665     IErMin=11 ErrMin= 7.90D-07
 ErrMax= 7.90D-07  0.00D+00 EMaxC= 1.00D-01 BMatC= 1.70D-10 BMatP= 1.05D-09
 IDIUse=1 WtCom= 1.00D+00 WtEn= 0.00D+00
 Coeff-Com:  0.530D-05 0.934D-06-0.593D-04-0.258D-03-0.783D-03-0.188D-02
 Coeff-Com: -0.208D-02 0.288D-02 0.620D-01 0.332D+00 0.608D+00
 Coeff:      0.530D-05 0.934D-06-0.593D-04-0.258D-03-0.783D-03-0.188D-02
 Coeff:     -0.208D-02 0.288D-02 0.620D-01 0.332D+00 0.608D+00
 Gap=     0.204 Goal=   None    Shift=    0.000
 RMSDP=1.11D-07 MaxDP=3.50D-06 DE=-8.79D-10 OVMax= 5.46D-06

 Cycle  12  Pass 1  IDiag  1:
 E= -703.488929331844     Delta-E=       -0.000000000179 Rises=F Damp=F
 DIIS: error= 1.06D-07 at cycle  12 NSaved=  12.
 NSaved=12 IEnMin=12 EnMin= -703.488929331844     IErMin=12 ErrMin= 1.06D-07
 ErrMax= 1.06D-07  0.00D+00 EMaxC= 1.00D-01 BMatC= 4.93D-12 BMatP= 1.70D-10
 IDIUse=1 WtCom= 1.00D+00 WtEn= 0.00D+00
 Coeff-Com: -0.471D-06 0.415D-05 0.562D-05-0.631D-06-0.289D-04-0.379D-03
 Coeff-Com: -0.145D-02-0.467D-02-0.152D-02 0.467D-01 0.191D+00 0.770D+00
 Coeff:     -0.471D-06 0.415D-05 0.562D-05-0.631D-06-0.289D-04-0.379D-03
 Coeff:     -0.145D-02-0.467D-02-0.152D-02 0.467D-01 0.191D+00 0.770D+00
 Gap=     0.204 Goal=   None    Shift=    0.000
 RMSDP=2.28D-08 MaxDP=5.94D-07 DE=-1.79D-10 OVMax= 9.88D-07

 Cycle  13  Pass 1  IDiag  1:
 E= -703.488929331850     Delta-E=       -0.000000000007 Rises=F Damp=F
 DIIS: error= 2.29D-08 at cycle  13 NSaved=  13.
 NSaved=13 IEnMin=13 EnMin= -703.488929331850     IErMin=13 ErrMin= 2.29D-08
 ErrMax= 2.29D-08  0.00D+00 EMaxC= 1.00D-01 BMatC= 1.90D-13 BMatP= 4.93D-12
 IDIUse=1 WtCom= 1.00D+00 WtEn= 0.00D+00
 Coeff-Com: -0.349D-06 0.994D-06 0.486D-05 0.124D-04 0.248D-04-0.275D-04
 Coeff-Com: -0.352D-03-0.162D-02-0.358D-02-0.178D-02 0.328D-01 0.223D+00
 Coeff-Com:  0.751D+00
 Coeff:     -0.349D-06 0.994D-06 0.486D-05 0.124D-04 0.248D-04-0.275D-04
 Coeff:     -0.352D-03-0.162D-02-0.358D-02-0.178D-02 0.328D-01 0.223D+00
 Coeff:      0.751D+00
 Gap=     0.204 Goal=   None    Shift=    0.000
 RMSDP=4.82D-09 MaxDP=1.06D-07 DE=-6.71D-12 OVMax= 1.79D-07

 Error on total polarization charges =  0.00703
 SCF Done:  E(RB3LYP) =  -703.488929332     A.U. after   13 cycles
            NFock= 13  Conv=0.48D-08     -V/T= 2.0059
 KE= 6.993764244553D+02 PE=-2.534704519016D+03 EE= 6.856160467225D+02
 Leave Link  502 at Mon Jul 12 12:52:12 2021, MaxMem=   104857600 cpu:             173.4 elap:              45.8
 (Enter /dades/curu/g16A03_MST/g16/l601.exe)
 Copying SCF densities to generalized density rwf, IOpCl= 0 IROHF=0.

 **********************************************************************

            Population analysis using the SCF density.

 **********************************************************************

 Orbital symmetries:
       Occupied  (A) (A) (A) (A) (A) (A) (A) (A) (A) (A) (A) (A)
                 (A) (A) (A) (A) (A) (A) (A) (A) (A) (A) (A) (A)
                 (A) (A) (A) (A) (A) (A) (A) (A) (A) (A)
       Virtual   (A) (A) (A) (A) (A) (A) (A) (A) (A) (A) (A) (A)
                 (A) (A) (A) (A) (A) (A) (A) (A) (A) (A) (A) (A)
                 (A) (A) (A) (A) (A) (A) (A) (A) (A) (A) (A) (A)
                 (A) (A) (A) (A) (A) (A) (A) (A) (A) (A) (A) (A)
                 (A) (A) (A) (A) (A) (A) (A) (A) (A) (A) (A) (A)
                 (A) (A) (A) (A) (A) (A) (A) (A) (A) (A) (A) (A)
                 (A) (A) (A) (A) (A) (A) (A) (A) (A) (A) (A) (A)
                 (A) (A) (A) (A) (A) (A) (A) (A) (A) (A) (A) (A)
                 (A) (A) (A) (A) (A) (A) (A) (A) (A) (A) (A) (A)
 The electronic state is 1-A.
 Alpha  occ. eigenvalues --  -88.93781 -14.46519 -14.35721 -10.27847 -10.27592
 Alpha  occ. eigenvalues --  -10.23909 -10.23799 -10.23672  -7.99931  -5.96301
 Alpha  occ. eigenvalues --   -5.95966  -5.95659  -1.04087  -0.98000  -0.83265
 Alpha  occ. eigenvalues --   -0.81563  -0.75296  -0.68972  -0.62039  -0.61190
 Alpha  occ. eigenvalues --   -0.60706  -0.56787  -0.53046  -0.51886  -0.47741
 Alpha  occ. eigenvalues --   -0.46033  -0.43693  -0.41489  -0.40540  -0.39916
 Alpha  occ. eigenvalues --   -0.38945  -0.30681  -0.28665  -0.26146
 Alpha virt. eigenvalues --   -0.05744  -0.00511   0.02847   0.04312   0.06786
 Alpha virt. eigenvalues --    0.08598   0.09892   0.11258   0.12048   0.13312
 Alpha virt. eigenvalues --    0.13750   0.15255   0.15819   0.16839   0.17590
 Alpha virt. eigenvalues --    0.21700   0.23811   0.27327   0.30620   0.34938
 Alpha virt. eigenvalues --    0.36225   0.40037   0.41320   0.47574   0.49434
 Alpha virt. eigenvalues --    0.50071   0.50861   0.52571   0.53829   0.56423
 Alpha virt. eigenvalues --    0.59035   0.60507   0.61379   0.63006   0.67105
 Alpha virt. eigenvalues --    0.69003   0.71416   0.73357   0.74481   0.78052
 Alpha virt. eigenvalues --    0.79332   0.80889   0.82498   0.82717   0.83985
 Alpha virt. eigenvalues --    0.84899   0.85076   0.86465   0.87788   0.90499
 Alpha virt. eigenvalues --    0.91303   0.92799   0.94280   0.96382   0.98596
 Alpha virt. eigenvalues --    1.00569   1.01674   1.04044   1.06504   1.16517
 Alpha virt. eigenvalues --    1.25717   1.27437   1.28522   1.40520   1.41589
 Alpha virt. eigenvalues --    1.45792   1.48950   1.54377   1.54748   1.62083
 Alpha virt. eigenvalues --    1.66679   1.75537   1.78111   1.81188   1.83321
 Alpha virt. eigenvalues --    1.91460   1.92448   1.96160   1.98013   2.01412
 Alpha virt. eigenvalues --    2.08222   2.09024   2.14704   2.17903   2.21996
 Alpha virt. eigenvalues --    2.24980   2.26194   2.31415   2.33441   2.37792
 Alpha virt. eigenvalues --    2.40679   2.45317   2.52511   2.53783   2.56697
 Alpha virt. eigenvalues --    2.61201   2.66972   2.73985   2.94364   3.03342
 Alpha virt. eigenvalues --    3.75834   3.90634   3.96747   4.07845   4.16896
 Alpha virt. eigenvalues --    4.31103   4.34546   4.46068
          Condensed to atoms (all electrons):
               1          2          3          4          5          6
     1  N    6.662385   0.296568   0.307192   0.243804  -0.035177  -0.039617
     2  H    0.296568   0.284707  -0.010418  -0.029313   0.004291  -0.000823
     3  H    0.307192  -0.010418   0.263196  -0.018267  -0.000776  -0.004124
     4  C    0.243804  -0.029313  -0.018267   5.050818   0.378355   0.387610
     5  H   -0.035177   0.004291  -0.000776   0.378355   0.499339  -0.027803
     6  H   -0.039617  -0.000823  -0.004124   0.387610  -0.027803   0.488792
     7  C   -0.058200  -0.008178   0.003915   0.350748  -0.030489  -0.029925
     8  H   -0.003169   0.000639   0.000028  -0.034258  -0.002119   0.003465
     9  H    0.003841   0.000269  -0.000115  -0.031542  -0.002416  -0.001048
    10  C   -0.003695   0.014394  -0.000160  -0.054685   0.004802  -0.003555
    11  N   -0.001056   0.005150  -0.000004   0.000124  -0.000055   0.000096
    12  C    0.000018  -0.000025  -0.000000  -0.000203   0.000002  -0.000006
    13  H    0.000001  -0.000018   0.000000   0.000004  -0.000000  -0.000000
    14  C   -0.000010  -0.000123   0.000001   0.000150  -0.000001  -0.000090
    15  H    0.000000  -0.000002   0.000000   0.000000  -0.000000   0.000002
    16  S    0.000479   0.000505  -0.000027  -0.000822  -0.000225   0.004380
    17  H    0.305263  -0.010013  -0.009199  -0.020311  -0.005367   0.003798
               7          8          9         10         11         12
     1  N   -0.058200  -0.003169   0.003841  -0.003695  -0.001056   0.000018
     2  H   -0.008178   0.000639   0.000269   0.014394   0.005150  -0.000025
     3  H    0.003915   0.000028  -0.000115  -0.000160  -0.000004  -0.000000
     4  C    0.350748  -0.034258  -0.031542  -0.054685   0.000124  -0.000203
     5  H   -0.030489  -0.002119  -0.002416   0.004802  -0.000055   0.000002
     6  H   -0.029925   0.003465  -0.001048  -0.003555   0.000096  -0.000006
     7  C    5.134721   0.370592   0.373789   0.346636  -0.054465   0.006663
     8  H    0.370592   0.498504  -0.028380  -0.025099   0.001212   0.000138
     9  H    0.373789  -0.028380   0.507066  -0.034802   0.001557  -0.000133
    10  C    0.346636  -0.025099  -0.034802   5.088962   0.469891  -0.092437
    11  N   -0.054465   0.001212   0.001557   0.469891   6.747255   0.441811
    12  C    0.006663   0.000138  -0.000133  -0.092437   0.441811   4.731994
    13  H   -0.000178  -0.000010   0.000003   0.006639  -0.042261   0.376809
    14  C    0.002635  -0.000038   0.000155  -0.049752  -0.067755   0.565538
    15  H   -0.000071   0.000001  -0.000003   0.003038   0.005077  -0.015165
    16  S   -0.062237   0.003934  -0.000823   0.278559  -0.092584  -0.077070
    17  H   -0.000184   0.002325  -0.000070  -0.000177   0.000042  -0.000000
              13         14         15         16         17
     1  N    0.000001  -0.000010   0.000000   0.000479   0.305263
     2  H   -0.000018  -0.000123  -0.000002   0.000505  -0.010013
     3  H    0.000000   0.000001   0.000000  -0.000027  -0.009199
     4  C    0.000004   0.000150   0.000000  -0.000822  -0.020311
     5  H   -0.000000  -0.000001  -0.000000  -0.000225  -0.005367
     6  H   -0.000000  -0.000090   0.000002   0.004380   0.003798
     7  C   -0.000178   0.002635  -0.000071  -0.062237  -0.000184
     8  H   -0.000010  -0.000038   0.000001   0.003934   0.002325
     9  H    0.000003   0.000155  -0.000003  -0.000823  -0.000070
    10  C    0.006639  -0.049752   0.003038   0.278559  -0.000177
    11  N   -0.042261  -0.067755   0.005077  -0.092584   0.000042
    12  C    0.376809   0.565538  -0.015165  -0.077070  -0.000000
    13  H    0.529227  -0.051852  -0.000683   0.003794   0.000000
    14  C   -0.051852   5.273901   0.346770   0.337648  -0.000000
    15  H   -0.000683   0.346770   0.491653  -0.034708   0.000000
    16  S    0.003794   0.337648  -0.034708  15.365621   0.000010
    17  H    0.000000  -0.000000   0.000000   0.000010   0.268279
 Mulliken charges:
               1
     1  N   -0.678626
     2  H    0.452388
     3  H    0.468758
     4  C   -0.222211
     5  H    0.217639
     6  H    0.218848
     7  C   -0.345772
     8  H    0.212237
     9  H    0.212650
    10  C    0.051443
    11  N   -0.414033
    12  C    0.062067
    13  H    0.178525
    14  C   -0.357176
    15  H    0.204092
    16  S    0.273566
    17  H    0.465605
 Sum of Mulliken charges =   1.00000
 Mulliken charges with hydrogens summed into heavy atoms:
               1
     1  N    0.708126
     4  C    0.214276
     7  C    0.079115
    10  C    0.051443
    11  N   -0.414033
    12  C    0.240592
    14  C   -0.153084
    16  S    0.273566
 Electronic spatial extent (au):  <R**2>=           1212.9311
 Charge=              1.0000 electrons
 Dipole moment (field-independent basis, Debye):
    X=             11.5113    Y=              1.2576    Z=             -3.5168  Tot=             12.1020
 Quadrupole moment (field-independent basis, Debye-Ang):
   XX=             -7.9367   YY=            -49.6238   ZZ=            -47.8781
   XY=              5.7921   XZ=             -5.8918   YZ=             -3.7988
 Traceless Quadrupole moment (field-independent basis, Debye-Ang):
   XX=             27.2095   YY=            -14.4776   ZZ=            -12.7319
   XY=              5.7921   XZ=             -5.8918   YZ=             -3.7988
 Octapole moment (field-independent basis, Debye-Ang**2):
  XXX=            108.4942  YYY=              5.3450  ZZZ=             -8.7876  XYY=             12.3985
  XXY=             26.2863  XXZ=            -33.9260  XZZ=             25.4988  YZZ=              0.9895
  YYZ=             -5.8299  XYZ=             -5.2002
 Hexadecapole moment (field-independent basis, Debye-Ang**3):
 XXXX=           -629.2825 YYYY=           -318.7595 ZZZZ=           -147.0104 XXXY=             75.3082
 XXXZ=            -64.0700 YYYX=              5.6966 YYYZ=            -11.6262 ZZZX=            -32.6657
 ZZZY=             -7.8134 XXYY=           -179.1647 XXZZ=           -156.0692 YYZZ=            -81.3359
 XXYZ=            -10.9319 YYXZ=             -4.7404 ZZXY=             11.2467
 N-N= 4.462231185058D+02 E-N=-2.534704518787D+03  KE= 6.993764244553D+02
 No NMR shielding tensors so no spin-rotation constants.
 Leave Link  601 at Mon Jul 12 12:52:12 2021, MaxMem=   104857600 cpu:               0.4 elap:               0.1
 (Enter /dades/curu/g16A03_MST/g16/l701.exe)
 ... and contract with generalized density number  0.
 Compute integral first derivatives.
 D1PCM: PCM CHGder 1st derivatives, ID1Alg=3 FixD1E=F DoIter=F DoCFld=F I1PDM=0.
 GePol: Maximum number of non-zero 1st derivatives   =     302
 Leave Link  701 at Mon Jul 12 12:52:14 2021, MaxMem=   104857600 cpu:               5.2 elap:               1.3
 (Enter /dades/curu/g16A03_MST/g16/l702.exe)
 L702 exits ... SP integral derivatives will be done elsewhere.
 Leave Link  702 at Mon Jul 12 12:52:14 2021, MaxMem=   104857600 cpu:               0.1 elap:               0.0
 (Enter /dades/curu/g16A03_MST/g16/l703.exe)
 Integral derivatives from FoFJK, PRISM(SPDF).
 Compute integral first derivatives, UseDBF=F ICtDFT=           0.
 Calling FoFJK, ICntrl=      2127 FMM=F ISym2X=0 I1Cent= 0 IOpClX= 0 NMat=1 NMatS=1 NMatT=0.
 FoFJK:  IHMeth= 1 ICntrl=    2127 DoSepK=F KAlg= 0 I1Cent=           0 FoldK=F
 IRaf=         0 NMat=       1 IRICut=       1 DoRegI=T DoRafI=F ISym2E= 0 IDoP0=0 IntGTp=1.
 FoFCou: FMM=F IPFlag=           0 FMFlag=      100000 FMFlg1=         800
         NFxFlg=           0 DoJE=F BraDBF=F KetDBF=F FulRan=T
         wScrn=  0.000000 ICntrl=      2127 IOpCl=  0 I1Cent=           0 NGrid=           0
         NMat0=    1 NMatS0=      1 NMatT0=    0 NMatD0=    1 NMtDS0=    0 NMtDT0=    0
 Symmetry not used in FoFCou.
 Leave Link  703 at Mon Jul 12 12:52:21 2021, MaxMem=   104857600 cpu:              26.7 elap:               6.9
 (Enter /dades/curu/g16A03_MST/g16/l716.exe)
 Dipole        = 4.52888196D+00 4.94795312D-01-1.38362349D+00
 ***** Axes restored to original set *****
 -------------------------------------------------------------------
 Center     Atomic                   Forces (Hartrees/Bohr)
 Number     Number              X              Y              Z
 -------------------------------------------------------------------
      1        7          -0.009125745    0.000981664   -0.001506450
      2        1           0.017805692   -0.014901621    0.014416119
      3        1           0.012594472    0.019907944    0.013263261
      4        6          -0.037024324    0.004851842   -0.017043771
      5        1           0.002835705    0.000747658    0.001359938
      6        1          -0.001577680   -0.008481361   -0.000857594
      7        6          -0.021029203    0.015068921    0.000408612
      8        1           0.010809299   -0.008031019    0.009596980
      9        1          -0.005232893    0.007163969    0.000634505
     10        6           0.014274718   -0.061211369   -0.010208374
     11        7           0.010055532    0.043520029   -0.012404814
     12        6          -0.015596809    0.004762047    0.002608831
     13        1          -0.002213703   -0.000014584   -0.000054250
     14        6          -0.012990195   -0.017477446    0.015330946
     15        1           0.004136509    0.000555355    0.000937672
     16       16           0.011929431    0.009831501    0.002100515
     17        1           0.020349194    0.002726470   -0.018582126
 -------------------------------------------------------------------
 Cartesian Forces:  Max     0.061211369 RMS     0.015703090
 Leave Link  716 at Mon Jul 12 12:52:21 2021, MaxMem=   104857600 cpu:               0.1 elap:               0.1
 (Enter /dades/curu/g16A03_MST/g16/l103.exe)

 GradGradGradGradGradGradGradGradGradGradGradGradGradGradGradGradGradGrad
 Berny optimization.
 FormGI is forming the generalized inverse of G from B-inverse, IUseBI=4.
 Internal  Forces:  Max     0.043105357 RMS     0.010060047
 Search for a local minimum.
 Step number   1 out of a maximum of   92
 All quantities printed in internal units (Hartrees-Bohrs-Radians)
 RMS Force = .10060D-01 SwitMx=.10000D-02 MixMth= 1
 Mixed Optimization -- RFO/linear search
 Second derivative matrix not updated -- first step.
 ITU=  0
     Eigenvalues ---    0.00331   0.01006   0.01077   0.01500   0.01693
     Eigenvalues ---    0.02229   0.02407   0.02483   0.03929   0.03930
     Eigenvalues ---    0.05008   0.05602   0.06269   0.06270   0.08237
     Eigenvalues ---    0.09325   0.12012   0.12917   0.15898   0.15999
     Eigenvalues ---    0.16000   0.16000   0.16000   0.21687   0.21805
     Eigenvalues ---    0.22349   0.24119   0.24460   0.28387   0.29160
     Eigenvalues ---    0.32968   0.34360   0.34397   0.34457   0.34463
     Eigenvalues ---    0.34615   0.35638   0.35704   0.38709   0.47661
     Eigenvalues ---    0.47713   0.47794   0.48842   0.52562   0.55586
 RFO step:  Lambda=-3.12623419D-02 EMin= 3.31159586D-03
 Linear search not attempted -- first point.
 Iteration  1 RMS(Cart)=  0.07085351 RMS(Int)=  0.00283126
 Iteration  2 RMS(Cart)=  0.00365088 RMS(Int)=  0.00152556
 Iteration  3 RMS(Cart)=  0.00000870 RMS(Int)=  0.00152555
 Iteration  4 RMS(Cart)=  0.00000001 RMS(Int)=  0.00152555
 ITry= 1 IFail=0 DXMaxC= 2.17D-01 DCOld= 1.00D+10 DXMaxT= 3.00D-01 DXLimC= 3.00D+00 Rises=F
 Variable       Old X    -DE/DX   Delta X   Delta X   Delta X     New X
                                 (Linear)    (Quad)   (Total)
    R1        1.88860   0.02526   0.00000   0.04961   0.04961   1.93821
    R2        1.88946   0.02534   0.00000   0.04984   0.04984   1.93930
    R3        2.73346   0.04311   0.00000   0.10304   0.10304   2.83650
    R4        1.89002   0.02628   0.00000   0.05175   0.05175   1.94177
    R5        2.06565  -0.00128   0.00000  -0.00342  -0.00342   2.06224
    R6        2.06666  -0.00217   0.00000  -0.00578  -0.00578   2.06088
    R7        2.89670   0.00363   0.00000   0.01125   0.01125   2.90795
    R8        2.06556  -0.00073   0.00000  -0.00194  -0.00194   2.06361
    R9        2.06305   0.00421   0.00000   0.01116   0.01116   2.07421
   R10        2.80026   0.01232   0.00000   0.03286   0.03286   2.83312
   R11        2.53142  -0.03003   0.00000  -0.05200  -0.05240   2.47902
   R12        3.33865   0.00244   0.00000   0.00416   0.00391   3.34256
   R13        2.55532   0.01831   0.00000   0.03196   0.03200   2.58732
   R14        2.04547  -0.00146   0.00000  -0.00377  -0.00377   2.04170
   R15        2.58107   0.00178   0.00000   0.00587   0.00621   2.58728
   R16        2.04651  -0.00121   0.00000  -0.00312  -0.00312   2.04339
   R17        3.24745  -0.00119   0.00000  -0.00058  -0.00031   3.24714
    A1        1.91059  -0.00955   0.00000  -0.05042  -0.05153   1.85907
    A2        1.91056   0.01015   0.00000   0.05360   0.05238   1.96294
    A3        1.91118  -0.00856   0.00000  -0.04314  -0.04427   1.86691
    A4        1.91041   0.00872   0.00000   0.04478   0.04376   1.95417
    A5        1.91072  -0.00847   0.00000  -0.04539  -0.04616   1.86456
    A6        1.91034   0.00772   0.00000   0.04063   0.03959   1.94993
    A7        1.89339  -0.00489   0.00000  -0.02036  -0.02053   1.87286
    A8        1.87648   0.00097   0.00000   0.01420   0.01469   1.89117
    A9        1.92231   0.00846   0.00000   0.03341   0.03353   1.95584
   A10        1.84897   0.00292   0.00000   0.01578   0.01576   1.86474
   A11        1.90439   0.00026   0.00000   0.00804   0.00807   1.91246
   A12        2.01398  -0.00802   0.00000  -0.05145  -0.05154   1.96244
   A13        1.92124  -0.00180   0.00000  -0.01178  -0.01158   1.90966
   A14        1.90452  -0.01015   0.00000  -0.03359  -0.03584   1.86869
   A15        1.93402   0.01883   0.00000   0.06900   0.06835   2.00236
   A16        1.76553   0.00738   0.00000   0.05288   0.05429   1.81982
   A17        2.06566  -0.01783   0.00000  -0.11931  -0.11818   1.94748
   A18        1.85933   0.00206   0.00000   0.04558   0.04588   1.90521
   A19        2.16139  -0.00179   0.00000   0.00842   0.00675   2.16814
   A20        2.14059  -0.00457   0.00000  -0.00337  -0.00589   2.13470
   A21        1.93837   0.00811   0.00000   0.03662   0.03078   1.96914
   A22        1.98904  -0.00988   0.00000  -0.03647  -0.04014   1.94890
   A23        2.10299  -0.00601   0.00000  -0.02723  -0.02652   2.07647
   A24        1.96408   0.01430   0.00000   0.06651   0.06475   2.02883
   A25        2.21601  -0.00826   0.00000  -0.03891  -0.03820   2.17782
   A26        2.25308   0.00633   0.00000   0.01830   0.01783   2.27091
   A27        1.96895  -0.01745   0.00000  -0.05502  -0.05747   1.91147
   A28        2.05477   0.01156   0.00000   0.04588   0.04549   2.10026
   A29        1.53975   0.00684   0.00000   0.02850   0.02568   1.56542
    D1       -2.83441  -0.00146   0.00000  -0.02570  -0.02565  -2.86006
    D2        1.45651  -0.00292   0.00000  -0.04120  -0.04108   1.41544
    D3       -0.75115   0.00087   0.00000  -0.00859  -0.00879  -0.75994
    D4        1.35462  -0.00131   0.00000  -0.02416  -0.02419   1.33042
    D5       -0.63765  -0.00278   0.00000  -0.03966  -0.03961  -0.67726
    D6       -2.84531   0.00101   0.00000  -0.00705  -0.00732  -2.85263
    D7       -0.73957  -0.00100   0.00000  -0.02083  -0.02069  -0.76026
    D8       -2.73183  -0.00246   0.00000  -0.03634  -0.03611  -2.76794
    D9        1.34369   0.00133   0.00000  -0.00373  -0.00382   1.33987
   D10       -1.01623   0.00502   0.00000   0.05157   0.05144  -0.96478
   D11       -2.93904   0.00248   0.00000   0.01257   0.01196  -2.92708
   D12        1.30215  -0.00487   0.00000  -0.06290  -0.06297   1.23918
   D13        1.06032   0.00427   0.00000   0.05163   0.05183   1.11216
   D14       -0.86249   0.00174   0.00000   0.01263   0.01235  -0.85014
   D15       -2.90449  -0.00562   0.00000  -0.06285  -0.06258  -2.96707
   D16        3.13886   0.00292   0.00000   0.04389   0.04424  -3.10009
   D17        1.21604   0.00038   0.00000   0.00490   0.00475   1.22080
   D18       -0.82596  -0.00697   0.00000  -0.07058  -0.07017  -0.89613
   D19       -2.09877   0.00435   0.00000   0.12044   0.12147  -1.97731
   D20        1.38112  -0.00384   0.00000  -0.04612  -0.04493   1.33619
   D21        0.14390   0.00409   0.00000   0.06254   0.06309   0.20699
   D22       -2.65940  -0.00410   0.00000  -0.10402  -0.10330  -2.76270
   D23        2.11483   0.00505   0.00000   0.09605   0.09423   2.20906
   D24       -0.68846  -0.00314   0.00000  -0.07050  -0.07216  -0.76063
   D25       -3.05867   0.00375   0.00000   0.03394   0.02958  -3.02908
   D26       -0.22119   0.00916   0.00000   0.17742   0.17620  -0.04500
   D27        3.02765   0.00056   0.00000  -0.00635  -0.01024   3.01741
   D28        0.18592  -0.00530   0.00000  -0.15011  -0.15605   0.02987
   D29       -3.01739  -0.00339   0.00000  -0.07061  -0.06992  -3.08731
   D30        0.13844  -0.00493   0.00000  -0.09659  -0.09638   0.04207
   D31        3.02802   0.00352   0.00000   0.05992   0.05924   3.08726
   D32        0.01206  -0.00135   0.00000  -0.03226  -0.03065  -0.01859
   D33       -0.09822   0.00183   0.00000   0.03170   0.03087  -0.06734
   D34       -3.11417  -0.00305   0.00000  -0.06048  -0.05902   3.10999
   D35       -0.11102   0.00597   0.00000   0.10811   0.10517  -0.00585
   D36        3.14067   0.00181   0.00000   0.02845   0.02674  -3.11578
         Item               Value     Threshold  Converged?
 Maximum Force            0.043105     0.000450     NO 
 RMS     Force            0.010060     0.000300     NO 
 Maximum Displacement     0.216690     0.001800     NO 
 RMS     Displacement     0.071482     0.001200     NO 
 Predicted change in Energy=-1.947023D-02
 Lowest energy point so far.  Saving SCF results.
 GradGradGradGradGradGradGradGradGradGradGradGradGradGradGradGradGradGrad

 Leave Link  103 at Mon Jul 12 12:52:21 2021, MaxMem=   104857600 cpu:               0.1 elap:               0.1
 (Enter /dades/curu/g16A03_MST/g16/l202.exe)
                          Input orientation:                          
 ---------------------------------------------------------------------
 Center     Atomic      Atomic             Coordinates (Angstroms)
 Number     Number       Type             X           Y           Z
 ---------------------------------------------------------------------
      1          7           0        1.323969    2.061470   -0.488660
      2          1           0        1.736404    1.299713    0.060514
      3          1           0        1.478782    2.923605    0.046051
      4          6           0       -0.130912    1.835551   -0.780746
      5          1           0       -0.409399    2.515335   -1.587745
      6          1           0       -0.707419    2.132885    0.095939
      7          6           0       -0.416342    0.384783   -1.207089
      8          1           0        0.215234    0.125995   -2.059521
      9          1           0       -1.437097    0.362304   -1.609997
     10          6           0       -0.299257   -0.626786   -0.106776
     11          7           0        0.619342   -1.562107   -0.059071
     12          6           0        0.404255   -2.429343    0.978334
     13          1           0        1.120597   -3.217850    1.158403
     14          6           0       -0.720583   -2.210054    1.727442
     15          1           0       -1.126578   -2.773668    2.556148
     16         16           0       -1.548818   -0.828681    1.128741
     17          1           0        1.876821    2.142849   -1.350968
 ---------------------------------------------------------------------
                    Distance matrix (angstroms):
                    1          2          3          4          5
     1  N    0.000000
     2  H    1.025655   0.000000
     3  H    1.026236   1.644264   0.000000
     4  C    1.501010   2.117005   2.111532   0.000000
     5  H    2.102034   2.966305   2.530060   1.091288   0.000000
     6  H    2.115040   2.582189   2.325339   1.090570   1.752105
     7  C    2.521131   2.660495   3.406975   1.538820   2.164301
     8  H    2.728179   2.861140   3.722447   2.162791   2.514296
     9  H    3.430459   3.706812   4.219610   2.136407   2.385833
    10  C    3.163450   2.807721   3.973670   2.558452   3.475388
    11  N    3.716364   3.074434   4.568512   3.553558   4.474448
    12  C    4.813040   4.064834   5.538756   4.644361   5.629977
    13  H    5.534022   4.689665   6.251647   5.555487   6.538473
    14  C    5.228500   4.597162   5.832558   4.796418   5.780708
    15  H    6.217282   5.569316   6.748882   5.776773   6.757199
    16  S    4.384275   4.057568   4.941481   3.571376   4.456457
    17  H    1.027542   1.650114   1.649144   2.109638   2.328435
                    6          7          8          9         10
     6  H    0.000000
     7  C    2.199651   0.000000
     8  H    3.086244   1.092017   0.000000
     9  H    2.564684   1.097625   1.728615   0.000000
    10  C    2.797047   1.499222   2.155131   2.129002   0.000000
    11  N    3.929032   2.486155   2.648545   3.215225   1.311841
    12  C    4.777904   3.656331   3.974172   4.228869   2.218470
    13  H    5.753333   4.575663   4.728215   5.198398   3.214075
    14  C    4.639298   3.929021   4.546862   4.274215   2.459392
    15  H    5.504778   4.964090   5.613635   5.223744   3.519194
    16  S    3.247384   2.865501   3.766736   2.988581   1.768804
    17  H    2.961745   2.893112   2.707512   3.770873   3.735533
                   11         12         13         14         15
    11  N    0.000000
    12  C    1.369150   0.000000
    13  H    2.115416   1.080423   0.000000
    14  C    2.325266   1.369128   2.174719   0.000000
    15  H    3.369790   2.225198   2.683428   1.081317   0.000000
    16  S    2.578707   2.529671   3.582567   1.718315   2.449234
    17  H    4.120309   5.338450   5.967069   5.930504   6.961185
                   16         17
    16  S    0.000000
    17  H    5.168554   0.000000
 Stoichiometry    C5H9N2S(1+)
 Framework group  C1[X(C5H9N2S)]
 Deg. of freedom    45
 Full point group                 C1      NOp   1
 RotChk:  IX=0 Diff= 2.31D-02
 Largest Abelian subgroup         C1      NOp   1
 Largest concise Abelian subgroup C1      NOp   1
                         Standard orientation:                         
 ---------------------------------------------------------------------
 Center     Atomic      Atomic             Coordinates (Angstroms)
 Number     Number       Type             X           Y           Z
 ---------------------------------------------------------------------
      1          7           0        2.759516    0.610387   -0.781980
      2          1           0        1.973707    1.191220   -1.093599
      3          1           0        3.275409    0.339868   -1.626868
      4          6           0        2.311660   -0.584113    0.008985
      5          1           0        3.185836   -0.971567    0.534918
      6          1           0        1.993960   -1.359070   -0.689478
      7          6           0        1.214756   -0.225173    1.026792
      8          1           0        1.568430    0.581517    1.672289
      9          1           0        1.107705   -1.084314    1.701476
     10          6           0       -0.119637    0.096032    0.423561
     11          7           0       -0.678766    1.282243    0.458254
     12          6           0       -1.952524    1.255482   -0.043142
     13          1           0       -2.505231    2.180844   -0.117530
     14          6           0       -2.424844    0.030341   -0.431025
     15          1           0       -3.397370   -0.253682   -0.808873
     16         16           0       -1.207907   -1.157867   -0.186419
     17          1           0        3.382355    1.217237   -0.234581
 ---------------------------------------------------------------------
 Rotational constants (GHZ):           3.4193329           1.0984835           0.9598249
 Leave Link  202 at Mon Jul 12 12:52:21 2021, MaxMem=   104857600 cpu:               0.1 elap:               0.0
 (Enter /dades/curu/g16A03_MST/g16/l301.exe)
 Standard basis: 6-31G(d) (6D, 7F)
 Ernie: Thresh=  0.10000D-02 Tol=  0.10000D-05 Strict=F.
 There are   142 symmetry adapted cartesian basis functions of A   symmetry.
 There are   142 symmetry adapted basis functions of A   symmetry.
   142 basis functions,   284 primitive gaussians,   142 cartesian basis functions
    34 alpha electrons       34 beta electrons
       nuclear repulsion energy       442.4488256282 Hartrees.
 IExCor=  402 DFT=T Ex+Corr=B3LYP ExCW=0 ScaHFX=  0.200000
 ScaDFX=  0.800000  0.720000  1.000000  0.810000 ScalE2=  1.000000  1.000000
 IRadAn=      5 IRanWt=     -1 IRanGd=            0 ICorTp=0 IEmpDi=  4
 NAtoms=   17 NActive=   17 NUniq=   17 SFac= 1.00D+00 NAtFMM=   60 NAOKFM=F Big=F
 Integral buffers will be    131072 words long.
 Raffenetti 2 integral format.
 Two-electron integral symmetry is turned on.
 ------------------------------------------------------------------------------
 Polarizable Continuum Model (PCM)
 =================================
 Model                : PCM.
 Atomic radii         : MST.
 Polarization charges : Total charges.
 Charge compensation  : None.
 Solution method      : On-the-fly selection.
 Cavity type          : Scaled VdW (van der Waals Surface) (Alpha=1.500).
 Cavity algorithm     : GePol (No added spheres)
                        Default sphere list used, NSphG=   17.
                        Lebedev-Laikov grids with approx.  5.0 points / Ang**2.
                        Smoothing algorithm: York/Karplus (Gamma=1.0000).
                        Polarization charges: spherical gaussians, with
                                              point-specific exponents (IZeta= 3).
                        Self-potential: point-specific (ISelfS= 7).
                        Self-field    : sphere-specific E.n sum rule (ISelfD= 2).
 1st derivatives      : Analytical E(r).r(x)/FMM algorithm (CHGder, D1EAlg=3).
                        Cavity 1st derivative terms included.
 Solvent              : n-Octanol, Eps=   9.862900 Eps(inf)=   2.043470
 ------------------------------------------------------------------------------
 Spheres list:
 ISph  on   Nord     Re0    Alpha      Xe            Ye            Ze
    1   N      1    1.5000  1.150      2.759516      0.610387     -0.781980
    2   H      2    0.9000  1.150      1.973707      1.191220     -1.093599
    3   H      3    0.9000  1.150      3.275409      0.339868     -1.626868
    4   C      4    1.5000  1.500      2.311660     -0.584113      0.008985
    5   H      5    1.2000  1.500      3.185836     -0.971567      0.534918
    6   H      6    1.2000  1.500      1.993960     -1.359070     -0.689478
    7   C      7    1.5000  1.500      1.214756     -0.225173      1.026792
    8   H      8    1.2000  1.500      1.568430      0.581517      1.672289
    9   H      9    1.2000  1.500      1.107705     -1.084314      1.701476
   10   C     10    1.5000  1.500     -0.119637      0.096032      0.423561
   11   N     11    1.5000  1.500     -0.678766      1.282243      0.458254
   12   C     12    1.5000  1.500     -1.952524      1.255482     -0.043142
   13   H     13    1.2000  1.500     -2.505231      2.180844     -0.117530
   14   C     14    1.5000  1.500     -2.424844      0.030341     -0.431025
   15   H     15    1.2000  1.500     -3.397370     -0.253682     -0.808873
   16   S     16    1.7500  1.500     -1.207907     -1.157867     -0.186419
   17   H     17    0.9000  1.150      3.382355      1.217237     -0.234581
 ------------------------------------------------------------------------------
 GePol: Number of generator spheres                  =      17
 GePol: Total number of spheres                      =      17
 GePol: Number of exposed spheres                    =      17 (100.00%)
 GePol: Number of points                             =    1750
 GePol: Average weight of points                     =       0.12
 GePol: Minimum weight of points                     =   0.42D-10
 GePol: Maximum weight of points                     =    0.22065
 GePol: Number of points with low weight             =     101
 GePol: Fraction of low-weight points (<1% of avg)   =       5.77%
 GePol: Cavity surface area                          =    203.906 Ang**2
 GePol: Cavity volume                                =    214.934 Ang**3
 Surface areas from nonelectrostatic (unscaled) cavity and vdw tensions:
 Sphere =    1 Type =  NH  Surf =       12.536 Tension =       -0.234
 Sphere =    2 Type =  NH  Surf =        4.036 Tension =       -0.234
 Sphere =    3 Type =  NH  Surf =        4.040 Tension =       -0.234
 Sphere =    4 Type =  CH2 Surf =        4.082 Tension =       -0.194
 Sphere =    5 Type =  CH2 Surf =        9.973 Tension =       -0.194
 Sphere =    6 Type =  CH2 Surf =       10.036 Tension =       -0.194
 Sphere =    7 Type =  CH2 Surf =        3.897 Tension =       -0.194
 Sphere =    8 Type =  CH2 Surf =        9.992 Tension =       -0.194
 Sphere =    9 Type =  CH2 Surf =        9.968 Tension =       -0.194
 Sphere =   10 Type =  C   Surf =        5.767 Tension =       -0.205
 Sphere =   11 Type =  Nc  Surf =       12.965 Tension =       -0.161
 Sphere =   12 Type =  CH  Surf =        7.704 Tension =       -0.195
 Sphere =   13 Type =  CH  Surf =       10.218 Tension =       -0.195
 Sphere =   14 Type =  CH  Surf =        7.646 Tension =       -0.195
 Sphere =   15 Type =  CH  Surf =       10.232 Tension =       -0.195
 Sphere =   16 Type =  S   Surf =       24.401 Tension =       -0.186
 Sphere =   17 Type =  NH  Surf =        4.048 Tension =       -0.234
 PCM non-electrostatic energy =        -0.0082921299 Hartrees.
 Nuclear repulsion after PCM non-electrostatic terms =      442.4405334982 Hartrees.
 Leave Link  301 at Mon Jul 12 12:52:22 2021, MaxMem=   104857600 cpu:               0.1 elap:               0.1
 (Enter /dades/curu/g16A03_MST/g16/l302.exe)
 NPDir=0 NMtPBC=     1 NCelOv=     1 NCel=       1 NClECP=     1 NCelD=      1
         NCelK=      1 NCelE2=     1 NClLst=     1 CellRange=     0.0.
 One-electron integrals computed using PRISM.
 One-electron integral symmetry used in STVInt
 NBasis=   142 RedAO= T EigKep=  2.40D-03  NBF=   142
 NBsUse=   142 1.00D-06 EigRej= -1.00D+00 NBFU=   142
 Precomputing XC quadrature grid using
 IXCGrd= 4 IRadAn=           5 IRanWt=          -1 IRanGd=           0 AccXCQ= 0.00D+00.
 Generated NRdTot=       0 NPtTot=           0 NUsed=           0 NTot=          32
 NSgBfM=   142   142   142   142   142 MxSgAt=    17 MxSgA2=    17.
 Leave Link  302 at Mon Jul 12 12:52:22 2021, MaxMem=   104857600 cpu:               2.2 elap:               0.6
 (Enter /dades/curu/g16A03_MST/g16/l303.exe)
 DipDrv:  MaxL=1.
 Leave Link  303 at Mon Jul 12 12:52:22 2021, MaxMem=   104857600 cpu:               0.1 elap:               0.0
 (Enter /dades/curu/g16A03_MST/g16/l401.exe)
 Initial guess from the checkpoint file:  "SET_328_BBB87_conf1.geo_075_240.chk"
 B after Tr=     0.000000   -0.000000    0.000000
         Rot=    0.999992   -0.000602    0.001854    0.003440 Ang=  -0.45 deg.
 Guess basis will be translated and rotated to current coordinates.
 JPrj=2 DoOrth=T DoCkMO=T.
 Generating alternative initial guess.
 ExpMin= 1.17D-01 ExpMax= 2.19D+04 ExpMxC= 3.30D+03 IAcc=2 IRadAn=         4 AccDes= 0.00D+00
 Harris functional with IExCor=  402 and IRadAn=       4 diagonalized for initial guess.
 HarFok:  IExCor=  402 AccDes= 0.00D+00 IRadAn=         4 IDoV= 1 UseB2=F ITyADJ=14
 ICtDFT=  3500011 ScaDFX=  1.000000  1.000000  1.000000  1.000000
 FoFCou: FMM=F IPFlag=           0 FMFlag=      100000 FMFlg1=           0
         NFxFlg=           0 DoJE=T BraDBF=F KetDBF=T FulRan=T
         wScrn=  0.000000 ICntrl=       500 IOpCl=  0 I1Cent=   200000004 NGrid=           0
         NMat0=    1 NMatS0=      1 NMatT0=    0 NMatD0=    1 NMtDS0=    0 NMtDT0=    0
 Petite list used in FoFCou.
 Harris En= -703.387669244298    
 Leave Link  401 at Mon Jul 12 12:52:23 2021, MaxMem=   104857600 cpu:               3.5 elap:               0.9
 (Enter /dades/curu/g16A03_MST/g16/l502.exe)
 Keep R1 ints in memory in canonical form, NReq=55416097.
 FoFCou: FMM=F IPFlag=           0 FMFlag=           0 FMFlg1=           0
         NFxFlg=           0 DoJE=F BraDBF=F KetDBF=F FulRan=T
         wScrn=  0.000000 ICntrl=       600 IOpCl=  0 I1Cent=           0 NGrid=           0
         NMat0=    1 NMatS0=  10153 NMatT0=    0 NMatD0=    1 NMtDS0=    0 NMtDT0=    0
 Symmetry not used in FoFCou.
 Two-electron integral symmetry not used.
 Closed shell SCF:
 Using DIIS extrapolation, IDIIS=  1040.
 NGot=   104857600 LenX=    53267895 LenY=    53247290
 Requested convergence on RMS density matrix=1.00D-08 within 128 cycles.
 Requested convergence on MAX density matrix=1.00D-06.
 Requested convergence on             energy=1.00D-06.
 No special actions if energy rises.

 Cycle   1  Pass 1  IDiag  1:
 Inv3:  Mode=1 IEnd=     9187500.
 Iteration    1 A*A^-1 deviation from unit magnitude is 4.00D-15 for   1725.
 Iteration    1 A*A^-1 deviation from orthogonality  is 2.02D-15 for   1681   1169.
 Iteration    1 A^-1*A deviation from unit magnitude is 3.89D-15 for   1725.
 Iteration    1 A^-1*A deviation from orthogonality  is 1.08D-15 for   1567    205.
 E= -703.490475377669    
 DIIS: error= 5.37D-03 at cycle   1 NSaved=   1.
 NSaved= 1 IEnMin= 1 EnMin= -703.490475377669     IErMin= 1 ErrMin= 5.37D-03
 ErrMax= 5.37D-03  0.00D+00 EMaxC= 1.00D-01 BMatC= 7.34D-03 BMatP= 7.34D-03
 IDIUse=3 WtCom= 9.46D-01 WtEn= 5.37D-02
 Coeff-Com:  0.100D+01
 Coeff-En:   0.100D+01
 Coeff:      0.100D+01
 Gap=     1.598 Goal=   None    Shift=    0.000
 GapD=    1.598 DampG=2.000 DampE=1.000 DampFc=2.0000 IDamp=-1.
 RMSDP=1.17D-03 MaxDP=1.57D-02              OVMax= 3.14D-02

 Cycle   2  Pass 1  IDiag  1:
 E= -703.502935179585     Delta-E=       -0.012459801916 Rises=F Damp=F
 DIIS: error= 2.80D-03 at cycle   2 NSaved=   2.
 NSaved= 2 IEnMin= 2 EnMin= -703.502935179585     IErMin= 2 ErrMin= 2.80D-03
 ErrMax= 2.80D-03  0.00D+00 EMaxC= 1.00D-01 BMatC= 1.07D-03 BMatP= 7.34D-03
 IDIUse=3 WtCom= 9.72D-01 WtEn= 2.80D-02
 Coeff-Com:  0.150D+00 0.850D+00
 Coeff-En:   0.000D+00 0.100D+01
 Coeff:      0.146D+00 0.854D+00
 Gap=     0.212 Goal=   None    Shift=    0.000
 RMSDP=3.31D-04 MaxDP=1.26D-02 DE=-1.25D-02 OVMax= 1.25D-02

 Cycle   3  Pass 1  IDiag  1:
 E= -703.503011762644     Delta-E=       -0.000076583059 Rises=F Damp=F
 DIIS: error= 2.93D-03 at cycle   3 NSaved=   3.
 NSaved= 3 IEnMin= 3 EnMin= -703.503011762644     IErMin= 2 ErrMin= 2.80D-03
 ErrMax= 2.93D-03  0.00D+00 EMaxC= 1.00D-01 BMatC= 1.08D-03 BMatP= 1.07D-03
 IDIUse=3 WtCom= 9.71D-01 WtEn= 2.93D-02
 Coeff-Com: -0.378D-01 0.510D+00 0.528D+00
 Coeff-En:   0.000D+00 0.481D+00 0.519D+00
 Coeff:     -0.367D-01 0.509D+00 0.528D+00
 Gap=     0.212 Goal=   None    Shift=    0.000
 RMSDP=1.82D-04 MaxDP=6.45D-03 DE=-7.66D-05 OVMax= 6.38D-03

 Cycle   4  Pass 1  IDiag  1:
 E= -703.503889256485     Delta-E=       -0.000877493841 Rises=F Damp=F
 DIIS: error= 3.35D-04 at cycle   4 NSaved=   4.
 NSaved= 4 IEnMin= 4 EnMin= -703.503889256485     IErMin= 4 ErrMin= 3.35D-04
 ErrMax= 3.35D-04  0.00D+00 EMaxC= 1.00D-01 BMatC= 3.32D-05 BMatP= 1.07D-03
 IDIUse=3 WtCom= 9.97D-01 WtEn= 3.35D-03
 Coeff-Com: -0.249D-01 0.267D+00 0.297D+00 0.461D+00
 Coeff-En:   0.000D+00 0.000D+00 0.000D+00 0.100D+01
 Coeff:     -0.248D-01 0.266D+00 0.296D+00 0.463D+00
[...]
 Coeff-Com:  0.100D+01
 Coeff:      0.100D+01
 Gap=     0.368 Goal=   None    Shift=    0.000
 RMSDP=1.77D-06 MaxDP=6.49D-05 DE=-5.15D-08 OVMax= 2.49D-05

 Cycle  11  Pass 1  IDiag  1:
 RMSU=  8.69D-07    CP:  1.00D+00
 E= -700.832027263594     Delta-E=       -0.000000007063 Rises=F Damp=F
 DIIS: error= 2.06D-06 at cycle   2 NSaved=   2.
 NSaved= 2 IEnMin= 2 EnMin= -700.832027263594     IErMin= 2 ErrMin= 2.06D-06
 ErrMax= 2.06D-06  0.00D+00 EMaxC= 1.00D-01 BMatC= 1.63D-09 BMatP= 4.81D-09
 IDIUse=1 WtCom= 1.00D+00 WtEn= 0.00D+00
 Coeff-Com:  0.306D+00 0.694D+00
 Coeff:      0.306D+00 0.694D+00
 Gap=     0.368 Goal=   None    Shift=    0.000
 RMSDP=2.98D-07 MaxDP=1.49D-05 DE=-7.06D-09 OVMax= 2.94D-05

 Cycle  12  Pass 1  IDiag  1:
 RMSU=  2.92D-07    CP:  1.00D+00  9.36D-01
 E= -700.832027266361     Delta-E=       -0.000000002767 Rises=F Damp=F
 DIIS: error= 7.38D-07 at cycle   3 NSaved=   3.
 NSaved= 3 IEnMin= 3 EnMin= -700.832027266361     IErMin= 3 ErrMin= 7.38D-07
 ErrMax= 7.38D-07  0.00D+00 EMaxC= 1.00D-01 BMatC= 3.98D-10 BMatP= 1.63D-09
 IDIUse=1 WtCom= 1.00D+00 WtEn= 0.00D+00
 Coeff-Com: -0.438D+00-0.142D+00 0.158D+01
 Coeff:     -0.438D+00-0.142D+00 0.158D+01
 Gap=     0.368 Goal=   None    Shift=    0.000
 RMSDP=4.14D-07 MaxDP=2.15D-05 DE=-2.77D-09 OVMax= 2.71D-05

 Cycle  13  Pass 1  IDiag  1:
 RMSU=  1.06D-07    CP:  1.00D+00  1.34D+00  1.67D+00
 E= -700.832027267857     Delta-E=       -0.000000001496 Rises=F Damp=F
 DIIS: error= 2.15D-07 at cycle   4 NSaved=   4.
 NSaved= 4 IEnMin= 4 EnMin= -700.832027267857     IErMin= 4 ErrMin= 2.15D-07
 ErrMax= 2.15D-07  0.00D+00 EMaxC= 1.00D-01 BMatC= 2.08D-11 BMatP= 3.98D-10
 IDIUse=1 WtCom= 1.00D+00 WtEn= 0.00D+00
 Coeff-Com: -0.791D-01-0.355D-01 0.168D+00 0.947D+00
 Coeff:     -0.791D-01-0.355D-01 0.168D+00 0.947D+00
 Gap=     0.368 Goal=   None    Shift=    0.000
 RMSDP=7.21D-08 MaxDP=3.35D-06 DE=-1.50D-09 OVMax= 6.31D-06

 Cycle  14  Pass 1  IDiag  1:
 RMSU=  3.68D-08    CP:  1.00D+00  1.38D+00  1.79D+00  1.30D+00
 E= -700.832027267934     Delta-E=       -0.000000000077 Rises=F Damp=F
 DIIS: error= 1.61D-07 at cycle   5 NSaved=   5.
 NSaved= 5 IEnMin= 5 EnMin= -700.832027267934     IErMin= 5 ErrMin= 1.61D-07
 ErrMax= 1.61D-07  0.00D+00 EMaxC= 1.00D-01 BMatC= 5.56D-12 BMatP= 2.08D-11
 IDIUse=1 WtCom= 1.00D+00 WtEn= 0.00D+00
 Coeff-Com:  0.129D+00 0.666D-01-0.484D+00-0.120D+00 0.141D+01
 Coeff:      0.129D+00 0.666D-01-0.484D+00-0.120D+00 0.141D+01
 Gap=     0.368 Goal=   None    Shift=    0.000
 RMSDP=5.38D-08 MaxDP=2.03D-06 DE=-7.66D-11 OVMax= 4.63D-06

 Cycle  15  Pass 1  IDiag  1:
 RMSU=  1.80D-08    CP:  1.00D+00  1.40D+00  1.85D+00  1.69D+00  1.51D+00
 E= -700.832027267950     Delta-E=       -0.000000000017 Rises=F Damp=F
 DIIS: error= 3.95D-08 at cycle   6 NSaved=   6.
 NSaved= 6 IEnMin= 6 EnMin= -700.832027267950     IErMin= 6 ErrMin= 3.95D-08
 ErrMax= 3.95D-08  0.00D+00 EMaxC= 1.00D-01 BMatC= 4.24D-13 BMatP= 5.56D-12
 IDIUse=1 WtCom= 1.00D+00 WtEn= 0.00D+00
 Coeff-Com:  0.822D-02 0.815D-02-0.250D-01-0.890D-01 0.223D-02 0.110D+01
 Coeff:      0.822D-02 0.815D-02-0.250D-01-0.890D-01 0.223D-02 0.110D+01
 Gap=     0.368 Goal=   None    Shift=    0.000
 RMSDP=1.22D-08 MaxDP=4.17D-07 DE=-1.68D-11 OVMax= 1.06D-06

 Cycle  16  Pass 1  IDiag  1:
 RMSU=  5.84D-09    CP:  1.00D+00  1.41D+00  1.85D+00  1.75D+00  1.68D+00
                    CP:  1.22D+00
 E= -700.832027267964     Delta-E=       -0.000000000013 Rises=F Damp=F
 DIIS: error= 1.69D-08 at cycle   7 NSaved=   7.
 NSaved= 7 IEnMin= 7 EnMin= -700.832027267964     IErMin= 7 ErrMin= 1.69D-08
 ErrMax= 1.69D-08  0.00D+00 EMaxC= 1.00D-01 BMatC= 6.26D-14 BMatP= 4.24D-13
 IDIUse=1 WtCom= 1.00D+00 WtEn= 0.00D+00
 Coeff-Com: -0.228D-01-0.103D-01 0.826D-01 0.211D-01-0.251D+00 0.324D-01
 Coeff-Com:  0.115D+01
 Coeff:     -0.228D-01-0.103D-01 0.826D-01 0.211D-01-0.251D+00 0.324D-01
 Coeff:      0.115D+01
 Gap=     0.368 Goal=   None    Shift=    0.000
 RMSDP=4.94D-09 MaxDP=1.87D-07 DE=-1.34D-11 OVMax= 4.39D-07

 SCF Done:  E(RHF) =  -700.832027268     A.U. after   16 cycles
            NFock= 16  Conv=0.49D-08     -V/T= 2.0007
 KE= 7.003526788984D+02 PE=-2.536006370124D+03 EE= 6.878950376787D+02
 Leave Link  502 at Mon Jul 12 13:24:46 2021, MaxMem=   262144000 cpu:             505.1 elap:             127.5
 (Enter /dades/curu/g16A03_MST/g16/l801.exe)
 ExpMin= 2.97D-02 ExpMax= 1.11D+05 ExpMxC= 1.07D+03 IAcc=3 IRadAn=         5 AccDes= 0.00D+00
 HarFok:  IExCor=  205 AccDes= 0.00D+00 IRadAn=         5 IDoV=-2 UseB2=F ITyADJ=14
 ICtDFT= 12500011 ScaDFX=  1.000000  1.000000  1.000000  1.000000
 Largest valence mixing into a core orbital is  3.20D-04
 Largest core mixing into a valence orbital is  8.84D-05
 Range of M.O.s used for correlation:    13   269
 NBasis=   269 NAE=    34 NBE=    34 NFC=    12 NFV=     0
 NROrb=    257 NOA=    22 NOB=    22 NVA=   235 NVB=   235

 **** Warning!!: The largest alpha MO coefficient is  0.54658615D+02

 Leave Link  801 at Mon Jul 12 13:24:47 2021, MaxMem=   262144000 cpu:               1.0 elap:               0.3
 (Enter /dades/curu/g16A03_MST/g16/l906.exe)
 FulOut=F Deriv=F AODrv=F NAtomX=    17
   MMem=          42  MDisk=          22 MDiskD=          22
  W3Min=     1473450 MinDsk=     1955505 NBas6D=         285
 NBas2D=       41124    NTT=       40755    LW2=     2000000
    MDV=   261532331 MDiskM=       12647 NBas2p=       40542
 Fully direct method using O(OVN) memory.
 IMap=   1   2   3   4   5   6   7   8   9  10  11  12  13  14  15  16  17  18  19  20
 IMap=  21  22
 JobTyp=1 Pass  1:  I=   1 to  22 NPSUse=  4 ParTrn=T ParDer=T DoDerP=F.
 Spin components of T(2) and E(2):
     alpha-alpha T2 =       0.5947820739D-01 E2=     -0.1551993777D+00
     alpha-beta  T2 =       0.3166200704D+00 E2=     -0.8825686661D+00
     beta-beta   T2 =       0.5947820739D-01 E2=     -0.1551993777D+00
 The integrals were generated   1 times.
 ANorm=    0.1198155451D+01
 E2 =    -0.1192967421D+01 EUMP2 =    -0.70202499468946D+03
 Leave Link  906 at Mon Jul 12 13:25:27 2021, MaxMem=   262144000 cpu:             159.3 elap:              39.9
 (Enter /dades/curu/g16A03_MST/g16/l601.exe)
 Copying SCF densities to generalized density rwf, IOpCl= 0 IROHF=0.

 **********************************************************************

            Population analysis using the SCF density.

 **********************************************************************

 Orbital symmetries:
       Occupied  (A) (A) (A) (A) (A) (A) (A) (A) (A) (A) (A) (A)
                 (A) (A) (A) (A) (A) (A) (A) (A) (A) (A) (A) (A)
                 (A) (A) (A) (A) (A) (A) (A) (A) (A) (A)
       Virtual   (A) (A) (A) (A) (A) (A) (A) (A) (A) (A) (A) (A)
                 (A) (A) (A) (A) (A) (A) (A) (A) (A) (A) (A) (A)
                 (A) (A) (A) (A) (A) (A) (A) (A) (A) (A) (A) (A)
                 (A) (A) (A) (A) (A) (A) (A) (A) (A) (A) (A) (A)
                 (A) (A) (A) (A) (A) (A) (A) (A) (A) (A) (A) (A)
                 (A) (A) (A) (A) (A) (A) (A) (A) (A) (A) (A) (A)
                 (A) (A) (A) (A) (A) (A) (A) (A) (A) (A) (A) (A)
                 (A) (A) (A) (A) (A) (A) (A) (A) (A) (A) (A) (A)
                 (A) (A) (A) (A) (A) (A) (A) (A) (A) (A) (A) (A)
                 (A) (A) (A) (A) (A) (A) (A) (A) (A) (A) (A) (A)
                 (A) (A) (A) (A) (A) (A) (A) (A) (A) (A) (A) (A)
                 (A) (A) (A) (A) (A) (A) (A) (A) (A) (A) (A) (A)
                 (A) (A) (A) (A) (A) (A) (A) (A) (A) (A) (A) (A)
                 (A) (A) (A) (A) (A) (A) (A) (A) (A) (A) (A) (A)
                 (A) (A) (A) (A) (A) (A) (A) (A) (A) (A) (A) (A)
                 (A) (A) (A) (A) (A) (A) (A) (A) (A) (A) (A) (A)
                 (A) (A) (A) (A) (A) (A) (A) (A) (A) (A) (A) (A)
                 (A) (A) (A) (A) (A) (A) (A) (A) (A) (A) (A) (A)
                 (A) (A) (A) (A) (A) (A) (A) (A) (A) (A) (A) (A)
                 (A) (A) (A) (A) (A) (A) (A)
 The electronic state is 1-A.
 Alpha  occ. eigenvalues --  -92.13088 -15.87200 -15.72845 -11.47912 -11.46857
 Alpha  occ. eigenvalues --  -11.42711 -11.40565 -11.40121  -9.13277  -6.81417
 Alpha  occ. eigenvalues --   -6.81327  -6.81153  -1.48992  -1.42854  -1.24167
 Alpha  occ. eigenvalues --   -1.20081  -1.13773  -1.05264  -0.95601  -0.94398
 Alpha  occ. eigenvalues --   -0.92908  -0.87881  -0.83808  -0.82090  -0.77721
 Alpha  occ. eigenvalues --   -0.74846  -0.73094  -0.70048  -0.68458  -0.67801
 Alpha  occ. eigenvalues --   -0.63423  -0.58030  -0.52652  -0.46817
 Alpha virt. eigenvalues --   -0.09987  -0.07212  -0.06854  -0.05752  -0.04015
 Alpha virt. eigenvalues --   -0.03771  -0.03606  -0.03381  -0.02607  -0.01553
 Alpha virt. eigenvalues --   -0.01402  -0.00047   0.00047   0.01113   0.01701
 Alpha virt. eigenvalues --    0.02297   0.03019   0.03287   0.03659   0.03968
 Alpha virt. eigenvalues --    0.04541   0.05061   0.05584   0.05899   0.06176
 Alpha virt. eigenvalues --    0.07062   0.07775   0.07876   0.08104   0.09500
 Alpha virt. eigenvalues --    0.09908   0.10494   0.10649   0.11216   0.11918
 Alpha virt. eigenvalues --    0.12180   0.13039   0.13929   0.14090   0.15820
 Alpha virt. eigenvalues --    0.16087   0.16525   0.18631   0.19388   0.20629
 Alpha virt. eigenvalues --    0.20781   0.21765   0.22391   0.22598   0.23740
 Alpha virt. eigenvalues --    0.23775   0.24374   0.25607   0.27585   0.28582
 Alpha virt. eigenvalues --    0.28811   0.30271   0.30963   0.31760   0.32633
 Alpha virt. eigenvalues --    0.32825   0.33660   0.33922   0.34296   0.34723
 Alpha virt. eigenvalues --    0.35247   0.36080   0.37268   0.37453   0.38933
 Alpha virt. eigenvalues --    0.40196   0.40756   0.41432   0.42287   0.42620
 Alpha virt. eigenvalues --    0.43571   0.44434   0.44953   0.46324   0.47093
 Alpha virt. eigenvalues --    0.47440   0.48315   0.50106   0.50888   0.51386
 Alpha virt. eigenvalues --    0.52366   0.53227   0.54487   0.54781   0.55300
 Alpha virt. eigenvalues --    0.56254   0.57191   0.57275   0.58268   0.59407
 Alpha virt. eigenvalues --    0.61234   0.61897   0.62300   0.63465   0.64422
 Alpha virt. eigenvalues --    0.64966   0.65165   0.66248   0.68154   0.68643
 Alpha virt. eigenvalues --    0.69149   0.69917   0.71146   0.71881   0.74721
 Alpha virt. eigenvalues --    0.74865   0.75421   0.76738   0.78174   0.79541
 Alpha virt. eigenvalues --    0.79594   0.80326   0.82312   0.83346   0.86539
 Alpha virt. eigenvalues --    0.86959   0.87456   0.88998   0.89633   0.92113
 Alpha virt. eigenvalues --    0.92363   0.96709   0.97151   0.98645   1.01085
 Alpha virt. eigenvalues --    1.01619   1.03368   1.03826   1.04305   1.08374
 Alpha virt. eigenvalues --    1.09914   1.10005   1.10612   1.12978   1.14749
 Alpha virt. eigenvalues --    1.16230   1.17078   1.19879   1.23758   1.24142
 Alpha virt. eigenvalues --    1.26329   1.28242   1.30403   1.31235   1.36985
 Alpha virt. eigenvalues --    1.40508   1.41909   1.43757   1.45053   1.46621
 Alpha virt. eigenvalues --    1.48805   1.52142   1.53870   1.55435   1.57170
 Alpha virt. eigenvalues --    1.59475   1.60360   1.62517   1.63421   1.66102
 Alpha virt. eigenvalues --    1.67632   1.68037   1.71114   1.71617   1.75077
 Alpha virt. eigenvalues --    1.76441   1.76519   1.77780   1.81095   1.83750
 Alpha virt. eigenvalues --    1.86067   1.87937   1.91550   1.93072   1.93439
 Alpha virt. eigenvalues --    1.94487   1.97644   1.99053   2.00612   2.03153
 Alpha virt. eigenvalues --    2.04201   2.04610   2.07564   2.09657   2.12779
 Alpha virt. eigenvalues --    2.13400   2.15375   2.18508   2.19231   2.20626
 Alpha virt. eigenvalues --    2.24086   2.27017   2.29784   2.30411   2.32933
 Alpha virt. eigenvalues --    2.33663   2.35445   2.36706   2.38532   2.42478
 Alpha virt. eigenvalues --    2.44785   2.46218   2.48115   2.52461   2.55235
 Alpha virt. eigenvalues --    2.56477   2.59778   2.62241   2.66658   2.69436
 Alpha virt. eigenvalues --    2.72347   2.73858   2.75585   2.79161   2.81386
 Alpha virt. eigenvalues --    2.83084   2.84719   2.88065   2.92098   2.96006
 Alpha virt. eigenvalues --    2.99469   3.04363   3.07492   3.16581   3.30572
 Alpha virt. eigenvalues --    3.35313   3.37163   3.38891   3.59475   3.71683
          Condensed to atoms (all electrons):
               1          2          3          4          5          6
     1  N    6.423924   0.391601   0.441633  -0.004364  -0.101267  -0.063005
     2  H    0.391601   0.475842  -0.068928  -0.048040   0.018760  -0.008720
     3  H    0.441633  -0.068928   0.609277  -0.062093  -0.005235  -0.035585
     4  C   -0.004364  -0.048040  -0.062093   4.599912   0.311747   0.212670
     5  H   -0.101267   0.018760  -0.005235   0.311747   1.161324  -0.208258
     6  H   -0.063005  -0.008720  -0.035585   0.212670  -0.208258   1.242650
     7  C   -0.121797  -0.010398   0.037606   0.595420   0.035375  -0.112577
     8  H    0.016932   0.003885  -0.003924  -0.188074  -0.055948   0.078572
     9  H    0.018190  -0.001786   0.000212   0.041735  -0.045128  -0.049417
    10  C    0.111544  -0.022102  -0.012756  -0.366232   0.016766   0.101315
    11  N   -0.088320   0.066672  -0.000028   0.046691   0.004141  -0.031566
    12  C   -0.002287  -0.002054  -0.001099  -0.082604   0.001438  -0.027624
    13  H    0.006760  -0.014294   0.000759  -0.004719  -0.000341  -0.000270
    14  C    0.000336   0.000501   0.000235   0.013076   0.001144   0.005087
    15  H   -0.000287   0.001840  -0.000068   0.002782   0.000291  -0.000111
    16  S   -0.023477   0.003338  -0.000471   0.022695  -0.002684   0.015319
    17  H    0.361509  -0.035303  -0.069026  -0.006752  -0.033989   0.021462
               7          8          9         10         11         12
     1  N   -0.121797   0.016932   0.018190   0.111544  -0.088320  -0.002287
     2  H   -0.010398   0.003885  -0.001786  -0.022102   0.066672  -0.002054
     3  H    0.037606  -0.003924   0.000212  -0.012756  -0.000028  -0.001099
     4  C    0.595420  -0.188074   0.041735  -0.366232   0.046691  -0.082604
     5  H    0.035375  -0.055948  -0.045128   0.016766   0.004141   0.001438
     6  H   -0.112577   0.078572  -0.049417   0.101315  -0.031566  -0.027624
     7  C    5.506175   0.238101   0.080133  -0.312313   0.085096  -0.232426
     8  H    0.238101   0.995895  -0.138603   0.054141  -0.049980  -0.035217
     9  H    0.080133  -0.138603   1.075974  -0.024699   0.035716   0.015158
    10  C   -0.312313   0.054141  -0.024699   6.316605   0.388987  -0.253868
    11  N    0.085096  -0.049980   0.035716   0.388987   7.506659   0.138304
    12  C   -0.232426  -0.035217   0.015158  -0.253868   0.138304   5.669257
    13  H   -0.010869  -0.000883   0.000617   0.086661  -0.196295   0.283827
    14  C   -0.002916   0.009874  -0.006063  -0.079727  -0.119094   0.191485
    15  H    0.025854   0.000895   0.001228   0.032745   0.013630  -0.016379
    16  S    0.077531   0.042866  -0.058876   0.088398  -0.126813  -0.318491
    17  H   -0.038261   0.004140   0.004608   0.013517  -0.013794  -0.001338
              13         14         15         16         17
     1  N    0.006760   0.000336  -0.000287  -0.023477   0.361509
     2  H   -0.014294   0.000501   0.001840   0.003338  -0.035303
     3  H    0.000759   0.000235  -0.000068  -0.000471  -0.069026
     4  C   -0.004719   0.013076   0.002782   0.022695  -0.006752
     5  H   -0.000341   0.001144   0.000291  -0.002684  -0.033989
     6  H   -0.000270   0.005087  -0.000111   0.015319   0.021462
     7  C   -0.010869  -0.002916   0.025854   0.077531  -0.038261
     8  H   -0.000883   0.009874   0.000895   0.042866   0.004140
     9  H    0.000617  -0.006063   0.001228  -0.058876   0.004608
    10  C    0.086661  -0.079727   0.032745   0.088398   0.013517
    11  N   -0.196295  -0.119094   0.013630  -0.126813  -0.013794
    12  C    0.283827   0.191485  -0.016379  -0.318491  -0.001338
    13  H    1.273481  -0.125537  -0.038659   0.000951   0.001252
    14  C   -0.125537   5.423228   0.271615   0.283994  -0.000503
    15  H   -0.038659   0.271615   1.161572  -0.125986  -0.000182
    16  S    0.000951   0.283994  -0.125986  15.739009  -0.000560
    17  H    0.001252  -0.000503  -0.000182  -0.000560   0.559164
 Mulliken charges:
               1
     1  N   -0.367625
     2  H    0.249185
     3  H    0.169490
     4  C    0.916151
     5  H   -0.098137
     6  H   -0.139943
     7  C    0.160264
     8  H    0.027328
     9  H    0.051001
    10  C   -0.138981
    11  N   -0.660008
    12  C    0.673919
    13  H   -0.262441
    14  C    0.133267
    15  H   -0.330781
    16  S    0.383257
    17  H    0.234054
 Sum of Mulliken charges =   1.00000
 Mulliken charges with hydrogens summed into heavy atoms:
               1
     1  N    0.285104
     4  C    0.678072
     7  C    0.238593
    10  C   -0.138981
    11  N   -0.660008
    12  C    0.411479
    14  C   -0.197514
    16  S    0.383257
 Electronic spatial extent (au):  <R**2>=           1221.5743
 Charge=              1.0000 electrons
 Dipole moment (field-independent basis, Debye):
    X=              8.6246    Y=              1.4181    Z=              0.3793  Tot=              8.7486
 Quadrupole moment (field-independent basis, Debye-Ang):
   XX=            -11.4817   YY=            -44.3872   ZZ=            -53.1640
   XY=              3.0390   XZ=              1.9878   YZ=              0.2283
 Traceless Quadrupole moment (field-independent basis, Debye-Ang):
   XX=             24.8626   YY=             -8.0429   ZZ=            -16.8197
   XY=              3.0390   XZ=              1.9878   YZ=              0.2283
 Octapole moment (field-independent basis, Debye-Ang**2):
  XXX=             84.5091  YYY=             10.8867  ZZZ=              2.7578  XYY=             15.0039
  XXY=             29.6687  XXZ=              2.2143  XZZ=             19.1890  YZZ=             -0.1474
  YYZ=             -0.8464  XYZ=              2.0426
 Hexadecapole moment (field-independent basis, Debye-Ang**3):
 XXXX=           -671.5522 YYYY=           -340.3829 ZZZZ=            -83.9328 XXXY=             72.3018
 XXXZ=             19.8896 YYYX=              3.2862 YYYZ=              0.3245 ZZZX=              7.4153
 ZZZY=              1.6289 XXYY=           -195.2887 XXZZ=           -185.4421 YYZZ=            -82.3458
 XXYZ=              1.5935 YYXZ=              0.0292 ZZXY=              9.4550
 N-N= 4.469266262785D+02 E-N=-2.536006368792D+03  KE= 7.003526788984D+02
 Leave Link  601 at Mon Jul 12 13:25:27 2021, MaxMem=   262144000 cpu:               0.2 elap:               0.1
 (Enter /dades/curu/g16A03_MST/g16/l9999.exe)
 1\1\GINC-PIRINEUS49\SP\RMP2-FC\Aug-CC-pVDZ\C5H9N2S1(1+)\UBATOR02\12-Ju
 l-2021\0\\#p mp2/aug-cc-pVDZ scf=tight maxdisk=180GB geom=allcheck\\SE
 T_328_BBB87_conf1.geo_075_240 geometry\\1,1\N,0,1.4656885534,1.6580918
 816,-0.6545074651\H,0,1.6497661735,0.8549275035,-0.0202059038\H,0,1.94
 09647861,2.4908329195,-0.2849683273\C,0,-0.0195649558,1.8516670544,-0.
 7395312385\H,0,-0.212156353,2.6329374775,-1.4724845063\H,0,-0.34604478
 91,2.1973814097,0.2408362589\C,0,-0.7281369668,0.5561990883,-1.1275792
 155\H,0,-0.3778648804,0.2180245616,-2.1097095704\H,0,-1.7916862286,0.7
 793078206,-1.2451791047\C,0,-0.5330256877,-0.5364608757,-0.1137025326\
 N,0,0.553638982,-0.6607389796,0.6048803721\C,0,0.488953706,-1.75402832
 85,1.439580322\H,0,1.3219295562,-1.9707419371,2.0931326092\C,0,-0.6591
 453645,-2.4832388924,1.3599661034\H,0,-0.93626605,-3.3707355015,1.9081
 669028\S,0,-1.7252287919,-1.7739082324,0.1913282831\H,0,1.8871783107,1
 .4464830305,-1.5690229874\\Version=ES64L-G16RevA.03\State=1-A\HF=-700.
 8320273\MP2=-702.0249947\RMSD=4.940e-09\PG=C01 [X(C5H9N2S1)]\\@


 MEN HAVE BECOME THE TOOLS OF THEIR TOOLS... THOREAU   
 Job cpu time:       0 days  0 hours 11 minutes 18.9 seconds.
 Elapsed time:       0 days  0 hours  2 minutes 51.5 seconds.
 File lengths (MBytes):  RWF=     44 Int=      0 D2E=      0 Chk=      9 Scr=      1
 Normal termination of Gaussian 16 at Mon Jul 12 13:25:27 2021.
