 Entering Gaussian System, Link 0=g16
 Input=SET_328_BBB299_conf1.geo_195_180_OCTANOL.dat
 Output=SET_328_BBB299_conf1.geo_195_180_OCTANOL.log
 Initial command:
 /dades/curu/g16A03_MST/g16/l1.exe "/tmp/ubator02/1835309/Gau-2874.inp" -scrdir="/tmp/ubator02/1835309/"
 Entering Link 1 = /dades/curu/g16A03_MST/g16/l1.exe PID=      2879.
  
 Copyright (c) 1988,1990,1992,1993,1995,1998,2003,2009,2016,
            Gaussian, Inc.  All Rights Reserved.
  
 This is part of the Gaussian(R) 16 program.  It is based on
 the Gaussian(R) 09 system (copyright 2009, Gaussian, Inc.),
 the Gaussian(R) 03 system (copyright 2003, Gaussian, Inc.),
 the Gaussian(R) 98 system (copyright 1998, Gaussian, Inc.),
 the Gaussian(R) 94 system (copyright 1995, Gaussian, Inc.),
 the Gaussian 92(TM) system (copyright 1992, Gaussian, Inc.),
 the Gaussian 90(TM) system (copyright 1990, Gaussian, Inc.),
 the Gaussian 88(TM) system (copyright 1988, Gaussian, Inc.),
 the Gaussian 86(TM) system (copyright 1986, Carnegie Mellon
 University), and the Gaussian 82(TM) system (copyright 1983,
 Carnegie Mellon University). Gaussian is a federally registered
 trademark of Gaussian, Inc.
  
 This software contains proprietary and confidential information,
 including trade secrets, belonging to Gaussian, Inc.
  
 This software is provided under written license and may be
 used, copied, transmitted, or stored only in accord with that
 written license.
  
 The following legend is applicable only to US Government
 contracts under FAR:
  
                    RESTRICTED RIGHTS LEGEND
  
 Use, reproduction and disclosure by the US Government is
 subject to restrictions as set forth in subparagraphs (a)
 and (c) of the Commercial Computer Software - Restricted
 Rights clause in FAR 52.227-19.
  
 Gaussian, Inc.
 340 Quinnipiac St., Bldg. 40, Wallingford CT 06492
  
  
 ---------------------------------------------------------------
 Warning -- This program may not be used in any manner that
 competes with the business of Gaussian, Inc. or will provide
 assistance to any competitor of Gaussian, Inc.  The licensee
 of this program is prohibited from giving any competitor of
 Gaussian, Inc. access to this program.  By using this program,
 the user acknowledges that Gaussian, Inc. is engaged in the
 business of creating and licensing software in the field of
 computational chemistry and represents and warrants to the
 licensee that it is not a competitor of Gaussian, Inc. and that
 it will not use this program in any manner prohibited above.
 ---------------------------------------------------------------
  

 Cite this work as:
 Gaussian 16, Revision A.03,
 M. J. Frisch, G. W. Trucks, H. B. Schlegel, G. E. Scuseria, 
 M. A. Robb, J. R. Cheeseman, G. Scalmani, V. Barone, 
 G. A. Petersson, H. Nakatsuji, X. Li, M. Caricato, A. V. Marenich, 
 J. Bloino, B. G. Janesko, R. Gomperts, B. Mennucci, H. P. Hratchian, 
 J. V. Ortiz, A. F. Izmaylov, J. L. Sonnenberg, D. Williams-Young, 
 F. Ding, F. Lipparini, F. Egidi, J. Goings, B. Peng, A. Petrone, 
 T. Henderson, D. Ranasinghe, V. G. Zakrzewski, J. Gao, N. Rega, 
 G. Zheng, W. Liang, M. Hada, M. Ehara, K. Toyota, R. Fukuda, 
 J. Hasegawa, M. Ishida, T. Nakajima, Y. Honda, O. Kitao, H. Nakai, 
 T. Vreven, K. Throssell, J. A. Montgomery, Jr., J. E. Peralta, 
 F. Ogliaro, M. J. Bearpark, J. J. Heyd, E. N. Brothers, K. N. Kudin, 
 V. N. Staroverov, T. A. Keith, R. Kobayashi, J. Normand, 
 K. Raghavachari, A. P. Rendell, J. C. Burant, S. S. Iyengar, 
 J. Tomasi, M. Cossi, J. M. Millam, M. Klene, C. Adamo, R. Cammi, 
 J. W. Ochterski, R. L. Martin, K. Morokuma, O. Farkas, 
 J. B. Foresman, and D. J. Fox, Gaussian, Inc., Wallingford CT, 2016.
 
 ******************************************
 Gaussian 16:  ES64L-G16RevA.03 25-Dec-2016
                12-Jul-2021 
 ******************************************
 %mem=800MB
 %nproc=4
 Will use up to    4 processors via shared memory.
 %chk=SET_328_BBB299_conf1.geo_195_180.chk
 ---------------------------------------------------------------
 #p b3lyp/6-31G(d) opt freq scrf=(iefpcm,read,solvent=n-octanol)
 ---------------------------------------------------------------
 1/18=20,19=15,26=3,38=1,40=2/1,3;
 2/9=110,12=2,17=6,18=5,40=1/2;
 3/5=1,6=6,7=1,11=2,25=1,30=1,70=2203,71=1,72=25,74=-5/1,2,3;
 4//1;
 5/5=2,38=5,53=25/2;
 6/7=2,8=2,9=2,10=2,28=1/1;
 7//1,2,3,16;
 1/18=20,19=15,26=3/3(2);
 2/9=110/2;
 99//99;
 2/9=110/2;
 3/5=1,6=6,7=1,11=2,25=1,30=1,70=2205,71=1,72=25,74=-5/1,2,3;
 4/5=5,16=3,69=1/1;
 5/5=2,38=5,53=25/2;
 7//1,2,3,16;
 1/18=20,19=15,26=3/3(-5);
 2/9=110/2;
 6/7=2,8=2,9=2,10=2,19=2,28=1/1;
 99/9=1/99;
 Leave Link    1 at Mon Jul 12 12:46:00 2021, MaxMem=   104857600 cpu:               0.0 elap:               0.0
 (Enter /dades/curu/g16A03_MST/g16/l101.exe)
 -----------------------------------------
 SET_328_BBB299_conf1.geo_195_180 geometry
 -----------------------------------------
 Symbolic Z-matrix:
 Charge = -1 Multiplicity = 1
 O                    -0.003    -1.919     2.169 
 C                    -0.678    -0.878     1.76 
 O                    -1.799    -0.815     2.116 
 C                    -0.208    -0.34      0.489 
 C                    -0.605     0.906     0.086 
 O                    -1.544     1.691     0.711 
 H                    -1.697     2.548     0.275 
 C                    -0.079     1.442    -1.059 
 H                    -0.46      2.395    -1.416 
 C                     0.907     0.747    -1.799 
 H                     1.35      1.09     -2.73 
 C                     1.334    -0.484    -1.344 
 H                     2.079    -1.012    -1.934 
 C                     0.82     -1.002    -0.174 
 H                     1.241    -1.945     0.166 
 
 ITRead=  0  0  0  0  0  0  0  0  0  0  0  0  0  0  0
 MicOpt= -1 -1 -1 -1 -1 -1 -1 -1 -1 -1 -1 -1 -1 -1 -1
 NAtoms=     15 NQM=       15 NQMF=       0 NMMI=      0 NMMIF=      0
                NMic=       0 NMicF=      0.
                    Isotopes and Nuclear Properties:
 (Nuclear quadrupole moments (NQMom) in fm**2, nuclear magnetic moments (NMagM)
  in nuclear magnetons)

  Atom         1           2           3           4           5           6           7           8           9          10
 IAtWgt=          16          12          16          12          12          16           1          12           1          12
 AtmWgt=  15.9949146  12.0000000  15.9949146  12.0000000  12.0000000  15.9949146   1.0078250  12.0000000   1.0078250  12.0000000
 NucSpn=           0           0           0           0           0           0           1           0           1           0
 AtZEff=  -0.0000000  -0.0000000  -0.0000000  -0.0000000  -0.0000000  -0.0000000  -0.0000000  -0.0000000  -0.0000000  -0.0000000
 NQMom=    0.0000000   0.0000000   0.0000000   0.0000000   0.0000000   0.0000000   0.0000000   0.0000000   0.0000000   0.0000000
 NMagM=    0.0000000   0.0000000   0.0000000   0.0000000   0.0000000   0.0000000   2.7928460   0.0000000   2.7928460   0.0000000
 AtZNuc=   8.0000000   6.0000000   8.0000000   6.0000000   6.0000000   8.0000000   1.0000000   6.0000000   1.0000000   6.0000000

  Atom        11          12          13          14          15
 IAtWgt=           1          12           1          12           1
 AtmWgt=   1.0078250  12.0000000   1.0078250  12.0000000   1.0078250
 NucSpn=           1           0           1           0           1
 AtZEff=  -0.0000000  -0.0000000  -0.0000000  -0.0000000  -0.0000000
 NQMom=    0.0000000   0.0000000   0.0000000   0.0000000   0.0000000
 NMagM=    2.7928460   0.0000000   2.7928460   0.0000000   2.7928460
 AtZNuc=   1.0000000   6.0000000   1.0000000   6.0000000   1.0000000
 Leave Link  101 at Mon Jul 12 12:46:00 2021, MaxMem=   104857600 cpu:               0.1 elap:               0.1
 (Enter /dades/curu/g16A03_MST/g16/l103.exe)

 GradGradGradGradGradGradGradGradGradGradGradGradGradGradGradGradGradGrad
 Berny optimization.
 Initialization pass.
                           ----------------------------
                           !    Initial Parameters    !
                           ! (Angstroms and Degrees)  !
 --------------------------                            --------------------------
 ! Name  Definition              Value          Derivative Info.                !
 --------------------------------------------------------------------------------
 ! R1    R(1,2)                  1.3064         estimate D2E/DX2                !
 ! R2    R(2,3)                  1.1779         estimate D2E/DX2                !
 ! R3    R(2,4)                  1.458          estimate D2E/DX2                !
 ! R4    R(4,5)                  1.3684         estimate D2E/DX2                !
 ! R5    R(4,14)                 1.3909         estimate D2E/DX2                !
 ! R6    R(5,6)                  1.3743         estimate D2E/DX2                !
 ! R7    R(5,8)                  1.3693         estimate D2E/DX2                !
 ! R8    R(6,7)                  0.9736         estimate D2E/DX2                !
 ! R9    R(8,9)                  1.0867         estimate D2E/DX2                !
 ! R10   R(8,10)                 1.4152         estimate D2E/DX2                !
 ! R11   R(10,11)                1.0866         estimate D2E/DX2                !
 ! R12   R(10,12)                1.3801         estimate D2E/DX2                !
 ! R13   R(12,13)                1.0872         estimate D2E/DX2                !
 ! R14   R(12,14)                1.3789         estimate D2E/DX2                !
 ! R15   R(14,15)                1.0872         estimate D2E/DX2                !
 ! A1    A(1,2,3)              116.0882         estimate D2E/DX2                !
 ! A2    A(1,2,4)              113.6035         estimate D2E/DX2                !
 ! A3    A(3,2,4)              123.4039         estimate D2E/DX2                !
 ! A4    A(2,4,5)              119.9469         estimate D2E/DX2                !
 ! A5    A(2,4,14)             118.5652         estimate D2E/DX2                !
 ! A6    A(5,4,14)             120.4921         estimate D2E/DX2                !
 ! A7    A(4,5,6)              125.7619         estimate D2E/DX2                !
 ! A8    A(4,5,8)              119.4221         estimate D2E/DX2                !
 ! A9    A(6,5,8)              114.7821         estimate D2E/DX2                !
 ! A10   A(5,6,7)              113.9856         estimate D2E/DX2                !
 ! A11   A(5,8,9)              118.9027         estimate D2E/DX2                !
 ! A12   A(5,8,10)             120.8396         estimate D2E/DX2                !
 ! A13   A(9,8,10)             120.2109         estimate D2E/DX2                !
 ! A14   A(8,10,11)            125.2433         estimate D2E/DX2                !
 ! A15   A(8,10,12)            118.7641         estimate D2E/DX2                !
 ! A16   A(11,10,12)           115.9699         estimate D2E/DX2                !
 ! A17   A(10,12,13)           117.7942         estimate D2E/DX2                !
 ! A18   A(10,12,14)           119.9651         estimate D2E/DX2                !
 ! A19   A(13,12,14)           122.2402         estimate D2E/DX2                !
 ! A20   A(4,14,12)            120.0765         estimate D2E/DX2                !
 ! A21   A(4,14,15)            123.3626         estimate D2E/DX2                !
 ! A22   A(12,14,15)           116.5398         estimate D2E/DX2                !
 ! D1    D(1,2,4,5)           -165.2454         estimate D2E/DX2                !
 ! D2    D(1,2,4,14)             3.3988         estimate D2E/DX2                !
 ! D3    D(3,2,4,5)             45.0958         estimate D2E/DX2                !
 ! D4    D(3,2,4,14)          -146.26           estimate D2E/DX2                !
 ! D5    D(2,4,5,6)             -7.127          estimate D2E/DX2                !
 ! D6    D(2,4,5,8)            175.1074         estimate D2E/DX2                !
 ! D7    D(14,4,5,6)          -175.5498         estimate D2E/DX2                !
 ! D8    D(14,4,5,8)             6.6846         estimate D2E/DX2                !
 ! D9    D(2,4,14,12)         -176.7605         estimate D2E/DX2                !
 ! D10   D(2,4,14,15)            4.9671         estimate D2E/DX2                !
 ! D11   D(5,4,14,12)           -8.1802         estimate D2E/DX2                !
 ! D12   D(5,4,14,15)          173.5474         estimate D2E/DX2                !
 ! D13   D(4,5,6,7)           -179.7955         estimate D2E/DX2                !
 ! D14   D(8,5,6,7)             -1.9391         estimate D2E/DX2                !
 ! D15   D(4,5,8,9)            174.9752         estimate D2E/DX2                !
 ! D16   D(4,5,8,10)            -2.5434         estimate D2E/DX2                !
 ! D17   D(6,5,8,9)             -3.0279         estimate D2E/DX2                !
 ! D18   D(6,5,8,10)           179.4535         estimate D2E/DX2                !
 ! D19   D(5,8,10,11)          178.0436         estimate D2E/DX2                !
 ! D20   D(5,8,10,12)           -0.1524         estimate D2E/DX2                !
 ! D21   D(9,8,10,11)            0.5573         estimate D2E/DX2                !
 ! D22   D(9,8,10,12)         -177.6386         estimate D2E/DX2                !
 ! D23   D(8,10,12,13)         178.9384         estimate D2E/DX2                !
 ! D24   D(8,10,12,14)          -1.2904         estimate D2E/DX2                !
 ! D25   D(11,10,12,13)          0.5772         estimate D2E/DX2                !
 ! D26   D(11,10,12,14)       -179.6516         estimate D2E/DX2                !
 ! D27   D(10,12,14,4)           5.396          estimate D2E/DX2                !
 ! D28   D(10,12,14,15)       -176.2168         estimate D2E/DX2                !
 ! D29   D(13,12,14,4)        -174.8434         estimate D2E/DX2                !
 ! D30   D(13,12,14,15)          3.5438         estimate D2E/DX2                !
 --------------------------------------------------------------------------------
 Trust Radius=3.00D-01 FncErr=1.00D-07 GrdErr=1.00D-06 EigMax=2.50D+02 EigMin=1.00D-04
 Number of steps in this run=     77 maximum allowed number of steps=    100.
 GradGradGradGradGradGradGradGradGradGradGradGradGradGradGradGradGradGrad

 Leave Link  103 at Mon Jul 12 12:46:00 2021, MaxMem=   104857600 cpu:               0.0 elap:               0.0
 (Enter /dades/curu/g16A03_MST/g16/l202.exe)
                          Input orientation:                          
 ---------------------------------------------------------------------
 Center     Atomic      Atomic             Coordinates (Angstroms)
 Number     Number       Type             X           Y           Z
 ---------------------------------------------------------------------
      1          8           0       -0.003000   -1.919000    2.169000
      2          6           0       -0.678000   -0.878000    1.760000
      3          8           0       -1.799000   -0.815000    2.116000
      4          6           0       -0.208000   -0.340000    0.489000
      5          6           0       -0.605000    0.906000    0.086000
      6          8           0       -1.544000    1.691000    0.711000
      7          1           0       -1.697000    2.548000    0.275000
      8          6           0       -0.079000    1.442000   -1.059000
      9          1           0       -0.460000    2.395000   -1.416000
     10          6           0        0.907000    0.747000   -1.799000
     11          1           0        1.350000    1.090000   -2.730000
     12          6           0        1.334000   -0.484000   -1.344000
     13          1           0        2.079000   -1.012000   -1.934000
     14          6           0        0.820000   -1.002000   -0.174000
     15          1           0        1.241000   -1.945000    0.166000
 ---------------------------------------------------------------------
                    Distance matrix (angstroms):
                    1          2          3          4          5
     1  O    0.000000
     2  C    1.306364   0.000000
     3  O    2.108848   1.177857   0.000000
     4  C    2.314663   1.458007   2.324658   0.000000
     5  C    3.561168   2.447501   2.916912   1.368406   0.000000
     6  O    4.187188   2.906909   2.884283   2.441135   1.374253
     7  H    5.139160   3.870538   3.835291   3.256296   1.980997
     8  C    4.660695   3.699725   4.258295   2.363994   1.369305
     9  H    5.627759   4.565855   4.957020   3.342567   2.119941
    10  C    4.866280   4.221295   5.008943   2.767623   2.421704
    11  H    5.906343   5.305272   6.085141   3.851522   3.433036
    12  C    4.023427   3.719973   4.679407   2.399664   2.781496
    13  H    4.689561   4.611360   5.610721   3.398953   3.868201
    14  C    2.647238   2.449436   3.483996   1.390898   2.395556
    15  H    2.358012   2.713280   3.784310   2.186311   3.397399
                    6          7          8          9         10
     6  O    0.000000
     7  H    0.973629   0.000000
     8  C    2.311088   2.370805   0.000000
     9  H    2.488936   2.100728   1.086655   0.000000
    10  C    3.632993   3.784956   1.415211   2.175151   0.000000
    11  H    4.536179   4.521062   2.226698   2.589541   1.086581
    12  C    4.151690   4.582701   2.405675   3.392972   1.380114
    13  H    5.237209   5.640165   3.383002   4.280478   2.117992
    14  C    3.691066   4.374859   2.750375   3.836740   2.388974
    15  H    4.612347   5.369430   3.835987   4.922573   3.349574
                   11         12         13         14         15
    11  H    0.000000
    12  C    2.097314   0.000000
    13  H    2.362935   1.087156   0.000000
    14  C    3.345220   1.378920   2.163973   0.000000
    15  H    4.196418   2.103157   2.445963   1.087240   0.000000
 Stoichiometry    C7H5O3(1-)
 Framework group  C1[X(C7H5O3)]
 Deg. of freedom    39
 Full point group                 C1      NOp   1
 Largest Abelian subgroup         C1      NOp   1
 Largest concise Abelian subgroup C1      NOp   1
                         Standard orientation:                         
 ---------------------------------------------------------------------
 Center     Atomic      Atomic             Coordinates (Angstroms)
 Number     Number       Type             X           Y           Z
 ---------------------------------------------------------------------
      1          8           0        2.266848   -1.341068   -0.294115
      2          6           0        1.724803   -0.168074   -0.102130
      3          8           0        2.403512    0.635719    0.427603
      4          6           0        0.274088   -0.211059    0.037020
      5          6           0       -0.455945    0.942259   -0.060164
      6          8           0        0.058640    2.213506   -0.147941
      7          1           0       -0.617934    2.911155   -0.206989
      8          6           0       -1.823355    0.877464   -0.028719
      9          1           0       -2.393011    1.802818   -0.023271
     10          6           0       -2.488999   -0.369012    0.048973
     11          1           0       -3.565754   -0.502195    0.108295
     12          6           0       -1.734084   -1.523644    0.089516
     13          1           0       -2.261043   -2.471396    0.166911
     14          6           0       -0.358551   -1.449716    0.027353
     15          1           0        0.177992   -2.394936   -0.000408
 ---------------------------------------------------------------------
 Rotational constants (GHZ):           2.3166785           1.2817299           0.8390617
 Leave Link  202 at Mon Jul 12 12:46:00 2021, MaxMem=   104857600 cpu:               0.0 elap:               0.0
 (Enter /dades/curu/g16A03_MST/g16/l301.exe)
 Standard basis: 6-31G(d) (6D, 7F)
 Ernie: Thresh=  0.10000D-02 Tol=  0.10000D-05 Strict=F.
 There are   160 symmetry adapted cartesian basis functions of A   symmetry.
 There are   160 symmetry adapted basis functions of A   symmetry.
   160 basis functions,   300 primitive gaussians,   160 cartesian basis functions
    36 alpha electrons       36 beta electrons
       nuclear repulsion energy       492.2316233371 Hartrees.
 IExCor=  402 DFT=T Ex+Corr=B3LYP ExCW=0 ScaHFX=  0.200000
 ScaDFX=  0.800000  0.720000  1.000000  0.810000 ScalE2=  1.000000  1.000000
 IRadAn=      5 IRanWt=     -1 IRanGd=            0 ICorTp=0 IEmpDi=  4
 NAtoms=   15 NActive=   15 NUniq=   15 SFac= 1.00D+00 NAtFMM=   60 NAOKFM=F Big=F
 Integral buffers will be    131072 words long.
 Raffenetti 2 integral format.
 Two-electron integral symmetry is turned on.
 Using the following non-standard input for PCM:
 MSTModel=DFT cav MSTCharged
 --- end of non-standard input.
 MST model for solvation energy: B3LYP parametrization.
 MST cavity parameters:
 ISph   IAn     Re0     Alpha   Atom Type   QCorr
 ------------------------------------------------
   1      8     1.40     1.15      O          T
   2      6     1.50     1.15      C          T
   3      8     1.40     1.15      O          T
   4      6     1.50     1.50      C          F
   5      6     1.50     1.50      C          F
   6      8     1.40     1.50      OH         F
   7      1     0.90     1.50      OH         F
   8      6     1.50     1.50      CH         F
   9      1     1.20     1.50      CH         F
  10      6     1.50     1.50      CH         F
  11      1     1.20     1.50      CH         F
  12      6     1.50     1.50      CH         F
  13      1     1.20     1.50      CH         F
  14      6     1.50     1.50      CH         F
  15      1     1.20     1.50      CH         F
 ------------------------------------------------------------------------------
 Polarizable Continuum Model (PCM)
 =================================
 Model                : PCM.
 Atomic radii         : MST.
 Polarization charges : Total charges.
 Charge compensation  : None.
 Solution method      : On-the-fly selection.
 Cavity type          : Scaled VdW (van der Waals Surface) (Alpha=1.500).
 Cavity algorithm     : GePol (No added spheres)
                        Default sphere list used, NSphG=   15.
                        Lebedev-Laikov grids with approx.  5.0 points / Ang**2.
                        Smoothing algorithm: York/Karplus (Gamma=1.0000).
                        Polarization charges: spherical gaussians, with
                                              point-specific exponents (IZeta= 3).
                        Self-potential: point-specific (ISelfS= 7).
                        Self-field    : sphere-specific E.n sum rule (ISelfD= 2).
 1st derivatives      : Analytical E(r).r(x)/FMM algorithm (CHGder, D1EAlg=3).
                        Cavity 1st derivative terms included.
 Solvent              : n-Octanol, Eps=   9.862900 Eps(inf)=   2.043470
 ------------------------------------------------------------------------------
 Spheres list:
 ISph  on   Nord     Re0    Alpha      Xe            Ye            Ze
    1   O      1    1.4000  1.150      2.266848     -1.341068     -0.294115
    2   C      2    1.5000  1.150      1.724803     -0.168074     -0.102130
    3   O      3    1.4000  1.150      2.403512      0.635719      0.427603
    4   C      4    1.5000  1.500      0.274088     -0.211059      0.037020
    5   C      5    1.5000  1.500     -0.455945      0.942259     -0.060164
    6   O      6    1.4000  1.500      0.058640      2.213506     -0.147941
    7   H      7    0.9000  1.500     -0.617934      2.911155     -0.206989
    8   C      8    1.5000  1.500     -1.823355      0.877464     -0.028719
    9   H      9    1.2000  1.500     -2.393011      1.802818     -0.023271
   10   C     10    1.5000  1.500     -2.488999     -0.369012      0.048973
   11   H     11    1.2000  1.500     -3.565754     -0.502195      0.108295
   12   C     12    1.5000  1.500     -1.734084     -1.523644      0.089516
   13   H     13    1.2000  1.500     -2.261043     -2.471396      0.166911
   14   C     14    1.5000  1.500     -0.358551     -1.449716      0.027353
   15   H     15    1.2000  1.500      0.177992     -2.394936     -0.000408
 ------------------------------------------------------------------------------
 GePol: Number of generator spheres                  =      15
 GePol: Total number of spheres                      =      15
 GePol: Number of exposed spheres                    =      15 (100.00%)
 GePol: Number of points                             =    1595
 GePol: Average weight of points                     =       0.12
 GePol: Minimum weight of points                     =   0.17D-08
 GePol: Maximum weight of points                     =    0.21182
 GePol: Number of points with low weight             =      92
 GePol: Fraction of low-weight points (<1% of avg)   =       5.77%
 GePol: Cavity surface area                          =    184.209 Ang**2
 GePol: Cavity volume                                =    187.084 Ang**3
 Surface areas from nonelectrostatic (unscaled) cavity and vdw tensions:
 Sphere =    1 Type =  O   Surf =       15.669 Tension =       -0.185
 Sphere =    2 Type =  C   Surf =        7.075 Tension =       -0.205
 Sphere =    3 Type =  O   Surf =       16.104 Tension =       -0.185
 Sphere =    4 Type =  C   Surf =        6.041 Tension =       -0.205
 Sphere =    5 Type =  C   Surf =        6.537 Tension =       -0.205
 Sphere =    6 Type =  OH  Surf =       14.286 Tension =       -0.238
 Sphere =    7 Type =  OH  Surf =        4.427 Tension =       -0.238
 Sphere =    8 Type =  CH  Surf =        7.611 Tension =       -0.195
 Sphere =    9 Type =  CH  Surf =       10.101 Tension =       -0.195
 Sphere =   10 Type =  CH  Surf =        7.861 Tension =       -0.195
 Sphere =   11 Type =  CH  Surf =       10.219 Tension =       -0.195
 Sphere =   12 Type =  CH  Surf =        7.631 Tension =       -0.195
 Sphere =   13 Type =  CH  Surf =       10.216 Tension =       -0.195
 Sphere =   14 Type =  CH  Surf =        7.389 Tension =       -0.195
 Sphere =   15 Type =  CH  Surf =        9.521 Tension =       -0.195
 PCM non-electrostatic energy =        -0.0087707219 Hartrees.
 Nuclear repulsion after PCM non-electrostatic terms =      492.2228526152 Hartrees.
 Leave Link  301 at Mon Jul 12 12:46:00 2021, MaxMem=   104857600 cpu:               0.1 elap:               0.1
 (Enter /dades/curu/g16A03_MST/g16/l302.exe)
 NPDir=0 NMtPBC=     1 NCelOv=     1 NCel=       1 NClECP=     1 NCelD=      1
         NCelK=      1 NCelE2=     1 NClLst=     1 CellRange=     0.0.
 One-electron integrals computed using PRISM.
 One-electron integral symmetry used in STVInt
 NBasis=   160 RedAO= T EigKep=  4.16D-04  NBF=   160
 NBsUse=   160 1.00D-06 EigRej= -1.00D+00 NBFU=   160
 Precomputing XC quadrature grid using
 IXCGrd= 4 IRadAn=           5 IRanWt=          -1 IRanGd=           0 AccXCQ= 0.00D+00.
 Generated NRdTot=       0 NPtTot=           0 NUsed=           0 NTot=          32
 NSgBfM=   160   160   160   160   160 MxSgAt=    15 MxSgA2=    15.
 Leave Link  302 at Mon Jul 12 12:46:00 2021, MaxMem=   104857600 cpu:               0.8 elap:               0.2
 (Enter /dades/curu/g16A03_MST/g16/l303.exe)
 DipDrv:  MaxL=1.
 Leave Link  303 at Mon Jul 12 12:46:00 2021, MaxMem=   104857600 cpu:               0.1 elap:               0.0
 (Enter /dades/curu/g16A03_MST/g16/l401.exe)
 ExpMin= 1.61D-01 ExpMax= 5.48D+03 ExpMxC= 8.25D+02 IAcc=3 IRadAn=         5 AccDes= 0.00D+00
 Harris functional with IExCor=  402 and IRadAn=       5 diagonalized for initial guess.
 HarFok:  IExCor=  402 AccDes= 0.00D+00 IRadAn=         5 IDoV= 1 UseB2=F ITyADJ=14
 ICtDFT=  3500011 ScaDFX=  1.000000  1.000000  1.000000  1.000000
 FoFCou: FMM=F IPFlag=           0 FMFlag=      100000 FMFlg1=           0
         NFxFlg=           0 DoJE=T BraDBF=F KetDBF=T FulRan=T
         wScrn=  0.000000 ICntrl=       500 IOpCl=  0 I1Cent=   200000004 NGrid=           0
         NMat0=    1 NMatS0=      1 NMatT0=    0 NMatD0=    1 NMtDS0=    0 NMtDT0=    0
 Petite list used in FoFCou.
 Harris En= -495.665883564561    
 JPrj=0 DoOrth=F DoCkMO=F.
 Leave Link  401 at Mon Jul 12 12:46:02 2021, MaxMem=   104857600 cpu:               7.3 elap:               1.8
 (Enter /dades/curu/g16A03_MST/g16/l502.exe)
 Keep R1 ints in memory in canonical form, NReq=86904867.
 FoFCou: FMM=F IPFlag=           0 FMFlag=           0 FMFlg1=           0
         NFxFlg=           0 DoJE=F BraDBF=F KetDBF=F FulRan=T
         wScrn=  0.000000 ICntrl=       600 IOpCl=  0 I1Cent=           0 NGrid=           0
         NMat0=    1 NMatS0=  12880 NMatT0=    0 NMatD0=    1 NMtDS0=    0 NMtDT0=    0
 Symmetry not used in FoFCou.
 Two-electron integral symmetry not used.
 Closed shell SCF:
 Using DIIS extrapolation, IDIIS=  1040.
 NGot=   104857600 LenX=    21850023 LenY=    21823982
 Requested convergence on RMS density matrix=1.00D-08 within 128 cycles.
 Requested convergence on MAX density matrix=1.00D-06.
 Requested convergence on             energy=1.00D-06.
 No special actions if energy rises.

 Cycle   1  Pass 1  IDiag  1:
 Inv3:  Mode=1 IEnd=     7632075.
 Iteration    1 A*A^-1 deviation from unit magnitude is 5.44D-15 for    366.
 Iteration    1 A*A^-1 deviation from orthogonality  is 2.95D-15 for   1572    261.
 Iteration    1 A^-1*A deviation from unit magnitude is 5.33D-15 for    772.
 Iteration    1 A^-1*A deviation from orthogonality  is 2.02D-15 for   1591   1523.
 E= -495.206377801864    
 DIIS: error= 3.20D-02 at cycle   1 NSaved=   1.
 NSaved= 1 IEnMin= 1 EnMin= -495.206377801864     IErMin= 1 ErrMin= 3.20D-02
 ErrMax= 3.20D-02  0.00D+00 EMaxC= 1.00D-01 BMatC= 3.68D-01 BMatP= 3.68D-01
 IDIUse=3 WtCom= 6.80D-01 WtEn= 3.20D-01
 Coeff-Com:  0.100D+01
 Coeff-En:   0.100D+01
 Coeff:      0.100D+01
 Gap=     0.212 Goal=   None    Shift=    0.000
 GapD=    0.212 DampG=1.000 DampE=0.500 DampFc=0.5000 IDamp=-1.
 Damping current iteration by 5.00D-01
 RMSDP=1.02D-02 MaxDP=2.36D-01              OVMax= 1.97D-01

 Cycle   2  Pass 1  IDiag  1:
 E= -495.337338696619     Delta-E=       -0.130960894755 Rises=F Damp=T
 DIIS: error= 8.33D-03 at cycle   2 NSaved=   2.
 NSaved= 2 IEnMin= 2 EnMin= -495.337338696619     IErMin= 2 ErrMin= 8.33D-03
 ErrMax= 8.33D-03  0.00D+00 EMaxC= 1.00D-01 BMatC= 2.53D-02 BMatP= 3.68D-01
 IDIUse=3 WtCom= 9.17D-01 WtEn= 8.33D-02
 Coeff-Com:  0.117D+00 0.883D+00
 Coeff-En:   0.166D+00 0.834D+00
 Coeff:      0.121D+00 0.879D+00
 Gap=     0.176 Goal=   None    Shift=    0.000
 RMSDP=2.45D-03 MaxDP=7.50D-02 DE=-1.31D-01 OVMax= 1.45D-01

 Cycle   3  Pass 1  IDiag  1:
 E= -495.503518690134     Delta-E=       -0.166179993515 Rises=F Damp=F
 DIIS: error= 8.14D-03 at cycle   3 NSaved=   3.
 NSaved= 3 IEnMin= 3 EnMin= -495.503518690134     IErMin= 3 ErrMin= 8.14D-03
 ErrMax= 8.14D-03  0.00D+00 EMaxC= 1.00D-01 BMatC= 1.99D-02 BMatP= 2.53D-02
 IDIUse=3 WtCom= 9.19D-01 WtEn= 8.14D-02
 Coeff-Com:  0.208D-01 0.467D+00 0.512D+00
 Coeff-En:   0.000D+00 0.000D+00 0.100D+01
 Coeff:      0.191D-01 0.429D+00 0.552D+00
 Gap=     0.161 Goal=   None    Shift=    0.000
 RMSDP=1.34D-03 MaxDP=3.42D-02 DE=-1.66D-01 OVMax= 5.71D-02

 Cycle   4  Pass 1  IDiag  1:
 E= -495.517677455877     Delta-E=       -0.014158765743 Rises=F Damp=F
 DIIS: error= 3.87D-03 at cycle   4 NSaved=   4.
 NSaved= 4 IEnMin= 4 EnMin= -495.517677455877     IErMin= 4 ErrMin= 3.87D-03
 ErrMax= 3.87D-03  0.00D+00 EMaxC= 1.00D-01 BMatC= 4.13D-03 BMatP= 1.99D-02
 IDIUse=3 WtCom= 9.61D-01 WtEn= 3.87D-02
 Coeff-Com:  0.162D-02 0.109D+00 0.326D+00 0.563D+00
 Coeff-En:   0.000D+00 0.000D+00 0.177D+00 0.823D+00
 Coeff:      0.156D-02 0.105D+00 0.320D+00 0.573D+00
 Gap=     0.162 Goal=   None    Shift=    0.000
 RMSDP=5.26D-04 MaxDP=1.49D-02 DE=-1.42D-02 OVMax= 2.93D-02

 Cycle   5  Pass 1  IDiag  1:
 E= -495.520651933928     Delta-E=       -0.002974478051 Rises=F Damp=F
 DIIS: error= 2.20D-03 at cycle   5 NSaved=   5.
 NSaved= 5 IEnMin= 5 EnMin= -495.520651933928     IErMin= 5 ErrMin= 2.20D-03
 ErrMax= 2.20D-03  0.00D+00 EMaxC= 1.00D-01 BMatC= 6.27D-04 BMatP= 4.13D-03
 IDIUse=3 WtCom= 9.78D-01 WtEn= 2.20D-02
 Coeff-Com:  0.711D-04 0.146D-01 0.148D+00 0.375D+00 0.462D+00
 Coeff-En:   0.000D+00 0.000D+00 0.000D+00 0.855D-01 0.914D+00
 Coeff:      0.696D-04 0.143D-01 0.144D+00 0.369D+00 0.472D+00
 Gap=     0.161 Goal=   None    Shift=    0.000
 RMSDP=1.62D-04 MaxDP=5.46D-03 DE=-2.97D-03 OVMax= 9.09D-03

 Cycle   6  Pass 1  IDiag  1:
 E= -495.521116070438     Delta-E=       -0.000464136510 Rises=F Damp=F
 DIIS: error= 2.95D-04 at cycle   6 NSaved=   6.
 NSaved= 6 IEnMin= 6 EnMin= -495.521116070438     IErMin= 6 ErrMin= 2.95D-04
 ErrMax= 2.95D-04  0.00D+00 EMaxC= 1.00D-01 BMatC= 2.24D-05 BMatP= 6.27D-04
 IDIUse=3 WtCom= 9.97D-01 WtEn= 2.95D-03
 Coeff-Com: -0.787D-04 0.170D-03 0.488D-01 0.142D+00 0.239D+00 0.570D+00
 Coeff-En:   0.000D+00 0.000D+00 0.000D+00 0.000D+00 0.000D+00 0.100D+01
 Coeff:     -0.784D-04 0.170D-03 0.487D-01 0.142D+00 0.238D+00 0.571D+00
 Gap=     0.161 Goal=   None    Shift=    0.000
 RMSDP=3.73D-05 MaxDP=1.00D-03 DE=-4.64D-04 OVMax= 1.53D-03

 Cycle   7  Pass 1  IDiag  1:
 E= -495.521132644631     Delta-E=       -0.000016574193 Rises=F Damp=F
 DIIS: error= 8.39D-05 at cycle   7 NSaved=   7.
 NSaved= 7 IEnMin= 7 EnMin= -495.521132644631     IErMin= 7 ErrMin= 8.39D-05
 ErrMax= 8.39D-05  0.00D+00 EMaxC= 1.00D-01 BMatC= 2.46D-06 BMatP= 2.24D-05
 IDIUse=1 WtCom= 1.00D+00 WtEn= 0.00D+00
 Coeff-Com: -0.325D-05-0.107D-02 0.165D-01 0.520D-01 0.995D-01 0.323D+00
 Coeff-Com:  0.510D+00
 Coeff:     -0.325D-05-0.107D-02 0.165D-01 0.520D-01 0.995D-01 0.323D+00
 Coeff:      0.510D+00
 Gap=     0.161 Goal=   None    Shift=    0.000
 RMSDP=1.13D-05 MaxDP=3.87D-04 DE=-1.66D-05 OVMax= 7.02D-04

 Cycle   8  Pass 1  IDiag  1:
 E= -495.521134990137     Delta-E=       -0.000002345507 Rises=F Damp=F
 DIIS: error= 1.89D-05 at cycle   8 NSaved=   8.
 NSaved= 8 IEnMin= 8 EnMin= -495.521134990137     IErMin= 8 ErrMin= 1.89D-05
 ErrMax= 1.89D-05  0.00D+00 EMaxC= 1.00D-01 BMatC= 1.21D-07 BMatP= 2.46D-06
 IDIUse=1 WtCom= 1.00D+00 WtEn= 0.00D+00
 Coeff-Com:  0.149D-04-0.557D-03 0.403D-02 0.138D-01 0.290D-01 0.109D+00
 Coeff-Com:  0.247D+00 0.598D+00
 Coeff:      0.149D-04-0.557D-03 0.403D-02 0.138D-01 0.290D-01 0.109D+00
 Coeff:      0.247D+00 0.598D+00
 Gap=     0.161 Goal=   None    Shift=    0.000
 RMSDP=3.27D-06 MaxDP=7.79D-05 DE=-2.35D-06 OVMax= 1.41D-04

 Cycle   9  Pass 1  IDiag  1:
 E= -495.521135108208     Delta-E=       -0.000000118071 Rises=F Damp=F
 DIIS: error= 5.22D-06 at cycle   9 NSaved=   9.
 NSaved= 9 IEnMin= 9 EnMin= -495.521135108208     IErMin= 9 ErrMin= 5.22D-06
 ErrMax= 5.22D-06  0.00D+00 EMaxC= 1.00D-01 BMatC= 1.17D-08 BMatP= 1.21D-07
 IDIUse=1 WtCom= 1.00D+00 WtEn= 0.00D+00
 Coeff-Com:  0.121D-04-0.120D-03-0.393D-03-0.783D-03-0.423D-03 0.469D-02
 Coeff-Com:  0.446D-01 0.276D+00 0.677D+00
 Coeff:      0.121D-04-0.120D-03-0.393D-03-0.783D-03-0.423D-03 0.469D-02
 Coeff:      0.446D-01 0.276D+00 0.677D+00
 Gap=     0.161 Goal=   None    Shift=    0.000
 RMSDP=8.65D-07 MaxDP=1.90D-05 DE=-1.18D-07 OVMax= 4.64D-05

 Cycle  10  Pass 1  IDiag  1:
 E= -495.521135119801     Delta-E=       -0.000000011593 Rises=F Damp=F
 DIIS: error= 1.63D-06 at cycle  10 NSaved=  10.
 NSaved=10 IEnMin=10 EnMin= -495.521135119801     IErMin=10 ErrMin= 1.63D-06
 ErrMax= 1.63D-06  0.00D+00 EMaxC= 1.00D-01 BMatC= 8.70D-10 BMatP= 1.17D-08
 IDIUse=1 WtCom= 1.00D+00 WtEn= 0.00D+00
 Coeff-Com:  0.493D-05-0.283D-04-0.342D-03-0.917D-03-0.151D-02-0.265D-02
 Coeff-Com:  0.953D-02 0.971D-01 0.311D+00 0.587D+00
 Coeff:      0.493D-05-0.283D-04-0.342D-03-0.917D-03-0.151D-02-0.265D-02
 Coeff:      0.953D-02 0.971D-01 0.311D+00 0.587D+00
 Gap=     0.161 Goal=   None    Shift=    0.000
 RMSDP=2.65D-07 MaxDP=5.65D-06 DE=-1.16D-08 OVMax= 1.20D-05

 Cycle  11  Pass 1  IDiag  1:
 E= -495.521135120596     Delta-E=       -0.000000000795 Rises=F Damp=F
 DIIS: error= 7.04D-07 at cycle  11 NSaved=  11.
 NSaved=11 IEnMin=11 EnMin= -495.521135120596     IErMin=11 ErrMin= 7.04D-07
 ErrMax= 7.04D-07  0.00D+00 EMaxC= 1.00D-01 BMatC= 1.13D-10 BMatP= 8.70D-10
 IDIUse=1 WtCom= 1.00D+00 WtEn= 0.00D+00
 Coeff-Com:  0.222D-06 0.504D-05-0.119D-03-0.352D-03-0.759D-03-0.202D-02
 Coeff-Com: -0.154D-02 0.783D-02 0.538D-01 0.285D+00 0.658D+00
 Coeff:      0.222D-06 0.504D-05-0.119D-03-0.352D-03-0.759D-03-0.202D-02
 Coeff:     -0.154D-02 0.783D-02 0.538D-01 0.285D+00 0.658D+00
 Gap=     0.161 Goal=   None    Shift=    0.000
 RMSDP=9.74D-08 MaxDP=1.79D-06 DE=-7.95D-10 OVMax= 5.99D-06

 Cycle  12  Pass 1  IDiag  1:
 E= -495.521135120724     Delta-E=       -0.000000000128 Rises=F Damp=F
 DIIS: error= 1.78D-07 at cycle  12 NSaved=  12.
 NSaved=12 IEnMin=12 EnMin= -495.521135120724     IErMin=12 ErrMin= 1.78D-07
 ErrMax= 1.78D-07  0.00D+00 EMaxC= 1.00D-01 BMatC= 8.44D-12 BMatP= 1.13D-10
 IDIUse=1 WtCom= 1.00D+00 WtEn= 0.00D+00
 Coeff-Com: -0.332D-06 0.391D-05-0.256D-04-0.757D-04-0.219D-03-0.639D-03
 Coeff-Com: -0.129D-02-0.369D-02-0.118D-02 0.825D-01 0.288D+00 0.636D+00
 Coeff:     -0.332D-06 0.391D-05-0.256D-04-0.757D-04-0.219D-03-0.639D-03
 Coeff:     -0.129D-02-0.369D-02-0.118D-02 0.825D-01 0.288D+00 0.636D+00
 Gap=     0.161 Goal=   None    Shift=    0.000
 RMSDP=2.97D-08 MaxDP=5.43D-07 DE=-1.28D-10 OVMax= 1.89D-06

 Cycle  13  Pass 1  IDiag  1:
 E= -495.521135120725     Delta-E=       -0.000000000001 Rises=F Damp=F
 DIIS: error= 8.92D-08 at cycle  13 NSaved=  13.
 NSaved=13 IEnMin=13 EnMin= -495.521135120725     IErMin=13 ErrMin= 8.92D-08
 ErrMax= 8.92D-08  0.00D+00 EMaxC= 1.00D-01 BMatC= 1.95D-12 BMatP= 8.44D-12
 IDIUse=1 WtCom= 1.00D+00 WtEn= 0.00D+00
 Coeff-Com: -0.273D-06 0.129D-05 0.830D-05 0.252D-04 0.182D-04 0.171D-04
 Coeff-Com: -0.474D-03-0.373D-02-0.118D-01-0.106D-01 0.309D-01 0.357D+00
 Coeff-Com:  0.638D+00
 Coeff:     -0.273D-06 0.129D-05 0.830D-05 0.252D-04 0.182D-04 0.171D-04
 Coeff:     -0.474D-03-0.373D-02-0.118D-01-0.106D-01 0.309D-01 0.357D+00
 Coeff:      0.638D+00
 Gap=     0.161 Goal=   None    Shift=    0.000
 RMSDP=1.40D-08 MaxDP=2.33D-07 DE=-1.19D-12 OVMax= 9.64D-07

 Cycle  14  Pass 1  IDiag  1:
 E= -495.521135120735     Delta-E=       -0.000000000009 Rises=F Damp=F
 DIIS: error= 1.13D-08 at cycle  14 NSaved=  14.
 NSaved=14 IEnMin=14 EnMin= -495.521135120735     IErMin=14 ErrMin= 1.13D-08
 ErrMax= 1.13D-08  0.00D+00 EMaxC= 1.00D-01 BMatC= 4.52D-14 BMatP= 1.95D-12
 IDIUse=1 WtCom= 1.00D+00 WtEn= 0.00D+00
 Coeff-Com: -0.499D-07 0.126D-06 0.386D-05 0.114D-04 0.193D-04 0.422D-04
 Coeff-Com: -0.487D-04-0.758D-03-0.315D-02-0.912D-02-0.111D-01 0.563D-01
 Coeff-Com:  0.175D+00 0.792D+00
 Coeff:     -0.499D-07 0.126D-06 0.386D-05 0.114D-04 0.193D-04 0.422D-04
 Coeff:     -0.487D-04-0.758D-03-0.315D-02-0.912D-02-0.111D-01 0.563D-01
 Coeff:      0.175D+00 0.792D+00
 Gap=     0.161 Goal=   None    Shift=    0.000
 RMSDP=3.54D-09 MaxDP=6.01D-08 DE=-9.44D-12 OVMax= 2.57D-07

 Error on total polarization charges =  0.00634
 SCF Done:  E(RB3LYP) =  -495.521135121     A.U. after   14 cycles
            NFock= 14  Conv=0.35D-08     -V/T= 2.0076
 KE= 4.917985599446D+02 PE=-2.157331815516D+03 EE= 6.777892678357D+02
 Leave Link  502 at Mon Jul 12 12:46:47 2021, MaxMem=   104857600 cpu:             168.6 elap:              44.8
 (Enter /dades/curu/g16A03_MST/g16/l601.exe)
 Copying SCF densities to generalized density rwf, IOpCl= 0 IROHF=0.

 **********************************************************************

            Population analysis using the SCF density.

 **********************************************************************

 Orbital symmetries:
       Occupied  (A) (A) (A) (A) (A) (A) (A) (A) (A) (A) (A) (A)
                 (A) (A) (A) (A) (A) (A) (A) (A) (A) (A) (A) (A)
                 (A) (A) (A) (A) (A) (A) (A) (A) (A) (A) (A) (A)
       Virtual   (A) (A) (A) (A) (A) (A) (A) (A) (A) (A) (A) (A)
                 (A) (A) (A) (A) (A) (A) (A) (A) (A) (A) (A) (A)
                 (A) (A) (A) (A) (A) (A) (A) (A) (A) (A) (A) (A)
                 (A) (A) (A) (A) (A) (A) (A) (A) (A) (A) (A) (A)
                 (A) (A) (A) (A) (A) (A) (A) (A) (A) (A) (A) (A)
                 (A) (A) (A) (A) (A) (A) (A) (A) (A) (A) (A) (A)
                 (A) (A) (A) (A) (A) (A) (A) (A) (A) (A) (A) (A)
                 (A) (A) (A) (A) (A) (A) (A) (A) (A) (A) (A) (A)
                 (A) (A) (A) (A) (A) (A) (A) (A) (A) (A) (A) (A)
                 (A) (A) (A) (A) (A) (A) (A) (A) (A) (A) (A) (A)
                 (A) (A) (A) (A)
 The electronic state is 1-A.
 Alpha  occ. eigenvalues --  -19.15202 -19.04172 -19.01191 -10.22545 -10.21587
 Alpha  occ. eigenvalues --  -10.17452 -10.16792 -10.16428 -10.15981 -10.15792
 Alpha  occ. eigenvalues --   -1.03233  -1.00378  -0.86451  -0.83427  -0.73444
 Alpha  occ. eigenvalues --   -0.72241  -0.61046  -0.59274  -0.52946  -0.50233
 Alpha  occ. eigenvalues --   -0.45318  -0.44290  -0.41135  -0.39913  -0.39641
 Alpha  occ. eigenvalues --   -0.36899  -0.35531  -0.34928  -0.32805  -0.32309
 Alpha  occ. eigenvalues --   -0.31349  -0.22875  -0.20905  -0.20115  -0.18933
 Alpha  occ. eigenvalues --   -0.15905
 Alpha virt. eigenvalues --    0.00209   0.03556   0.09392   0.10585   0.11973
 Alpha virt. eigenvalues --    0.16983   0.18367   0.20779   0.21782   0.26609
 Alpha virt. eigenvalues --    0.31316   0.34228   0.35705   0.37196   0.39779
 Alpha virt. eigenvalues --    0.43589   0.45460   0.51896   0.53105   0.55920
 Alpha virt. eigenvalues --    0.57997   0.58665   0.60071   0.61085   0.62398
 Alpha virt. eigenvalues --    0.63667   0.64270   0.65039   0.66159   0.67685
 Alpha virt. eigenvalues --    0.68898   0.72455   0.76212   0.76844   0.80107
 Alpha virt. eigenvalues --    0.81247   0.84688   0.85326   0.86423   0.89847
 Alpha virt. eigenvalues --    0.90870   0.92328   0.94108   0.97056   0.98015
 Alpha virt. eigenvalues --    0.99269   1.01364   1.04744   1.06863   1.10612
 Alpha virt. eigenvalues --    1.11143   1.12954   1.14420   1.18401   1.19880
 Alpha virt. eigenvalues --    1.21971   1.28097   1.32328   1.36532   1.38589
 Alpha virt. eigenvalues --    1.41593   1.44309   1.46966   1.49132   1.50363
 Alpha virt. eigenvalues --    1.52359   1.55639   1.63592   1.71409   1.73292
 Alpha virt. eigenvalues --    1.76538   1.79464   1.80960   1.82414   1.85517
 Alpha virt. eigenvalues --    1.88304   1.91064   1.92258   1.95564   1.96215
 Alpha virt. eigenvalues --    1.98690   2.00805   2.01193   2.06486   2.10921
 Alpha virt. eigenvalues --    2.12223   2.14663   2.18428   2.20139   2.24914
 Alpha virt. eigenvalues --    2.27708   2.30289   2.33565   2.35539   2.38301
 Alpha virt. eigenvalues --    2.45472   2.50510   2.53258   2.61394   2.63048
 Alpha virt. eigenvalues --    2.66908   2.67741   2.73572   2.74947   2.79228
 Alpha virt. eigenvalues --    2.80807   2.88039   2.91675   2.99255   2.99685
 Alpha virt. eigenvalues --    3.07556   3.17291   3.33367   3.50166   3.96905
 Alpha virt. eigenvalues --    4.01483   4.11648   4.11869   4.17961   4.23693
 Alpha virt. eigenvalues --    4.32708   4.45415   4.47717   4.82328
          Condensed to atoms (all electrons):
               1          2          3          4          5          6
     1  O    8.519311   0.503327  -0.160861  -0.154409   0.005039   0.000032
     2  C    0.503327   4.429569   0.515907   0.199059  -0.013452   0.000148
     3  O   -0.160861   0.515907   8.322604  -0.105345  -0.001291  -0.001265
     4  C   -0.154409   0.199059  -0.105345   5.337730   0.417035  -0.053604
     5  C    0.005039  -0.013452  -0.001291   0.417035   4.670240   0.289168
     6  O    0.000032   0.000148  -0.001265  -0.053604   0.289168   8.267697
     7  H    0.000004  -0.000043   0.000276   0.004455  -0.030958   0.245870
     8  C   -0.000202   0.006586   0.000050  -0.040905   0.461921  -0.074759
     9  H    0.000001  -0.000102   0.000011   0.005550  -0.043622  -0.008545
    10  C   -0.000021  -0.000301   0.000004  -0.044274  -0.010897   0.006383
    11  H    0.000000   0.000011   0.000000   0.000663   0.003297  -0.000053
    12  C    0.002387   0.008780  -0.000146  -0.020527  -0.040415  -0.000151
    13  H   -0.000002  -0.000140   0.000000   0.004596   0.000853   0.000002
    14  C    0.003269  -0.049628   0.006431   0.480419  -0.049838   0.004105
    15  H    0.024896  -0.007610   0.000675  -0.045527   0.006444  -0.000028
               7          8          9         10         11         12
     1  O    0.000004  -0.000202   0.000001  -0.000021   0.000000   0.002387
     2  C   -0.000043   0.006586  -0.000102  -0.000301   0.000011   0.008780
     3  O    0.000276   0.000050   0.000011   0.000004   0.000000  -0.000146
     4  C    0.004455  -0.040905   0.005550  -0.044274   0.000663  -0.020527
     5  C   -0.030958   0.461921  -0.043622  -0.010897   0.003297  -0.040415
     6  O    0.245870  -0.074759  -0.008545   0.006383  -0.000053  -0.000151
     7  H    0.343805  -0.001539   0.009203   0.000694  -0.000018  -0.000026
     8  C   -0.001539   5.187951   0.343038   0.477298  -0.036464  -0.026867
     9  H    0.009203   0.343038   0.611132  -0.038048  -0.004717   0.004730
    10  C    0.000694   0.477298  -0.038048   4.922962   0.354630   0.530631
    11  H   -0.000018  -0.036464  -0.004717   0.354630   0.600354  -0.043902
    12  C   -0.000026  -0.026867   0.004730   0.530631  -0.043902   5.007126
    13  H   -0.000001   0.005724  -0.000186  -0.048043  -0.006864   0.356286
    14  C   -0.000080  -0.062913   0.000836  -0.016190   0.005043   0.423122
    15  H    0.000004  -0.000084   0.000014   0.006316  -0.000241  -0.051910
              13         14         15
     1  O   -0.000002   0.003269   0.024896
     2  C   -0.000140  -0.049628  -0.007610
     3  O    0.000000   0.006431   0.000675
     4  C    0.004596   0.480419  -0.045527
     5  C    0.000853  -0.049838   0.006444
     6  O    0.000002   0.004105  -0.000028
     7  H   -0.000001  -0.000080   0.000004
     8  C    0.005724  -0.062913  -0.000084
     9  H   -0.000186   0.000836   0.000014
    10  C   -0.048043  -0.016190   0.006316
    11  H   -0.006864   0.005043  -0.000241
    12  C    0.356286   0.423122  -0.051910
    13  H    0.615141  -0.040169  -0.006384
    14  C   -0.040169   5.110474   0.352858
    15  H   -0.006384   0.352858   0.584869
 Mulliken charges:
               1
     1  O   -0.742770
     2  C    0.407889
     3  O   -0.577051
     4  C    0.015082
     5  C    0.336475
     6  O   -0.674999
     7  H    0.428355
     8  C   -0.238836
     9  H    0.120703
    10  C   -0.141145
    11  H    0.128261
    12  C   -0.149117
    13  H    0.119186
    14  C   -0.167740
    15  H    0.135707
 Sum of Mulliken charges =  -1.00000
 Mulliken charges with hydrogens summed into heavy atoms:
               1
     1  O   -0.742770
     2  C    0.407889
     3  O   -0.577051
     4  C    0.015082
     5  C    0.336475
     6  O   -0.246645
     8  C   -0.118132
    10  C   -0.012885
    12  C   -0.029931
    14  C   -0.032033
 Electronic spatial extent (au):  <R**2>=           1320.8281
 Charge=             -1.0000 electrons
 Dipole moment (field-independent basis, Debye):
    X=            -13.1476    Y=              3.1274    Z=             -0.3300  Tot=             13.5185
 Quadrupole moment (field-independent basis, Debye-Ang):
   XX=            -85.0726   YY=            -57.3151   ZZ=            -59.9056
   XY=              1.2727   XZ=             -0.7889   YZ=             -3.3058
 Traceless Quadrupole moment (field-independent basis, Debye-Ang):
   XX=            -17.6415   YY=             10.1160   ZZ=              7.5255
   XY=              1.2727   XZ=             -0.7889   YZ=             -3.3058
 Octapole moment (field-independent basis, Debye-Ang**2):
  XXX=            -76.0245  YYY=             34.8407  ZZZ=             -0.1863  XYY=            -30.8786
  XXY=             16.6422  XXZ=             -1.3405  XZZ=              6.3694  YZZ=              4.7449
  YYZ=              0.3578  XYZ=             -5.0190
 Hexadecapole moment (field-independent basis, Debye-Ang**3):
 XXXX=          -1185.3670 YYYY=           -485.2658 ZZZZ=            -66.7904 XXXY=             32.3389
 XXXZ=             -7.5612 YYYX=            -19.5905 YYYZ=            -11.8894 ZZZX=              2.3262
 ZZZY=             -0.6999 XXYY=           -295.9550 XXZZ=           -196.3421 YYZZ=           -113.0164
 XXYZ=            -16.3434 YYXZ=              5.8683 ZZXY=             -2.2439
 N-N= 4.922228526152D+02 E-N=-2.157331815347D+03  KE= 4.917985599446D+02
 No NMR shielding tensors so no spin-rotation constants.
 Leave Link  601 at Mon Jul 12 12:46:47 2021, MaxMem=   104857600 cpu:               0.3 elap:               0.1
 (Enter /dades/curu/g16A03_MST/g16/l701.exe)
 ... and contract with generalized density number  0.
 Compute integral first derivatives.
 D1PCM: PCM CHGder 1st derivatives, ID1Alg=3 FixD1E=F DoIter=F DoCFld=F I1PDM=0.
 GePol: Maximum number of non-zero 1st derivatives   =     238
 Leave Link  701 at Mon Jul 12 12:46:48 2021, MaxMem=   104857600 cpu:               4.7 elap:               1.2
 (Enter /dades/curu/g16A03_MST/g16/l702.exe)
 L702 exits ... SP integral derivatives will be done elsewhere.
 Leave Link  702 at Mon Jul 12 12:46:48 2021, MaxMem=   104857600 cpu:               0.1 elap:               0.0
 (Enter /dades/curu/g16A03_MST/g16/l703.exe)
 Integral derivatives from FoFJK, PRISM(SPDF).
 Compute integral first derivatives, UseDBF=F ICtDFT=           0.
 Calling FoFJK, ICntrl=      2127 FMM=F ISym2X=0 I1Cent= 0 IOpClX= 0 NMat=1 NMatS=1 NMatT=0.
 FoFJK:  IHMeth= 1 ICntrl=    2127 DoSepK=F KAlg= 0 I1Cent=           0 FoldK=F
 IRaf=         0 NMat=       1 IRICut=       1 DoRegI=T DoRafI=F ISym2E= 0 IDoP0=0 IntGTp=1.
 FoFCou: FMM=F IPFlag=           0 FMFlag=      100000 FMFlg1=         800
         NFxFlg=           0 DoJE=F BraDBF=F KetDBF=F FulRan=T
         wScrn=  0.000000 ICntrl=      2127 IOpCl=  0 I1Cent=           0 NGrid=           0
         NMat0=    1 NMatS0=      1 NMatT0=    0 NMatD0=    1 NMtDS0=    0 NMtDT0=    0
 Symmetry not used in FoFCou.
 Leave Link  703 at Mon Jul 12 12:46:54 2021, MaxMem=   104857600 cpu:              24.7 elap:               6.2
 (Enter /dades/curu/g16A03_MST/g16/l716.exe)
 Dipole        =-5.17265439D+00 1.23042846D+00-1.29834541D-01
 ***** Axes restored to original set *****
 -------------------------------------------------------------------
 Center     Atomic                   Forces (Hartrees/Bohr)
 Number     Number              X              Y              Z
 -------------------------------------------------------------------
      1        8           0.031175163    0.021527364    0.007441259
      2        6           0.085718511   -0.128613321   -0.019435511
      3        8          -0.138479905    0.059842783    0.042166152
      4        6           0.021062078    0.010587505    0.027208755
      5        6          -0.019799053    0.042842937   -0.023507712
      6        8          -0.008011444   -0.014310973    0.023341302
      7        1           0.009488351   -0.009019811   -0.004976632
      8        6           0.029019592    0.003128118   -0.045178958
      9        1           0.002772195    0.001169223   -0.000226323
     10        6          -0.014138777    0.011912980    0.002864594
     11        1          -0.006058251    0.009609025    0.001480207
     12        6           0.009344437   -0.002440702   -0.009498373
     13        1           0.000789600   -0.002511309    0.004249483
     14        6           0.007649955   -0.008671516   -0.013926335
     15        1          -0.010532452    0.004947696    0.007998093
 -------------------------------------------------------------------
 Cartesian Forces:  Max     0.138479905 RMS     0.036361873
 Leave Link  716 at Mon Jul 12 12:46:54 2021, MaxMem=   104857600 cpu:               0.1 elap:               0.0
 (Enter /dades/curu/g16A03_MST/g16/l103.exe)

 GradGradGradGradGradGradGradGradGradGradGradGradGradGradGradGradGradGrad
 Berny optimization.
 FormGI is forming the generalized inverse of G from B-inverse, IUseBI=4.
 Internal  Forces:  Max     0.147739965 RMS     0.023944662
 Search for a local minimum.
 Step number   1 out of a maximum of   77
 All quantities printed in internal units (Hartrees-Bohrs-Radians)
 RMS Force = .23945D-01 SwitMx=.10000D-02 MixMth= 1
 Mixed Optimization -- RFO/linear search
 Second derivative matrix not updated -- first step.
 ITU=  0
     Eigenvalues ---    0.01321   0.02032   0.02054   0.02101   0.02189
     Eigenvalues ---    0.02218   0.02278   0.02333   0.02360   0.02398
     Eigenvalues ---    0.02481   0.02946   0.15985   0.15993   0.15994
     Eigenvalues ---    0.16000   0.16000   0.21980   0.22421   0.24314
     Eigenvalues ---    0.24531   0.24984   0.25000   0.25000   0.35134
     Eigenvalues ---    0.35143   0.35202   0.35211   0.37215   0.41000
     Eigenvalues ---    0.45233   0.45777   0.48732   0.50168   0.50355
     Eigenvalues ---    0.50773   0.52642   0.65456   1.16786
 RFO step:  Lambda=-8.65820937D-02 EMin= 1.32143174D-02
 Linear search not attempted -- first point.
 Maximum step size (   0.300) exceeded in Quadratic search.
    -- Step size scaled by   0.866
 Iteration  1 RMS(Cart)=  0.07278201 RMS(Int)=  0.01484440
 Iteration  2 RMS(Cart)=  0.01329860 RMS(Int)=  0.00659605
 Iteration  3 RMS(Cart)=  0.00055535 RMS(Int)=  0.00657711
 Iteration  4 RMS(Cart)=  0.00001157 RMS(Int)=  0.00657710
 Iteration  5 RMS(Cart)=  0.00000034 RMS(Int)=  0.00657710
 ITry= 1 IFail=0 DXMaxC= 2.97D-01 DCOld= 1.00D+10 DXMaxT= 3.00D-01 DXLimC= 3.00D+00 Rises=F
 Variable       Old X    -DE/DX   Delta X   Delta X   Delta X     New X
                                 (Linear)    (Quad)   (Total)
    R1        2.46867   0.00128   0.00000   0.00149   0.00149   2.47016
    R2        2.22583   0.14774   0.00000   0.10198   0.10198   2.32780
    R3        2.75523   0.05070   0.00000   0.09570   0.09570   2.85093
    R4        2.58591   0.03794   0.00000   0.05649   0.05660   2.64251
    R5        2.62842   0.00796   0.00000   0.01322   0.01337   2.64178
    R6        2.59696  -0.00599   0.00000  -0.00882  -0.00882   2.58814
    R7        2.58761   0.03660   0.00000   0.05386   0.05381   2.64142
    R8        1.83989  -0.00719   0.00000  -0.01016  -0.01016   1.82973
    R9        2.05348   0.00013   0.00000   0.00025   0.00025   2.05373
   R10        2.67436  -0.02047   0.00000  -0.03512  -0.03527   2.63909
   R11        2.05334  -0.00070   0.00000  -0.00139  -0.00139   2.05195
   R12        2.60804   0.01903   0.00000   0.02680   0.02670   2.63473
   R13        2.05443  -0.00054   0.00000  -0.00108  -0.00108   2.05335
   R14        2.60578   0.01858   0.00000   0.02692   0.02698   2.63276
   R15        2.05459  -0.00587   0.00000  -0.01160  -0.01160   2.04299
    A1        2.02612   0.04242   0.00000   0.16312   0.13204   2.15816
    A2        1.98276   0.00509   0.00000   0.06077   0.02972   2.01248
    A3        2.15381  -0.02235   0.00000  -0.01124  -0.04228   2.11153
    A4        2.09347   0.01218   0.00000   0.03107   0.03075   2.12422
    A5        2.06935   0.00767   0.00000   0.01942   0.01910   2.08846
    A6        2.10298  -0.01897   0.00000  -0.04357  -0.04362   2.05936
    A7        2.19496  -0.02988   0.00000  -0.07892  -0.07898   2.11598
    A8        2.08431   0.00652   0.00000   0.02106   0.02113   2.10544
    A9        2.00333   0.02340   0.00000   0.05818   0.05813   2.06145
   A10        1.98942  -0.02211   0.00000  -0.07764  -0.07764   1.91178
   A11        2.07524   0.00237   0.00000   0.00824   0.00831   2.08355
   A12        2.10905  -0.00087   0.00000  -0.00270  -0.00288   2.10617
   A13        2.09808  -0.00146   0.00000  -0.00521  -0.00513   2.09294
   A14        2.18591  -0.01294   0.00000  -0.04190  -0.04180   2.14411
   A15        2.07283   0.00254   0.00000   0.00184   0.00160   2.07443
   A16        2.02406   0.01043   0.00000   0.04025   0.04036   2.06442
   A17        2.05590   0.00313   0.00000   0.01479   0.01480   2.07070
   A18        2.09379   0.00339   0.00000   0.00431   0.00429   2.09808
   A19        2.13349  -0.00652   0.00000  -0.01910  -0.01909   2.11440
   A20        2.09573   0.00769   0.00000   0.02141   0.02164   2.11737
   A21        2.15308  -0.01702   0.00000  -0.05689  -0.05701   2.09608
   A22        2.03400   0.00934   0.00000   0.03562   0.03550   2.06950
    D1       -2.88408   0.03057   0.00000   0.22100   0.22110  -2.66298
    D2        0.05932   0.03331   0.00000   0.25492   0.25618   0.31550
    D3        0.78707  -0.03395   0.00000  -0.26044  -0.26169   0.52538
    D4       -2.55272  -0.03120   0.00000  -0.22651  -0.22661  -2.77933
    D5       -0.12439   0.00476   0.00000   0.03390   0.03343  -0.09096
    D6        3.05620   0.00293   0.00000   0.02192   0.02184   3.07804
    D7       -3.06392  -0.00118   0.00000  -0.00813  -0.00812  -3.07205
    D8        0.11667  -0.00302   0.00000  -0.02011  -0.01972   0.09695
    D9       -3.08505  -0.00276   0.00000  -0.01948  -0.01926  -3.10431
   D10        0.08669  -0.00357   0.00000  -0.02590  -0.02555   0.06114
   D11       -0.14277   0.00368   0.00000   0.02344   0.02295  -0.11982
   D12        3.02897   0.00287   0.00000   0.01703   0.01666   3.04563
   D13       -3.13802  -0.00100   0.00000  -0.00753  -0.00740   3.13776
   D14       -0.03384   0.00049   0.00000   0.00341   0.00328  -0.03056
   D15        3.05389   0.00173   0.00000   0.01540   0.01559   3.06948
   D16       -0.04439   0.00054   0.00000   0.00679   0.00698  -0.03741
   D17       -0.05285   0.00122   0.00000   0.00761   0.00730  -0.04555
   D18        3.13205   0.00003   0.00000  -0.00100  -0.00131   3.13075
   D19        3.10745   0.00131   0.00000   0.00779   0.00756   3.11500
   D20       -0.00266  -0.00001   0.00000  -0.00024  -0.00029  -0.00295
   D21        0.00973   0.00001   0.00000  -0.00126  -0.00142   0.00830
   D22       -3.10038  -0.00131   0.00000  -0.00930  -0.00927  -3.10965
   D23        3.12306   0.00090   0.00000   0.00424   0.00420   3.12727
   D24       -0.02252   0.00074   0.00000   0.00368   0.00362  -0.01890
   D25        0.01007   0.00010   0.00000  -0.00165  -0.00185   0.00823
   D26       -3.13551  -0.00005   0.00000  -0.00221  -0.00243  -3.13794
   D27        0.09418  -0.00097   0.00000  -0.01172  -0.01193   0.08225
   D28       -3.07556  -0.00066   0.00000  -0.00729  -0.00729  -3.08285
   D29       -3.05159  -0.00111   0.00000  -0.01222  -0.01244  -3.06403
   D30        0.06185  -0.00080   0.00000  -0.00779  -0.00780   0.05405
         Item               Value     Threshold  Converged?
 Maximum Force            0.147740     0.000450     NO 
 RMS     Force            0.023945     0.000300     NO 
 Maximum Displacement     0.297340     0.001800     NO 
 RMS     Displacement     0.077485     0.001200     NO 
 Predicted change in Energy=-5.718786D-02
 Lowest energy point so far.  Saving SCF results.
 GradGradGradGradGradGradGradGradGradGradGradGradGradGradGradGradGradGrad

 Leave Link  103 at Mon Jul 12 12:46:54 2021, MaxMem=   104857600 cpu:               0.1 elap:               0.0
 (Enter /dades/curu/g16A03_MST/g16/l202.exe)
                          Input orientation:                          
 ---------------------------------------------------------------------
 Center     Atomic      Atomic             Coordinates (Angstroms)
 Number     Number       Type             X           Y           Z
 ---------------------------------------------------------------------
      1          8           0        0.047495   -1.858706    2.326346
      2          6           0       -0.741809   -0.985081    1.758517
      3          8           0       -1.858606   -0.693183    2.188562
      4          6           0       -0.221627   -0.383443    0.476539
      5          6           0       -0.606469    0.892935    0.054459
      6          8           0       -1.554812    1.609946    0.734392
      7          1           0       -1.687020    2.465262    0.300260
      8          6           0       -0.053079    1.459140   -1.097478
      9          1           0       -0.415515    2.423066   -1.444741
     10          6           0        0.927192    0.780456   -1.824660
     11          1           0        1.363460    1.176078   -2.736917
     12          6           0        1.348375   -0.472099   -1.380116
     13          1           0        2.101466   -1.003015   -1.956010
     14          6           0        0.811973   -1.019963   -0.216883
     15          1           0        1.196976   -1.967393    0.133730
 ---------------------------------------------------------------------
                    Distance matrix (angstroms):
                    1          2          3          4          5
     1  O    0.000000
     2  C    1.307154   0.000000
     3  O    2.238448   1.231820   0.000000
     4  C    2.381305   1.508650   2.388862   0.000000
     5  C    3.627764   2.539503   2.939050   1.398355   0.000000
     6  O    4.139234   2.905852   2.740677   2.411943   1.369587
     7  H    5.080381   3.863264   3.683871   3.208360   1.923596
     8  C    4.768730   3.821685   4.323249   2.429208   1.397780
     9  H    5.724425   4.688581   4.999441   3.406670   2.150666
    10  C    4.996988   4.329185   5.102767   2.823112   2.428138
    11  H    6.048000   5.414027   6.175451   3.907801   3.428202
    12  C    4.165672   3.805658   4.803027   2.433092   2.782578
    13  H    4.825927   4.677846   5.740701   3.420223   3.869047
    14  C    2.784947   2.513496   3.609009   1.397971   2.396828
    15  H    2.478040   2.713624   3.896476   2.153799   3.382333
                    6          7          8          9         10
     6  O    0.000000
     7  H    0.968253   0.000000
     8  C    2.373540   2.373967   0.000000
     9  H    2.589938   2.159522   1.086786   0.000000
    10  C    3.660211   3.766691   1.396544   2.155311   0.000000
    11  H    4.555715   4.493536   2.185055   2.527736   1.085845
    12  C    4.151452   4.545919   2.402840   3.390791   1.394241
    13  H    5.237767   5.610020   3.382506   4.281895   2.139379
    14  C    3.663744   4.319629   2.769425   3.856009   2.416553
    15  H    4.553075   5.290898   3.849628   4.936378   3.385077
                   11         12         13         14         15
    11  H    0.000000
    12  C    2.134859   0.000000
    13  H    2.429592   1.086587   0.000000
    14  C    3.387817   1.393195   2.165096   0.000000
    15  H    4.260251   2.133203   2.472881   1.081102   0.000000
 Stoichiometry    C7H5O3(1-)
 Framework group  C1[X(C7H5O3)]
 Deg. of freedom    39
 Full point group                 C1      NOp   1
 RotChk:  IX=0 Diff= 5.62D-02
 Largest Abelian subgroup         C1      NOp   1
 Largest concise Abelian subgroup C1      NOp   1
                         Standard orientation:                         
 ---------------------------------------------------------------------
 Center     Atomic      Atomic             Coordinates (Angstroms)
 Number     Number       Type             X           Y           Z
 ---------------------------------------------------------------------
      1          8           0        2.299767   -1.398352   -0.388198
      2          6           0        1.775515   -0.274397    0.024760
      3          8           0        2.440959    0.694287    0.393836
      4          6           0        0.268315   -0.249977    0.086193
      5          6           0       -0.453727    0.939557   -0.051868
      6          8           0        0.181549    2.149414   -0.143733
      7          1           0       -0.475894    2.854078   -0.237175
      8          6           0       -1.851364    0.926680   -0.067076
      9          1           0       -2.392811    1.868125   -0.107344
     10          6           0       -2.553644   -0.277944    0.010512
     11          1           0       -3.638252   -0.327460    0.025837
     12          6           0       -1.836574   -1.470300    0.099991
     13          1           0       -2.386525   -2.404525    0.173811
     14          6           0       -0.443532   -1.453135    0.088494
     15          1           0        0.085344   -2.395919    0.103607
 ---------------------------------------------------------------------
 Rotational constants (GHZ):           2.3309397           1.2205317           0.8158630
 Leave Link  202 at Mon Jul 12 12:46:54 2021, MaxMem=   104857600 cpu:               0.0 elap:               0.0
 (Enter /dades/curu/g16A03_MST/g16/l301.exe)
 Standard basis: 6-31G(d) (6D, 7F)
 Ernie: Thresh=  0.10000D-02 Tol=  0.10000D-05 Strict=F.
 There are   160 symmetry adapted cartesian basis functions of A   symmetry.
 There are   160 symmetry adapted basis functions of A   symmetry.
   160 basis functions,   300 primitive gaussians,   160 cartesian basis functions
    36 alpha electrons       36 beta electrons
       nuclear repulsion energy       485.7351737648 Hartrees.
 IExCor=  402 DFT=T Ex+Corr=B3LYP ExCW=0 ScaHFX=  0.200000
 ScaDFX=  0.800000  0.720000  1.000000  0.810000 ScalE2=  1.000000  1.000000
 IRadAn=      5 IRanWt=     -1 IRanGd=            0 ICorTp=0 IEmpDi=  4
 NAtoms=   15 NActive=   15 NUniq=   15 SFac= 1.00D+00 NAtFMM=   60 NAOKFM=F Big=F
 Integral buffers will be    131072 words long.
 Raffenetti 2 integral format.
 Two-electron integral symmetry is turned on.
 ------------------------------------------------------------------------------
 Polarizable Continuum Model (PCM)
 =================================
 Model                : PCM.
 Atomic radii         : MST.
 Polarization charges : Total charges.
 Charge compensation  : None.
 Solution method      : On-the-fly selection.
 Cavity type          : Scaled VdW (van der Waals Surface) (Alpha=1.500).
 Cavity algorithm     : GePol (No added spheres)
                        Default sphere list used, NSphG=   15.
                        Lebedev-Laikov grids with approx.  5.0 points / Ang**2.
                        Smoothing algorithm: York/Karplus (Gamma=1.0000).
                        Polarization charges: spherical gaussians, with
                                              point-specific exponents (IZeta= 3).
                        Self-potential: point-specific (ISelfS= 7).
                        Self-field    : sphere-specific E.n sum rule (ISelfD= 2).
 1st derivatives      : Analytical E(r).r(x)/FMM algorithm (CHGder, D1EAlg=3).
                        Cavity 1st derivative terms included.
 Solvent              : n-Octanol, Eps=   9.862900 Eps(inf)=   2.043470
 ------------------------------------------------------------------------------
 Spheres list:
 ISph  on   Nord     Re0    Alpha      Xe            Ye            Ze
    1   O      1    1.4000  1.150      2.299767     -1.398352     -0.388198
    2   C      2    1.5000  1.150      1.775515     -0.274397      0.024760
    3   O      3    1.4000  1.150      2.440959      0.694287      0.393836
    4   C      4    1.5000  1.500      0.268315     -0.249977      0.086193
    5   C      5    1.5000  1.500     -0.453727      0.939557     -0.051868
    6   O      6    1.4000  1.500      0.181549      2.149414     -0.143733
    7   H      7    0.9000  1.500     -0.475894      2.854078     -0.237175
    8   C      8    1.5000  1.500     -1.851364      0.926680     -0.067076
    9   H      9    1.2000  1.500     -2.392811      1.868125     -0.107344
   10   C     10    1.5000  1.500     -2.553644     -0.277944      0.010512
   11   H     11    1.2000  1.500     -3.638252     -0.327460      0.025837
   12   C     12    1.5000  1.500     -1.836574     -1.470300      0.099991
   13   H     13    1.2000  1.500     -2.386525     -2.404525      0.173811
   14   C     14    1.5000  1.500     -0.443532     -1.453135      0.088494
   15   H     15    1.2000  1.500      0.085344     -2.395919      0.103607
 ------------------------------------------------------------------------------
 GePol: Number of generator spheres                  =      15
 GePol: Total number of spheres                      =      15
 GePol: Number of exposed spheres                    =      15 (100.00%)
 GePol: Number of points                             =    1602
 GePol: Average weight of points                     =       0.12
 GePol: Minimum weight of points                     =   0.20D-09
 GePol: Maximum weight of points                     =    0.20969
 GePol: Number of points with low weight             =      92
 GePol: Fraction of low-weight points (<1% of avg)   =       5.74%
 GePol: Cavity surface area                          =    185.973 Ang**2
 GePol: Cavity volume                                =    188.745 Ang**3
 Surface areas from nonelectrostatic (unscaled) cavity and vdw tensions:
 Sphere =    1 Type =  O   Surf =       16.320 Tension =       -0.185
 Sphere =    2 Type =  C   Surf =        7.319 Tension =       -0.205
 Sphere =    3 Type =  O   Surf =       16.261 Tension =       -0.185
 Sphere =    4 Type =  C   Surf =        6.378 Tension =       -0.205
 Sphere =    5 Type =  C   Surf =        6.684 Tension =       -0.205
 Sphere =    6 Type =  OH  Surf =       14.107 Tension =       -0.238
 Sphere =    7 Type =  OH  Surf =        4.396 Tension =       -0.238
 Sphere =    8 Type =  CH  Surf =        7.713 Tension =       -0.195
 Sphere =    9 Type =  CH  Surf =       10.199 Tension =       -0.195
 Sphere =   10 Type =  CH  Surf =        7.832 Tension =       -0.195
 Sphere =   11 Type =  CH  Surf =       10.235 Tension =       -0.195
 Sphere =   12 Type =  CH  Surf =        7.761 Tension =       -0.195
 Sphere =   13 Type =  CH  Surf =       10.228 Tension =       -0.195
 Sphere =   14 Type =  CH  Surf =        7.570 Tension =       -0.195
 Sphere =   15 Type =  CH  Surf =        9.799 Tension =       -0.195
 PCM non-electrostatic energy =        -0.0088897664 Hartrees.
 Nuclear repulsion after PCM non-electrostatic terms =      485.7262839983 Hartrees.
 Leave Link  301 at Mon Jul 12 12:46:54 2021, MaxMem=   104857600 cpu:               0.1 elap:               0.1
 (Enter /dades/curu/g16A03_MST/g16/l302.exe)
 NPDir=0 NMtPBC=     1 NCelOv=     1 NCel=       1 NClECP=     1 NCelD=      1
         NCelK=      1 NCelE2=     1 NClLst=     1 CellRange=     0.0.
 One-electron integrals computed using PRISM.
 One-electron integral symmetry used in STVInt
 NBasis=   160 RedAO= T EigKep=  4.45D-04  NBF=   160
 NBsUse=   160 1.00D-06 EigRej= -1.00D+00 NBFU=   160
 Precomputing XC quadrature grid using
 IXCGrd= 4 IRadAn=           5 IRanWt=          -1 IRanGd=           0 AccXCQ= 0.00D+00.
 Generated NRdTot=       0 NPtTot=           0 NUsed=           0 NTot=          32
 NSgBfM=   160   160   160   160   160 MxSgAt=    15 MxSgA2=    15.
 Leave Link  302 at Mon Jul 12 12:46:55 2021, MaxMem=   104857600 cpu:               0.8 elap:               0.2
 (Enter /dades/curu/g16A03_MST/g16/l303.exe)
 DipDrv:  MaxL=1.
 Leave Link  303 at Mon Jul 12 12:46:55 2021, MaxMem=   104857600 cpu:               0.1 elap:               0.0
 (Enter /dades/curu/g16A03_MST/g16/l401.exe)
 Initial guess from the checkpoint file:  "SET_328_BBB299_conf1.geo_195_180.chk"
 B after Tr=    -0.000000   -0.000000   -0.000000
         Rot=    0.999896    0.004138    0.001306    0.013782 Ang=   1.66 deg.
 Guess basis will be translated and rotated to current coordinates.
 JPrj=2 DoOrth=T DoCkMO=T.
 Generating alternative initial guess.
 ExpMin= 1.61D-01 ExpMax= 5.48D+03 ExpMxC= 8.25D+02 IAcc=2 IRadAn=         4 AccDes= 0.00D+00
 Harris functional with IExCor=  402 and IRadAn=       4 diagonalized for initial guess.
 HarFok:  IExCor=  402 AccDes= 0.00D+00 IRadAn=         4 IDoV= 1 UseB2=F ITyADJ=14
 ICtDFT=  3500011 ScaDFX=  1.000000  1.000000  1.000000  1.000000
 FoFCou: FMM=F IPFlag=           0 FMFlag=      100000 FMFlg1=           0
         NFxFlg=           0 DoJE=T BraDBF=F KetDBF=T FulRan=T
         wScrn=  0.000000 ICntrl=       500 IOpCl=  0 I1Cent=   200000004 NGrid=           0
         NMat0=    1 NMatS0=      1 NMatT0=    0 NMatD0=    1 NMtDS0=    0 NMtDT0=    0
 Petite list used in FoFCou.
 Harris En= -495.690218374222    
 Leave Link  401 at Mon Jul 12 12:46:56 2021, MaxMem=   104857600 cpu:               3.2 elap:               0.9
 (Enter /dades/curu/g16A03_MST/g16/l502.exe)
 Keep R1 ints in memory in canonical form, NReq=86904867.
 FoFCou: FMM=F IPFlag=           0 FMFlag=           0 FMFlg1=           0
         NFxFlg=           0 DoJE=F BraDBF=F KetDBF=F FulRan=T
         wScrn=  0.000000 ICntrl=       600 IOpCl=  0 I1Cent=           0 NGrid=           0
         NMat0=    1 NMatS0=  12880 NMatT0=    0 NMatD0=    1 NMtDS0=    0 NMtDT0=    0
 Symmetry not used in FoFCou.
 Two-electron integral symmetry not used.
 Closed shell SCF:
 Using DIIS extrapolation, IDIIS=  1040.
 NGot=   104857600 LenX=    21850023 LenY=    21823982
 Requested convergence on RMS density matrix=1.00D-08 within 128 cycles.
 Requested convergence on MAX density matrix=1.00D-06.
 Requested convergence on             energy=1.00D-06.
 No special actions if energy rises.

 Cycle   1  Pass 1  IDiag  1:
 Inv3:  Mode=1 IEnd=     7699212.
 Iteration    1 A*A^-1 deviation from unit magnitude is 4.44D-15 for   1588.
 Iteration    1 A*A^-1 deviation from orthogonality  is 1.93D-15 for   1596   1346.
 Iteration    1 A^-1*A deviation from unit magnitude is 4.22D-15 for   1588.
 Iteration    1 A^-1*A deviation from orthogonality  is 1.89D-13 for    519    475.
 E= -495.515093643155    
 DIIS: error= 1.13D-02 at cycle   1 NSaved=   1.
 NSaved= 1 IEnMin= 1 EnMin= -495.515093643155     IErMin= 1 ErrMin= 1.13D-02
 ErrMax= 1.13D-02  0.00D+00 EMaxC= 1.00D-01 BMatC= 2.72D-02 BMatP= 2.72D-02
 IDIUse=3 WtCom= 8.87D-01 WtEn= 1.13D-01
 Coeff-Com:  0.100D+01
 Coeff-En:   0.100D+01
 Coeff:      0.100D+01
 Recover alternate guess density for next cycle.
 RMSDP=5.21D-03 MaxDP=7.69D-02              OVMax= 0.00D+00

 Cycle   2  Pass 1  IDiag  1:
 E= -495.266082802725     Delta-E=        0.249010840430 Rises=F Damp=F
 Switch densities from cycles 1 and 2 for lowest energy.
 DIIS: error= 3.87D-02 at cycle   2 NSaved=   2.
 NSaved= 2 IEnMin= 1 EnMin= -495.515093643155     IErMin= 1 ErrMin= 1.13D-02
 ErrMax= 3.87D-02  0.00D+00 EMaxC= 1.00D+00 BMatC= 3.50D-01 BMatP= 2.72D-02
 IDIUse=1 WtCom= 1.00D+00 WtEn= 0.00D+00
 Coeff-Com:  0.952D+00 0.481D-01
 Coeff:      0.952D+00 0.481D-01
 Gap=     0.206 Goal=   None    Shift=    0.000
 RMSDP=3.35D-03 MaxDP=6.45D-02 DE= 2.49D-01 OVMax= 9.08D-02

 Cycle   3  Pass 1  IDiag  1:
 E= -495.560753334111     Delta-E=       -0.294670531386 Rises=F Damp=F
 DIIS: error= 4.29D-03 at cycle   3 NSaved=   3.
 NSaved= 3 IEnMin= 3 EnMin= -495.560753334111     IErMin= 3 ErrMin= 4.29D-03
 ErrMax= 4.29D-03  0.00D+00 EMaxC= 1.00D+00 BMatC= 3.56D-03 BMatP= 2.72D-02
 IDIUse=1 WtCom= 1.00D+00 WtEn= 0.00D+00
 Coeff-Com:  0.764D-02 0.735D-01 0.919D+00
 Coeff:      0.764D-02 0.735D-01 0.919D+00
 Gap=     0.189 Goal=   None    Shift=    0.000
 RMSDP=6.04D-04 MaxDP=2.33D-02 DE=-2.95D-01 OVMax= 2.19D-02

 Cycle   4  Pass 1  IDiag  1:
 E= -495.561313750427     Delta-E=       -0.000560416316 Rises=F Damp=F
 DIIS: error= 3.07D-03 at cycle   4 NSaved=   4.
 NSaved= 4 IEnMin= 4 EnMin= -495.561313750427     IErMin= 4 ErrMin= 3.07D-03
 ErrMax= 3.07D-03  0.00D+00 EMaxC= 1.00D+00 BMatC= 3.00D-03 BMatP= 3.56D-03
 IDIUse=1 WtCom= 1.00D+00 WtEn= 0.00D+00
 Coeff-Com: -0.390D-01 0.447D-01 0.590D+00 0.405D+00
 Coeff:     -0.390D-01 0.447D-01 0.590D+00 0.405D+00
 Gap=     0.186 Goal=   None    Shift=    0.000
 RMSDP=3.61D-04 MaxDP=1.25D-02 DE=-5.60D-04 OVMax= 1.75D-02

 Cycle   5  Pass 1  IDiag  1:
 E= -495.563596846462     Delta-E=       -0.002283096035 Rises=F Damp=F
 DIIS: error= 9.23D-04 at cycle   5 NSaved=   5.
 NSaved= 5 IEnMin= 5 EnMin= -495.563596846462     IErMin= 5 ErrMin= 9.23D-04
 ErrMax= 9.23D-04  0.00D+00 EMaxC= 1.00D+00 BMatC= 1.32D-04 BMatP= 3.00D-03
 IDIUse=1 WtCom= 1.00D+00 WtEn= 0.00D+00
 Coeff-Com: -0.155D-01 0.123D-01 0.192D+00 0.211D+00 0.600D+00
 Coeff:     -0.155D-01 0.123D-01 0.192D+00 0.211D+00 0.600D+00
 Gap=     0.182 Goal=   None    Shift=    0.000
 RMSDP=9.28D-05 MaxDP=3.16D-03 DE=-2.28D-03 OVMax= 5.73D-03

 Cycle   6  Pass 1  IDiag  1:
 E= -495.563681298215     Delta-E=       -0.000084451754 Rises=F Damp=F
 DIIS: error= 2.34D-04 at cycle   6 NSaved=   6.
 NSaved= 6 IEnMin= 6 EnMin= -495.563681298215     IErMin= 6 ErrMin= 2.34D-04
 ErrMax= 2.34D-04  0.00D+00 EMaxC= 1.00D+00 BMatC= 2.26D-05 BMatP= 1.32D-04
 IDIUse=1 WtCom= 1.00D+00 WtEn= 0.00D+00
 Coeff-Com: -0.408D-02 0.197D-02 0.389D-01 0.752D-01 0.357D+00 0.531D+00
 Coeff:     -0.408D-02 0.197D-02 0.389D-01 0.752D-01 0.357D+00 0.531D+00
 Gap=     0.183 Goal=   None    Shift=    0.000
 RMSDP=3.22D-05 MaxDP=8.67D-04 DE=-8.45D-05 OVMax= 1.02D-03

 Cycle   7  Pass 1  IDiag  1:
 E= -495.563700780630     Delta-E=       -0.000019482415 Rises=F Damp=F
 DIIS: error= 3.70D-05 at cycle   7 NSaved=   7.
 NSaved= 7 IEnMin= 7 EnMin= -495.563700780630     IErMin= 7 ErrMin= 3.70D-05
 ErrMax= 3.70D-05  0.00D+00 EMaxC= 1.00D+00 BMatC= 4.81D-07 BMatP= 2.26D-05
 IDIUse=1 WtCom= 1.00D+00 WtEn= 0.00D+00
 Coeff-Com: -0.481D-03-0.183D-03 0.538D-03 0.138D-01 0.951D-01 0.194D+00
 Coeff-Com:  0.697D+00
 Coeff:     -0.481D-03-0.183D-03 0.538D-03 0.138D-01 0.951D-01 0.194D+00
 Coeff:      0.697D+00
 Gap=     0.183 Goal=   None    Shift=    0.000
 RMSDP=6.87D-06 MaxDP=2.05D-04 DE=-1.95D-05 OVMax= 3.55D-04

 Cycle   8  Pass 1  IDiag  1:
 E= -495.563701162152     Delta-E=       -0.000000381522 Rises=F Damp=F
 DIIS: error= 2.46D-05 at cycle   8 NSaved=   8.
 NSaved= 8 IEnMin= 8 EnMin= -495.563701162152     IErMin= 8 ErrMin= 2.46D-05
 ErrMax= 2.46D-05  0.00D+00 EMaxC= 1.00D+00 BMatC= 1.50D-07 BMatP= 4.81D-07
 IDIUse=1 WtCom= 1.00D+00 WtEn= 0.00D+00
 Coeff-Com:  0.976D-04-0.313D-03-0.350D-02 0.755D-03 0.214D-01 0.627D-01
 Coeff-Com:  0.404D+00 0.515D+00
 Coeff:      0.976D-04-0.313D-03-0.350D-02 0.755D-03 0.214D-01 0.627D-01
 Coeff:      0.404D+00 0.515D+00
 Gap=     0.183 Goal=   None    Shift=    0.000
 RMSDP=3.26D-06 MaxDP=8.93D-05 DE=-3.82D-07 OVMax= 1.85D-04

 Cycle   9  Pass 1  IDiag  1:
 E= -495.563701322399     Delta-E=       -0.000000160248 Rises=F Damp=F
 DIIS: error= 5.74D-06 at cycle   9 NSaved=   9.
 NSaved= 9 IEnMin= 9 EnMin= -495.563701322399     IErMin= 9 ErrMin= 5.74D-06
 ErrMax= 5.74D-06  0.00D+00 EMaxC= 1.00D+00 BMatC= 7.73D-09 BMatP= 1.50D-07
 IDIUse=1 WtCom= 1.00D+00 WtEn= 0.00D+00
 Coeff-Com:  0.903D-04-0.635D-04-0.132D-02-0.179D-02-0.570D-02-0.553D-02
 Coeff-Com:  0.417D-01 0.193D+00 0.780D+00
 Coeff:      0.903D-04-0.635D-04-0.132D-02-0.179D-02-0.570D-02-0.553D-02
 Coeff:      0.417D-01 0.193D+00 0.780D+00
 Gap=     0.183 Goal=   None    Shift=    0.000
 RMSDP=1.01D-06 MaxDP=2.24D-05 DE=-1.60D-07 OVMax= 6.57D-05

 Cycle  10  Pass 1  IDiag  1:
 E= -495.563701331763     Delta-E=       -0.000000009364 Rises=F Damp=F
 DIIS: error= 2.54D-06 at cycle  10 NSaved=  10.
 NSaved=10 IEnMin=10 EnMin= -495.563701331763     IErMin=10 ErrMin= 2.54D-06
 ErrMax= 2.54D-06  0.00D+00 EMaxC= 1.00D+00 BMatC= 1.79D-09 BMatP= 7.73D-09
 IDIUse=1 WtCom= 1.00D+00 WtEn= 0.00D+00
 Coeff-Com:  0.428D-04-0.815D-05-0.382D-03-0.111D-02-0.544D-02-0.948D-02
 Coeff-Com: -0.185D-01 0.512D-01 0.422D+00 0.562D+00
 Coeff:      0.428D-04-0.815D-05-0.382D-03-0.111D-02-0.544D-02-0.948D-02
 Coeff:     -0.185D-01 0.512D-01 0.422D+00 0.562D+00
 Gap=     0.183 Goal=   None    Shift=    0.000
 RMSDP=3.38D-07 MaxDP=7.37D-06 DE=-9.36D-09 OVMax= 1.47D-05

 Cycle  11  Pass 1  IDiag  1:
 E= -495.563701333635     Delta-E=       -0.000000001871 Rises=F Damp=F
 DIIS: error= 3.58D-07 at cycle  11 NSaved=  11.
 NSaved=11 IEnMin=11 EnMin= -495.563701333635     IErMin=11 ErrMin= 3.58D-07
 ErrMax= 3.58D-07  0.00D+00 EMaxC= 1.00D+00 BMatC= 5.48D-11 BMatP= 1.79D-09
 IDIUse=1 WtCom= 1.00D+00 WtEn= 0.00D+00
 Coeff-Com:  0.999D-05 0.181D-05-0.480D-04-0.299D-03-0.173D-02-0.334D-02
 Coeff-Com: -0.964D-02 0.751D-02 0.113D+00 0.214D+00 0.681D+00
 Coeff:      0.999D-05 0.181D-05-0.480D-04-0.299D-03-0.173D-02-0.334D-02
 Coeff:     -0.964D-02 0.751D-02 0.113D+00 0.214D+00 0.681D+00
 Gap=     0.183 Goal=   None    Shift=    0.000
 RMSDP=6.38D-08 MaxDP=2.16D-06 DE=-1.87D-09 OVMax= 2.86D-06

[...]
 RMSDP=5.94D-06 MaxDP=2.09D-04 DE=-1.26D-07 OVMax= 5.05D-05

 Cycle  10  Pass 1  IDiag  1:
 RMSU=  2.32D-06    CP:  1.00D+00
 E= -492.674591693877     Delta-E=       -0.000000015366 Rises=F Damp=F
 DIIS: error= 2.74D-06 at cycle   2 NSaved=   2.
 NSaved= 2 IEnMin= 2 EnMin= -492.674591693877     IErMin= 2 ErrMin= 2.74D-06
 ErrMax= 2.74D-06  0.00D+00 EMaxC= 1.00D-01 BMatC= 2.65D-09 BMatP= 7.01D-09
 IDIUse=1 WtCom= 1.00D+00 WtEn= 0.00D+00
 Coeff-Com:  0.289D+00 0.711D+00
 Coeff:      0.289D+00 0.711D+00
 Gap=     0.292 Goal=   None    Shift=    0.000
 RMSDP=7.12D-07 MaxDP=2.41D-05 DE=-1.54D-08 OVMax= 3.00D-05

 Cycle  11  Pass 1  IDiag  1:
 RMSU=  6.54D-07    CP:  1.00D+00  1.12D+00
 E= -492.674591699118     Delta-E=       -0.000000005241 Rises=F Damp=F
 DIIS: error= 1.91D-06 at cycle   3 NSaved=   3.
 NSaved= 3 IEnMin= 3 EnMin= -492.674591699118     IErMin= 3 ErrMin= 1.91D-06
 ErrMax= 1.91D-06  0.00D+00 EMaxC= 1.00D-01 BMatC= 8.09D-10 BMatP= 2.65D-09
 IDIUse=1 WtCom= 1.00D+00 WtEn= 0.00D+00
 Coeff-Com: -0.437D+00-0.133D+00 0.157D+01
 Coeff:     -0.437D+00-0.133D+00 0.157D+01
 Gap=     0.292 Goal=   None    Shift=    0.000
 RMSDP=1.44D-06 MaxDP=3.62D-05 DE=-5.24D-09 OVMax= 5.18D-05

 Cycle  12  Pass 1  IDiag  1:
 RMSU=  4.50D-07    CP:  1.00D+00  1.64D+00  1.97D+00
 E= -492.674591703523     Delta-E=       -0.000000004405 Rises=F Damp=F
 DIIS: error= 6.97D-07 at cycle   4 NSaved=   4.
 NSaved= 4 IEnMin= 4 EnMin= -492.674591703523     IErMin= 4 ErrMin= 6.97D-07
 ErrMax= 6.97D-07  0.00D+00 EMaxC= 1.00D-01 BMatC= 1.06D-10 BMatP= 8.09D-10
 IDIUse=1 WtCom= 1.00D+00 WtEn= 0.00D+00
 Coeff-Com: -0.191D+00-0.140D+00 0.499D+00 0.832D+00
 Coeff:     -0.191D+00-0.140D+00 0.499D+00 0.832D+00
 Gap=     0.292 Goal=   None    Shift=    0.000
 RMSDP=4.36D-07 MaxDP=1.17D-05 DE=-4.40D-09 OVMax= 1.52D-05

 Cycle  13  Pass 1  IDiag  1:
 RMSU=  1.69D-07    CP:  1.00D+00  1.79D+00  2.21D+00  1.33D+00
 E= -492.674591703986     Delta-E=       -0.000000000463 Rises=F Damp=F
 DIIS: error= 2.74D-07 at cycle   5 NSaved=   5.
 NSaved= 5 IEnMin= 5 EnMin= -492.674591703986     IErMin= 5 ErrMin= 2.74D-07
 ErrMax= 2.74D-07  0.00D+00 EMaxC= 1.00D-01 BMatC= 1.41D-11 BMatP= 1.06D-10
 IDIUse=1 WtCom= 1.00D+00 WtEn= 0.00D+00
 Coeff-Com:  0.127D+00 0.734D-01-0.416D+00-0.270D+00 0.149D+01
 Coeff:      0.127D+00 0.734D-01-0.416D+00-0.270D+00 0.149D+01
 Gap=     0.292 Goal=   None    Shift=    0.000
 RMSDP=2.50D-07 MaxDP=7.24D-06 DE=-4.63D-10 OVMax= 8.16D-06

 Cycle  14  Pass 1  IDiag  1:
 RMSU=  6.24D-08    CP:  1.00D+00  1.82D+00  2.36D+00  1.71D+00  1.62D+00
 E= -492.674591704044     Delta-E=       -0.000000000059 Rises=F Damp=F
 DIIS: error= 7.34D-08 at cycle   6 NSaved=   6.
 NSaved= 6 IEnMin= 6 EnMin= -492.674591704044     IErMin= 6 ErrMin= 7.34D-08
 ErrMax= 7.34D-08  0.00D+00 EMaxC= 1.00D-01 BMatC= 2.35D-12 BMatP= 1.41D-11
 IDIUse=1 WtCom= 1.00D+00 WtEn= 0.00D+00
 Coeff-Com:  0.654D-01 0.424D-01-0.196D+00-0.206D+00 0.476D+00 0.818D+00
 Coeff:      0.654D-01 0.424D-01-0.196D+00-0.206D+00 0.476D+00 0.818D+00
 Gap=     0.292 Goal=   None    Shift=    0.000
 RMSDP=5.55D-08 MaxDP=1.29D-06 DE=-5.87D-11 OVMax= 1.59D-06

 Cycle  15  Pass 1  IDiag  1:
 RMSU=  2.59D-08    CP:  1.00D+00  1.83D+00  2.38D+00  1.78D+00  1.77D+00
                    CP:  1.07D+00
 E= -492.674591704049     Delta-E=       -0.000000000005 Rises=F Damp=F
 DIIS: error= 2.85D-08 at cycle   7 NSaved=   7.
 NSaved= 7 IEnMin= 7 EnMin= -492.674591704049     IErMin= 7 ErrMin= 2.85D-08
 ErrMax= 2.85D-08  0.00D+00 EMaxC= 1.00D-01 BMatC= 2.46D-13 BMatP= 2.35D-12
 IDIUse=1 WtCom= 1.00D+00 WtEn= 0.00D+00
 Coeff-Com: -0.282D-01-0.169D-01 0.922D-01 0.585D-01-0.275D+00-0.135D+00
 Coeff-Com:  0.130D+01
 Coeff:     -0.282D-01-0.169D-01 0.922D-01 0.585D-01-0.275D+00-0.135D+00
 Coeff:      0.130D+01
 Gap=     0.292 Goal=   None    Shift=    0.000
 RMSDP=2.39D-08 MaxDP=9.00D-07 DE=-5.00D-12 OVMax= 6.40D-07

 Cycle  16  Pass 1  IDiag  1:
 RMSU=  1.16D-08    CP:  1.00D+00  1.84D+00  2.39D+00  1.78D+00  1.81D+00
                    CP:  1.18D+00  1.43D+00
 E= -492.674591704094     Delta-E=       -0.000000000044 Rises=F Damp=F
 DIIS: error= 9.26D-09 at cycle   8 NSaved=   8.
 NSaved= 8 IEnMin= 8 EnMin= -492.674591704094     IErMin= 8 ErrMin= 9.26D-09
 ErrMax= 9.26D-09  0.00D+00 EMaxC= 1.00D-01 BMatC= 3.52D-14 BMatP= 2.46D-13
 IDIUse=1 WtCom= 1.00D+00 WtEn= 0.00D+00
 Coeff-Com: -0.119D-01-0.805D-02 0.373D-01 0.311D-01-0.851D-01-0.132D+00
 Coeff-Com:  0.124D+00 0.104D+01
 Coeff:     -0.119D-01-0.805D-02 0.373D-01 0.311D-01-0.851D-01-0.132D+00
 Coeff:      0.124D+00 0.104D+01
 Gap=     0.292 Goal=   None    Shift=    0.000
 RMSDP=7.82D-09 MaxDP=2.43D-07 DE=-4.42D-11 OVMax= 1.78D-07

 SCF Done:  E(RHF) =  -492.674591704     A.U. after   16 cycles
            NFock= 16  Conv=0.78D-08     -V/T= 2.0013
 KE= 4.920595089008D+02 PE=-2.138525447694D+03 EE= 6.694925369363D+02
 Leave Link  502 at Mon Jul 12 13:02:13 2021, MaxMem=   262144000 cpu:             549.8 elap:             138.9
 (Enter /dades/curu/g16A03_MST/g16/l801.exe)
 ExpMin= 2.97D-02 ExpMax= 1.17D+04 ExpMxC= 4.01D+02 IAcc=3 IRadAn=         5 AccDes= 0.00D+00
 HarFok:  IExCor=  205 AccDes= 0.00D+00 IRadAn=         5 IDoV=-2 UseB2=F ITyADJ=14
 ICtDFT= 12500011 ScaDFX=  1.000000  1.000000  1.000000  1.000000
 Largest valence mixing into a core orbital is  1.18D-04
 Largest core mixing into a valence orbital is  4.25D-05
 Range of M.O.s used for correlation:    11   275
 NBasis=   275 NAE=    36 NBE=    36 NFC=    10 NFV=     0
 NROrb=    265 NOA=    26 NOB=    26 NVA=   239 NVB=   239

 **** Warning!!: The largest alpha MO coefficient is  0.11290241D+03

 Leave Link  801 at Mon Jul 12 13:02:14 2021, MaxMem=   262144000 cpu:               0.8 elap:               0.8
 (Enter /dades/curu/g16A03_MST/g16/l906.exe)
 FulOut=F Deriv=F AODrv=F NAtomX=    15
   MMem=          33  MDisk=          26 MDiskD=          26
  W3Min=     1833130 MinDsk=     2275006 NBas6D=         295
 NBas2D=       44080    NTT=       43660    LW2=     2000000
    MDV=   261550115 MDiskM=       12219 NBas2p=       43197
 Fully direct method using O(OVN) memory.
 IMap=   1   2   3   4   5   6   7   8   9  10  11  12  13  14  15  16  17  18  19  20
 IMap=  21  22  23  24  25  26
 JobTyp=1 Pass  1:  I=   1 to  26 NPSUse=  4 ParTrn=T ParDer=T DoDerP=F.
 Spin components of T(2) and E(2):
     alpha-alpha T2 =       0.7614639786D-01 E2=     -0.2131276155D+00
     alpha-beta  T2 =       0.3762517694D+00 E2=     -0.1115446068D+01
     beta-beta   T2 =       0.7614639786D-01 E2=     -0.2131276155D+00
 The integrals were generated   1 times.
 ANorm=    0.1236343223D+01
 E2 =    -0.1541701299D+01 EUMP2 =    -0.49421629300333D+03
 Leave Link  906 at Mon Jul 12 13:03:06 2021, MaxMem=   262144000 cpu:             206.5 elap:              51.8
 (Enter /dades/curu/g16A03_MST/g16/l601.exe)
 Copying SCF densities to generalized density rwf, IOpCl= 0 IROHF=0.

 **********************************************************************

            Population analysis using the SCF density.

 **********************************************************************

 Orbital symmetries:
       Occupied  (A) (A) (A) (A) (A) (A) (A) (A) (A) (A) (A) (A)
                 (A) (A) (A) (A) (A) (A) (A) (A) (A) (A) (A) (A)
                 (A) (A) (A) (A) (A) (A) (A) (A) (A) (A) (A) (A)
       Virtual   (A) (A) (A) (A) (A) (A) (A) (A) (A) (A) (A) (A)
                 (A) (A) (A) (A) (A) (A) (A) (A) (A) (A) (A) (A)
                 (A) (A) (A) (A) (A) (A) (A) (A) (A) (A) (A) (A)
                 (A) (A) (A) (A) (A) (A) (A) (A) (A) (A) (A) (A)
                 (A) (A) (A) (A) (A) (A) (A) (A) (A) (A) (A) (A)
                 (A) (A) (A) (A) (A) (A) (A) (A) (A) (A) (A) (A)
                 (A) (A) (A) (A) (A) (A) (A) (A) (A) (A) (A) (A)
                 (A) (A) (A) (A) (A) (A) (A) (A) (A) (A) (A) (A)
                 (A) (A) (A) (A) (A) (A) (A) (A) (A) (A) (A) (A)
                 (A) (A) (A) (A) (A) (A) (A) (A) (A) (A) (A) (A)
                 (A) (A) (A) (A) (A) (A) (A) (A) (A) (A) (A) (A)
                 (A) (A) (A) (A) (A) (A) (A) (A) (A) (A) (A) (A)
                 (A) (A) (A) (A) (A) (A) (A) (A) (A) (A) (A) (A)
                 (A) (A) (A) (A) (A) (A) (A) (A) (A) (A) (A) (A)
                 (A) (A) (A) (A) (A) (A) (A) (A) (A) (A) (A) (A)
                 (A) (A) (A) (A) (A) (A) (A) (A) (A) (A) (A) (A)
                 (A) (A) (A) (A) (A) (A) (A) (A) (A) (A) (A) (A)
                 (A) (A) (A) (A) (A) (A) (A) (A) (A) (A) (A) (A)
                 (A) (A) (A) (A) (A) (A) (A) (A) (A) (A) (A) (A)
                 (A) (A) (A) (A) (A) (A) (A) (A) (A) (A) (A)
 The electronic state is 1-A.
 Alpha  occ. eigenvalues --  -20.47065 -20.30914 -20.30749 -11.18508 -11.16033
 Alpha  occ. eigenvalues --  -11.13199 -11.12048 -11.11271 -11.10993 -11.09829
 Alpha  occ. eigenvalues --   -1.27864  -1.17806  -1.07375  -1.02183  -0.89550
 Alpha  occ. eigenvalues --   -0.88011  -0.72039  -0.70693  -0.60595  -0.59094
 Alpha  occ. eigenvalues --   -0.53437  -0.51355  -0.47141  -0.46319  -0.45853
 Alpha  occ. eigenvalues --   -0.43353  -0.40422  -0.39297  -0.37327  -0.36728
 Alpha  occ. eigenvalues --   -0.34630  -0.22461  -0.21575  -0.20368  -0.19504
 Alpha  occ. eigenvalues --   -0.18455
 Alpha virt. eigenvalues --    0.10782   0.11533   0.12628   0.14776   0.15973
 Alpha virt. eigenvalues --    0.20718   0.21312   0.21553   0.21981   0.22480
 Alpha virt. eigenvalues --    0.22526   0.22827   0.23309   0.24136   0.24766
 Alpha virt. eigenvalues --    0.25219   0.25517   0.26112   0.27203   0.28366
 Alpha virt. eigenvalues --    0.28502   0.29224   0.29372   0.29935   0.31049
 Alpha virt. eigenvalues --    0.32360   0.33374   0.34026   0.35298   0.36494
 Alpha virt. eigenvalues --    0.38710   0.39927   0.40582   0.41583   0.41742
 Alpha virt. eigenvalues --    0.42208   0.43589   0.44095   0.44473   0.45003
 Alpha virt. eigenvalues --    0.46495   0.46852   0.47212   0.48232   0.48673
 Alpha virt. eigenvalues --    0.49184   0.49663   0.50858   0.51081   0.51862
 Alpha virt. eigenvalues --    0.52563   0.53391   0.54517   0.55439   0.55741
 Alpha virt. eigenvalues --    0.58211   0.59401   0.59792   0.60492   0.60846
 Alpha virt. eigenvalues --    0.61641   0.64533   0.65677   0.66867   0.67949
 Alpha virt. eigenvalues --    0.69352   0.70154   0.70972   0.71368   0.72051
 Alpha virt. eigenvalues --    0.72977   0.73794   0.75324   0.75832   0.77544
 Alpha virt. eigenvalues --    0.78039   0.79404   0.80223   0.81037   0.81669
 Alpha virt. eigenvalues --    0.82823   0.83333   0.85786   0.86191   0.86772
 Alpha virt. eigenvalues --    0.86984   0.88046   0.89710   0.92056   0.92355
 Alpha virt. eigenvalues --    0.93973   0.96084   0.96568   0.97017   0.98124
 Alpha virt. eigenvalues --    0.99112   1.00131   1.01667   1.02070   1.03456
 Alpha virt. eigenvalues --    1.04635   1.05960   1.07942   1.08007   1.08287
 Alpha virt. eigenvalues --    1.09830   1.10776   1.11420   1.12349   1.14166
 Alpha virt. eigenvalues --    1.14402   1.17328   1.18178   1.18830   1.22384
 Alpha virt. eigenvalues --    1.22486   1.23508   1.25385   1.28679   1.29429
 Alpha virt. eigenvalues --    1.31021   1.32181   1.36078   1.36349   1.39238
 Alpha virt. eigenvalues --    1.41117   1.42050   1.44485   1.49738   1.51282
 Alpha virt. eigenvalues --    1.53564   1.54241   1.56460   1.57506   1.58320
 Alpha virt. eigenvalues --    1.60871   1.62224   1.63059   1.63336   1.64931
 Alpha virt. eigenvalues --    1.66907   1.67931   1.70400   1.70767   1.71429
 Alpha virt. eigenvalues --    1.73589   1.74463   1.76453   1.79727   1.80318
 Alpha virt. eigenvalues --    1.81513   1.83332   1.84143   1.85222   1.86403
 Alpha virt. eigenvalues --    1.87040   1.89844   1.90905   1.91726   1.94186
 Alpha virt. eigenvalues --    1.96112   1.99242   2.00571   2.02157   2.02574
 Alpha virt. eigenvalues --    2.05026   2.06173   2.07316   2.09310   2.10513
 Alpha virt. eigenvalues --    2.11361   2.11787   2.13901   2.16456   2.17392
 Alpha virt. eigenvalues --    2.19801   2.22305   2.23963   2.26910   2.27940
 Alpha virt. eigenvalues --    2.30070   2.32585   2.33700   2.35568   2.36148
 Alpha virt. eigenvalues --    2.36744   2.38792   2.39607   2.43867   2.44643
 Alpha virt. eigenvalues --    2.47456   2.48859   2.49075   2.50577   2.52465
 Alpha virt. eigenvalues --    2.55154   2.56740   2.59387   2.62480   2.70996
 Alpha virt. eigenvalues --    2.72020   2.75388   2.77598   2.85139   2.90038
 Alpha virt. eigenvalues --    2.91903   2.93312   2.96940   3.05499   3.08752
 Alpha virt. eigenvalues --    3.12197   3.14234   3.21892   3.27412   3.33116
 Alpha virt. eigenvalues --    3.38206   3.41076   3.44842   3.46923   3.54110
 Alpha virt. eigenvalues --    3.73285   3.77680   3.89640   3.90555   3.91603
 Alpha virt. eigenvalues --    3.97895   3.99803   4.01581   4.02767   4.07172
 Alpha virt. eigenvalues --    4.09097   4.13951   4.14401   4.15452   4.20220
 Alpha virt. eigenvalues --    4.36325   4.43392   4.54858   4.83430
          Condensed to atoms (all electrons):
               1          2          3          4          5          6
     1  O    8.949656   0.129298  -0.095997   0.063099  -0.005888  -0.004012
     2  C    0.129298   6.694843   0.214003  -0.701339  -0.405979   0.004646
     3  O   -0.095997   0.214003   8.876253   0.105482   0.058170  -0.058807
     4  C    0.063099  -0.701339   0.105482  10.875932  -3.414387   0.275421
     5  C   -0.005888  -0.405979   0.058170  -3.414387  14.176090  -0.998275
     6  O   -0.004012   0.004646  -0.058807   0.275421  -0.998275   9.155137
     7  H    0.000730   0.007463   0.009462  -0.027776   0.053702   0.269900
     8  C   -0.015541  -0.192485  -0.062389   2.194844  -6.005563   0.551604
     9  H    0.000159   0.011946  -0.000703  -0.200252   0.928817  -0.136471
    10  C    0.001743   0.189632  -0.017729  -2.666629   2.466323  -0.164385
    11  H    0.000188  -0.007361  -0.000295   0.054883  -0.120163  -0.002345
    12  C   -0.102771  -0.325219  -0.003324   2.032711  -3.592051   0.158341
    13  H    0.000348   0.010835   0.000936  -0.107586   0.086595   0.002204
    14  C    0.075759  -0.542874  -0.077079  -3.442691   1.892610  -0.126930
    15  H   -0.025842   0.110276  -0.003426   0.403481  -0.138553  -0.000636
               7          8          9         10         11         12
     1  O    0.000730  -0.015541   0.000159   0.001743   0.000188  -0.102771
     2  C    0.007463  -0.192485   0.011946   0.189632  -0.007361  -0.325219
     3  O    0.009462  -0.062389  -0.000703  -0.017729  -0.000295  -0.003324
     4  C   -0.027776   2.194844  -0.200252  -2.666629   0.054883   2.032711
     5  C    0.053702  -6.005563   0.928817   2.466323  -0.120163  -3.592051
     6  O    0.269900   0.551604  -0.136471  -0.164385  -0.002345   0.158341
     7  H    0.640183  -0.177422   0.000564   0.054859  -0.001394  -0.027164
     8  C   -0.177422  13.562521  -1.133879  -2.973061   0.397271   3.602313
     9  H    0.000564  -1.133879   1.983214   0.384915  -0.064531  -0.272753
    10  C    0.054859  -2.973061   0.384915   9.249317  -0.628322  -2.993112
    11  H   -0.001394   0.397271  -0.064531  -0.628322   1.645040   0.378038
    12  C   -0.027164   3.602313  -0.272753  -2.993112   0.378038  10.942556
    13  H    0.000097  -0.177433  -0.019785   0.317927  -0.052995  -0.758288
    14  C    0.031733  -4.258712   0.175476   2.685371  -0.134599  -3.671576
    15  H   -0.001050   0.109262   0.011004  -0.125449  -0.011769   0.361941
              13         14         15
     1  O    0.000348   0.075759  -0.025842
     2  C    0.010835  -0.542874   0.110276
     3  O    0.000936  -0.077079  -0.003426
     4  C   -0.107586  -3.442691   0.403481
     5  C    0.086595   1.892610  -0.138553
     6  O    0.002204  -0.126930  -0.000636
     7  H    0.000097   0.031733  -0.001050
     8  C   -0.177433  -4.258712   0.109262
     9  H   -0.019785   0.175476   0.011004
    10  C    0.317927   2.685371  -0.125449
    11  H   -0.052995  -0.134599  -0.011769
    12  C   -0.758288  -3.671576   0.361941
    13  H    1.667654   0.564018  -0.082508
    14  C    0.564018  13.258013  -0.845908
    15  H   -0.082508  -0.845908   1.853711
 Mulliken charges:
               1
     1  O   -0.970929
     2  C    0.802313
     3  O   -0.944557
     4  C    0.554807
     5  C    1.018550
     6  O   -0.925392
     7  H    0.166115
     8  C    0.578670
     9  H   -0.667721
    10  C    0.218601
    11  H   -0.451646
    12  C    0.270357
    13  H   -0.452021
    14  C    0.417389
    15  H   -0.614534
 Sum of Mulliken charges =  -1.00000
 Mulliken charges with hydrogens summed into heavy atoms:
               1
     1  O   -0.970929
     2  C    0.802313
     3  O   -0.944557
     4  C    0.554807
     5  C    1.018550
     6  O   -0.759278
     8  C   -0.089051
    10  C   -0.233046
    12  C   -0.181663
    14  C   -0.197145
 Electronic spatial extent (au):  <R**2>=           1374.6317
 Charge=             -1.0000 electrons
 Dipole moment (field-independent basis, Debye):
    X=            -11.1771    Y=              1.9193    Z=             -0.2479  Tot=             11.3434
 Quadrupole moment (field-independent basis, Debye-Ang):
   XX=            -91.5245   YY=            -62.7088   ZZ=            -64.8683
   XY=             -0.7192   XZ=             -0.4106   YZ=             -4.0052
 Traceless Quadrupole moment (field-independent basis, Debye-Ang):
   XX=            -18.4907   YY=             10.3251   ZZ=              8.1655
   XY=             -0.7192   XZ=             -0.4106   YZ=             -4.0052
 Octapole moment (field-independent basis, Debye-Ang**2):
  XXX=            -70.9343  YYY=             29.8117  ZZZ=             -1.3613  XYY=            -27.0124
  XXY=             14.8775  XXZ=             -2.2493  XZZ=              7.8205  YZZ=              5.2931
  YYZ=              0.4834  XYZ=             -6.6103
 Hexadecapole moment (field-independent basis, Debye-Ang**3):
 XXXX=          -1357.2325 YYYY=           -539.6812 ZZZZ=            -91.7142 XXXY=             18.4883
 XXXZ=             -7.8148 YYYX=            -14.7177 YYYZ=            -13.4851 ZZZX=              1.0686
 ZZZY=             -1.4248 XXYY=           -335.7358 XXZZ=           -233.0084 YYZZ=           -126.1119
 XXYZ=            -20.4411 YYXZ=              6.9482 ZZXY=             -3.4646
 N-N= 4.842988101532D+02 E-N=-2.138525449491D+03  KE= 4.920595089008D+02
 Leave Link  601 at Mon Jul 12 13:03:06 2021, MaxMem=   262144000 cpu:               0.2 elap:               0.1
 (Enter /dades/curu/g16A03_MST/g16/l9999.exe)
 1\1\GINC-PIRINEUS23\SP\RMP2-FC\Aug-CC-pVDZ\C7H5O3(1-)\UBATOR02\12-Jul-
 2021\0\\#p mp2/aug-cc-pVDZ scf=tight maxdisk=180GB geom=allcheck\\SET_
 328_BBB299_conf1.geo_195_180 geometry\\-1,1\O,0,0.0510817466,-1.884010
 6454,2.3080802801\C,0,-0.7241150944,-1.0404055906,1.7741365346\O,0,-1.
 8956180373,-0.7616618809,2.1414673614\C,0,-0.1730557854,-0.3325703301,
 0.5282790429\C,0,-0.6044855535,0.9227261785,0.0508947908\O,0,-1.535144
 0521,1.6354984225,0.7528674038\H,0,-1.6680603614,2.4820066474,0.299470
 3728\C,0,-0.0584461126,1.4569429134,-1.1254221071\H,0,-0.4000187616,2.
 4288272335,-1.4723874231\C,0,0.9088859506,0.7619966675,-1.8459151941\H
 ,0,1.3110268153,1.193892957,-2.7573424567\C,0,1.3564367817,-0.47665535
 13,-1.385824057\H,0,2.1143453694,-1.0282132839,-1.932808262\C,0,0.8181
 588497,-0.9928573023,-0.2090290996\H,0,1.1570082452,-1.9415166351,0.18
 95328131\\Version=ES64L-G16RevA.03\State=1-A\HF=-492.6745917\MP2=-494.
 216293\RMSD=7.821e-09\PG=C01 [X(C7H5O3)]\\@


 THE PROMISED LAND ALWAYS LIES ON THE OTHER SIDE OF A WILDERNESS.

                         -- HAVELOCK ELLIS
 Job cpu time:       0 days  0 hours 12 minutes 49.1 seconds.
 Elapsed time:       0 days  0 hours  3 minutes 14.8 seconds.
 File lengths (MBytes):  RWF=     46 Int=      0 D2E=      0 Chk=      9 Scr=      1
 Normal termination of Gaussian 16 at Mon Jul 12 13:03:06 2021.
