 Entering Gaussian System, Link 0=g16
 Input=SET_328_BBB212_conf1.geo_060_225_OCTANOL.dat
 Output=SET_328_BBB212_conf1.geo_060_225_OCTANOL.log
 Initial command:
 /dades/curu/g16A03_MST/g16/l1.exe "/tmp/ubator02/1835274/Gau-96892.inp" -scrdir="/tmp/ubator02/1835274/"
 Entering Link 1 = /dades/curu/g16A03_MST/g16/l1.exe PID=     96894.
  
 Copyright (c) 1988,1990,1992,1993,1995,1998,2003,2009,2016,
            Gaussian, Inc.  All Rights Reserved.
  
 This is part of the Gaussian(R) 16 program.  It is based on
 the Gaussian(R) 09 system (copyright 2009, Gaussian, Inc.),
 the Gaussian(R) 03 system (copyright 2003, Gaussian, Inc.),
 the Gaussian(R) 98 system (copyright 1998, Gaussian, Inc.),
 the Gaussian(R) 94 system (copyright 1995, Gaussian, Inc.),
 the Gaussian 92(TM) system (copyright 1992, Gaussian, Inc.),
 the Gaussian 90(TM) system (copyright 1990, Gaussian, Inc.),
 the Gaussian 88(TM) system (copyright 1988, Gaussian, Inc.),
 the Gaussian 86(TM) system (copyright 1986, Carnegie Mellon
 University), and the Gaussian 82(TM) system (copyright 1983,
 Carnegie Mellon University). Gaussian is a federally registered
 trademark of Gaussian, Inc.
  
 This software contains proprietary and confidential information,
 including trade secrets, belonging to Gaussian, Inc.
  
 This software is provided under written license and may be
 used, copied, transmitted, or stored only in accord with that
 written license.
  
 The following legend is applicable only to US Government
 contracts under FAR:
  
                    RESTRICTED RIGHTS LEGEND
  
 Use, reproduction and disclosure by the US Government is
 subject to restrictions as set forth in subparagraphs (a)
 and (c) of the Commercial Computer Software - Restricted
 Rights clause in FAR 52.227-19.
  
 Gaussian, Inc.
 340 Quinnipiac St., Bldg. 40, Wallingford CT 06492
  
  
 ---------------------------------------------------------------
 Warning -- This program may not be used in any manner that
 competes with the business of Gaussian, Inc. or will provide
 assistance to any competitor of Gaussian, Inc.  The licensee
 of this program is prohibited from giving any competitor of
 Gaussian, Inc. access to this program.  By using this program,
 the user acknowledges that Gaussian, Inc. is engaged in the
 business of creating and licensing software in the field of
 computational chemistry and represents and warrants to the
 licensee that it is not a competitor of Gaussian, Inc. and that
 it will not use this program in any manner prohibited above.
 ---------------------------------------------------------------
  

 Cite this work as:
 Gaussian 16, Revision A.03,
 M. J. Frisch, G. W. Trucks, H. B. Schlegel, G. E. Scuseria, 
 M. A. Robb, J. R. Cheeseman, G. Scalmani, V. Barone, 
 G. A. Petersson, H. Nakatsuji, X. Li, M. Caricato, A. V. Marenich, 
 J. Bloino, B. G. Janesko, R. Gomperts, B. Mennucci, H. P. Hratchian, 
 J. V. Ortiz, A. F. Izmaylov, J. L. Sonnenberg, D. Williams-Young, 
 F. Ding, F. Lipparini, F. Egidi, J. Goings, B. Peng, A. Petrone, 
 T. Henderson, D. Ranasinghe, V. G. Zakrzewski, J. Gao, N. Rega, 
 G. Zheng, W. Liang, M. Hada, M. Ehara, K. Toyota, R. Fukuda, 
 J. Hasegawa, M. Ishida, T. Nakajima, Y. Honda, O. Kitao, H. Nakai, 
 T. Vreven, K. Throssell, J. A. Montgomery, Jr., J. E. Peralta, 
 F. Ogliaro, M. J. Bearpark, J. J. Heyd, E. N. Brothers, K. N. Kudin, 
 V. N. Staroverov, T. A. Keith, R. Kobayashi, J. Normand, 
 K. Raghavachari, A. P. Rendell, J. C. Burant, S. S. Iyengar, 
 J. Tomasi, M. Cossi, J. M. Millam, M. Klene, C. Adamo, R. Cammi, 
 J. W. Ochterski, R. L. Martin, K. Morokuma, O. Farkas, 
 J. B. Foresman, and D. J. Fox, Gaussian, Inc., Wallingford CT, 2016.
 
 ******************************************
 Gaussian 16:  ES64L-G16RevA.03 25-Dec-2016
                12-Jul-2021 
 ******************************************
 %mem=800MB
 %nproc=4
 Will use up to    4 processors via shared memory.
 %chk=SET_328_BBB212_conf1.geo_060_225.chk
 ---------------------------------------------------------------
 #p b3lyp/6-31G(d) opt freq scrf=(iefpcm,read,solvent=n-octanol)
 ---------------------------------------------------------------
 1/18=20,19=15,26=3,38=1,40=2/1,3;
 2/9=110,12=2,17=6,18=5,40=1/2;
 3/5=1,6=6,7=1,11=2,25=1,30=1,70=2203,71=1,72=25,74=-5/1,2,3;
 4//1;
 5/5=2,38=5,53=25/2;
 6/7=2,8=2,9=2,10=2,28=1/1;
 7//1,2,3,16;
 1/18=20,19=15,26=3/3(2);
 2/9=110/2;
 99//99;
 2/9=110/2;
 3/5=1,6=6,7=1,11=2,25=1,30=1,70=2205,71=1,72=25,74=-5/1,2,3;
 4/5=5,16=3,69=1/1;
 5/5=2,38=5,53=25/2;
 7//1,2,3,16;
 1/18=20,19=15,26=3/3(-5);
 2/9=110/2;
 6/7=2,8=2,9=2,10=2,19=2,28=1/1;
 99/9=1/99;
 Leave Link    1 at Mon Jul 12 12:15:37 2021, MaxMem=   104857600 cpu:               0.0 elap:               0.0
 (Enter /dades/curu/g16A03_MST/g16/l101.exe)
 -----------------------------------------
 SET_328_BBB212_conf1.geo_060_225 geometry
 -----------------------------------------
 Symbolic Z-matrix:
 Charge = -1 Multiplicity = 1
 C                    -1.509     1.077    -1.671 
 H                    -2.018     0.127    -1.85 
 H                    -1.182     1.441    -2.647 
 H                    -2.312     1.72     -1.304 
 C                    -0.355     0.934    -0.619 
 C                     0.157     2.397    -0.563 
 H                     0.762     2.509     0.34 
 H                    -0.626     3.158    -0.564 
 H                     0.75      2.677    -1.437 
 C                     0.746     0.037    -1.165 
 C                     0.264    -1.3      -1.381 
 C                     1.098    -2.365    -1.658 
 C                     2.493    -2.011    -1.849 
 O                     3.345    -3.043    -2.006 
 H                     4.2      -2.58     -2.066 
 C                     2.982    -0.694    -1.722 
 C                     2.093     0.321    -1.406 
 H                     2.463     1.34     -1.334 
 H                     3.996    -0.382    -1.956 
 H                     0.686    -3.365    -1.761 
 H                    -0.763    -1.507    -1.09 
 C                    -0.918     0.428     0.746 
 C                    -2.263     0.378     1.006 
 H                    -3.029     0.701     0.306 
 C                    -2.701     0.009     2.261 
 H                    -3.762     0.163     2.439 
 C                    -1.793    -0.308     3.278 
 O                    -2.214    -0.748     4.442 
 C                    -0.434    -0.199     3.034 
 H                     0.293    -0.436     3.806 
 C                    -0.023     0.106     1.77 
 H                     1.043     0.055     1.561 
 
 ITRead=  0  0  0  0  0  0  0  0  0  0  0  0  0  0  0  0  0  0  0  0
 ITRead=  0  0  0  0  0  0  0  0  0  0  0  0
 MicOpt= -1 -1 -1 -1 -1 -1 -1 -1 -1 -1 -1 -1 -1 -1 -1 -1 -1 -1 -1 -1
 MicOpt= -1 -1 -1 -1 -1 -1 -1 -1 -1 -1 -1 -1
 NAtoms=     32 NQM=       32 NQMF=       0 NMMI=      0 NMMIF=      0
                NMic=       0 NMicF=      0.
                    Isotopes and Nuclear Properties:
 (Nuclear quadrupole moments (NQMom) in fm**2, nuclear magnetic moments (NMagM)
  in nuclear magnetons)

  Atom         1           2           3           4           5           6           7           8           9          10
 IAtWgt=          12           1           1           1          12          12           1           1           1          12
 AtmWgt=  12.0000000   1.0078250   1.0078250   1.0078250  12.0000000  12.0000000   1.0078250   1.0078250   1.0078250  12.0000000
 NucSpn=           0           1           1           1           0           0           1           1           1           0
 AtZEff=  -0.0000000  -0.0000000  -0.0000000  -0.0000000  -0.0000000  -0.0000000  -0.0000000  -0.0000000  -0.0000000  -0.0000000
 NQMom=    0.0000000   0.0000000   0.0000000   0.0000000   0.0000000   0.0000000   0.0000000   0.0000000   0.0000000   0.0000000
 NMagM=    0.0000000   2.7928460   2.7928460   2.7928460   0.0000000   0.0000000   2.7928460   2.7928460   2.7928460   0.0000000
 AtZNuc=   6.0000000   1.0000000   1.0000000   1.0000000   6.0000000   6.0000000   1.0000000   1.0000000   1.0000000   6.0000000

  Atom        11          12          13          14          15          16          17          18          19          20
 IAtWgt=          12          12          12          16           1          12          12           1           1           1
 AtmWgt=  12.0000000  12.0000000  12.0000000  15.9949146   1.0078250  12.0000000  12.0000000   1.0078250   1.0078250   1.0078250
 NucSpn=           0           0           0           0           1           0           0           1           1           1
 AtZEff=  -0.0000000  -0.0000000  -0.0000000  -0.0000000  -0.0000000  -0.0000000  -0.0000000  -0.0000000  -0.0000000  -0.0000000
 NQMom=    0.0000000   0.0000000   0.0000000   0.0000000   0.0000000   0.0000000   0.0000000   0.0000000   0.0000000   0.0000000
 NMagM=    0.0000000   0.0000000   0.0000000   0.0000000   2.7928460   0.0000000   0.0000000   2.7928460   2.7928460   2.7928460
 AtZNuc=   6.0000000   6.0000000   6.0000000   8.0000000   1.0000000   6.0000000   6.0000000   1.0000000   1.0000000   1.0000000

  Atom        21          22          23          24          25          26          27          28          29          30
 IAtWgt=           1          12          12           1          12           1          12          16          12           1
 AtmWgt=   1.0078250  12.0000000  12.0000000   1.0078250  12.0000000   1.0078250  12.0000000  15.9949146  12.0000000   1.0078250
 NucSpn=           1           0           0           1           0           1           0           0           0           1
 AtZEff=  -0.0000000  -0.0000000  -0.0000000  -0.0000000  -0.0000000  -0.0000000  -0.0000000  -0.0000000  -0.0000000  -0.0000000
 NQMom=    0.0000000   0.0000000   0.0000000   0.0000000   0.0000000   0.0000000   0.0000000   0.0000000   0.0000000   0.0000000
 NMagM=    2.7928460   0.0000000   0.0000000   2.7928460   0.0000000   2.7928460   0.0000000   0.0000000   0.0000000   2.7928460
 AtZNuc=   1.0000000   6.0000000   6.0000000   1.0000000   6.0000000   1.0000000   6.0000000   8.0000000   6.0000000   1.0000000

  Atom        31          32
 IAtWgt=          12           1
 AtmWgt=  12.0000000   1.0078250
 NucSpn=           0           1
 AtZEff=  -0.0000000  -0.0000000
 NQMom=    0.0000000   0.0000000
 NMagM=    0.0000000   2.7928460
 AtZNuc=   6.0000000   1.0000000
 Leave Link  101 at Mon Jul 12 12:15:38 2021, MaxMem=   104857600 cpu:               0.1 elap:               0.5
 (Enter /dades/curu/g16A03_MST/g16/l103.exe)

 GradGradGradGradGradGradGradGradGradGradGradGradGradGradGradGradGradGrad
 Berny optimization.
 Initialization pass.
                           ----------------------------
                           !    Initial Parameters    !
                           ! (Angstroms and Degrees)  !
 --------------------------                            --------------------------
 ! Name  Definition              Value          Derivative Info.                !
 --------------------------------------------------------------------------------
 ! R1    R(1,2)                  1.0925         estimate D2E/DX2                !
 ! R2    R(1,3)                  1.0918         estimate D2E/DX2                !
 ! R3    R(1,4)                  1.0922         estimate D2E/DX2                !
 ! R4    R(1,5)                  1.5681         estimate D2E/DX2                !
 ! R5    R(5,6)                  1.551          estimate D2E/DX2                !
 ! R6    R(5,10)                 1.5215         estimate D2E/DX2                !
 ! R7    R(5,22)                 1.5608         estimate D2E/DX2                !
 ! R8    R(6,7)                  1.0927         estimate D2E/DX2                !
 ! R9    R(6,8)                  1.0919         estimate D2E/DX2                !
 ! R10   R(6,9)                  1.0927         estimate D2E/DX2                !
 ! R11   R(10,11)                1.4375         estimate D2E/DX2                !
 ! R12   R(10,17)                1.3975         estimate D2E/DX2                !
 ! R13   R(11,12)                1.3808         estimate D2E/DX2                !
 ! R14   R(11,21)                1.0873         estimate D2E/DX2                !
 ! R15   R(12,13)                1.4518         estimate D2E/DX2                !
 ! R16   R(12,20)                1.0864         estimate D2E/DX2                !
 ! R17   R(13,14)                1.3474         estimate D2E/DX2                !
 ! R18   R(13,16)                1.4106         estimate D2E/DX2                !
 ! R19   R(14,15)                0.9742         estimate D2E/DX2                !
 ! R20   R(16,17)                1.3858         estimate D2E/DX2                !
 ! R21   R(16,19)                1.0864         estimate D2E/DX2                !
 ! R22   R(17,18)                1.0865         estimate D2E/DX2                !
 ! R23   R(22,23)                1.3708         estimate D2E/DX2                !
 ! R24   R(22,31)                1.3976         estimate D2E/DX2                !
 ! R25   R(23,24)                1.0868         estimate D2E/DX2                !
 ! R26   R(23,25)                1.3795         estimate D2E/DX2                !
 ! R27   R(25,26)                1.0868         estimate D2E/DX2                !
 ! R28   R(25,27)                1.3997         estimate D2E/DX2                !
 ! R29   R(27,28)                1.3137         estimate D2E/DX2                !
 ! R30   R(27,29)                1.385          estimate D2E/DX2                !
 ! R31   R(29,30)                1.0866         estimate D2E/DX2                !
 ! R32   R(29,31)                1.3637         estimate D2E/DX2                !
 ! R33   R(31,32)                1.0875         estimate D2E/DX2                !
 ! A1    A(2,1,3)              106.438          estimate D2E/DX2                !
 ! A2    A(2,1,4)              102.9697         estimate D2E/DX2                !
 ! A3    A(2,1,5)              111.9307         estimate D2E/DX2                !
 ! A4    A(3,1,4)              108.9233         estimate D2E/DX2                !
 ! A5    A(3,1,5)              114.1873         estimate D2E/DX2                !
 ! A6    A(4,1,5)              111.6736         estimate D2E/DX2                !
 ! A7    A(1,5,6)              100.4361         estimate D2E/DX2                !
 ! A8    A(1,5,10)             110.2158         estimate D2E/DX2                !
 ! A9    A(1,5,22)             110.5374         estimate D2E/DX2                !
 ! A10   A(6,5,10)             109.2797         estimate D2E/DX2                !
 ! A11   A(6,5,22)             113.1589         estimate D2E/DX2                !
 ! A12   A(10,5,22)            112.5646         estimate D2E/DX2                !
 ! A13   A(5,6,7)              108.0166         estimate D2E/DX2                !
 ! A14   A(5,6,8)              114.8759         estimate D2E/DX2                !
 ! A15   A(5,6,9)              113.078          estimate D2E/DX2                !
 ! A16   A(7,6,8)              109.0484         estimate D2E/DX2                !
 ! A17   A(7,6,9)              109.5279         estimate D2E/DX2                !
 ! A18   A(8,6,9)              102.1135         estimate D2E/DX2                !
 ! A19   A(5,10,11)            111.0762         estimate D2E/DX2                !
 ! A20   A(5,10,17)            129.7574         estimate D2E/DX2                !
 ! A21   A(11,10,17)           119.0946         estimate D2E/DX2                !
 ! A22   A(10,11,12)           123.0236         estimate D2E/DX2                !
 ! A23   A(10,11,21)           116.9711         estimate D2E/DX2                !
 ! A24   A(12,11,21)           118.5129         estimate D2E/DX2                !
 ! A25   A(11,12,13)           114.752          estimate D2E/DX2                !
 ! A26   A(11,12,20)           119.994          estimate D2E/DX2                !
 ! A27   A(13,12,20)           125.193          estimate D2E/DX2                !
 ! A28   A(12,13,14)           115.8579         estimate D2E/DX2                !
 ! A29   A(12,13,16)           123.2918         estimate D2E/DX2                !
 ! A30   A(14,13,16)           120.4229         estimate D2E/DX2                !
 ! A31   A(13,14,15)           101.4274         estimate D2E/DX2                !
 ! A32   A(13,16,17)           118.8151         estimate D2E/DX2                !
 ! A33   A(13,16,19)           124.9106         estimate D2E/DX2                !
 ! A34   A(17,16,19)           115.9461         estimate D2E/DX2                !
 ! A35   A(10,17,16)           120.5834         estimate D2E/DX2                !
 ! A36   A(10,17,18)           120.4904         estimate D2E/DX2                !
 ! A37   A(16,17,18)           118.9201         estimate D2E/DX2                !
 ! A38   A(5,22,23)            122.114          estimate D2E/DX2                !
 ! A39   A(5,22,31)            118.9768         estimate D2E/DX2                !
 ! A40   A(23,22,31)           118.7478         estimate D2E/DX2                !
 ! A41   A(22,23,24)           123.9561         estimate D2E/DX2                !
 ! A42   A(22,23,25)           119.5929         estimate D2E/DX2                !
 ! A43   A(24,23,25)           116.2114         estimate D2E/DX2                !
 ! A44   A(23,25,26)           114.9021         estimate D2E/DX2                !
 ! A45   A(23,25,27)           121.0381         estimate D2E/DX2                !
 ! A46   A(26,25,27)           123.1198         estimate D2E/DX2                !
 ! A47   A(25,27,28)           120.7805         estimate D2E/DX2                !
 ! A48   A(25,27,29)           119.3856         estimate D2E/DX2                !
 ! A49   A(28,27,29)           119.7958         estimate D2E/DX2                !
 ! A50   A(27,29,30)           120.9414         estimate D2E/DX2                !
 ! A51   A(27,29,31)           118.4648         estimate D2E/DX2                !
 ! A52   A(30,29,31)           120.3762         estimate D2E/DX2                !
 ! A53   A(22,31,29)           122.5238         estimate D2E/DX2                !
 ! A54   A(22,31,32)           119.8494         estimate D2E/DX2                !
 ! A55   A(29,31,32)           117.586          estimate D2E/DX2                !
 ! D1    D(2,1,5,6)           -179.4835         estimate D2E/DX2                !
 ! D2    D(2,1,5,10)            65.328          estimate D2E/DX2                !
 ! D3    D(2,1,5,22)           -59.7451         estimate D2E/DX2                !
 ! D4    D(3,1,5,6)             59.5026         estimate D2E/DX2                !
 ! D5    D(3,1,5,10)           -55.686          estimate D2E/DX2                !
 ! D6    D(3,1,5,22)           179.2409         estimate D2E/DX2                !
 ! D7    D(4,1,5,6)            -64.6263         estimate D2E/DX2                !
 ! D8    D(4,1,5,10)          -179.8149         estimate D2E/DX2                !
 ! D9    D(4,1,5,22)            55.112          estimate D2E/DX2                !
 ! D10   D(1,5,6,7)            163.4555         estimate D2E/DX2                !
 ! D11   D(1,5,6,8)             41.511          estimate D2E/DX2                !
 ! D12   D(1,5,6,9)            -75.1682         estimate D2E/DX2                !
 ! D13   D(10,5,6,7)           -80.6527         estimate D2E/DX2                !
 ! D14   D(10,5,6,8)           157.4028         estimate D2E/DX2                !
 ! D15   D(10,5,6,9)            40.7236         estimate D2E/DX2                !
 ! D16   D(22,5,6,7)            45.6307         estimate D2E/DX2                !
 ! D17   D(22,5,6,8)           -76.3138         estimate D2E/DX2                !
 ! D18   D(22,5,6,9)           167.007          estimate D2E/DX2                !
 ! D19   D(1,5,10,11)          -63.7698         estimate D2E/DX2                !
 ! D20   D(1,5,10,17)          119.396          estimate D2E/DX2                !
 ! D21   D(6,5,10,11)         -173.2395         estimate D2E/DX2                !
 ! D22   D(6,5,10,17)            9.9263         estimate D2E/DX2                !
 ! D23   D(22,5,10,11)          60.1379         estimate D2E/DX2                !
 ! D24   D(22,5,10,17)        -116.6963         estimate D2E/DX2                !
 ! D25   D(1,5,22,23)          -11.2202         estimate D2E/DX2                !
 ! D26   D(1,5,22,31)          173.4579         estimate D2E/DX2                !
 ! D27   D(6,5,22,23)          100.5346         estimate D2E/DX2                !
 ! D28   D(6,5,22,31)          -74.7874         estimate D2E/DX2                !
 ! D29   D(10,5,22,23)        -134.9495         estimate D2E/DX2                !
 ! D30   D(10,5,22,31)          49.7285         estimate D2E/DX2                !
 ! D31   D(5,10,11,12)        -168.9398         estimate D2E/DX2                !
 ! D32   D(5,10,11,21)          -3.1058         estimate D2E/DX2                !
 ! D33   D(17,10,11,12)          8.2754         estimate D2E/DX2                !
 ! D34   D(17,10,11,21)        174.1094         estimate D2E/DX2                !
 ! D35   D(5,10,17,16)         170.3594         estimate D2E/DX2                !
 ! D36   D(5,10,17,18)          -8.7262         estimate D2E/DX2                !
 ! D37   D(11,10,17,16)         -6.2599         estimate D2E/DX2                !
 ! D38   D(11,10,17,18)        174.6545         estimate D2E/DX2                !
 ! D39   D(10,11,12,13)         -5.9204         estimate D2E/DX2                !
 ! D40   D(10,11,12,20)        176.7739         estimate D2E/DX2                !
 ! D41   D(21,11,12,13)       -171.5481         estimate D2E/DX2                !
 ! D42   D(21,11,12,20)         11.1461         estimate D2E/DX2                !
 ! D43   D(11,12,13,14)        174.4981         estimate D2E/DX2                !
 ! D44   D(11,12,13,16)          1.9884         estimate D2E/DX2                !
 ! D45   D(20,12,13,14)         -8.3574         estimate D2E/DX2                !
 ! D46   D(20,12,13,16)        179.1329         estimate D2E/DX2                !
 ! D47   D(12,13,14,15)       -177.0838         estimate D2E/DX2                !
 ! D48   D(16,13,14,15)         -4.3434         estimate D2E/DX2                !
 ! D49   D(12,13,16,17)         -0.3406         estimate D2E/DX2                !
 ! D50   D(12,13,16,19)       -173.4805         estimate D2E/DX2                !
 ! D51   D(14,13,16,17)       -172.522          estimate D2E/DX2                !
 ! D52   D(14,13,16,19)         14.3382         estimate D2E/DX2                !
 ! D53   D(13,16,17,10)          2.525          estimate D2E/DX2                !
 ! D54   D(13,16,17,18)       -178.3751         estimate D2E/DX2                !
 ! D55   D(19,16,17,10)        176.2713         estimate D2E/DX2                !
 ! D56   D(19,16,17,18)         -4.6289         estimate D2E/DX2                !
 ! D57   D(5,22,23,24)          -1.4218         estimate D2E/DX2                !
 ! D58   D(5,22,23,25)        -175.5779         estimate D2E/DX2                !
 ! D59   D(31,22,23,24)        173.9105         estimate D2E/DX2                !
 ! D60   D(31,22,23,25)         -0.2456         estimate D2E/DX2                !
 ! D61   D(5,22,31,29)         172.5256         estimate D2E/DX2                !
 ! D62   D(5,22,31,32)          -9.854          estimate D2E/DX2                !
 ! D63   D(23,22,31,29)         -2.9555         estimate D2E/DX2                !
 ! D64   D(23,22,31,32)        174.665          estimate D2E/DX2                !
 ! D65   D(22,23,25,26)        169.6349         estimate D2E/DX2                !
 ! D66   D(22,23,25,27)          0.3957         estimate D2E/DX2                !
 ! D67   D(24,23,25,26)         -4.9636         estimate D2E/DX2                !
 ! D68   D(24,23,25,27)       -174.2028         estimate D2E/DX2                !
 ! D69   D(23,25,27,28)       -175.23           estimate D2E/DX2                !
 ! D70   D(23,25,27,29)          2.5201         estimate D2E/DX2                !
 ! D71   D(26,25,27,28)         16.4358         estimate D2E/DX2                !
 ! D72   D(26,25,27,29)       -165.8141         estimate D2E/DX2                !
 ! D73   D(25,27,29,30)        179.834          estimate D2E/DX2                !
 ! D74   D(25,27,29,31)         -5.5055         estimate D2E/DX2                !
 ! D75   D(28,27,29,30)         -2.3934         estimate D2E/DX2                !
 ! D76   D(28,27,29,31)        172.2671         estimate D2E/DX2                !
 ! D77   D(27,29,31,22)          5.8364         estimate D2E/DX2                !
 ! D78   D(27,29,31,32)       -171.835          estimate D2E/DX2                !
 ! D79   D(30,29,31,22)       -179.4719         estimate D2E/DX2                !
 ! D80   D(30,29,31,32)          2.8567         estimate D2E/DX2                !
 --------------------------------------------------------------------------------
 Trust Radius=3.00D-01 FncErr=1.00D-07 GrdErr=1.00D-06 EigMax=2.50D+02 EigMin=1.00D-04
 Number of steps in this run=    178 maximum allowed number of steps=    192.
 GradGradGradGradGradGradGradGradGradGradGradGradGradGradGradGradGradGrad

 Leave Link  103 at Mon Jul 12 12:15:38 2021, MaxMem=   104857600 cpu:               0.1 elap:               0.0
 (Enter /dades/curu/g16A03_MST/g16/l202.exe)
                          Input orientation:                          
 ---------------------------------------------------------------------
 Center     Atomic      Atomic             Coordinates (Angstroms)
 Number     Number       Type             X           Y           Z
 ---------------------------------------------------------------------
      1          6           0       -1.509000    1.077000   -1.671000
      2          1           0       -2.018000    0.127000   -1.850000
      3          1           0       -1.182000    1.441000   -2.647000
      4          1           0       -2.312000    1.720000   -1.304000
      5          6           0       -0.355000    0.934000   -0.619000
      6          6           0        0.157000    2.397000   -0.563000
      7          1           0        0.762000    2.509000    0.340000
      8          1           0       -0.626000    3.158000   -0.564000
      9          1           0        0.750000    2.677000   -1.437000
     10          6           0        0.746000    0.037000   -1.165000
     11          6           0        0.264000   -1.300000   -1.381000
     12          6           0        1.098000   -2.365000   -1.658000
     13          6           0        2.493000   -2.011000   -1.849000
     14          8           0        3.345000   -3.043000   -2.006000
     15          1           0        4.200000   -2.580000   -2.066000
     16          6           0        2.982000   -0.694000   -1.722000
     17          6           0        2.093000    0.321000   -1.406000
     18          1           0        2.463000    1.340000   -1.334000
     19          1           0        3.996000   -0.382000   -1.956000
     20          1           0        0.686000   -3.365000   -1.761000
     21          1           0       -0.763000   -1.507000   -1.090000
     22          6           0       -0.918000    0.428000    0.746000
     23          6           0       -2.263000    0.378000    1.006000
     24          1           0       -3.029000    0.701000    0.306000
     25          6           0       -2.701000    0.009000    2.261000
     26          1           0       -3.762000    0.163000    2.439000
     27          6           0       -1.793000   -0.308000    3.278000
     28          8           0       -2.214000   -0.748000    4.442000
     29          6           0       -0.434000   -0.199000    3.034000
     30          1           0        0.293000   -0.436000    3.806000
     31          6           0       -0.023000    0.106000    1.770000
     32          1           0        1.043000    0.055000    1.561000
 ---------------------------------------------------------------------
                    Distance matrix (angstroms):
                    1          2          3          4          5
     1  C    0.000000
     2  H    1.092530   0.000000
     3  H    1.091788   1.749486   0.000000
     4  H    1.092221   1.709445   1.777186   0.000000
     5  C    1.568078   2.220851   2.248057   2.217402   0.000000
     6  C    2.397002   3.397042   2.655167   2.665215   1.551015
     7  H    3.354428   4.265961   3.720474   3.574176   2.155921
     8  H    2.517081   3.574692   2.756105   2.336245   2.241125
     9  H    2.778100   3.786145   2.593149   3.210823   2.219955
    10  C    2.534297   2.849039   2.807975   3.493304   1.521488
    11  C    2.979557   2.731998   3.347649   3.970152   2.440197
    12  C    4.317868   3.994544   4.545565   5.332977   3.751550
    13  C    5.058007   4.992010   5.104776   6.107816   4.277503
    14  O    6.375574   6.231774   6.403973   7.428366   5.606273
    15  H    6.791344   6.785133   6.743287   7.840713   5.932119
    16  C    4.827849   5.068572   4.769984   5.833400   3.873314
    17  C    3.690009   4.139456   3.676970   4.622946   2.643453
    18  H    3.994937   4.670866   3.875590   4.790190   2.935504
    19  H    5.702187   6.036432   5.532856   6.680896   4.738209
    20  H    4.955551   4.417420   5.231831   5.920648   4.568287
    21  H    2.751569   2.196038   3.360136   3.585907   2.519283
    22  C    2.571453   2.835457   3.550819   2.795532   1.560843
    23  C    2.867655   2.877458   3.955116   2.671978   2.567143
    24  H    2.521965   2.449476   3.560789   2.035817   2.839047
    25  C    4.245246   4.169021   5.333521   3.973420   3.828021
    26  H    4.775302   4.630157   5.844406   4.305438   4.642570
    27  C    5.146988   5.151333   6.207894   5.037546   4.335553
    28  O    6.418444   6.355573   7.490705   6.254370   5.647896
    29  C    4.992076   5.144783   5.960106   5.101734   3.825485
    30  H    5.961032   6.135799   6.880404   6.127517   4.677331
    31  C    3.871888   4.133384   4.757667   4.158605   2.550123
    32  H    4.242996   4.583648   4.957710   4.715557   2.734857
                    6          7          8          9         10
     6  C    0.000000
     7  H    1.092693   0.000000
     8  H    1.091884   1.779034   0.000000
     9  H    1.092669   1.784964   1.699078   0.000000
    10  C    2.505778   2.894143   3.461824   2.653978   0.000000
    11  C    3.787926   4.209314   4.618804   4.006977   1.437550
    12  C    4.976058   5.278331   5.888339   5.058825   2.477208
    13  C    5.151811   5.312107   6.172353   5.018480   2.777439
    14  O    6.468322   6.557462   7.503373   6.306836   4.116853
    15  H    6.585999   6.595953   7.646628   6.319350   4.426128
    16  C    4.344904   4.409020   5.403382   4.052985   2.417500
    17  C    2.961169   3.099584   4.018768   2.712074   1.397550
    18  H    2.651288   2.657487   3.666053   2.175442   2.162050
    19  H    4.939758   4.907979   5.985996   4.490363   3.371015
    20  H    5.908950   6.238898   6.760450   6.051019   3.454334
    21  H    4.045410   4.527558   4.696559   4.462671   2.160241
    22  C    2.597319   2.705143   3.042082   3.550453   2.563922
    23  C    3.520585   3.759700   3.587906   4.509082   3.726071
    24  H    3.712435   4.200202   3.545160   4.606893   4.105528
    25  C    4.673937   4.683226   4.711948   5.718639   4.860048
    26  H    5.418609   5.511451   5.274707   6.457687   5.772933
    27  C    5.086532   4.805763   5.304339   6.132561   5.128918
    28  O    6.368885   6.024204   6.545122   7.421493   6.388762
    29  C    4.475143   4.002664   4.924624   5.446382   4.368031
    30  H    5.208891   4.572323   5.732216   6.114627   5.013958
    31  C    3.274747   2.904399   3.889199   4.182394   3.034855
    32  H    3.283494   2.755344   4.114583   3.993587   2.742191
                   11         12         13         14         15
    11  C    0.000000
    12  C    1.380764   0.000000
    13  C    2.385998   1.451834   0.000000
    14  O    3.594612   2.372719   1.347433   0.000000
    15  H    4.195202   3.136095   1.812374   0.974163   0.000000
    16  C    2.805538   2.519086   1.410581   2.393789   2.271312
    17  C    2.444076   2.875435   2.407171   3.639231   3.645662
    18  H    3.436191   3.961720   3.390476   4.521084   4.349643
    19  H    3.886023   3.524131   2.219031   2.739931   2.210186
    20  H    2.141660   1.086441   2.259714   2.689608   3.613509
    21  H    1.087317   2.126525   3.381070   4.480404   5.170616
    22  C    2.984499   4.200514   4.931295   6.147724   6.568815
    23  C    3.859946   5.090900   6.039692   7.226690   7.743211
    24  H    4.206402   5.503615   6.518547   7.745370   8.285517
    25  C    4.875333   5.952045   6.924604   8.004755   8.546909
    26  H    5.739464   6.840745   7.889122   8.974737   9.550524
    27  C    5.188602   6.078917   6.896096   7.861293   8.344841
    28  O    6.352363   7.126993   7.957870   8.817381   9.319318
    29  C    4.603437   5.390125   5.974476   6.911641   7.290618
    30  H    5.258546   5.850159   6.268943   7.063321   7.371687
    31  C    3.462370   4.371918   4.889694   5.959681   6.305809
    32  H    3.331401   4.027578   4.242518   5.255502   5.483156
                   16         17         18         19         20
    16  C    0.000000
    17  C    1.385786   0.000000
    18  H    2.134727   1.086483   0.000000
    19  H    1.086414   2.101932   2.387940   0.000000
    20  H    3.522411   3.961347   5.047483   4.460091   0.000000
    21  H    3.883995   3.405609   4.309527   4.966252   2.449899
    22  C    4.749727   3.702523   4.072997   5.666066   4.821277
    23  C    6.008427   4.979531   5.360608   6.966070   5.510258
    24  H    6.495455   5.413892   5.767147   7.459233   5.882692
    25  C    6.975313   6.043730   6.431367   7.923748   6.247570
    26  H    7.970565   7.006427   7.373702   8.933063   7.061975
    27  C    6.924566   6.118537   6.488450   7.804662   6.393920
    28  O    8.062024   7.341125   7.719861   8.923702   7.330477
    29  C    5.876531   5.135146   5.462651   6.675215   5.854057
    30  H    6.152729   5.565788   5.855141   6.849509   6.302775
    31  C    4.675905   3.822389   4.163865   5.502143   5.001848
    32  H    3.885719   3.158535   3.471117   4.613076   4.781164
                   21         22         23         24         25
    21  H    0.000000
    22  C    2.671918   0.000000
    23  C    3.193187   1.370812   0.000000
    24  H    3.458155   2.173580   1.086777   0.000000
    25  C    4.157319   2.376947   1.379504   2.099636   0.000000
    26  H    4.923083   3.320363   2.084878   2.318711   1.086794
    27  C    4.645205   2.778191   2.419397   3.373212   1.399729
    28  O    5.769273   4.089377   3.616127   4.457614   2.359445
    29  C    4.338949   2.421225   2.791228   3.871177   2.404180
    30  H    5.121815   3.402443   3.877594   4.957666   3.398395
    31  C    3.365853   1.397600   2.382285   3.396080   2.724367
    32  H    3.567812   2.156125   3.367787   4.309701   3.809154
                   26         27         28         29         30
    26  H    0.000000
    27  C    2.191512   0.000000
    28  O    2.690397   1.313673   0.000000
    29  C    3.400096   1.385026   2.335009   0.000000
    30  H    4.320939   2.155589   2.605166   1.086592   0.000000
    31  C    3.798807   2.361855   3.559407   1.363687   2.130473
    32  H    4.885752   3.335079   4.421880   2.101374   2.417355
                   31         32
    31  C    0.000000
    32  H    1.087492   0.000000
 Stoichiometry    C15H15O2(1-)
 Framework group  C1[X(C15H15O2)]
 Deg. of freedom    90
 Full point group                 C1      NOp   1
 Largest Abelian subgroup         C1      NOp   1
 Largest concise Abelian subgroup C1      NOp   1
                         Standard orientation:                         
 ---------------------------------------------------------------------
 Center     Atomic      Atomic             Coordinates (Angstroms)
 Number     Number       Type             X           Y           Z
 ---------------------------------------------------------------------
      1          6           0        0.105214    2.477503    1.133635
      2          1           0        0.092838    1.973318    2.102792
      3          1           0       -0.719279    3.193067    1.147084
      4          1           0        1.049949    3.025222    1.154300
      5          6           0        0.052375    1.458734   -0.057241
      6          6           0        0.095965    2.433428   -1.262944
      7          1           0        0.361729    1.858172   -2.153129
      8          1           0        0.793880    3.266222   -1.155330
      9          1           0       -0.852441    2.949334   -1.431148
     10          6           0       -1.276961    0.718604   -0.057384
     11          6           0       -1.424458   -0.079417    1.129189
     12          6           0       -2.425029   -1.018049    1.285201
     13          6           0       -3.403578   -1.047327    0.213097
     14          8           0       -4.323149   -2.029681    0.283433
     15          1           0       -4.824584   -1.883910   -0.538946
     16          6           0       -3.328614   -0.219347   -0.926450
     17          6           0       -2.275589    0.675052   -1.034109
     18          1           0       -2.230688    1.332261   -1.898115
     19          1           0       -4.094619   -0.146287   -1.693389
     20          1           0       -2.459591   -1.631196    2.181420
     21          1           0       -0.584684   -0.096315    1.819662
     22          6           0        1.276357    0.491580   -0.005181
     23          6           0        2.342126    0.709204    0.829025
     24          1           0        2.429578    1.566553    1.491135
     25          6           0        3.437216   -0.127484    0.767687
     26          1           0        4.304156    0.211582    1.328553
     27          6           0        3.481961   -1.192333   -0.139692
     28          8           0        4.484476   -2.041231   -0.131089
     29          6           0        2.432119   -1.376073   -1.024209
     30          1           0        2.441883   -2.192660   -1.740988
     31          6           0        1.333528   -0.577146   -0.903982
     32          1           0        0.465460   -0.819653   -1.512494
 ---------------------------------------------------------------------
 Rotational constants (GHZ):           0.8050721           0.2819025           0.2434680
 Leave Link  202 at Mon Jul 12 12:15:39 2021, MaxMem=   104857600 cpu:               0.1 elap:               0.1
 (Enter /dades/curu/g16A03_MST/g16/l301.exe)
 Standard basis: 6-31G(d) (6D, 7F)
 Ernie: Thresh=  0.10000D-02 Tol=  0.10000D-05 Strict=F.
 There are   285 symmetry adapted cartesian basis functions of A   symmetry.
 There are   285 symmetry adapted basis functions of A   symmetry.
   285 basis functions,   536 primitive gaussians,   285 cartesian basis functions
    61 alpha electrons       61 beta electrons
       nuclear repulsion energy      1137.7271886406 Hartrees.
 IExCor=  402 DFT=T Ex+Corr=B3LYP ExCW=0 ScaHFX=  0.200000
 ScaDFX=  0.800000  0.720000  1.000000  0.810000 ScalE2=  1.000000  1.000000
 IRadAn=      5 IRanWt=     -1 IRanGd=            0 ICorTp=0 IEmpDi=  4
 NAtoms=   32 NActive=   32 NUniq=   32 SFac= 1.00D+00 NAtFMM=   60 NAOKFM=F Big=F
 Integral buffers will be    131072 words long.
 Raffenetti 2 integral format.
 Two-electron integral symmetry is turned on.
 Using the following non-standard input for PCM:
 MSTModel=DFT cav MSTCharged
 --- end of non-standard input.
 MST model for solvation energy: B3LYP parametrization.
 MST cavity parameters:
 ISph   IAn     Re0     Alpha   Atom Type   QCorr
 ------------------------------------------------
   1      6     1.50     1.50      CH3        F
   2      1     1.20     1.50      CH3        F
   3      1     1.20     1.50      CH3        F
   4      1     1.20     1.50      CH3        F
   5      6     1.50     1.50      C          F
   6      6     1.50     1.50      CH3        F
   7      1     1.20     1.50      CH3        F
   8      1     1.20     1.50      CH3        F
   9      1     1.20     1.50      CH3        F
  10      6     1.50     1.50      C          F
  11      6     1.50     1.50      CH         F
  12      6     1.50     1.50      CH         F
  13      6     1.50     1.50      C          F
  14      8     1.40     1.50      OH         F
  15      1     0.90     1.50      OH         F
  16      6     1.50     1.50      CH         F
  17      6     1.50     1.50      CH         F
  18      1     1.20     1.50      CH         F
  19      1     1.20     1.50      CH         F
  20      1     1.20     1.50      CH         F
  21      1     1.20     1.50      CH         F
  22      6     1.50     1.50      C          F
  23      6     1.50     1.50      CH         F
  24      1     1.20     1.50      CH         F
  25      6     1.50     1.50      CH         F
  26      1     1.20     1.50      CH         F
  27      6     1.50     1.50      C          F
  28      8     1.40     1.15      O          T
  29      6     1.50     1.50      CH         F
  30      1     1.20     1.50      CH         F
  31      6     1.50     1.50      CH         F
  32      1     1.20     1.50      CH         F
 ------------------------------------------------------------------------------
 Polarizable Continuum Model (PCM)
 =================================
 Model                : PCM.
 Atomic radii         : MST.
 Polarization charges : Total charges.
 Charge compensation  : None.
 Solution method      : On-the-fly selection.
 Cavity type          : Scaled VdW (van der Waals Surface) (Alpha=1.500).
 Cavity algorithm     : GePol (No added spheres)
                        Default sphere list used, NSphG=   32.
                        Lebedev-Laikov grids with approx.  5.0 points / Ang**2.
                        Smoothing algorithm: York/Karplus (Gamma=1.0000).
                        Polarization charges: spherical gaussians, with
                                              point-specific exponents (IZeta= 3).
                        Self-potential: point-specific (ISelfS= 7).
                        Self-field    : sphere-specific E.n sum rule (ISelfD= 2).
 1st derivatives      : Analytical E(r).r(x)/FMM algorithm (CHGder, D1EAlg=3).
                        Cavity 1st derivative terms included.
 Solvent              : n-Octanol, Eps=   9.862900 Eps(inf)=   2.043470
 ------------------------------------------------------------------------------
 GePol: Number of generator spheres                  =      32
 GePol: Total number of spheres                      =      32
 GePol: Number of exposed spheres                    =      31 ( 96.88%)
 GePol: Number of points                             =    2932
 GePol: Average weight of points                     =       0.11
 GePol: Minimum weight of points                     =   0.37D-09
 GePol: Maximum weight of points                     =    0.20790
 GePol: Number of points with low weight             =     158
 GePol: Fraction of low-weight points (<1% of avg)   =       5.39%
 GePol: Cavity surface area                          =    318.062 Ang**2
 GePol: Cavity volume                                =    373.904 Ang**3
 Surface areas from nonelectrostatic (unscaled) cavity and vdw tensions:
 Sphere =    1 Type =  CH3 Surf =        4.056 Tension =       -0.183
 Sphere =    2 Type =  CH3 Surf =        9.301 Tension =       -0.183
 Sphere =    3 Type =  CH3 Surf =       10.127 Tension =       -0.183
 Sphere =    4 Type =  CH3 Surf =        8.702 Tension =       -0.183
 Sphere =    5 Type =  C   Surf =        1.871 Tension =       -0.205
 Sphere =    6 Type =  CH3 Surf =        4.467 Tension =       -0.183
 Sphere =    7 Type =  CH3 Surf =       10.095 Tension =       -0.183
 Sphere =    8 Type =  CH3 Surf =        9.761 Tension =       -0.183
 Sphere =    9 Type =  CH3 Surf =        9.238 Tension =       -0.183
 Sphere =   10 Type =  C   Surf =        5.986 Tension =       -0.205
 Sphere =   11 Type =  CH  Surf =        7.451 Tension =       -0.195
 Sphere =   12 Type =  CH  Surf =        8.039 Tension =       -0.195
 Sphere =   13 Type =  C   Surf =        6.812 Tension =       -0.205
 Sphere =   14 Type =  OH  Surf =       14.408 Tension =       -0.238
 Sphere =   15 Type =  OH  Surf =        4.286 Tension =       -0.238
 Sphere =   16 Type =  CH  Surf =        7.797 Tension =       -0.195
 Sphere =   17 Type =  CH  Surf =        7.626 Tension =       -0.195
 Sphere =   18 Type =  CH  Surf =        9.330 Tension =       -0.195
 Sphere =   19 Type =  CH  Surf =       10.215 Tension =       -0.195
 Sphere =   20 Type =  CH  Surf =       10.263 Tension =       -0.195
 Sphere =   21 Type =  CH  Surf =        9.108 Tension =       -0.195
 Sphere =   22 Type =  C   Surf =        5.895 Tension =       -0.205
 Sphere =   23 Type =  CH  Surf =        7.369 Tension =       -0.195
 Sphere =   24 Type =  CH  Surf =        8.640 Tension =       -0.195
 Sphere =   25 Type =  CH  Surf =        7.664 Tension =       -0.195
 Sphere =   26 Type =  CH  Surf =       10.181 Tension =       -0.195
 Sphere =   27 Type =  C   Surf =        6.613 Tension =       -0.205
 Sphere =   28 Type =  O   Surf =       16.864 Tension =       -0.185
 Sphere =   29 Type =  CH  Surf =        7.619 Tension =       -0.195
 Sphere =   30 Type =  CH  Surf =       10.224 Tension =       -0.195
 Sphere =   31 Type =  CH  Surf =        7.521 Tension =       -0.195
 Sphere =   32 Type =  CH  Surf =       10.165 Tension =       -0.195
 PCM non-electrostatic energy =        -0.0135794385 Hartrees.
 Nuclear repulsion after PCM non-electrostatic terms =     1137.7136092021 Hartrees.
 Leave Link  301 at Mon Jul 12 12:15:39 2021, MaxMem=   104857600 cpu:               0.1 elap:               0.5
 (Enter /dades/curu/g16A03_MST/g16/l302.exe)
 NPDir=0 NMtPBC=     1 NCelOv=     1 NCel=       1 NClECP=     1 NCelD=      1
         NCelK=      1 NCelE2=     1 NClLst=     1 CellRange=     0.0.
 One-electron integrals computed using PRISM.
 One-electron integral symmetry used in STVInt
 NBasis=   285 RedAO= T EigKep=  4.36D-04  NBF=   285
 NBsUse=   285 1.00D-06 EigRej= -1.00D+00 NBFU=   285
 Precomputing XC quadrature grid using
 IXCGrd= 4 IRadAn=           5 IRanWt=          -1 IRanGd=           0 AccXCQ= 0.00D+00.
 Generated NRdTot=       0 NPtTot=           0 NUsed=           0 NTot=          32
 NSgBfM=   284   284   284   284   284 MxSgAt=    32 MxSgA2=    32.
 Leave Link  302 at Mon Jul 12 12:15:41 2021, MaxMem=   104857600 cpu:               3.6 elap:               1.1
 (Enter /dades/curu/g16A03_MST/g16/l303.exe)
 DipDrv:  MaxL=1.
 Leave Link  303 at Mon Jul 12 12:15:42 2021, MaxMem=   104857600 cpu:               0.1 elap:               0.2
 (Enter /dades/curu/g16A03_MST/g16/l401.exe)
 ExpMin= 1.61D-01 ExpMax= 5.48D+03 ExpMxC= 8.25D+02 IAcc=3 IRadAn=         5 AccDes= 0.00D+00
 Harris functional with IExCor=  402 and IRadAn=       5 diagonalized for initial guess.
 HarFok:  IExCor=  402 AccDes= 0.00D+00 IRadAn=         5 IDoV= 1 UseB2=F ITyADJ=14
 ICtDFT=  3500011 ScaDFX=  1.000000  1.000000  1.000000  1.000000
 FoFCou: FMM=F IPFlag=           0 FMFlag=      100000 FMFlg1=           0
         NFxFlg=           0 DoJE=T BraDBF=F KetDBF=T FulRan=T
         wScrn=  0.000000 ICntrl=       500 IOpCl=  0 I1Cent=   200000004 NGrid=           0
         NMat0=    1 NMatS0=      1 NMatT0=    0 NMatD0=    1 NMtDS0=    0 NMtDT0=    0
 Petite list used in FoFCou.
 Harris En= -731.334042125832    
 JPrj=0 DoOrth=F DoCkMO=F.
 Leave Link  401 at Mon Jul 12 12:15:49 2021, MaxMem=   104857600 cpu:              28.7 elap:               7.5
 (Enter /dades/curu/g16A03_MST/g16/l502.exe)
 Integral symmetry usage will be decided dynamically.
 Closed shell SCF:
 Using DIIS extrapolation, IDIIS=  1040.
 NGot=   104857600 LenX=   104690183 LenY=   104608517
 Requested convergence on RMS density matrix=1.00D-08 within 128 cycles.
 Requested convergence on MAX density matrix=1.00D-06.
 Requested convergence on             energy=1.00D-06.
 No special actions if energy rises.
 Fock matrices will be formed incrementally for  20 cycles.

 Cycle   1  Pass 1  IDiag  1:
 FoFJK:  IHMeth= 1 ICntrl=       0 DoSepK=F KAlg= 0 I1Cent=           0 FoldK=F
 IRaf= 850000000 NMat=       1 IRICut=       1 DoRegI=T DoRafI=F ISym2E= 0 IDoP0=0 IntGTp=1.
 FoFCou: FMM=F IPFlag=           0 FMFlag=      100000 FMFlg1=           0
         NFxFlg=           0 DoJE=F BraDBF=F KetDBF=F FulRan=T
         wScrn=  0.000000 ICntrl=         0 IOpCl=  0 I1Cent=           0 NGrid=           0
         NMat0=    1 NMatS0=      1 NMatT0=    0 NMatD0=    1 NMtDS0=    0 NMtDT0=    0
 Symmetry not used in FoFCou.
 Inv3:  Mode=1 IEnd=    25789872.
 Iteration    1 A*A^-1 deviation from unit magnitude is 9.10D-15 for    711.
 Iteration    1 A*A^-1 deviation from orthogonality  is 3.14D-15 for   2620   1439.
 Iteration    1 A^-1*A deviation from unit magnitude is 9.10D-15 for    711.
 Iteration    1 A^-1*A deviation from orthogonality  is 2.29D-15 for   2915    711.
 E= -730.629328685962    
 DIIS: error= 3.20D-02 at cycle   1 NSaved=   1.
 NSaved= 1 IEnMin= 1 EnMin= -730.629328685962     IErMin= 1 ErrMin= 3.20D-02
 ErrMax= 3.20D-02  0.00D+00 EMaxC= 1.00D-01 BMatC= 5.13D-01 BMatP= 5.13D-01
 IDIUse=3 WtCom= 6.80D-01 WtEn= 3.20D-01
 Coeff-Com:  0.100D+01
 Coeff-En:   0.100D+01
 Coeff:      0.100D+01
 Gap=     0.178 Goal=   None    Shift=    0.000
 GapD=    0.178 DampG=1.000 DampE=0.500 DampFc=0.5000 IDamp=-1.
 Damping current iteration by 5.00D-01
 RMSDP=6.41D-03 MaxDP=1.91D-01              OVMax= 2.36D-01

 Cycle   2  Pass 1  IDiag  1:
 RMSU=  3.18D-03    CP:  9.79D-01
 E= -730.870326208937     Delta-E=       -0.240997522975 Rises=F Damp=T
 DIIS: error= 1.03D-02 at cycle   2 NSaved=   2.
 NSaved= 2 IEnMin= 2 EnMin= -730.870326208937     IErMin= 2 ErrMin= 1.03D-02
 ErrMax= 1.03D-02  0.00D+00 EMaxC= 1.00D-01 BMatC= 2.60D-02 BMatP= 5.13D-01
 IDIUse=3 WtCom= 8.97D-01 WtEn= 1.03D-01
 Coeff-Com:  0.517D-01 0.948D+00
 Coeff-En:   0.600D-01 0.940D+00
 Coeff:      0.526D-01 0.947D+00
 Gap=     0.199 Goal=   None    Shift=    0.000
 RMSDP=1.57D-03 MaxDP=5.68D-02 DE=-2.41D-01 OVMax= 1.42D-01

 Cycle   3  Pass 1  IDiag  1:
 RMSU=  1.43D-03    CP:  9.68D-01  8.11D-01
 E= -731.131072074851     Delta-E=       -0.260745865914 Rises=F Damp=F
 DIIS: error= 9.71D-03 at cycle   3 NSaved=   3.
 NSaved= 3 IEnMin= 3 EnMin= -731.131072074851     IErMin= 3 ErrMin= 9.71D-03
 ErrMax= 9.71D-03  0.00D+00 EMaxC= 1.00D-01 BMatC= 2.30D-02 BMatP= 2.60D-02
 IDIUse=3 WtCom= 9.03D-01 WtEn= 9.71D-02
 Coeff-Com: -0.105D-01 0.483D+00 0.528D+00
 Coeff-En:   0.000D+00 0.000D+00 0.100D+01
 Coeff:     -0.951D-02 0.436D+00 0.574D+00
 Gap=     0.137 Goal=   None    Shift=    0.000
 RMSDP=8.86D-04 MaxDP=3.57D-02 DE=-2.61D-01 OVMax= 6.14D-02

 Cycle   4  Pass 1  IDiag  1:
 RMSU=  6.53D-04    CP:  9.71D-01  8.88D-01  6.20D-01
 E= -731.144720577964     Delta-E=       -0.013648503113 Rises=F Damp=F
 DIIS: error= 5.33D-03 at cycle   4 NSaved=   4.
 NSaved= 4 IEnMin= 4 EnMin= -731.144720577964     IErMin= 4 ErrMin= 5.33D-03
 ErrMax= 5.33D-03  0.00D+00 EMaxC= 1.00D-01 BMatC= 7.54D-03 BMatP= 2.30D-02
 IDIUse=3 WtCom= 9.47D-01 WtEn= 5.33D-02
 Coeff-Com: -0.924D-02 0.778D-01 0.371D+00 0.561D+00
 Coeff-En:   0.000D+00 0.000D+00 0.284D+00 0.716D+00
 Coeff:     -0.875D-02 0.737D-01 0.366D+00 0.569D+00
 Gap=     0.138 Goal=   None    Shift=    0.000
 RMSDP=3.66D-04 MaxDP=1.38D-02 DE=-1.36D-02 OVMax= 2.17D-02

 Cycle   5  Pass 1  IDiag  1:
 RMSU=  1.22D-04    CP:  9.70D-01  8.59D-01  7.56D-01  5.88D-01
 E= -731.151218727250     Delta-E=       -0.006498149285 Rises=F Damp=F
 DIIS: error= 4.76D-04 at cycle   5 NSaved=   5.
 NSaved= 5 IEnMin= 5 EnMin= -731.151218727250     IErMin= 5 ErrMin= 4.76D-04
 ErrMax= 4.76D-04  0.00D+00 EMaxC= 1.00D-01 BMatC= 1.89D-04 BMatP= 7.54D-03
 IDIUse=3 WtCom= 9.95D-01 WtEn= 4.76D-03
 Coeff-Com: -0.327D-02 0.130D-01 0.148D+00 0.274D+00 0.568D+00
 Coeff-En:   0.000D+00 0.000D+00 0.000D+00 0.000D+00 0.100D+01
 Coeff:     -0.325D-02 0.129D-01 0.148D+00 0.272D+00 0.570D+00
 Gap=     0.138 Goal=   None    Shift=    0.000
 RMSDP=6.78D-05 MaxDP=2.17D-03 DE=-6.50D-03 OVMax= 3.22D-03

 Cycle   6  Pass 1  IDiag  1:
 RMSU=  5.17D-05    CP:  9.70D-01  8.64D-01  7.48D-01  6.04D-01  6.89D-01
 E= -731.151373544241     Delta-E=       -0.000154816992 Rises=F Damp=F
 DIIS: error= 1.90D-04 at cycle   6 NSaved=   6.
 NSaved= 6 IEnMin= 6 EnMin= -731.151373544241     IErMin= 6 ErrMin= 1.90D-04
 ErrMax= 1.90D-04  0.00D+00 EMaxC= 1.00D-01 BMatC= 2.30D-05 BMatP= 1.89D-04
 IDIUse=3 WtCom= 9.98D-01 WtEn= 1.90D-03
 Coeff-Com: -0.106D-02 0.124D-02 0.467D-01 0.959D-01 0.316D+00 0.541D+00
 Coeff-En:   0.000D+00 0.000D+00 0.000D+00 0.000D+00 0.615D-01 0.939D+00
 Coeff:     -0.105D-02 0.123D-02 0.466D-01 0.957D-01 0.315D+00 0.542D+00
 Gap=     0.138 Goal=   None    Shift=    0.000
 RMSDP=2.58D-05 MaxDP=5.47D-04 DE=-1.55D-04 OVMax= 1.79D-03

 Cycle   7  Pass 1  IDiag  1:
 RMSU=  1.11D-05    CP:  9.70D-01  8.63D-01  7.52D-01  6.13D-01  7.12D-01
                    CP:  5.86D-01
 E= -731.151393857283     Delta-E=       -0.000020313042 Rises=F Damp=F
 DIIS: error= 6.88D-05 at cycle   7 NSaved=   7.
 NSaved= 7 IEnMin= 7 EnMin= -731.151393857283     IErMin= 7 ErrMin= 6.88D-05
 ErrMax= 6.88D-05  0.00D+00 EMaxC= 1.00D-01 BMatC= 2.41D-06 BMatP= 2.30D-05
 IDIUse=1 WtCom= 1.00D+00 WtEn= 0.00D+00
 Coeff-Com: -0.419D-03-0.170D-03 0.196D-01 0.422D-01 0.159D+00 0.327D+00
 Coeff-Com:  0.452D+00
 Coeff:     -0.419D-03-0.170D-03 0.196D-01 0.422D-01 0.159D+00 0.327D+00
 Coeff:      0.452D+00
 Gap=     0.138 Goal=   None    Shift=    0.000
 RMSDP=7.57D-06 MaxDP=2.19D-04 DE=-2.03D-05 OVMax= 7.20D-04

 Cycle   8  Pass 1  IDiag  1:
 RMSU=  3.66D-06    CP:  9.70D-01  8.62D-01  7.52D-01  6.12D-01  7.17D-01
                    CP:  6.40D-01  4.62D-01
 E= -731.151396176497     Delta-E=       -0.000002319214 Rises=F Damp=F
 DIIS: error= 1.72D-05 at cycle   8 NSaved=   8.
 NSaved= 8 IEnMin= 8 EnMin= -731.151396176497     IErMin= 8 ErrMin= 1.72D-05
 ErrMax= 1.72D-05  0.00D+00 EMaxC= 1.00D-01 BMatC= 1.50D-07 BMatP= 2.41D-06
 IDIUse=1 WtCom= 1.00D+00 WtEn= 0.00D+00
 Coeff-Com: -0.537D-04-0.274D-03 0.291D-02 0.696D-02 0.351D-01 0.871D-01
 Coeff-Com:  0.229D+00 0.639D+00
 Coeff:     -0.537D-04-0.274D-03 0.291D-02 0.696D-02 0.351D-01 0.871D-01
 Coeff:      0.229D+00 0.639D+00
 Gap=     0.138 Goal=   None    Shift=    0.000
 RMSDP=2.26D-06 MaxDP=5.68D-05 DE=-2.32D-06 OVMax= 2.03D-04

 Cycle   9  Pass 1  IDiag  1:
 RMSU=  1.23D-06    CP:  9.70D-01  8.62D-01  7.52D-01  6.13D-01  7.20D-01
                    CP:  6.27D-01  5.72D-01  6.85D-01
 E= -731.151396310576     Delta-E=       -0.000000134079 Rises=F Damp=F
 DIIS: error= 5.32D-06 at cycle   9 NSaved=   9.
 NSaved= 9 IEnMin= 9 EnMin= -731.151396310576     IErMin= 9 ErrMin= 5.32D-06
 ErrMax= 5.32D-06  0.00D+00 EMaxC= 1.00D-01 BMatC= 2.73D-08 BMatP= 1.50D-07
 IDIUse=1 WtCom= 1.00D+00 WtEn= 0.00D+00
 Coeff-Com:  0.101D-04-0.146D-03-0.217D-03-0.122D-03 0.456D-02 0.178D-01
 Coeff-Com:  0.831D-01 0.375D+00 0.520D+00
 Coeff:      0.101D-04-0.146D-03-0.217D-03-0.122D-03 0.456D-02 0.178D-01
 Coeff:      0.831D-01 0.375D+00 0.520D+00
 Gap=     0.138 Goal=   None    Shift=    0.000
 RMSDP=6.82D-07 MaxDP=2.04D-05 DE=-1.34D-07 OVMax= 3.90D-05

 Cycle  10  Pass 1  IDiag  1:
 RMSU=  3.59D-07    CP:  9.70D-01  8.62D-01  7.52D-01  6.13D-01  7.20D-01
                    CP:  6.32D-01  5.66D-01  7.58D-01  6.51D-01
 E= -731.151396334874     Delta-E=       -0.000000024298 Rises=F Damp=F
 DIIS: error= 1.33D-06 at cycle  10 NSaved=  10.
 NSaved=10 IEnMin=10 EnMin= -731.151396334874     IErMin=10 ErrMin= 1.33D-06
 ErrMax= 1.33D-06  0.00D+00 EMaxC= 1.00D-01 BMatC= 1.08D-09 BMatP= 2.73D-08
 IDIUse=1 WtCom= 1.00D+00 WtEn= 0.00D+00
 Coeff-Com:  0.856D-05-0.293D-04-0.368D-03-0.750D-03-0.144D-02-0.704D-03
 Coeff-Com:  0.110D-01 0.999D-01 0.218D+00 0.674D+00
 Coeff:      0.856D-05-0.293D-04-0.368D-03-0.750D-03-0.144D-02-0.704D-03
 Coeff:      0.110D-01 0.999D-01 0.218D+00 0.674D+00
 Gap=     0.138 Goal=   None    Shift=    0.000
 RMSDP=1.69D-07 MaxDP=4.74D-06 DE=-2.43D-08 OVMax= 1.21D-05

 Cycle  11  Pass 1  IDiag  1:
 RMSU=  1.08D-07    CP:  9.70D-01  8.62D-01  7.52D-01  6.13D-01  7.20D-01
                    CP:  6.32D-01  5.65D-01  7.72D-01  7.00D-01  7.45D-01
 E= -731.151396335769     Delta-E=       -0.000000000895 Rises=F Damp=F
 DIIS: error= 4.35D-07 at cycle  11 NSaved=  11.
 NSaved=11 IEnMin=11 EnMin= -731.151396335769     IErMin=11 ErrMin= 4.35D-07
 ErrMax= 4.35D-07  0.00D+00 EMaxC= 1.00D-01 BMatC= 1.98D-10 BMatP= 1.08D-09
 IDIUse=1 WtCom= 1.00D+00 WtEn= 0.00D+00
 Coeff-Com:  0.410D-05-0.601D-05-0.195D-03-0.428D-03-0.115D-02-0.172D-02
 Coeff-Com:  0.877D-04 0.302D-01 0.859D-01 0.382D+00 0.505D+00
 Coeff:      0.410D-05-0.601D-05-0.195D-03-0.428D-03-0.115D-02-0.172D-02
 Coeff:      0.877D-04 0.302D-01 0.859D-01 0.382D+00 0.505D+00
 Gap=     0.138 Goal=   None    Shift=    0.000
 RMSDP=5.97D-08 MaxDP=2.13D-06 DE=-8.95D-10 OVMax= 4.61D-06

 Cycle  12  Pass 1  IDiag  1:
 RMSU=  3.78D-08    CP:  9.70D-01  8.62D-01  7.52D-01  6.13D-01  7.20D-01
                    CP:  6.32D-01  5.65D-01  7.75D-01  6.93D-01  8.09D-01
                    CP:  6.65D-01
 E= -731.151396335998     Delta-E=       -0.000000000229 Rises=F Damp=F
 DIIS: error= 9.36D-08 at cycle  12 NSaved=  12.
 NSaved=12 IEnMin=12 EnMin= -731.151396335998     IErMin=12 ErrMin= 9.36D-08
 ErrMax= 9.36D-08  0.00D+00 EMaxC= 1.00D-01 BMatC= 7.01D-12 BMatP= 1.98D-10
 IDIUse=1 WtCom= 1.00D+00 WtEn= 0.00D+00
 Coeff-Com:  0.246D-06 0.155D-05-0.228D-04-0.612D-04-0.222D-03-0.540D-03
 Coeff-Com: -0.143D-02-0.214D-02 0.293D-02 0.499D-01 0.176D+00 0.776D+00
 Coeff:      0.246D-06 0.155D-05-0.228D-04-0.612D-04-0.222D-03-0.540D-03
 Coeff:     -0.143D-02-0.214D-02 0.293D-02 0.499D-01 0.176D+00 0.776D+00
 Gap=     0.138 Goal=   None    Shift=    0.000
 RMSDP=1.63D-08 MaxDP=4.09D-07 DE=-2.29D-10 OVMax= 1.14D-06

 Cycle  13  Pass 1  IDiag  1:
 RMSU=  1.14D-08    CP:  9.70D-01  8.62D-01  7.52D-01  6.13D-01  7.20D-01
                    CP:  6.32D-01  5.65D-01  7.75D-01  6.98D-01  8.17D-01
                    CP:  7.18D-01  8.78D-01
 E= -731.151396335968     Delta-E=        0.000000000029 Rises=F Damp=F
 DIIS: error= 3.86D-08 at cycle  13 NSaved=  13.
 NSaved=13 IEnMin=12 EnMin= -731.151396335998     IErMin=13 ErrMin= 3.86D-08
 ErrMax= 3.86D-08  0.00D+00 EMaxC= 1.00D-01 BMatC= 1.54D-12 BMatP= 7.01D-12
 IDIUse=1 WtCom= 1.00D+00 WtEn= 0.00D+00
 Coeff-Com: -0.177D-06 0.125D-05 0.340D-05 0.137D-05-0.216D-04-0.139D-03
 Coeff-Com: -0.683D-03-0.312D-02-0.434D-02-0.243D-02 0.524D-01 0.407D+00
 Coeff-Com:  0.551D+00
 Coeff:     -0.177D-06 0.125D-05 0.340D-05 0.137D-05-0.216D-04-0.139D-03
 Coeff:     -0.683D-03-0.312D-02-0.434D-02-0.243D-02 0.524D-01 0.407D+00
 Coeff:      0.551D+00
 Gap=     0.138 Goal=   None    Shift=    0.000
 RMSDP=5.95D-09 MaxDP=1.55D-07 DE= 2.93D-11 OVMax= 5.67D-07

 Error on total polarization charges =  0.00412
 SCF Done:  E(RB3LYP) =  -731.151396336     A.U. after   13 cycles
            NFock= 13  Conv=0.60D-08     -V/T= 2.0089
 KE= 7.246753044255D+02 PE=-3.992577692331D+03 EE= 1.399037382367D+03
 Leave Link  502 at Mon Jul 12 12:19:16 2021, MaxMem=   104857600 cpu:             800.0 elap:             206.8
 (Enter /dades/curu/g16A03_MST/g16/l601.exe)
 Copying SCF densities to generalized density rwf, IOpCl= 0 IROHF=0.

 **********************************************************************

            Population analysis using the SCF density.

 **********************************************************************

 Orbital symmetries:
       Occupied  (A) (A) (A) (A) (A) (A) (A) (A) (A) (A) (A) (A)
                 (A) (A) (A) (A) (A) (A) (A) (A) (A) (A) (A) (A)
                 (A) (A) (A) (A) (A) (A) (A) (A) (A) (A) (A) (A)
                 (A) (A) (A) (A) (A) (A) (A) (A) (A) (A) (A) (A)
                 (A) (A) (A) (A) (A) (A) (A) (A) (A) (A) (A) (A)
                 (A)
       Virtual   (A) (A) (A) (A) (A) (A) (A) (A) (A) (A) (A) (A)
                 (A) (A) (A) (A) (A) (A) (A) (A) (A) (A) (A) (A)
                 (A) (A) (A) (A) (A) (A) (A) (A) (A) (A) (A) (A)
                 (A) (A) (A) (A) (A) (A) (A) (A) (A) (A) (A) (A)
                 (A) (A) (A) (A) (A) (A) (A) (A) (A) (A) (A) (A)
                 (A) (A) (A) (A) (A) (A) (A) (A) (A) (A) (A) (A)
                 (A) (A) (A) (A) (A) (A) (A) (A) (A) (A) (A) (A)
                 (A) (A) (A) (A) (A) (A) (A) (A) (A) (A) (A) (A)
                 (A) (A) (A) (A) (A) (A) (A) (A) (A) (A) (A) (A)
                 (A) (A) (A) (A) (A) (A) (A) (A) (A) (A) (A) (A)
                 (A) (A) (A) (A) (A) (A) (A) (A) (A) (A) (A) (A)
                 (A) (A) (A) (A) (A) (A) (A) (A) (A) (A) (A) (A)
                 (A) (A) (A) (A) (A) (A) (A) (A) (A) (A) (A) (A)
                 (A) (A) (A) (A) (A) (A) (A) (A) (A) (A) (A) (A)
                 (A) (A) (A) (A) (A) (A) (A) (A) (A) (A) (A) (A)
                 (A) (A) (A) (A) (A) (A) (A) (A) (A) (A) (A) (A)
                 (A) (A) (A) (A) (A) (A) (A) (A) (A) (A) (A) (A)
                 (A) (A) (A) (A) (A) (A) (A) (A) (A) (A) (A) (A)
                 (A) (A) (A) (A) (A) (A) (A) (A)
 The electronic state is 1-A.
 Alpha  occ. eigenvalues --  -19.16803 -19.00469 -10.24212 -10.18175 -10.17682
 Alpha  occ. eigenvalues --  -10.17598 -10.17539 -10.17067 -10.17023 -10.16489
 Alpha  occ. eigenvalues --  -10.15324 -10.15097 -10.13795 -10.13734 -10.13458
 Alpha  occ. eigenvalues --  -10.11900 -10.11633  -1.05836  -0.88947  -0.83709
 Alpha  occ. eigenvalues --   -0.80414  -0.76757  -0.73793  -0.70372  -0.69503
 Alpha  occ. eigenvalues --   -0.66240  -0.65931  -0.60482  -0.59871  -0.55387
 Alpha  occ. eigenvalues --   -0.55159  -0.52462  -0.51996  -0.47558  -0.45503
 Alpha  occ. eigenvalues --   -0.43585  -0.42745  -0.41657  -0.41389  -0.40254
 Alpha  occ. eigenvalues --   -0.39560  -0.39418  -0.38794  -0.37510  -0.36761
 Alpha  occ. eigenvalues --   -0.36161  -0.35109  -0.33697  -0.33169  -0.32666
 Alpha  occ. eigenvalues --   -0.31444  -0.30949  -0.29656  -0.28637  -0.28263
 Alpha  occ. eigenvalues --   -0.24947  -0.24046  -0.20728  -0.19307  -0.15648
 Alpha  occ. eigenvalues --   -0.12728
 Alpha virt. eigenvalues --    0.01066   0.02099   0.04775   0.07838   0.09426
 Alpha virt. eigenvalues --    0.10759   0.12581   0.14487   0.14702   0.15533
 Alpha virt. eigenvalues --    0.16267   0.16675   0.17375   0.18410   0.19237
 Alpha virt. eigenvalues --    0.20158   0.21559   0.22064   0.22664   0.24209
 Alpha virt. eigenvalues --    0.25136   0.25398   0.26272   0.27481   0.28969
 Alpha virt. eigenvalues --    0.29800   0.31657   0.33071   0.35291   0.36545
 Alpha virt. eigenvalues --    0.37508   0.38542   0.40004   0.41839   0.43723
 Alpha virt. eigenvalues --    0.50727   0.51837   0.53051   0.53394   0.54129
 Alpha virt. eigenvalues --    0.54752   0.55895   0.56113   0.57526   0.58701
 Alpha virt. eigenvalues --    0.59186   0.60008   0.60315   0.60755   0.61356
 Alpha virt. eigenvalues --    0.61998   0.63617   0.64203   0.64656   0.65159
 Alpha virt. eigenvalues --    0.65756   0.66741   0.68544   0.69469   0.69828
 Alpha virt. eigenvalues --    0.70532   0.71379   0.73024   0.74900   0.75915
 Alpha virt. eigenvalues --    0.76976   0.77505   0.79350   0.80318   0.82378
 Alpha virt. eigenvalues --    0.83191   0.84724   0.85102   0.85939   0.87118
 Alpha virt. eigenvalues --    0.87735   0.88763   0.88967   0.89780   0.90351
 Alpha virt. eigenvalues --    0.90933   0.91566   0.92635   0.93319   0.95252
 Alpha virt. eigenvalues --    0.95659   0.96822   0.97881   0.98418   0.99163
 Alpha virt. eigenvalues --    1.00923   1.01846   1.03545   1.04904   1.05508
 Alpha virt. eigenvalues --    1.06318   1.08081   1.08487   1.10864   1.12185
 Alpha virt. eigenvalues --    1.15049   1.16258   1.17063   1.19461   1.19953
 Alpha virt. eigenvalues --    1.22061   1.23174   1.26068   1.26432   1.28318
 Alpha virt. eigenvalues --    1.30388   1.31209   1.33048   1.34293   1.38899
 Alpha virt. eigenvalues --    1.40581   1.42088   1.43850   1.45359   1.45635
 Alpha virt. eigenvalues --    1.48796   1.49491   1.52309   1.53135   1.56896
 Alpha virt. eigenvalues --    1.58042   1.59929   1.64909   1.66916   1.67462
 Alpha virt. eigenvalues --    1.70725   1.71709   1.74170   1.76149   1.77271
 Alpha virt. eigenvalues --    1.79388   1.80456   1.83879   1.86341   1.87516
 Alpha virt. eigenvalues --    1.87805   1.90156   1.90894   1.91538   1.93365
 Alpha virt. eigenvalues --    1.94669   1.95649   1.97969   1.98112   1.99249
 Alpha virt. eigenvalues --    2.01260   2.01519   2.04721   2.05752   2.09479
 Alpha virt. eigenvalues --    2.09931   2.11748   2.12672   2.14203   2.15350
 Alpha virt. eigenvalues --    2.16888   2.19277   2.21307   2.21915   2.23586
 Alpha virt. eigenvalues --    2.24195   2.27186   2.29077   2.29530   2.30065
 Alpha virt. eigenvalues --    2.32530   2.33947   2.35170   2.36002   2.37801
 Alpha virt. eigenvalues --    2.39720   2.41261   2.41600   2.44474   2.46002
 Alpha virt. eigenvalues --    2.48399   2.50739   2.58625   2.61069   2.63608
 Alpha virt. eigenvalues --    2.64363   2.65478   2.66552   2.68169   2.69103
 Alpha virt. eigenvalues --    2.71007   2.74759   2.76724   2.78189   2.81057
 Alpha virt. eigenvalues --    2.84886   2.86840   2.90831   2.92916   2.95375
 Alpha virt. eigenvalues --    3.00967   3.03892   3.05514   3.16039   3.25629
 Alpha virt. eigenvalues --    3.37971   3.50048   3.92244   4.00907   4.11617
 Alpha virt. eigenvalues --    4.13979   4.18278   4.19191   4.25525   4.27536
 Alpha virt. eigenvalues --    4.31191   4.33309   4.35606   4.40711   4.47014
 Alpha virt. eigenvalues --    4.54471   4.69637   4.77845   4.83517
          Condensed to atoms (all electrons):
               1          2          3          4          5          6
     1  C    5.236095   0.355242   0.362444   0.355495   0.337336  -0.081669
     2  H    0.355242   0.602661  -0.032497  -0.040044  -0.024307   0.007914
     3  H    0.362444  -0.032497   0.589220  -0.029926  -0.025560  -0.004440
     4  H    0.355495  -0.040044  -0.029926   0.592303  -0.018407  -0.010118
     5  C    0.337336  -0.024307  -0.025560  -0.018407   5.018388   0.338079
     6  C   -0.081669   0.007914  -0.004440  -0.010118   0.338079   5.249861
     7  H    0.007832  -0.000300   0.000064   0.000071  -0.029019   0.352828
     8  H   -0.010755   0.000268  -0.000125   0.005343  -0.023453   0.364778
     9  H   -0.003549  -0.000205   0.002968   0.000289  -0.021593   0.348396
    10  C   -0.047030  -0.009127  -0.000935   0.005366   0.358074  -0.049650
    11  C   -0.012875   0.004963   0.000058   0.000350  -0.051639   0.007220
    12  C    0.000678   0.000029  -0.000066  -0.000003   0.005749  -0.000291
    13  C   -0.000040  -0.000012  -0.000002   0.000000   0.000344   0.000006
    14  O    0.000000  -0.000000   0.000000  -0.000000  -0.000001   0.000000
    15  H    0.000000   0.000000   0.000000   0.000000  -0.000001   0.000000
    16  C   -0.000114   0.000010  -0.000028   0.000002   0.006572   0.000003
    17  C    0.003810  -0.000370   0.000689  -0.000054  -0.048626  -0.012061
    18  H    0.000263  -0.000006  -0.000067  -0.000010  -0.011827   0.006644
    19  H    0.000002   0.000000   0.000000  -0.000000  -0.000156   0.000006
    20  H    0.000007   0.000016  -0.000001  -0.000000  -0.000174   0.000002
    21  H   -0.002706   0.004331   0.000152  -0.000186  -0.008475   0.000732
    22  C   -0.037003  -0.005528   0.003591  -0.008253   0.364799  -0.050825
    23  C   -0.015230   0.002271   0.000461   0.002340  -0.051094   0.001980
    24  H    0.005223   0.001407  -0.000029   0.002422  -0.015993   0.000348
    25  C    0.000108  -0.000039  -0.000005   0.000309   0.006749  -0.000023
    26  H    0.000009  -0.000002  -0.000000   0.000007  -0.000236   0.000001
    27  C   -0.000006  -0.000001   0.000000  -0.000007   0.000487   0.000015
    28  O    0.000000   0.000000  -0.000000  -0.000000   0.000000  -0.000000
    29  C   -0.000135   0.000001   0.000002  -0.000002   0.005409   0.000089
    30  H    0.000002   0.000000  -0.000000   0.000000  -0.000180  -0.000000
    31  C    0.006791  -0.000108  -0.000080  -0.000342  -0.061837  -0.010783
    32  H    0.000289  -0.000006  -0.000008  -0.000005  -0.012118  -0.000296
               7          8          9         10         11         12
     1  C    0.007832  -0.010755  -0.003549  -0.047030  -0.012875   0.000678
     2  H   -0.000300   0.000268  -0.000205  -0.009127   0.004963   0.000029
     3  H    0.000064  -0.000125   0.002968  -0.000935   0.000058  -0.000066
     4  H    0.000071   0.005343   0.000289   0.005366   0.000350  -0.000003
     5  C   -0.029019  -0.023453  -0.021593   0.358074  -0.051639   0.005749
     6  C    0.352828   0.364778   0.348396  -0.049650   0.007220  -0.000291
     7  H    0.590432  -0.028405  -0.029341  -0.004292  -0.000169   0.000009
     8  H   -0.028405   0.592291  -0.039923   0.004433  -0.000104   0.000003
     9  H   -0.029341  -0.039923   0.608301  -0.008603  -0.000170  -0.000001
    10  C   -0.004292   0.004433  -0.008603   4.761494   0.504030  -0.028615
    11  C   -0.000169  -0.000104  -0.000170   0.504030   5.034344   0.498729
    12  C    0.000009   0.000003  -0.000001  -0.028615   0.498729   5.016077
    13  C   -0.000001  -0.000000  -0.000005  -0.034572  -0.019371   0.512089
    14  O    0.000000  -0.000000   0.000000   0.000360   0.002634  -0.053688
    15  H   -0.000000  -0.000000   0.000000  -0.000042  -0.000264   0.006433
    16  C    0.000004  -0.000002   0.000239  -0.025169  -0.039599  -0.055120
    17  C    0.002534   0.000202   0.002351   0.546223  -0.053441  -0.031164
    18  H    0.000882  -0.000282   0.003044  -0.038656   0.006349   0.000255
    19  H   -0.000001  -0.000000   0.000005   0.003219   0.000440   0.003347
    20  H   -0.000000  -0.000000   0.000000   0.003677  -0.035939   0.353583
    21  H   -0.000007  -0.000017  -0.000025  -0.045838   0.351082  -0.044227
    22  C   -0.006276  -0.000078   0.004769  -0.051810  -0.012211   0.000079
    23  C   -0.000316   0.000936  -0.000069   0.001462   0.000421   0.000018
    24  H    0.000001  -0.000139  -0.000017   0.000225  -0.000104  -0.000001
    25  C   -0.000044  -0.000034   0.000001  -0.000038  -0.000022   0.000000
    26  H    0.000001   0.000001  -0.000000   0.000002   0.000000   0.000000
    27  C   -0.000009  -0.000004   0.000000  -0.000026  -0.000006   0.000002
    28  O   -0.000000   0.000000   0.000000  -0.000000  -0.000000  -0.000000
    29  C   -0.000123  -0.000004  -0.000001   0.000439  -0.000016  -0.000022
    30  H    0.000007  -0.000000  -0.000000   0.000004   0.000003  -0.000000
    31  C    0.007691  -0.000131   0.000181  -0.005727  -0.002550  -0.000166
    32  H    0.002074   0.000013  -0.000080   0.007523   0.000236  -0.000017
              13         14         15         16         17         18
     1  C   -0.000040   0.000000   0.000000  -0.000114   0.003810   0.000263
     2  H   -0.000012  -0.000000   0.000000   0.000010  -0.000370  -0.000006
     3  H   -0.000002   0.000000   0.000000  -0.000028   0.000689  -0.000067
     4  H    0.000000  -0.000000   0.000000   0.000002  -0.000054  -0.000010
     5  C    0.000344  -0.000001  -0.000001   0.006572  -0.048626  -0.011827
     6  C    0.000006   0.000000   0.000000   0.000003  -0.012061   0.006644
     7  H   -0.000001   0.000000  -0.000000   0.000004   0.002534   0.000882
     8  H   -0.000000  -0.000000  -0.000000  -0.000002   0.000202  -0.000282
     9  H   -0.000005   0.000000   0.000000   0.000239   0.002351   0.003044
    10  C   -0.034572   0.000360  -0.000042  -0.025169   0.546223  -0.038656
    11  C   -0.019371   0.002634  -0.000264  -0.039599  -0.053441   0.006349
    12  C    0.512089  -0.053688   0.006433  -0.055120  -0.031164   0.000255
    13  C    4.564581   0.273190  -0.039944   0.516505  -0.015414   0.003908
    14  O    0.273190   8.226305   0.247783  -0.057276   0.005056  -0.000063
    15  H   -0.039944   0.247783   0.350761  -0.001313   0.000810  -0.000024
    16  C    0.516505  -0.057276  -0.001313   5.134244   0.443082  -0.046483
    17  C   -0.015414   0.005056   0.000810   0.443082   5.035293   0.349376
    18  H    0.003908  -0.000063  -0.000024  -0.046483   0.349376   0.601305
    19  H   -0.042185  -0.005035   0.007539   0.350053  -0.031417  -0.005892
    20  H   -0.036676  -0.000727  -0.000216   0.004046   0.000166   0.000015
    21  H    0.004421  -0.000073   0.000009   0.000477   0.005627  -0.000163
    22  C    0.000091  -0.000000   0.000000  -0.000010  -0.002061   0.000060
    23  C    0.000001  -0.000000  -0.000000   0.000002  -0.000335   0.000003
    24  H   -0.000000   0.000000  -0.000000   0.000000   0.000002   0.000000
    25  C   -0.000000   0.000000   0.000000  -0.000000   0.000001   0.000000
    26  H   -0.000000   0.000000  -0.000000   0.000000  -0.000000  -0.000000
    27  C    0.000000  -0.000000   0.000000   0.000000   0.000000  -0.000000
    28  O    0.000000  -0.000000   0.000000   0.000000  -0.000000  -0.000000
    29  C   -0.000002   0.000000   0.000000  -0.000001   0.000055   0.000000
    30  H   -0.000000   0.000000  -0.000000  -0.000000   0.000000   0.000000
    31  C    0.000002   0.000000  -0.000000  -0.000130   0.001817  -0.000078
    32  H   -0.000100  -0.000000  -0.000000   0.000318   0.002854   0.000044
              19         20         21         22         23         24
     1  C    0.000002   0.000007  -0.002706  -0.037003  -0.015230   0.005223
     2  H    0.000000   0.000016   0.004331  -0.005528   0.002271   0.001407
     3  H    0.000000  -0.000001   0.000152   0.003591   0.000461  -0.000029
     4  H   -0.000000  -0.000000  -0.000186  -0.008253   0.002340   0.002422
     5  C   -0.000156  -0.000174  -0.008475   0.364799  -0.051094  -0.015993
     6  C    0.000006   0.000002   0.000732  -0.050825   0.001980   0.000348
     7  H   -0.000001  -0.000000  -0.000007  -0.006276  -0.000316   0.000001
     8  H   -0.000000  -0.000000  -0.000017  -0.000078   0.000936  -0.000139
     9  H    0.000005   0.000000  -0.000025   0.004769  -0.000069  -0.000017
    10  C    0.003219   0.003677  -0.045838  -0.051810   0.001462   0.000225
    11  C    0.000440  -0.035939   0.351082  -0.012211   0.000421  -0.000104
    12  C    0.003347   0.353583  -0.044227   0.000079   0.000018  -0.000001
    13  C   -0.042185  -0.036676   0.004421   0.000091   0.000001  -0.000000
    14  O   -0.005035  -0.000727  -0.000073  -0.000000  -0.000000   0.000000
    15  H    0.007539  -0.000216   0.000009   0.000000  -0.000000  -0.000000
    16  C    0.350053   0.004046   0.000477  -0.000010   0.000002   0.000000
    17  C   -0.031417   0.000166   0.005627  -0.002061  -0.000335   0.000002
    18  H   -0.005892   0.000015  -0.000163   0.000060   0.000003   0.000000
    19  H    0.578757  -0.000081   0.000015   0.000000  -0.000000  -0.000000
    20  H   -0.000081   0.575503  -0.005324  -0.000013  -0.000001  -0.000000
    21  H    0.000015  -0.005324   0.588813   0.009659   0.002277  -0.000038
    22  C    0.000000  -0.000013   0.009659   4.784144   0.540736  -0.044988
    23  C   -0.000000  -0.000001   0.002277   0.540736   5.132184   0.338525
    24  H   -0.000000  -0.000000  -0.000038  -0.044988   0.338525   0.656214
    25  C    0.000000  -0.000000  -0.000088  -0.033737   0.382926  -0.039746
    26  H   -0.000000  -0.000000  -0.000002   0.005471  -0.050002  -0.008706
    27  C    0.000000  -0.000000  -0.000011  -0.036086   0.002847   0.003469
    28  O    0.000000   0.000000   0.000000   0.000371   0.007798  -0.000108
    29  C    0.000000  -0.000000  -0.000182  -0.036046  -0.034214   0.000276
    30  H   -0.000000   0.000000  -0.000001   0.005180  -0.000142   0.000027
    31  C    0.000000   0.000000   0.000688   0.527310  -0.065069   0.006502
    32  H   -0.000000   0.000001  -0.000064  -0.051388   0.006838  -0.000208
              25         26         27         28         29         30
     1  C    0.000108   0.000009  -0.000006   0.000000  -0.000135   0.000002
     2  H   -0.000039  -0.000002  -0.000001   0.000000   0.000001   0.000000
     3  H   -0.000005  -0.000000   0.000000  -0.000000   0.000002  -0.000000
     4  H    0.000309   0.000007  -0.000007  -0.000000  -0.000002   0.000000
     5  C    0.006749  -0.000236   0.000487   0.000000   0.005409  -0.000180
     6  C   -0.000023   0.000001   0.000015  -0.000000   0.000089  -0.000000
     7  H   -0.000044   0.000001  -0.000009  -0.000000  -0.000123   0.000007
     8  H   -0.000034   0.000001  -0.000004   0.000000  -0.000004  -0.000000
     9  H    0.000001  -0.000000   0.000000   0.000000  -0.000001  -0.000000
    10  C   -0.000038   0.000002  -0.000026  -0.000000   0.000439   0.000004
    11  C   -0.000022   0.000000  -0.000006  -0.000000  -0.000016   0.000003
    12  C    0.000000   0.000000   0.000002  -0.000000  -0.000022  -0.000000
    13  C   -0.000000  -0.000000   0.000000   0.000000  -0.000002  -0.000000
    14  O    0.000000   0.000000  -0.000000  -0.000000   0.000000   0.000000
    15  H    0.000000  -0.000000   0.000000   0.000000   0.000000  -0.000000
    16  C   -0.000000   0.000000   0.000000   0.000000  -0.000001  -0.000000
    17  C    0.000001  -0.000000   0.000000  -0.000000   0.000055   0.000000
    18  H    0.000000  -0.000000  -0.000000  -0.000000   0.000000   0.000000
    19  H    0.000000  -0.000000   0.000000   0.000000   0.000000  -0.000000
    20  H   -0.000000  -0.000000  -0.000000   0.000000  -0.000000   0.000000
    21  H   -0.000088  -0.000002  -0.000011   0.000000  -0.000182  -0.000001
    22  C   -0.033737   0.005471  -0.036086   0.000371  -0.036046   0.005180
    23  C    0.382926  -0.050002   0.002847   0.007798  -0.034214  -0.000142
    24  H   -0.039746  -0.008706   0.003469  -0.000108   0.000276   0.000027
    25  C    5.345338   0.336640   0.443273  -0.076973  -0.071785   0.009735
    26  H    0.336640   0.678892  -0.040828  -0.000596   0.008226  -0.000162
    27  C    0.443273  -0.040828   4.358619   0.430138   0.460527  -0.041586
    28  O   -0.076973  -0.000596   0.430138   8.563811  -0.078067   0.000753
    29  C   -0.071785   0.008226   0.460527  -0.078067   5.273202   0.333350
    30  H    0.009735  -0.000162  -0.041586   0.000753   0.333350   0.675465
    31  C   -0.044809   0.000397  -0.000647   0.008184   0.403620  -0.050492
    32  H    0.000171   0.000028   0.003805  -0.000133  -0.038254  -0.007912
              31         32
     1  C    0.006791   0.000289
     2  H   -0.000108  -0.000006
     3  H   -0.000080  -0.000008
     4  H   -0.000342  -0.000005
     5  C   -0.061837  -0.012118
     6  C   -0.010783  -0.000296
     7  H    0.007691   0.002074
     8  H   -0.000131   0.000013
     9  H    0.000181  -0.000080
    10  C   -0.005727   0.007523
    11  C   -0.002550   0.000236
    12  C   -0.000166  -0.000017
    13  C    0.000002  -0.000100
    14  O    0.000000  -0.000000
    15  H   -0.000000  -0.000000
    16  C   -0.000130   0.000318
    17  C    0.001817   0.002854
    18  H   -0.000078   0.000044
    19  H    0.000000  -0.000000
    20  H    0.000000   0.000001
    21  H    0.000688  -0.000064
    22  C    0.527310  -0.051388
    23  C   -0.065069   0.006838
    24  H    0.006502  -0.000208
    25  C   -0.044809   0.000171
    26  H    0.000397   0.000028
    27  C   -0.000647   0.003805
    28  O    0.008184  -0.000133
    29  C    0.403620  -0.038254
    30  H   -0.050492  -0.007912
    31  C    5.145173   0.336086
    32  H    0.336086   0.655803
 Mulliken charges:
               1
     1  C   -0.460516
     2  H    0.133440
     3  H    0.134121
     4  H    0.143060
     5  C   -0.037290
     6  C   -0.458745
[...]
 Alpha virt. eigenvalues --    2.74369   2.75634   2.77540   2.77969   2.79734
 Alpha virt. eigenvalues --    2.82547   2.84246   2.86652   2.87846   2.88389
 Alpha virt. eigenvalues --    2.90315   2.91541   2.92576   2.95605   2.96383
 Alpha virt. eigenvalues --    2.98544   2.99288   3.01418   3.02129   3.04214
 Alpha virt. eigenvalues --    3.06867   3.07864   3.09316   3.12536   3.14193
 Alpha virt. eigenvalues --    3.15838   3.17666   3.20245   3.21569   3.22971
 Alpha virt. eigenvalues --    3.25656   3.26172   3.28054   3.29130   3.31246
 Alpha virt. eigenvalues --    3.34148   3.37042   3.38022   3.44033   3.49536
 Alpha virt. eigenvalues --    3.51114   3.53782   3.58854   3.59350   3.60827
 Alpha virt. eigenvalues --    3.78616   3.80856   3.83928   3.84569   3.85979
 Alpha virt. eigenvalues --    3.92800   3.96966   3.98918   4.01345   4.03897
 Alpha virt. eigenvalues --    4.04246   4.04481   4.16612   4.23996   4.28929
 Alpha virt. eigenvalues --    4.36058   4.49277   4.79932   5.07154   5.16076
          Condensed to atoms (all electrons):
               1          2          3          4          5          6
     1  C    7.999005   0.337645  -0.354483   0.365412  -1.877098  -1.718478
     2  H    0.337645   1.461551  -0.415602  -0.255052   0.402906  -0.029723
     3  H   -0.354483  -0.415602   1.971688  -0.382326  -0.335957  -0.033651
     4  H    0.365412  -0.255052  -0.382326   1.421946  -0.072949  -0.027972
     5  C   -1.877098   0.402906  -0.335957  -0.072949  34.018999  -2.031085
     6  C   -1.718478  -0.029723  -0.033651  -0.027972  -2.031085   8.022443
     7  H   -0.037715  -0.008659   0.003921   0.010838   0.168240   0.445465
     8  H   -0.131092  -0.006242   0.035020  -0.024485  -0.333542  -0.279813
     9  H    0.037349   0.017111  -0.041745  -0.003613   0.021309   0.402037
    10  C   -1.203774  -0.278278   0.058124   0.242363  -6.807271   2.001436
    11  C    0.000024   0.055413   0.072638  -0.017939  -1.259630  -0.351742
    12  C    0.639711   0.037637  -0.020739   0.023652  -0.442694  -0.441471
    13  C   -0.088108  -0.009332   0.036486  -0.004694  -0.854121   0.094980
    14  O    0.004316   0.000638  -0.000438   0.000174   0.015993  -0.000873
    15  H   -0.000836  -0.000183   0.000007   0.000025  -0.008617   0.000655
    16  C   -0.152074   0.000739  -0.052342  -0.006919  -0.001914   0.471322
    17  C   -0.378067  -0.066171   0.342924  -0.174898  -1.704862  -0.262259
    18  H    0.016006   0.007909   0.003399  -0.007840  -0.576180   0.110766
    19  H    0.001889   0.000625  -0.003778   0.000686   0.058275   0.016585
    20  H    0.004160  -0.002140   0.000743  -0.000086  -0.028839  -0.003019
    21  H   -0.044484  -0.059994   0.024018  -0.009088  -0.007464   0.023741
    22  C    2.226937  -0.126104   0.314173   0.031399  -7.559026  -1.424152
    23  C   -0.447365  -0.041169  -0.081896  -0.064555  -1.387636  -0.189193
    24  H    0.094337  -0.043157   0.049455  -0.032348  -0.644875  -0.023367
    25  C    0.482836   0.055931  -0.057533   0.136889  -1.041950  -0.388365
    26  H    0.022972   0.002862   0.000071  -0.000110   0.044416   0.002602
    27  C    0.045210   0.002628  -0.000785   0.001127  -0.132558   0.019023
    28  O   -0.001213   0.000306  -0.000074   0.000284  -0.001457   0.002567
    29  C   -0.433959  -0.033890   0.019550  -0.034538  -1.198945   0.649502
    30  H   -0.002274  -0.000230   0.000120   0.000287   0.008447  -0.006889
    31  C   -0.295464   0.005042   0.070032  -0.075794   0.234859  -0.132814
    32  H   -0.006269  -0.000254   0.001247  -0.004096  -0.170467   0.055098
               7          8          9         10         11         12
     1  C   -0.037715  -0.131092   0.037349  -1.203774   0.000024   0.639711
     2  H   -0.008659  -0.006242   0.017111  -0.278278   0.055413   0.037637
     3  H    0.003921   0.035020  -0.041745   0.058124   0.072638  -0.020739
     4  H    0.010838  -0.024485  -0.003613   0.242363  -0.017939   0.023652
     5  C    0.168240  -0.333542   0.021309  -6.807271  -1.259630  -0.442694
     6  C    0.445465  -0.279813   0.402037   2.001436  -0.351742  -0.441471
     7  H    1.438054  -0.379122  -0.271157   0.012703   0.002369  -0.025361
     8  H   -0.379122   1.918326  -0.431167   0.439543   0.125034   0.007559
     9  H   -0.271157  -0.431167   1.555467  -0.084681  -0.158676   0.007118
    10  C    0.012703   0.439543  -0.084681  30.690161 -12.433400   5.152933
    11  C    0.002369   0.125034  -0.158676 -12.433400  30.617468 -10.197132
    12  C   -0.025361   0.007559   0.007118   5.152933 -10.197132  19.081988
    13  C   -0.001943   0.008005  -0.018408  -5.786216   5.184452  -5.102722
    14  O    0.000198  -0.000070   0.000364   0.235640  -0.242257   0.031439
    15  H   -0.000098   0.000132  -0.000413  -0.039837   0.087462  -0.149170
    16  C    0.055721  -0.091494   0.208267   3.650686  -6.147286   3.988898
    17  C   -0.081192  -0.152460  -0.086881 -13.442082   2.221883  -6.665499
    18  H   -0.037973   0.052960  -0.048321   1.418104   0.142635  -0.002846
    19  H    0.000432  -0.000683   0.002198  -0.100438  -0.047598   0.008575
    20  H   -0.000466  -0.000169   0.000525  -0.606826   0.729241  -1.583044
    21  H    0.002138   0.003329  -0.005413   1.297828  -2.339918   0.756050
    22  C   -0.071811   0.106386   0.116106   0.450507  -0.463920   0.633696
    23  C   -0.048156   0.287722  -0.153053   0.468609  -0.161499  -0.144756
    24  H   -0.000981   0.015196  -0.007833   0.131944   0.125499   0.047302
    25  C   -0.000269  -0.021200  -0.015830  -0.130156   0.332571   0.243914
    26  H    0.000763  -0.002880   0.000965  -0.015010  -0.017441   0.000408
    27  C   -0.005789   0.014874  -0.003170  -0.050892   0.013824  -0.034401
    28  O    0.000411  -0.000259   0.000264   0.003438   0.000011  -0.000984
    29  C    0.011182   0.013889   0.030260   0.332579  -0.006381  -0.250042
    30  H   -0.000782   0.002116  -0.000984  -0.010234   0.030134   0.002635
    31  C   -0.095382   0.033259  -0.000581  -0.507409  -0.262543   0.135551
    32  H   -0.048029   0.016704  -0.002042  -0.082551  -0.013624  -0.034585
              13         14         15         16         17         18
     1  C   -0.088108   0.004316  -0.000836  -0.152074  -0.378067   0.016006
     2  H   -0.009332   0.000638  -0.000183   0.000739  -0.066171   0.007909
     3  H    0.036486  -0.000438   0.000007  -0.052342   0.342924   0.003399
     4  H   -0.004694   0.000174   0.000025  -0.006919  -0.174898  -0.007840
     5  C   -0.854121   0.015993  -0.008617  -0.001914  -1.704862  -0.576180
     6  C    0.094980  -0.000873   0.000655   0.471322  -0.262259   0.110766
     7  H   -0.001943   0.000198  -0.000098   0.055721  -0.081192  -0.037973
     8  H    0.008005  -0.000070   0.000132  -0.091494  -0.152460   0.052960
     9  H   -0.018408   0.000364  -0.000413   0.208267  -0.086881  -0.048321
    10  C   -5.786216   0.235640  -0.039837   3.650686 -13.442082   1.418104
    11  C    5.184452  -0.242257   0.087462  -6.147286   2.221883   0.142635
    12  C   -5.102722   0.031439  -0.149170   3.988898  -6.665499  -0.002846
    13  C   11.561824  -0.706829  -0.017868  -4.060702   4.310137  -0.245977
    14  O   -0.706829   9.087719   0.311695   0.371085  -0.032127   0.003794
    15  H   -0.017868   0.311695   0.602025  -0.007607   0.049767  -0.000212
    16  C   -4.060702   0.371085  -0.007607  16.766696  -8.143319   0.263106
    17  C    4.310137  -0.032127   0.049767  -8.143319  30.472505  -1.944252
    18  H   -0.245977   0.003794  -0.000212   0.263106  -1.944252   2.561158
    19  H    0.483463  -0.091258   0.003466  -1.214278   0.644308  -0.093269
    20  H    1.067587  -0.044591  -0.002601  -0.003387   0.242140   0.011280
    21  H   -0.559963  -0.004626  -0.000266   0.225008  -0.005211  -0.029655
    22  C   -0.058897   0.002998   0.000024  -0.153711  -0.495355   0.221462
    23  C    0.061089  -0.000943   0.000477  -0.148378   0.373657  -0.011235
    24  H    0.006209  -0.000174   0.000018  -0.008059  -0.046384   0.000510
    25  C    0.029688   0.000196  -0.000021  -0.050332  -0.248280   0.001388
    26  H   -0.000008   0.000006  -0.000003  -0.000344   0.001375  -0.000172
    27  C   -0.000838  -0.000022   0.000043   0.007074   0.051710   0.001751
    28  O    0.000082  -0.000001   0.000001  -0.000019  -0.000178  -0.000068
    29  C   -0.028525  -0.000327   0.000021   0.126221   0.199665   0.019349
    30  H    0.000943   0.000065   0.000020  -0.000601  -0.012841   0.001783
    31  C    0.014243  -0.000565  -0.000179   0.117090   0.137370   0.007027
    32  H    0.018006  -0.000480   0.000002  -0.004105   0.232696  -0.003793
              19         20         21         22         23         24
     1  C    0.001889   0.004160  -0.044484   2.226937  -0.447365   0.094337
     2  H    0.000625  -0.002140  -0.059994  -0.126104  -0.041169  -0.043157
     3  H   -0.003778   0.000743   0.024018   0.314173  -0.081896   0.049455
     4  H    0.000686  -0.000086  -0.009088   0.031399  -0.064555  -0.032348
     5  C    0.058275  -0.028839  -0.007464  -7.559026  -1.387636  -0.644875
     6  C    0.016585  -0.003019   0.023741  -1.424152  -0.189193  -0.023367
     7  H    0.000432  -0.000466   0.002138  -0.071811  -0.048156  -0.000981
     8  H   -0.000683  -0.000169   0.003329   0.106386   0.287722   0.015196
     9  H    0.002198   0.000525  -0.005413   0.116106  -0.153053  -0.007833
    10  C   -0.100438  -0.606826   1.297828   0.450507   0.468609   0.131944
    11  C   -0.047598   0.729241  -2.339918  -0.463920  -0.161499   0.125499
    12  C    0.008575  -1.583044   0.756050   0.633696  -0.144756   0.047302
    13  C    0.483463   1.067587  -0.559963  -0.058897   0.061089   0.006209
    14  O   -0.091258  -0.044591  -0.004626   0.002998  -0.000943  -0.000174
    15  H    0.003466  -0.002601  -0.000266   0.000024   0.000477   0.000018
    16  C   -1.214278  -0.003387   0.225008  -0.153711  -0.148378  -0.008059
    17  C    0.644308   0.242140  -0.005211  -0.495355   0.373657  -0.046384
    18  H   -0.093269   0.011280  -0.029655   0.221462  -0.011235   0.000510
    19  H    1.967631  -0.017794   0.008117  -0.011135  -0.001888  -0.000208
    20  H   -0.017794   1.849599  -0.124781   0.013414  -0.006909   0.000782
    21  H    0.008117  -0.124781   2.592223  -0.225613   0.207824   0.009297
    22  C   -0.011135   0.013414  -0.225613  26.742502 -10.450951   1.225303
    23  C   -0.001888  -0.006909   0.207824 -10.450951  26.601802  -2.136098
    24  H   -0.000208   0.000782   0.009297   1.225303  -2.136098   2.664369
    25  C   -0.000123   0.002618  -0.045056   2.206760  -5.650865   0.723570
    26  H    0.000006  -0.000028  -0.002417   0.020834   0.734539  -0.111976
    27  C   -0.000214  -0.002018   0.028739  -2.722920   2.074445  -0.061786
    28  O   -0.000001  -0.000043   0.000082   0.168744  -0.097111  -0.003580
    29  C   -0.000188  -0.000732  -0.028431   1.387624  -2.715663   0.075990
    30  H   -0.000160  -0.000476   0.002479  -0.140317   0.149333   0.006334
    31  C   -0.006758   0.004204   0.041018  -7.668766  -1.554852  -0.127105
    32  H    0.000062  -0.000129   0.017170   0.690712  -0.117596  -0.018774
              25         26         27         28         29         30
     1  C    0.482836   0.022972   0.045210  -0.001213  -0.433959  -0.002274
     2  H    0.055931   0.002862   0.002628   0.000306  -0.033890  -0.000230
     3  H   -0.057533   0.000071  -0.000785  -0.000074   0.019550   0.000120
     4  H    0.136889  -0.000110   0.001127   0.000284  -0.034538   0.000287
     5  C   -1.041950   0.044416  -0.132558  -0.001457  -1.198945   0.008447
     6  C   -0.388365   0.002602   0.019023   0.002567   0.649502  -0.006889
     7  H   -0.000269   0.000763  -0.005789   0.000411   0.011182  -0.000782
     8  H   -0.021200  -0.002880   0.014874  -0.000259   0.013889   0.002116
     9  H   -0.015830   0.000965  -0.003170   0.000264   0.030260  -0.000984
    10  C   -0.130156  -0.015010  -0.050892   0.003438   0.332579  -0.010234
    11  C    0.332571  -0.017441   0.013824   0.000011  -0.006381   0.030134
    12  C    0.243914   0.000408  -0.034401  -0.000984  -0.250042   0.002635
    13  C    0.029688  -0.000008  -0.000838   0.000082  -0.028525   0.000943
    14  O    0.000196   0.000006  -0.000022  -0.000001  -0.000327   0.000065
    15  H   -0.000021  -0.000003   0.000043   0.000001   0.000021   0.000020
    16  C   -0.050332  -0.000344   0.007074  -0.000019   0.126221  -0.000601
    17  C   -0.248280   0.001375   0.051710  -0.000178   0.199665  -0.012841
    18  H    0.001388  -0.000172   0.001751  -0.000068   0.019349   0.001783
    19  H   -0.000123   0.000006  -0.000214  -0.000001  -0.000188  -0.000160
    20  H    0.002618  -0.000028  -0.002018  -0.000043  -0.000732  -0.000476
    21  H   -0.045056  -0.002417   0.028739   0.000082  -0.028431   0.002479
    22  C    2.206760   0.020834  -2.722920   0.168744   1.387624  -0.140317
    23  C   -5.650865   0.734539   2.074445  -0.097111  -2.715663   0.149333
    24  H    0.723570  -0.111976  -0.061786  -0.003580   0.075990   0.006334
    25  C   12.512607  -0.988501  -1.615085   0.126149   1.895830  -0.168406
    26  H   -0.988501   1.806254   0.137229  -0.021045  -0.178332  -0.011219
    27  C   -1.615085   0.137229   8.343848  -0.352184  -1.435871   0.179510
    28  O    0.126149  -0.021045  -0.352184   9.330344   0.121327  -0.034493
    29  C    1.895830  -0.178332  -1.435871   0.121327  12.529809  -0.868869
    30  H   -0.168406  -0.011219   0.179510  -0.034493  -0.868869   1.820473
    31  C   -2.546447   0.117490   1.189618  -0.091932  -5.287610   0.752592
    32  H    0.087862   0.003987  -0.112844  -0.000960   0.903247  -0.148327
              31         32
     1  C   -0.295464  -0.006269
     2  H    0.005042  -0.000254
     3  H    0.070032   0.001247
     4  H   -0.075794  -0.004096
     5  C    0.234859  -0.170467
     6  C   -0.132814   0.055098
     7  H   -0.095382  -0.048029
     8  H    0.033259   0.016704
     9  H   -0.000581  -0.002042
    10  C   -0.507409  -0.082551
    11  C   -0.262543  -0.013624
    12  C    0.135551  -0.034585
    13  C    0.014243   0.018006
    14  O   -0.000565  -0.000480
    15  H   -0.000179   0.000002
    16  C    0.117090  -0.004105
    17  C    0.137370   0.232696
    18  H    0.007027  -0.003793
    19  H   -0.006758   0.000062
    20  H    0.004204  -0.000129
    21  H    0.041018   0.017170
    22  C   -7.668766   0.690712
    23  C   -1.554852  -0.117596
    24  H   -0.127105  -0.018774
    25  C   -2.546447   0.087862
    26  H    0.117490   0.003987
    27  C    1.189618  -0.112844
    28  O   -0.091932  -0.000960
    29  C   -5.287610   0.903247
    30  H    0.752592  -0.148327
    31  C   23.573283  -1.998765
    32  H   -1.998765   2.567596
 Mulliken charges:
               1
     1  C    0.894944
     2  H   -0.012764
     3  H   -0.222268
     4  H   -0.035779
     5  C   -0.494304
     6  C    1.026645
     7  H   -0.037549
     8  H   -0.225373
     9  H   -0.065373
    10  C    0.992459
    11  C    0.380329
    12  C    0.296377
    13  C    0.667956
    14  O   -0.940739
    15  H    0.172072
    16  C   -0.005042
    17  C    0.662178
    18  H   -0.842595
    19  H   -0.606547
    20  H   -0.498214
    21  H   -0.746682
    22  C    1.013099
    23  C    0.652270
    24  H   -0.909413
    25  C    0.129612
    26  H   -0.547295
    27  C    0.420724
    28  O   -1.148407
    29  C    0.186259
    30  H   -0.550169
    31  C    0.220289
    32  H   -0.826698
 Sum of Mulliken charges =  -1.00000
 Mulliken charges with hydrogens summed into heavy atoms:
               1
     1  C    0.624133
     5  C   -0.494304
     6  C    0.698350
    10  C    0.992459
    11  C   -0.366353
    12  C   -0.201837
    13  C    0.667956
    14  O   -0.768667
    16  C   -0.611589
    17  C   -0.180417
    22  C    1.013099
    23  C   -0.257143
    25  C   -0.417684
    27  C    0.420724
    28  O   -1.148407
    29  C   -0.363910
    31  C   -0.606409
 Electronic spatial extent (au):  <R**2>=           4857.1788
 Charge=             -1.0000 electrons
 Dipole moment (field-independent basis, Debye):
    X=            -15.7067    Y=              6.0666    Z=             -0.2186  Tot=             16.8390
 Quadrupole moment (field-independent basis, Debye-Ang):
   XX=           -184.0212   YY=           -123.1777   ZZ=           -106.9937
   XY=             23.3482   XZ=             11.5387   YZ=             -1.0647
 Traceless Quadrupole moment (field-independent basis, Debye-Ang):
   XX=            -45.9570   YY=             14.8865   ZZ=             31.0705
   XY=             23.3482   XZ=             11.5387   YZ=             -1.0647
 Octapole moment (field-independent basis, Debye-Ang**2):
  XXX=           -430.1877  YYY=             16.8971  ZZZ=              1.1197  XYY=            -49.9673
  XXY=            141.5436  XXZ=            -21.8330  XZZ=            -13.5091  YZZ=             -5.9538
  YYZ=              1.9107  XYZ=             -6.5046
 Hexadecapole moment (field-independent basis, Debye-Ang**3):
 XXXX=          -6314.2638 YYYY=          -1403.3697 ZZZZ=           -651.8082 XXXY=            667.2665
 XXXZ=            313.1025 YYYX=            107.9508 YYYZ=            -10.2207 ZZZX=              9.5602
 ZZZY=             -2.0613 XXYY=          -1366.7616 XXZZ=           -921.4271 YYZZ=           -325.6545
 XXYZ=             13.3068 YYXZ=             21.2326 ZZXY=             17.1591
 N-N= 1.129143600682D+03 E-N=-3.972369697694D+03  KE= 7.258365217097D+02
 Leave Link  601 at Mon Jul 12 14:39:26 2021, MaxMem=   262144000 cpu:               0.4 elap:               0.3
 (Enter /dades/curu/g16A03_MST/g16/l9999.exe)
 1\1\GINC-PIRINEUS25\SP\RMP2-FC\Aug-CC-pVDZ\C15H15O2(1-)\UBATOR02\12-Ju
 l-2021\0\\#p mp2/aug-cc-pVDZ scf=tight maxdisk=180GB geom=allcheck\\SE
 T_328_BBB212_conf1.geo_060_225 geometry\\-1,1\C,0,-1.3862145817,1.1022
 525478,-1.6824273999\H,0,-1.9169646711,0.1622776517,-1.8548094341\H,0,
 -0.9082403158,1.3979262074,-2.6210456717\H,0,-2.1280414002,1.865440053
 1,-1.423536281\C,0,-0.3215789294,0.9629209052,-0.5696945985\C,0,0.3202
 917849,2.3539760813,-0.3815641902\H,0,1.1325955238,2.3302583116,0.3510
 146993\H,0,-0.4348128003,3.0539972871,-0.0163756117\H,0,0.7182417083,2
 .7551104663,-1.3199486929\C,0,0.7144417407,-0.0704033246,-1.0482501151
 \C,0,0.393163836,-1.4368670312,-1.0352224679\C,0,1.2693571896,-2.40514
 18064,-1.5088044408\C,0,2.5209313397,-2.0268428986,-2.0089862276\O,0,3
 .3510753772,-3.0194284801,-2.4580002727\H,0,4.1804043511,-2.622702005,
 -2.7691711117\C,0,2.8700295693,-0.6768579416,-2.0245389164\C,0,1.97002
 2468,0.2821879808,-1.5509969576\H,0,2.2674604445,1.324040182,-1.575986
 2156\H,0,3.8416673843,-0.3698846271,-2.4026128639\H,0,1.0058515958,-3.
 4573210725,-1.4895393636\H,0,-0.5649393684,-1.7411258404,-0.6248793665
 \C,0,-0.9418645642,0.519575342,0.762404699\C,0,-2.3210407673,0.3562358
 18,0.9609170003\H,0,-3.0010164878,0.5142164378,0.1279483127\C,0,-2.859
 8752115,-0.0023530176,2.1934066739\H,0,-3.9358669864,-0.1177318182,2.2
 996822193\C,0,-2.0510283131,-0.2311149433,3.3569641083\O,0,-2.53510696
 7,-0.5559947145,4.5014813053\C,0,-0.6404117869,-0.0642137339,3.1228240
 713\H,0,0.0292935447,-0.2314218028,3.9643812303\C,0,-0.123950519,0.293
 2024562,1.8862486564\H,0,0.9551258122,0.3957873295,1.7791172234\\Versi
 on=ES64L-G16RevA.03\State=1-A\HF=-726.5708435\MP2=-729.0720343\RMSD=5.
 436e-09\PG=C01 [X(C15H15O2)]\\@


 KNOWLEDGE IS CHIMERA - FOR BEYOND IT LIES OTHER KNOWLEDGE,
 AND THE INCOMPLETENESS OF WHAT IS KNOWN RENDERS THE KNOWING FALSE.
     -- THE THOMAS COVENANT CHRONICLES
 Job cpu time:       0 days  2 hours 39 minutes 23.0 seconds.
 Elapsed time:       0 days  0 hours 48 minutes 31.2 seconds.
 File lengths (MBytes):  RWF=  69108 Int=      0 D2E=      0 Chk=     23 Scr=      1
 Normal termination of Gaussian 16 at Mon Jul 12 14:39:28 2021.
