 Entering Gaussian System, Link 0=g16
 Input=SET_328_BBB285_conf1.geo_300_300_OCTANOL.dat
 Output=SET_328_BBB285_conf1.geo_300_300_OCTANOL.log
 Initial command:
 /dades/curu/g16A03_MST/g16/l1.exe "/tmp/ubator02/1835288/Gau-121771.inp" -scrdir="/tmp/ubator02/1835288/"
 Entering Link 1 = /dades/curu/g16A03_MST/g16/l1.exe PID=    121773.
  
 Copyright (c) 1988,1990,1992,1993,1995,1998,2003,2009,2016,
            Gaussian, Inc.  All Rights Reserved.
  
 This is part of the Gaussian(R) 16 program.  It is based on
 the Gaussian(R) 09 system (copyright 2009, Gaussian, Inc.),
 the Gaussian(R) 03 system (copyright 2003, Gaussian, Inc.),
 the Gaussian(R) 98 system (copyright 1998, Gaussian, Inc.),
 the Gaussian(R) 94 system (copyright 1995, Gaussian, Inc.),
 the Gaussian 92(TM) system (copyright 1992, Gaussian, Inc.),
 the Gaussian 90(TM) system (copyright 1990, Gaussian, Inc.),
 the Gaussian 88(TM) system (copyright 1988, Gaussian, Inc.),
 the Gaussian 86(TM) system (copyright 1986, Carnegie Mellon
 University), and the Gaussian 82(TM) system (copyright 1983,
 Carnegie Mellon University). Gaussian is a federally registered
 trademark of Gaussian, Inc.
  
 This software contains proprietary and confidential information,
 including trade secrets, belonging to Gaussian, Inc.
  
 This software is provided under written license and may be
 used, copied, transmitted, or stored only in accord with that
 written license.
  
 The following legend is applicable only to US Government
 contracts under FAR:
  
                    RESTRICTED RIGHTS LEGEND
  
 Use, reproduction and disclosure by the US Government is
 subject to restrictions as set forth in subparagraphs (a)
 and (c) of the Commercial Computer Software - Restricted
 Rights clause in FAR 52.227-19.
  
 Gaussian, Inc.
 340 Quinnipiac St., Bldg. 40, Wallingford CT 06492
  
  
 ---------------------------------------------------------------
 Warning -- This program may not be used in any manner that
 competes with the business of Gaussian, Inc. or will provide
 assistance to any competitor of Gaussian, Inc.  The licensee
 of this program is prohibited from giving any competitor of
 Gaussian, Inc. access to this program.  By using this program,
 the user acknowledges that Gaussian, Inc. is engaged in the
 business of creating and licensing software in the field of
 computational chemistry and represents and warrants to the
 licensee that it is not a competitor of Gaussian, Inc. and that
 it will not use this program in any manner prohibited above.
 ---------------------------------------------------------------
  

 Cite this work as:
 Gaussian 16, Revision A.03,
 M. J. Frisch, G. W. Trucks, H. B. Schlegel, G. E. Scuseria, 
 M. A. Robb, J. R. Cheeseman, G. Scalmani, V. Barone, 
 G. A. Petersson, H. Nakatsuji, X. Li, M. Caricato, A. V. Marenich, 
 J. Bloino, B. G. Janesko, R. Gomperts, B. Mennucci, H. P. Hratchian, 
 J. V. Ortiz, A. F. Izmaylov, J. L. Sonnenberg, D. Williams-Young, 
 F. Ding, F. Lipparini, F. Egidi, J. Goings, B. Peng, A. Petrone, 
 T. Henderson, D. Ranasinghe, V. G. Zakrzewski, J. Gao, N. Rega, 
 G. Zheng, W. Liang, M. Hada, M. Ehara, K. Toyota, R. Fukuda, 
 J. Hasegawa, M. Ishida, T. Nakajima, Y. Honda, O. Kitao, H. Nakai, 
 T. Vreven, K. Throssell, J. A. Montgomery, Jr., J. E. Peralta, 
 F. Ogliaro, M. J. Bearpark, J. J. Heyd, E. N. Brothers, K. N. Kudin, 
 V. N. Staroverov, T. A. Keith, R. Kobayashi, J. Normand, 
 K. Raghavachari, A. P. Rendell, J. C. Burant, S. S. Iyengar, 
 J. Tomasi, M. Cossi, J. M. Millam, M. Klene, C. Adamo, R. Cammi, 
 J. W. Ochterski, R. L. Martin, K. Morokuma, O. Farkas, 
 J. B. Foresman, and D. J. Fox, Gaussian, Inc., Wallingford CT, 2016.
 
 ******************************************
 Gaussian 16:  ES64L-G16RevA.03 25-Dec-2016
                12-Jul-2021 
 ******************************************
 %mem=800MB
 %nproc=4
 Will use up to    4 processors via shared memory.
 %chk=SET_328_BBB285_conf1.geo_300_300.chk
 ---------------------------------------------------------------
 #p b3lyp/6-31G(d) opt freq scrf=(iefpcm,read,solvent=n-octanol)
 ---------------------------------------------------------------
 1/18=20,19=15,26=3,38=1,40=2/1,3;
 2/9=110,12=2,17=6,18=5,40=1/2;
 3/5=1,6=6,7=1,11=2,25=1,30=1,70=2203,71=1,72=25,74=-5/1,2,3;
 4//1;
 5/5=2,38=5,53=25/2;
 6/7=2,8=2,9=2,10=2,28=1/1;
 7//1,2,3,16;
 1/18=20,19=15,26=3/3(2);
 2/9=110/2;
 99//99;
 2/9=110/2;
 3/5=1,6=6,7=1,11=2,25=1,30=1,70=2205,71=1,72=25,74=-5/1,2,3;
 4/5=5,16=3,69=1/1;
 5/5=2,38=5,53=25/2;
 7//1,2,3,16;
 1/18=20,19=15,26=3/3(-5);
 2/9=110/2;
 6/7=2,8=2,9=2,10=2,19=2,28=1/1;
 99/9=1/99;
 Leave Link    1 at Mon Jul 12 12:33:18 2021, MaxMem=   104857600 cpu:               0.0 elap:               0.0
 (Enter /dades/curu/g16A03_MST/g16/l101.exe)
 -----------------------------------------
 SET_328_BBB285_conf1.geo_300_300 geometry
 -----------------------------------------
 Symbolic Z-matrix:
 Charge = -1 Multiplicity = 1
 N                     3.075    -2.996    -1.19 
 H                     3.047    -2.288    -0.472 
 C                     2.093    -3.129    -2.063 
 O                     2.127    -3.955    -2.942 
 C                     0.989    -2.182    -1.882 
 C                    -0.165    -2.2      -2.668 
 N                    -1.078    -1.408    -2.098 
 H                    -0.425    -2.822    -3.515 
 N                     0.846    -1.229    -0.952 
 N                    -0.35     -0.727    -1.208 
 C                    -1.034     0.284    -0.475 
 H                    -1.985     0.505    -0.982 
 O                    -1.211    -0.198     0.926 
 C                    -0.523     0.6       1.856 
 C                    -1.569     1.39      2.735 
 O                    -2.374     2.241     1.945 
 H                    -3.012     1.621     1.549 
 H                    -1.027     1.832     3.575 
 H                    -2.131     0.659     3.323 
 H                     0.006    -0.089     2.52 
 C                     0.394     1.568     1.098 
 O                     0.692     2.816     1.669 
 H                     1.099     3.354     0.966 
 H                     1.365     1.103     0.913 
 C                    -0.253     1.631    -0.331 
 H                     0.549     1.826    -1.047 
 O                    -1.18      2.706    -0.397 
 H                    -1.783     2.767     0.366 
 
 ITRead=  0  0  0  0  0  0  0  0  0  0  0  0  0  0  0  0  0  0  0  0
 ITRead=  0  0  0  0  0  0  0  0
 MicOpt= -1 -1 -1 -1 -1 -1 -1 -1 -1 -1 -1 -1 -1 -1 -1 -1 -1 -1 -1 -1
 MicOpt= -1 -1 -1 -1 -1 -1 -1 -1
 NAtoms=     28 NQM=       28 NQMF=       0 NMMI=      0 NMMIF=      0
                NMic=       0 NMicF=      0.
                    Isotopes and Nuclear Properties:
 (Nuclear quadrupole moments (NQMom) in fm**2, nuclear magnetic moments (NMagM)
  in nuclear magnetons)

  Atom         1           2           3           4           5           6           7           8           9          10
 IAtWgt=          14           1          12          16          12          12          14           1          14          14
 AtmWgt=  14.0030740   1.0078250  12.0000000  15.9949146  12.0000000  12.0000000  14.0030740   1.0078250  14.0030740  14.0030740
 NucSpn=           2           1           0           0           0           0           2           1           2           2
 AtZEff=  -0.0000000  -0.0000000  -0.0000000  -0.0000000  -0.0000000  -0.0000000  -0.0000000  -0.0000000  -0.0000000  -0.0000000
 NQMom=    2.0440000   0.0000000   0.0000000   0.0000000   0.0000000   0.0000000   2.0440000   0.0000000   2.0440000   2.0440000
 NMagM=    0.4037610   2.7928460   0.0000000   0.0000000   0.0000000   0.0000000   0.4037610   2.7928460   0.4037610   0.4037610
 AtZNuc=   7.0000000   1.0000000   6.0000000   8.0000000   6.0000000   6.0000000   7.0000000   1.0000000   7.0000000   7.0000000

  Atom        11          12          13          14          15          16          17          18          19          20
 IAtWgt=          12           1          16          12          12          16           1           1           1           1
 AtmWgt=  12.0000000   1.0078250  15.9949146  12.0000000  12.0000000  15.9949146   1.0078250   1.0078250   1.0078250   1.0078250
 NucSpn=           0           1           0           0           0           0           1           1           1           1
 AtZEff=  -0.0000000  -0.0000000  -0.0000000  -0.0000000  -0.0000000  -0.0000000  -0.0000000  -0.0000000  -0.0000000  -0.0000000
 NQMom=    0.0000000   0.0000000   0.0000000   0.0000000   0.0000000   0.0000000   0.0000000   0.0000000   0.0000000   0.0000000
 NMagM=    0.0000000   2.7928460   0.0000000   0.0000000   0.0000000   0.0000000   2.7928460   2.7928460   2.7928460   2.7928460
 AtZNuc=   6.0000000   1.0000000   8.0000000   6.0000000   6.0000000   8.0000000   1.0000000   1.0000000   1.0000000   1.0000000

  Atom        21          22          23          24          25          26          27          28
 IAtWgt=          12          16           1           1          12           1          16           1
 AtmWgt=  12.0000000  15.9949146   1.0078250   1.0078250  12.0000000   1.0078250  15.9949146   1.0078250
 NucSpn=           0           0           1           1           0           1           0           1
 AtZEff=  -0.0000000  -0.0000000  -0.0000000  -0.0000000  -0.0000000  -0.0000000  -0.0000000  -0.0000000
 NQMom=    0.0000000   0.0000000   0.0000000   0.0000000   0.0000000   0.0000000   0.0000000   0.0000000
 NMagM=    0.0000000   0.0000000   2.7928460   2.7928460   0.0000000   2.7928460   0.0000000   2.7928460
 AtZNuc=   6.0000000   8.0000000   1.0000000   1.0000000   6.0000000   1.0000000   8.0000000   1.0000000
 Leave Link  101 at Mon Jul 12 12:33:18 2021, MaxMem=   104857600 cpu:               0.1 elap:               0.1
 (Enter /dades/curu/g16A03_MST/g16/l103.exe)

 GradGradGradGradGradGradGradGradGradGradGradGradGradGradGradGradGradGrad
 Berny optimization.
 Initialization pass.
                           ----------------------------
                           !    Initial Parameters    !
                           ! (Angstroms and Degrees)  !
 --------------------------                            --------------------------
 ! Name  Definition              Value          Derivative Info.                !
 --------------------------------------------------------------------------------
 ! R1    R(1,2)                  1.0087         estimate D2E/DX2                !
 ! R2    R(1,3)                  1.3207         estimate D2E/DX2                !
 ! R3    R(3,4)                  1.2067         estimate D2E/DX2                !
 ! R4    R(3,5)                  1.4657         estimate D2E/DX2                !
 ! R5    R(5,6)                  1.3964         estimate D2E/DX2                !
 ! R6    R(5,9)                  1.3392         estimate D2E/DX2                !
 ! R7    R(6,7)                  1.3363         estimate D2E/DX2                !
 ! R8    R(6,8)                  1.0825         estimate D2E/DX2                !
 ! R9    R(7,10)                 1.3364         estimate D2E/DX2                !
 ! R10   R(9,10)                 1.3221         estimate D2E/DX2                !
 ! R11   R(10,11)                1.4238         estimate D2E/DX2                !
 ! R12   R(11,12)                1.1001         estimate D2E/DX2                !
 ! R13   R(11,13)                1.4921         estimate D2E/DX2                !
 ! R14   R(11,25)                1.5637         estimate D2E/DX2                !
 ! R15   R(13,14)                1.4054         estimate D2E/DX2                !
 ! R16   R(14,15)                1.5782         estimate D2E/DX2                !
 ! R17   R(14,20)                1.0934         estimate D2E/DX2                !
 ! R18   R(14,21)                1.5338         estimate D2E/DX2                !
 ! R19   R(15,16)                1.4129         estimate D2E/DX2                !
 ! R20   R(15,18)                1.093          estimate D2E/DX2                !
 ! R21   R(15,19)                1.0936         estimate D2E/DX2                !
 ! R22   R(16,17)                0.9738         estimate D2E/DX2                !
 ! R23   R(21,22)                1.4044         estimate D2E/DX2                !
 ! R24   R(21,24)                1.0924         estimate D2E/DX2                !
 ! R25   R(21,25)                1.5699         estimate D2E/DX2                !
 ! R26   R(22,23)                0.9743         estimate D2E/DX2                !
 ! R27   R(25,26)                1.0927         estimate D2E/DX2                !
 ! R28   R(25,27)                1.421          estimate D2E/DX2                !
 ! R29   R(27,28)                0.9744         estimate D2E/DX2                !
 ! A1    A(2,1,3)              121.3691         estimate D2E/DX2                !
 ! A2    A(1,3,4)              121.9725         estimate D2E/DX2                !
 ! A3    A(1,3,5)              114.4163         estimate D2E/DX2                !
 ! A4    A(4,3,5)              123.6034         estimate D2E/DX2                !
 ! A5    A(3,5,6)              122.9996         estimate D2E/DX2                !
 ! A6    A(3,5,9)              128.7509         estimate D2E/DX2                !
 ! A7    A(6,5,9)              108.1686         estimate D2E/DX2                !
 ! A8    A(5,6,7)              108.4754         estimate D2E/DX2                !
 ! A9    A(5,6,8)              130.2641         estimate D2E/DX2                !
 ! A10   A(7,6,8)              120.6759         estimate D2E/DX2                !
 ! A11   A(6,7,10)             102.3513         estimate D2E/DX2                !
 ! A12   A(5,9,10)             103.4339         estimate D2E/DX2                !
 ! A13   A(7,10,9)             115.3578         estimate D2E/DX2                !
 ! A14   A(7,10,11)            116.2954         estimate D2E/DX2                !
 ! A15   A(9,10,11)            127.193          estimate D2E/DX2                !
 ! A16   A(10,11,12)           108.703          estimate D2E/DX2                !
 ! A17   A(10,11,13)           108.1187         estimate D2E/DX2                !
 ! A18   A(10,11,25)           114.78           estimate D2E/DX2                !
 ! A19   A(12,11,13)           113.2695         estimate D2E/DX2                !
 ! A20   A(12,11,25)           107.5266         estimate D2E/DX2                !
 ! A21   A(13,11,25)           104.5395         estimate D2E/DX2                !
 ! A22   A(11,13,14)           112.3237         estimate D2E/DX2                !
 ! A23   A(13,14,15)           109.1675         estimate D2E/DX2                !
 ! A24   A(13,14,20)           106.3149         estimate D2E/DX2                !
 ! A25   A(13,14,21)           108.9059         estimate D2E/DX2                !
 ! A26   A(15,14,20)           107.3291         estimate D2E/DX2                !
 ! A27   A(15,14,21)           110.829          estimate D2E/DX2                !
 ! A28   A(20,14,21)           114.1152         estimate D2E/DX2                !
 ! A29   A(14,15,16)           111.5729         estimate D2E/DX2                !
 ! A30   A(14,15,18)           107.565          estimate D2E/DX2                !
 ! A31   A(14,15,19)           107.7859         estimate D2E/DX2                !
 ! A32   A(16,15,18)           117.9467         estimate D2E/DX2                !
 ! A33   A(16,15,19)           114.2324         estimate D2E/DX2                !
 ! A34   A(18,15,19)            96.4262         estimate D2E/DX2                !
 ! A35   A(15,16,17)           102.5433         estimate D2E/DX2                !
 ! A36   A(14,21,22)           119.1281         estimate D2E/DX2                !
 ! A37   A(14,21,24)           110.2722         estimate D2E/DX2                !
 ! A38   A(14,21,25)           103.225          estimate D2E/DX2                !
 ! A39   A(22,21,24)           104.9819         estimate D2E/DX2                !
 ! A40   A(22,21,25)           114.9529         estimate D2E/DX2                !
 ! A41   A(24,21,25)           103.2535         estimate D2E/DX2                !
 ! A42   A(21,22,23)           106.6165         estimate D2E/DX2                !
 ! A43   A(11,25,21)           104.7793         estimate D2E/DX2                !
 ! A44   A(11,25,26)           117.3866         estimate D2E/DX2                !
 ! A45   A(11,25,27)           108.7578         estimate D2E/DX2                !
 ! A46   A(21,25,26)           107.5258         estimate D2E/DX2                !
 ! A47   A(21,25,27)           109.9673         estimate D2E/DX2                !
 ! A48   A(26,25,27)           108.2628         estimate D2E/DX2                !
 ! A49   A(25,27,28)           114.4992         estimate D2E/DX2                !
 ! D1    D(2,1,3,4)            178.5439         estimate D2E/DX2                !
 ! D2    D(2,1,3,5)             -0.4755         estimate D2E/DX2                !
 ! D3    D(1,3,5,6)           -177.2104         estimate D2E/DX2                !
 ! D4    D(1,3,5,9)             -0.8811         estimate D2E/DX2                !
 ! D5    D(4,3,5,6)              3.7884         estimate D2E/DX2                !
 ! D6    D(4,3,5,9)           -179.8823         estimate D2E/DX2                !
 ! D7    D(3,5,6,7)            167.8426         estimate D2E/DX2                !
 ! D8    D(3,5,6,8)             -3.2395         estimate D2E/DX2                !
 ! D9    D(9,5,6,7)             -9.1452         estimate D2E/DX2                !
 ! D10   D(9,5,6,8)            179.7728         estimate D2E/DX2                !
 ! D11   D(3,5,9,10)          -176.7987         estimate D2E/DX2                !
 ! D12   D(6,5,9,10)            -0.0383         estimate D2E/DX2                !
 ! D13   D(5,6,7,10)            13.882          estimate D2E/DX2                !
 ! D14   D(8,6,7,10)          -174.0233         estimate D2E/DX2                !
 ! D15   D(6,7,10,9)           -15.1365         estimate D2E/DX2                !
 ! D16   D(6,7,10,11)          176.2399         estimate D2E/DX2                !
 ! D17   D(5,9,10,7)             9.6706         estimate D2E/DX2                !
 ! D18   D(5,9,10,11)          176.8444         estimate D2E/DX2                !
 ! D19   D(7,10,11,12)         -15.6931         estimate D2E/DX2                !
 ! D20   D(7,10,11,13)         107.6476         estimate D2E/DX2                !
 ! D21   D(7,10,11,25)        -136.1217         estimate D2E/DX2                !
 ! D22   D(9,10,11,12)         177.2369         estimate D2E/DX2                !
 ! D23   D(9,10,11,13)         -59.4224         estimate D2E/DX2                !
 ! D24   D(9,10,11,25)          56.8083         estimate D2E/DX2                !
 ! D25   D(10,11,13,14)        116.3743         estimate D2E/DX2                !
 ! D26   D(12,11,13,14)       -123.0963         estimate D2E/DX2                !
 ! D27   D(25,11,13,14)         -6.3404         estimate D2E/DX2                !
 ! D28   D(10,11,25,21)        -98.8595         estimate D2E/DX2                !
 ! D29   D(10,11,25,26)         20.3119         estimate D2E/DX2                !
 ! D30   D(10,11,25,27)        143.5871         estimate D2E/DX2                !
 ! D31   D(12,11,25,21)        140.065          estimate D2E/DX2                !
 ! D32   D(12,11,25,26)       -100.7636         estimate D2E/DX2                !
 ! D33   D(12,11,25,27)         22.5117         estimate D2E/DX2                !
 ! D34   D(13,11,25,21)         19.4077         estimate D2E/DX2                !
 ! D35   D(13,11,25,26)        138.5792         estimate D2E/DX2                !
 ! D36   D(13,11,25,27)        -98.1456         estimate D2E/DX2                !
 ! D37   D(11,13,14,15)        111.1415         estimate D2E/DX2                !
 ! D38   D(11,13,14,20)       -133.371          estimate D2E/DX2                !
 ! D39   D(11,13,14,21)         -9.9875         estimate D2E/DX2                !
 ! D40   D(13,14,15,16)        -60.8665         estimate D2E/DX2                !
 ! D41   D(13,14,15,18)        168.3082         estimate D2E/DX2                !
 ! D42   D(13,14,15,19)         65.315          estimate D2E/DX2                !
 ! D43   D(20,14,15,16)       -175.7013         estimate D2E/DX2                !
 ! D44   D(20,14,15,18)         53.4734         estimate D2E/DX2                !
 ! D45   D(20,14,15,19)        -49.5198         estimate D2E/DX2                !
 ! D46   D(21,14,15,16)         59.0846         estimate D2E/DX2                !
 ! D47   D(21,14,15,18)        -71.7407         estimate D2E/DX2                !
 ! D48   D(21,14,15,19)       -174.7339         estimate D2E/DX2                !
 ! D49   D(13,14,21,22)        150.5749         estimate D2E/DX2                !
 ! D50   D(13,14,21,24)        -88.0054         estimate D2E/DX2                !
 ! D51   D(13,14,21,25)         21.7412         estimate D2E/DX2                !
 ! D52   D(15,14,21,22)         30.4677         estimate D2E/DX2                !
 ! D53   D(15,14,21,24)        151.8874         estimate D2E/DX2                !
 ! D54   D(15,14,21,25)        -98.3661         estimate D2E/DX2                !
 ! D55   D(20,14,21,22)        -90.8285         estimate D2E/DX2                !
 ! D56   D(20,14,21,24)         30.5913         estimate D2E/DX2                !
 ! D57   D(20,14,21,25)        140.3378         estimate D2E/DX2                !
 ! D58   D(14,15,16,17)         77.8655         estimate D2E/DX2                !
 ! D59   D(18,15,16,17)       -156.8864         estimate D2E/DX2                !
 ! D60   D(19,15,16,17)        -44.6936         estimate D2E/DX2                !
 ! D61   D(14,21,22,23)       -167.0067         estimate D2E/DX2                !
 ! D62   D(24,21,22,23)         68.9567         estimate D2E/DX2                !
 ! D63   D(25,21,22,23)        -43.7667         estimate D2E/DX2                !
 ! D64   D(14,21,25,11)        -24.7039         estimate D2E/DX2                !
 ! D65   D(14,21,25,26)       -150.3095         estimate D2E/DX2                !
 ! D66   D(14,21,25,27)         92.0202         estimate D2E/DX2                !
 ! D67   D(22,21,25,11)       -156.0692         estimate D2E/DX2                !
 ! D68   D(22,21,25,26)         78.3252         estimate D2E/DX2                !
 ! D69   D(22,21,25,27)        -39.3451         estimate D2E/DX2                !
 ! D70   D(24,21,25,11)         90.1945         estimate D2E/DX2                !
 ! D71   D(24,21,25,26)        -35.4111         estimate D2E/DX2                !
 ! D72   D(24,21,25,27)       -153.0814         estimate D2E/DX2                !
 ! D73   D(11,25,27,28)         68.4569         estimate D2E/DX2                !
 ! D74   D(21,25,27,28)        -45.7493         estimate D2E/DX2                !
 ! D75   D(26,25,27,28)       -162.9613         estimate D2E/DX2                !
 --------------------------------------------------------------------------------
 Trust Radius=3.00D-01 FncErr=1.00D-07 GrdErr=1.00D-06 EigMax=2.50D+02 EigMin=1.00D-04
 Number of steps in this run=    163 maximum allowed number of steps=    168.
 GradGradGradGradGradGradGradGradGradGradGradGradGradGradGradGradGradGrad

 Leave Link  103 at Mon Jul 12 12:33:18 2021, MaxMem=   104857600 cpu:               0.0 elap:               0.0
 (Enter /dades/curu/g16A03_MST/g16/l202.exe)
                          Input orientation:                          
 ---------------------------------------------------------------------
 Center     Atomic      Atomic             Coordinates (Angstroms)
 Number     Number       Type             X           Y           Z
 ---------------------------------------------------------------------
      1          7           0        3.075000   -2.996000   -1.190000
      2          1           0        3.047000   -2.288000   -0.472000
      3          6           0        2.093000   -3.129000   -2.063000
      4          8           0        2.127000   -3.955000   -2.942000
      5          6           0        0.989000   -2.182000   -1.882000
      6          6           0       -0.165000   -2.200000   -2.668000
      7          7           0       -1.078000   -1.408000   -2.098000
      8          1           0       -0.425000   -2.822000   -3.515000
      9          7           0        0.846000   -1.229000   -0.952000
     10          7           0       -0.350000   -0.727000   -1.208000
     11          6           0       -1.034000    0.284000   -0.475000
     12          1           0       -1.985000    0.505000   -0.982000
     13          8           0       -1.211000   -0.198000    0.926000
     14          6           0       -0.523000    0.600000    1.856000
     15          6           0       -1.569000    1.390000    2.735000
     16          8           0       -2.374000    2.241000    1.945000
     17          1           0       -3.012000    1.621000    1.549000
     18          1           0       -1.027000    1.832000    3.575000
     19          1           0       -2.131000    0.659000    3.323000
     20          1           0        0.006000   -0.089000    2.520000
     21          6           0        0.394000    1.568000    1.098000
     22          8           0        0.692000    2.816000    1.669000
     23          1           0        1.099000    3.354000    0.966000
     24          1           0        1.365000    1.103000    0.913000
     25          6           0       -0.253000    1.631000   -0.331000
     26          1           0        0.549000    1.826000   -1.047000
     27          8           0       -1.180000    2.706000   -0.397000
     28          1           0       -1.783000    2.767000    0.366000
 ---------------------------------------------------------------------
                    Distance matrix (angstroms):
                    1          2          3          4          5
     1  N    0.000000
     2  H    1.008748   0.000000
     3  C    1.320660   2.036830   0.000000
     4  O    2.210857   3.118684   1.206678   0.000000
     5  C    2.343684   2.496938   1.465737   2.358426   0.000000
     6  C    3.649068   3.891928   2.515478   2.899718   1.396365
     7  N    4.538019   4.520387   3.608089   4.179901   2.217706
     8  H    4.205461   4.647557   2.922820   2.850390   2.252928
     9  N    2.854361   2.489233   2.529690   3.610005   1.339238
    10  N    4.108444   3.810253   3.531130   4.422925   2.089072
    11  C    5.305988   4.823873   4.893715   5.834992   3.486163
    12  H    6.156611   5.777713   5.568178   6.375088   4.107876
    13  O    5.538597   4.945004   5.333038   6.341823   4.081804
    14  C    5.929160   5.148303   6.008948   7.126804   4.898807
    15  C    7.497290   6.717141   7.540054   8.628892   6.373322
    16  O    8.182053   7.465988   8.053263   9.084723   6.746749
    17  H    8.116057   7.488405   7.853029   8.813069   6.499429
    18  H    7.927245   7.067537   8.132218   9.268677   7.067906
    19  H    7.799271   7.063888   7.823050   8.869599   6.700575
    20  H    5.624368   4.799515   5.882266   7.019832   4.972378
    21  C    5.766524   4.936805   5.911035   7.058925   4.826689
    22  O    6.901588   6.015041   7.157769   8.316669   6.138226
    23  H    6.991095   6.139602   7.224415   8.351690   6.226596
    24  H    4.914113   4.030661   5.224594   6.405079   4.329506
    25  C    5.763904   5.125275   5.582216   6.609472   4.299667
    26  H    5.445439   4.847229   5.288499   6.284988   4.117631
    27  O    7.158679   6.543179   6.894586   7.860165   5.549985
    28  H    7.696328   7.041603   7.462321   8.450813   6.101646
                    6          7          8          9         10
     6  C    0.000000
     7  N    1.336313   0.000000
     8  H    1.082540   2.105634   0.000000
     9  N    2.215766   2.246583   3.274456   0.000000
    10  N    2.082199   1.336355   3.117194   1.322103   0.000000
    11  C    3.425590   2.344980   4.388589   2.459898   1.423821
    12  H    3.670425   2.393256   4.463028   3.319972   2.059642
    13  O    4.244874   3.259811   5.217821   2.970033   2.361169
    14  C    5.332423   4.469251   6.369249   3.619981   3.343494
    15  C    6.637147   5.606048   7.623135   5.126925   4.638416
    16  O    6.773620   5.598273   7.697023   5.549947   4.779854
    17  H    6.363061   5.120137   7.216434   5.409405   4.494485
    18  H    7.481652   6.533233   8.502366   5.776814   5.466617
    19  H    6.923230   5.896485   7.860410   5.541002   5.061909
    20  H    5.603651   4.923489   6.638997   3.749665   3.798916
    21  C    5.356590   4.608446   6.420485   3.497144   3.337394
    22  O    6.686125   5.930039   7.740064   4.822383   4.681425
    23  H    6.756520   6.066636   7.781061   4.974598   4.845662
    24  H    5.106297   4.619469   6.181983   3.030810   3.284626
    25  C    4.488416   3.610877   5.476920   3.126186   2.517678
    26  H    4.398422   3.769680   5.351972   3.070873   2.711444
    27  O    5.500591   4.452954   6.391458   4.460597   3.623825
    28  H    6.041040   4.898872   6.938533   4.961530   4.091332
                   11         12         13         14         15
    11  C    0.000000
    12  H    1.100132   0.000000
    13  O    1.492131   2.175718   0.000000
    14  C    2.407185   3.193856   1.405364   0.000000
    15  C    3.437086   3.843484   2.433596   1.578245   0.000000
    16  O    3.388488   3.425251   2.887845   2.475278   1.412914
    17  H    3.129957   2.950618   2.634481   2.707732   1.882075
    18  H    4.335764   4.841998   3.342448   2.174121   1.093036
    19  H    3.971000   4.310227   2.706743   2.177437   1.093595
    20  H    3.192296   4.071968   2.008434   1.093370   2.171242
    21  C    2.482372   3.334068   2.392565   1.533779   2.562191
    22  O    3.739898   4.419825   3.641106   2.534137   2.877838
    23  H    4.006379   4.628451   4.237264   3.317755   3.755647
    24  H    2.890070   3.895013   2.885922   2.169517   3.465604
    25  C    1.563683   2.165987   2.417241   2.432865   3.345190
    26  H    2.282726   2.858395   3.329700   3.328614   4.356552
    27  O    2.427650   2.415502   3.191317   3.153235   3.419445
    28  H    2.726458   2.640938   3.071158   2.916091   2.748470
                   16         17         18         19         20
    16  O    0.000000
    17  H    0.973786   0.000000
    18  H    2.153739   2.844191   0.000000
    19  H    2.112027   2.201972   1.630414   0.000000
    20  H    3.379930   3.602120   2.422882   2.402308   0.000000
    21  C    2.971895   3.436138   2.867833   3.486048   2.217719
    22  O    3.131638   3.893847   2.748828   3.918889   3.103840
    23  H    3.776101   4.499278   3.693676   4.821968   3.932406
    24  H    4.042300   4.453195   3.652307   4.269339   2.418717
    25  C    3.170318   3.338650   3.987018   4.221775   3.339713
    26  H    4.203358   4.411571   4.883308   5.257489   4.084797
    27  O    2.669611   2.884504   4.069898   4.351208   4.210405
    28  H    1.766125   2.055054   3.426871   3.648098   3.999622
                   21         22         23         24         25
    21  C    0.000000
    22  O    1.404403   0.000000
    23  H    1.924642   0.974321   0.000000
    24  H    1.092379   1.989682   2.267282   0.000000
    25  C    1.569911   2.509432   2.545357   2.108138   0.000000
    26  H    2.166013   2.894340   2.586398   2.242807   1.092650
    27  O    2.451029   2.790133   2.733407   3.280661   1.421024
    28  H    2.590898   2.797469   3.001748   3.602500   2.029090
                   26         27         28
    26  H    0.000000
    27  O    2.046055   0.000000
    28  H    2.884489   0.974422   0.000000
 Stoichiometry    C8H11N4O5(1-)
 Framework group  C1[X(C8H11N4O5)]
 Deg. of freedom    78
 Full point group                 C1      NOp   1
 Largest Abelian subgroup         C1      NOp   1
 Largest concise Abelian subgroup C1      NOp   1
                         Standard orientation:                         
 ---------------------------------------------------------------------
 Center     Atomic      Atomic             Coordinates (Angstroms)
 Number     Number       Type             X           Y           Z
 ---------------------------------------------------------------------
      1          7           0       -3.820447    1.980886   -0.203093
      2          1           0       -2.891280    2.373394   -0.190521
      3          6           0       -4.018624    0.679735   -0.094134
      4          8           0       -5.126168    0.200912   -0.081958
      5          6           0       -2.791298   -0.111648    0.031446
      6          6           0       -2.789394   -1.506309    0.100383
      7          7           0       -1.534114   -1.936407   -0.057795
      8          1           0       -3.614420   -2.206799    0.123620
      9          7           0       -1.519601    0.308282    0.033284
     10          7           0       -0.825379   -0.814793    0.101958
     11          6           0        0.591284   -0.954165    0.071864
     12          1           0        0.843946   -2.017313    0.199025
     13          8           0        1.086839   -0.380113   -1.213182
     14          6           0        1.919235    0.734571   -1.014072
     15          6           0        3.397074    0.356647   -1.419069
     16          8           0        3.896705   -0.704032   -0.630617
     17          1           0        3.472194   -1.483499   -1.031220
     18          1           0        3.975776    1.283126   -1.457383
     19          1           0        3.408824    0.160415   -2.494849
     20          1           0        1.576399    1.502611   -1.712667
     21          6           0        1.847425    1.151411    0.460229
     22          8           0        2.962715    1.766661    1.051791
     23          1           0        2.806328    1.761499    2.013465
     24          1           0        1.023186    1.851167    0.615993
     25          6           0        1.352260   -0.153643    1.178745
     26          1           0        0.782484    0.151724    2.059649
     27          8           0        2.466596   -0.921009    1.613160
     28          1           0        3.172096   -1.021049    0.948509
 ---------------------------------------------------------------------
 Rotational constants (GHZ):           1.1052948           0.2428229           0.2295117
 Leave Link  202 at Mon Jul 12 12:33:18 2021, MaxMem=   104857600 cpu:               0.0 elap:               0.0
 (Enter /dades/curu/g16A03_MST/g16/l301.exe)
 Standard basis: 6-31G(d) (6D, 7F)
 Ernie: Thresh=  0.10000D-02 Tol=  0.10000D-05 Strict=F.
 There are   277 symmetry adapted cartesian basis functions of A   symmetry.
 There are   277 symmetry adapted basis functions of A   symmetry.
   277 basis functions,   520 primitive gaussians,   277 cartesian basis functions
    64 alpha electrons       64 beta electrons
       nuclear repulsion energy      1282.6134515386 Hartrees.
 IExCor=  402 DFT=T Ex+Corr=B3LYP ExCW=0 ScaHFX=  0.200000
 ScaDFX=  0.800000  0.720000  1.000000  0.810000 ScalE2=  1.000000  1.000000
 IRadAn=      5 IRanWt=     -1 IRanGd=            0 ICorTp=0 IEmpDi=  4
 NAtoms=   28 NActive=   28 NUniq=   28 SFac= 1.00D+00 NAtFMM=   60 NAOKFM=F Big=F
 Integral buffers will be    131072 words long.
 Raffenetti 2 integral format.
 Two-electron integral symmetry is turned on.
 Using the following non-standard input for PCM:
 MSTModel=DFT cav MSTCharged
 --- end of non-standard input.
 MST model for solvation energy: B3LYP parametrization.
 MST cavity parameters:
 ISph   IAn     Re0     Alpha   Atom Type   QCorr
 ------------------------------------------------
   1      7     1.50     1.15      NH         T
   2      1     0.90     1.15      NH         T
   3      6     1.50     1.50      C          F
   4      8     1.40     1.50      O          F
   5      6     1.50     1.50      C          F
   6      6     1.50     1.50      CH         F
   7      7     1.50     1.50      Nc         F
   8      1     1.20     1.50      CH         F
   9      7     1.50     1.50      Nc         F
  10      7     1.50     1.50      Nc         F
  11      6     1.50     1.50      CH         F
  12      1     1.20     1.50      CH         F
  13      8     1.40     1.50      O          F
  14      6     1.50     1.50      CH         F
  15      6     1.50     1.50      CH2        F
  16      8     1.40     1.50      OH         F
  17      1     0.90     1.50      OH         F
  18      1     1.20     1.50      CH2        F
  19      1     1.20     1.50      CH2        F
  20      1     1.20     1.50      CH         F
  21      6     1.50     1.50      CH         F
  22      8     1.40     1.50      OH         F
  23      1     0.90     1.50      OH         F
  24      1     1.20     1.50      CH         F
  25      6     1.50     1.50      CH         F
  26      1     1.20     1.50      CH         F
  27      8     1.40     1.50      OH         F
  28      1     0.90     1.50      OH         F
 ------------------------------------------------------------------------------
 Polarizable Continuum Model (PCM)
 =================================
 Model                : PCM.
 Atomic radii         : MST.
 Polarization charges : Total charges.
 Charge compensation  : None.
 Solution method      : On-the-fly selection.
 Cavity type          : Scaled VdW (van der Waals Surface) (Alpha=1.500).
 Cavity algorithm     : GePol (No added spheres)
                        Default sphere list used, NSphG=   28.
                        Lebedev-Laikov grids with approx.  5.0 points / Ang**2.
                        Smoothing algorithm: York/Karplus (Gamma=1.0000).
                        Polarization charges: spherical gaussians, with
                                              point-specific exponents (IZeta= 3).
                        Self-potential: point-specific (ISelfS= 7).
                        Self-field    : sphere-specific E.n sum rule (ISelfD= 2).
 1st derivatives      : Analytical E(r).r(x)/FMM algorithm (CHGder, D1EAlg=3).
                        Cavity 1st derivative terms included.
 Solvent              : n-Octanol, Eps=   9.862900 Eps(inf)=   2.043470
 ------------------------------------------------------------------------------
 GePol: Number of generator spheres                  =      28
 GePol: Total number of spheres                      =      28
 GePol: Number of exposed spheres                    =      28 (100.00%)
 GePol: Number of points                             =    2445
 GePol: Average weight of points                     =       0.12
 GePol: Minimum weight of points                     =   0.20D-09
 GePol: Maximum weight of points                     =    0.21373
 GePol: Number of points with low weight             =     126
 GePol: Fraction of low-weight points (<1% of avg)   =       5.15%
 GePol: Cavity surface area                          =    293.545 Ang**2
 GePol: Cavity volume                                =    335.618 Ang**3
 Surface areas from nonelectrostatic (unscaled) cavity and vdw tensions:
 Sphere =    1 Type =  NH  Surf =       17.076 Tension =       -0.234
 Sphere =    2 Type =  NH  Surf =        3.915 Tension =       -0.234
 Sphere =    3 Type =  C   Surf =        6.476 Tension =       -0.205
 Sphere =    4 Type =  O   Surf =       16.301 Tension =       -0.185
 Sphere =    5 Type =  C   Surf =        6.154 Tension =       -0.205
 Sphere =    6 Type =  CH  Surf =        7.886 Tension =       -0.195
 Sphere =    7 Type =  Nc  Surf =       12.925 Tension =       -0.161
 Sphere =    8 Type =  CH  Surf =       10.254 Tension =       -0.195
 Sphere =    9 Type =  Nc  Surf =       13.175 Tension =       -0.161
 Sphere =   10 Type =  Nc  Surf =        5.256 Tension =       -0.161
 Sphere =   11 Type =  CH  Surf =        3.220 Tension =       -0.195
 Sphere =   12 Type =  CH  Surf =        9.485 Tension =       -0.195
 Sphere =   13 Type =  O   Surf =       10.704 Tension =       -0.185
 Sphere =   14 Type =  CH  Surf =        3.213 Tension =       -0.195
 Sphere =   15 Type =  CH2 Surf =        4.411 Tension =       -0.194
 Sphere =   16 Type =  OH  Surf =       12.912 Tension =       -0.238
 Sphere =   17 Type =  OH  Surf =        4.409 Tension =       -0.238
 Sphere =   18 Type =  CH2 Surf =        9.983 Tension =       -0.194
 Sphere =   19 Type =  CH2 Surf =        9.953 Tension =       -0.194
 Sphere =   20 Type =  CH  Surf =        9.987 Tension =       -0.195
 Sphere =   21 Type =  CH  Surf =        3.290 Tension =       -0.195
 Sphere =   22 Type =  OH  Surf =       14.378 Tension =       -0.238
 Sphere =   23 Type =  OH  Surf =        4.449 Tension =       -0.238
 Sphere =   24 Type =  CH  Surf =        9.761 Tension =       -0.195
 Sphere =   25 Type =  CH  Surf =        3.445 Tension =       -0.195
 Sphere =   26 Type =  CH  Surf =        9.999 Tension =       -0.195
 Sphere =   27 Type =  OH  Surf =       13.967 Tension =       -0.238
 Sphere =   28 Type =  OH  Surf =        2.705 Tension =       -0.238
 PCM non-electrostatic energy =        -0.0152122420 Hartrees.
 Nuclear repulsion after PCM non-electrostatic terms =     1282.5982392966 Hartrees.
 Leave Link  301 at Mon Jul 12 12:33:18 2021, MaxMem=   104857600 cpu:               0.1 elap:               0.1
 (Enter /dades/curu/g16A03_MST/g16/l302.exe)
 NPDir=0 NMtPBC=     1 NCelOv=     1 NCel=       1 NClECP=     1 NCelD=      1
         NCelK=      1 NCelE2=     1 NClLst=     1 CellRange=     0.0.
 One-electron integrals computed using PRISM.
 One-electron integral symmetry used in STVInt
 NBasis=   277 RedAO= T EigKep=  1.04D-03  NBF=   277
 NBsUse=   277 1.00D-06 EigRej= -1.00D+00 NBFU=   277
 Precomputing XC quadrature grid using
 IXCGrd= 4 IRadAn=           5 IRanWt=          -1 IRanGd=           0 AccXCQ= 0.00D+00.
 Generated NRdTot=       0 NPtTot=           0 NUsed=           0 NTot=          32
 NSgBfM=   274   274   274   274   274 MxSgAt=    28 MxSgA2=    28.
 Leave Link  302 at Mon Jul 12 12:33:19 2021, MaxMem=   104857600 cpu:               2.8 elap:               0.8
 (Enter /dades/curu/g16A03_MST/g16/l303.exe)
 DipDrv:  MaxL=1.
 Leave Link  303 at Mon Jul 12 12:33:19 2021, MaxMem=   104857600 cpu:               0.1 elap:               0.0
 (Enter /dades/curu/g16A03_MST/g16/l401.exe)
 ExpMin= 1.61D-01 ExpMax= 5.48D+03 ExpMxC= 8.25D+02 IAcc=3 IRadAn=         5 AccDes= 0.00D+00
 Harris functional with IExCor=  402 and IRadAn=       5 diagonalized for initial guess.
 HarFok:  IExCor=  402 AccDes= 0.00D+00 IRadAn=         5 IDoV= 1 UseB2=F ITyADJ=14
 ICtDFT=  3500011 ScaDFX=  1.000000  1.000000  1.000000  1.000000
 FoFCou: FMM=F IPFlag=           0 FMFlag=      100000 FMFlg1=           0
         NFxFlg=           0 DoJE=T BraDBF=F KetDBF=T FulRan=T
         wScrn=  0.000000 ICntrl=       500 IOpCl=  0 I1Cent=   200000004 NGrid=           0
         NMat0=    1 NMatS0=      1 NMatT0=    0 NMatD0=    1 NMtDS0=    0 NMtDT0=    0
 Petite list used in FoFCou.
 Harris En= -906.650684163330    
 JPrj=0 DoOrth=F DoCkMO=F.
 Leave Link  401 at Mon Jul 12 12:33:25 2021, MaxMem=   104857600 cpu:              23.5 elap:               5.9
 (Enter /dades/curu/g16A03_MST/g16/l502.exe)
 Integral symmetry usage will be decided dynamically.
 Closed shell SCF:
 Using DIIS extrapolation, IDIIS=  1040.
 NGot=   104857600 LenX=   104699411 LenY=   104622241
 Requested convergence on RMS density matrix=1.00D-08 within 128 cycles.
 Requested convergence on MAX density matrix=1.00D-06.
 Requested convergence on             energy=1.00D-06.
 No special actions if energy rises.
 Fock matrices will be formed incrementally for  20 cycles.

 Cycle   1  Pass 1  IDiag  1:
 FoFJK:  IHMeth= 1 ICntrl=       0 DoSepK=F KAlg= 0 I1Cent=           0 FoldK=F
 IRaf= 820000000 NMat=       1 IRICut=       1 DoRegI=T DoRafI=F ISym2E= 0 IDoP0=0 IntGTp=1.
 FoFCou: FMM=F IPFlag=           0 FMFlag=      100000 FMFlg1=           0
         NFxFlg=           0 DoJE=F BraDBF=F KetDBF=F FulRan=T
         wScrn=  0.000000 ICntrl=         0 IOpCl=  0 I1Cent=           0 NGrid=           0
         NMat0=    1 NMatS0=      1 NMatT0=    0 NMatD0=    1 NMtDS0=    0 NMtDT0=    0
 Symmetry not used in FoFCou.
 Inv3:  Mode=1 IEnd=    17934075.
 Iteration    1 A*A^-1 deviation from unit magnitude is 5.11D-15 for   2418.
 Iteration    1 A*A^-1 deviation from orthogonality  is 3.37D-15 for   1941    870.
 Iteration    1 A^-1*A deviation from unit magnitude is 4.88D-15 for   2418.
 Iteration    1 A^-1*A deviation from orthogonality  is 2.19D-15 for   2444    335.
 E= -906.163711315394    
 DIIS: error= 2.86D-02 at cycle   1 NSaved=   1.
 NSaved= 1 IEnMin= 1 EnMin= -906.163711315394     IErMin= 1 ErrMin= 2.86D-02
 ErrMax= 2.86D-02  0.00D+00 EMaxC= 1.00D-01 BMatC= 5.29D-01 BMatP= 5.29D-01
 IDIUse=3 WtCom= 7.14D-01 WtEn= 2.86D-01
 Coeff-Com:  0.100D+01
 Coeff-En:   0.100D+01
 Coeff:      0.100D+01
 Gap=     0.230 Goal=   None    Shift=    0.000
 GapD=    0.230 DampG=1.000 DampE=0.500 DampFc=0.5000 IDamp=-1.
 Damping current iteration by 5.00D-01
 RMSDP=8.69D-03 MaxDP=3.17D-01              OVMax= 9.08D-01

 Cycle   2  Pass 1  IDiag  1:
 RMSU=  4.34D-03    CP:  9.88D-01
 E= -905.993310906598     Delta-E=        0.170400408796 Rises=F Damp=T
 DIIS: error= 1.56D-02 at cycle   2 NSaved=   2.
 NSaved= 2 IEnMin= 1 EnMin= -906.163711315394     IErMin= 2 ErrMin= 1.56D-02
 ErrMax= 1.56D-02  0.00D+00 EMaxC= 1.00D-01 BMatC= 1.79D-01 BMatP= 5.29D-01
 IDIUse=3 WtCom= 8.44D-01 WtEn= 1.56D-01
 Coeff-Com:  0.321D+00 0.679D+00
 Coeff-En:   0.625D+00 0.375D+00
 Coeff:      0.369D+00 0.631D+00
 Gap=    -0.242 Goal=   None    Shift=    0.000
 RMSDP=4.03D-03 MaxDP=1.92D-01 DE= 1.70D-01 OVMax= 8.70D-01

 Cycle   3  Pass 1  IDiag  1:
 RMSU=  2.94D-03    CP:  9.76D-01  3.68D-01
 E= -906.446816708827     Delta-E=       -0.453505802228 Rises=F Damp=F
 DIIS: error= 1.58D-02 at cycle   3 NSaved=   3.
 NSaved= 3 IEnMin= 3 EnMin= -906.446816708827     IErMin= 2 ErrMin= 1.56D-02
 ErrMax= 1.58D-02  0.00D+00 EMaxC= 1.00D-01 BMatC= 1.52D-01 BMatP= 1.79D-01
 IDIUse=3 WtCom= 8.42D-01 WtEn= 1.58D-01
 Coeff-Com:  0.128D+00 0.449D+00 0.423D+00
 Coeff-En:   0.000D+00 0.712D-01 0.929D+00
 Coeff:      0.108D+00 0.390D+00 0.503D+00
 Gap=     0.276 Goal=   None    Shift=    0.000
 RMSDP=1.98D-03 MaxDP=9.39D-02 DE=-4.54D-01 OVMax= 1.10D-01

 Cycle   4  Pass 1  IDiag  1:
 RMSU=  1.28D-03    CP:  9.86D-01  4.44D-01  5.01D-01
 E= -906.594215690180     Delta-E=       -0.147398981353 Rises=F Damp=F
 DIIS: error= 3.44D-03 at cycle   4 NSaved=   4.
 NSaved= 4 IEnMin= 4 EnMin= -906.594215690180     IErMin= 4 ErrMin= 3.44D-03
 ErrMax= 3.44D-03  0.00D+00 EMaxC= 1.00D-01 BMatC= 8.25D-03 BMatP= 1.52D-01
 IDIUse=3 WtCom= 9.66D-01 WtEn= 3.44D-02
 Coeff-Com: -0.141D-01 0.164D+00 0.152D+00 0.698D+00
 Coeff-En:   0.000D+00 0.000D+00 0.000D+00 0.100D+01
 Coeff:     -0.136D-01 0.158D+00 0.147D+00 0.709D+00
 Gap=     0.157 Goal=   None    Shift=    0.000
 RMSDP=4.37D-04 MaxDP=1.43D-02 DE=-1.47D-01 OVMax= 2.04D-02

 Cycle   5  Pass 1  IDiag  1:
 RMSU=  4.16D-04    CP:  9.86D-01  4.68D-01  5.20D-01  9.45D-01
 E= -906.597244678947     Delta-E=       -0.003028988768 Rises=F Damp=F
 DIIS: error= 2.54D-03 at cycle   5 NSaved=   5.
 NSaved= 5 IEnMin= 5 EnMin= -906.597244678947     IErMin= 5 ErrMin= 2.54D-03
 ErrMax= 2.54D-03  0.00D+00 EMaxC= 1.00D-01 BMatC= 4.33D-03 BMatP= 8.25D-03
 IDIUse=3 WtCom= 9.75D-01 WtEn= 2.54D-02
 Coeff-Com: -0.297D-01 0.621D-01-0.831D-03 0.430D+00 0.539D+00
 Coeff-En:   0.000D+00 0.000D+00 0.000D+00 0.310D+00 0.690D+00
 Coeff:     -0.289D-01 0.605D-01-0.810D-03 0.427D+00 0.542D+00
 Gap=     0.152 Goal=   None    Shift=    0.000
 RMSDP=2.64D-04 MaxDP=9.77D-03 DE=-3.03D-03 OVMax= 2.44D-02

 Cycle   6  Pass 1  IDiag  1:
 RMSU=  1.38D-04    CP:  9.86D-01  4.92D-01  5.02D-01  1.06D+00  6.97D-01
 E= -906.601030123183     Delta-E=       -0.003785444236 Rises=F Damp=F
 DIIS: error= 7.26D-04 at cycle   6 NSaved=   6.
 NSaved= 6 IEnMin= 6 EnMin= -906.601030123183     IErMin= 6 ErrMin= 7.26D-04
 ErrMax= 7.26D-04  0.00D+00 EMaxC= 1.00D-01 BMatC= 3.84D-04 BMatP= 4.33D-03
 IDIUse=3 WtCom= 9.93D-01 WtEn= 7.26D-03
 Coeff-Com: -0.162D-01 0.135D-01-0.356D-01 0.137D+00 0.301D+00 0.600D+00
 Coeff-En:   0.000D+00 0.000D+00 0.000D+00 0.000D+00 0.000D+00 0.100D+01
 Coeff:     -0.161D-01 0.134D-01-0.353D-01 0.136D+00 0.299D+00 0.602D+00
 Gap=     0.149 Goal=   None    Shift=    0.000
 RMSDP=1.08D-04 MaxDP=5.36D-03 DE=-3.79D-03 OVMax= 7.88D-03

 Cycle   7  Pass 1  IDiag  1:
 RMSU=  7.19D-05    CP:  9.86D-01  4.98D-01  4.91D-01  1.09D+00  8.02D-01
                    CP:  7.93D-01
 E= -906.601357233953     Delta-E=       -0.000327110769 Rises=F Damp=F
 DIIS: error= 3.04D-04 at cycle   7 NSaved=   7.
 NSaved= 7 IEnMin= 7 EnMin= -906.601357233953     IErMin= 7 ErrMin= 3.04D-04
 ErrMax= 3.04D-04  0.00D+00 EMaxC= 1.00D-01 BMatC= 6.12D-05 BMatP= 3.84D-04
 IDIUse=3 WtCom= 9.97D-01 WtEn= 3.04D-03
 Coeff-Com: -0.531D-02 0.346D-02-0.194D-01 0.199D-01 0.965D-01 0.353D+00
 Coeff-Com:  0.552D+00
 Coeff-En:   0.000D+00 0.000D+00 0.000D+00 0.000D+00 0.000D+00 0.000D+00
 Coeff-En:   0.100D+01
 Coeff:     -0.529D-02 0.345D-02-0.194D-01 0.199D-01 0.962D-01 0.352D+00
 Coeff:      0.553D+00
 Gap=     0.149 Goal=   None    Shift=    0.000
 RMSDP=3.50D-05 MaxDP=1.54D-03 DE=-3.27D-04 OVMax= 2.53D-03

 Cycle   8  Pass 1  IDiag  1:
 RMSU=  2.05D-05    CP:  9.87D-01  5.00D-01  4.88D-01  1.10D+00  8.05D-01
                    CP:  8.71D-01  6.92D-01
 E= -906.601408967323     Delta-E=       -0.000051733371 Rises=F Damp=F
 DIIS: error= 1.13D-04 at cycle   8 NSaved=   8.
 NSaved= 8 IEnMin= 8 EnMin= -906.601408967323     IErMin= 8 ErrMin= 1.13D-04
 ErrMax= 1.13D-04  0.00D+00 EMaxC= 1.00D-01 BMatC= 4.65D-06 BMatP= 6.12D-05
 IDIUse=3 WtCom= 9.99D-01 WtEn= 1.13D-03
 Coeff-Com: -0.547D-03 0.471D-03-0.481D-02-0.655D-02 0.978D-02 0.831D-01
 Coeff-Com:  0.268D+00 0.650D+00
 Coeff-En:   0.000D+00 0.000D+00 0.000D+00 0.000D+00 0.000D+00 0.000D+00
 Coeff-En:   0.000D+00 0.100D+01
 Coeff:     -0.546D-03 0.471D-03-0.480D-02-0.654D-02 0.977D-02 0.830D-01
 Coeff:      0.268D+00 0.651D+00
 Gap=     0.149 Goal=   None    Shift=    0.000
 RMSDP=1.03D-05 MaxDP=4.98D-04 DE=-5.17D-05 OVMax= 1.15D-03

 Cycle   9  Pass 1  IDiag  1:
 RMSU=  7.38D-06    CP:  9.87D-01  5.00D-01  4.87D-01  1.10D+00  8.10D-01
                    CP:  8.74D-01  7.32D-01  7.06D-01
 E= -906.601412313737     Delta-E=       -0.000003346414 Rises=F Damp=F
 DIIS: error= 4.70D-05 at cycle   9 NSaved=   9.
 NSaved= 9 IEnMin= 9 EnMin= -906.601412313737     IErMin= 9 ErrMin= 4.70D-05
 ErrMax= 4.70D-05  0.00D+00 EMaxC= 1.00D-01 BMatC= 9.73D-07 BMatP= 4.65D-06
 IDIUse=1 WtCom= 1.00D+00 WtEn= 0.00D+00
 Coeff-Com:  0.142D-03-0.136D-03-0.130D-02-0.576D-02-0.235D-02 0.178D-01
 Coeff-Com:  0.116D+00 0.400D+00 0.476D+00
 Coeff:      0.142D-03-0.136D-03-0.130D-02-0.576D-02-0.235D-02 0.178D-01
 Coeff:      0.116D+00 0.400D+00 0.476D+00
 Gap=     0.149 Goal=   None    Shift=    0.000
 RMSDP=4.57D-06 MaxDP=2.14D-04 DE=-3.35D-06 OVMax= 2.86D-04

 Cycle  10  Pass 1  IDiag  1:
 RMSU=  2.65D-06    CP:  9.87D-01  5.00D-01  4.87D-01  1.10D+00  8.11D-01
                    CP:  8.80D-01  7.51D-01  7.86D-01  6.18D-01
 E= -906.601413084180     Delta-E=       -0.000000770443 Rises=F Damp=F
 DIIS: error= 1.58D-05 at cycle  10 NSaved=  10.
 NSaved=10 IEnMin=10 EnMin= -906.601413084180     IErMin=10 ErrMin= 1.58D-05
 ErrMax= 1.58D-05  0.00D+00 EMaxC= 1.00D-01 BMatC= 8.15D-08 BMatP= 9.73D-07
 IDIUse=1 WtCom= 1.00D+00 WtEn= 0.00D+00
 Coeff-Com:  0.136D-03-0.120D-03-0.166D-03-0.215D-02-0.177D-02 0.856D-03
 Coeff-Com:  0.354D-01 0.152D+00 0.263D+00 0.553D+00
 Coeff:      0.136D-03-0.120D-03-0.166D-03-0.215D-02-0.177D-02 0.856D-03
 Coeff:      0.354D-01 0.152D+00 0.263D+00 0.553D+00
 Gap=     0.149 Goal=   None    Shift=    0.000
 RMSDP=1.29D-06 MaxDP=5.55D-05 DE=-7.70D-07 OVMax= 9.32D-05

 Cycle  11  Pass 1  IDiag  1:
 RMSU=  8.83D-07    CP:  9.87D-01  5.00D-01  4.87D-01  1.10D+00  8.11D-01
                    CP:  8.79D-01  7.52D-01  7.88D-01  6.85D-01  7.21D-01
 E= -906.601413141158     Delta-E=       -0.000000056978 Rises=F Damp=F
 DIIS: error= 5.01D-06 at cycle  11 NSaved=  11.
 NSaved=11 IEnMin=11 EnMin= -906.601413141158     IErMin=11 ErrMin= 5.01D-06
 ErrMax= 5.01D-06  0.00D+00 EMaxC= 1.00D-01 BMatC= 1.34D-08 BMatP= 8.15D-08
 IDIUse=1 WtCom= 1.00D+00 WtEn= 0.00D+00
 Coeff-Com:  0.655D-04-0.756D-04 0.157D-03-0.174D-03-0.451D-03-0.271D-02
 Coeff-Com: -0.150D-03 0.159D-01 0.606D-01 0.314D+00 0.613D+00
 Coeff:      0.655D-04-0.756D-04 0.157D-03-0.174D-03-0.451D-03-0.271D-02
 Coeff:     -0.150D-03 0.159D-01 0.606D-01 0.314D+00 0.613D+00
 Gap=     0.149 Goal=   None    Shift=    0.000
 RMSDP=4.30D-07 MaxDP=1.65D-05 DE=-5.70D-08 OVMax= 1.92D-05

 Cycle  12  Pass 1  IDiag  1:
 RMSU=  2.61D-07    CP:  9.87D-01  5.00D-01  4.87D-01  1.10D+00  8.11D-01
                    CP:  8.79D-01  7.52D-01  7.94D-01  6.91D-01  8.05D-01
                    CP:  7.89D-01
 E= -906.601413151946     Delta-E=       -0.000000010788 Rises=F Damp=F
 DIIS: error= 1.17D-06 at cycle  12 NSaved=  12.
 NSaved=12 IEnMin=12 EnMin= -906.601413151946     IErMin=12 ErrMin= 1.17D-06
 ErrMax= 1.17D-06  0.00D+00 EMaxC= 1.00D-01 BMatC= 1.38D-09 BMatP= 1.34D-08
 IDIUse=1 WtCom= 1.00D+00 WtEn= 0.00D+00
 Coeff-Com:  0.203D-04-0.246D-04 0.932D-04 0.162D-03 0.120D-03-0.106D-02
 Coeff-Com: -0.250D-02-0.464D-02 0.601D-02 0.106D+00 0.273D+00 0.623D+00
 Coeff:      0.203D-04-0.246D-04 0.932D-04 0.162D-03 0.120D-03-0.106D-02
 Coeff:     -0.250D-02-0.464D-02 0.601D-02 0.106D+00 0.273D+00 0.623D+00
 Gap=     0.149 Goal=   None    Shift=    0.000
 RMSDP=1.67D-07 MaxDP=7.54D-06 DE=-1.08D-08 OVMax= 7.16D-06

 Cycle  13  Pass 1  IDiag  1:
 RMSU=  9.67D-08    CP:  9.87D-01  5.00D-01  4.87D-01  1.10D+00  8.11D-01
                    CP:  8.79D-01  7.52D-01  7.94D-01  6.95D-01  8.23D-01
                    CP:  8.35D-01  8.31D-01
 E= -906.601413153126     Delta-E=       -0.000000001180 Rises=F Damp=F
 DIIS: error= 5.64D-07 at cycle  13 NSaved=  13.
 NSaved=13 IEnMin=13 EnMin= -906.601413153126     IErMin=13 ErrMin= 5.64D-07
 ErrMax= 5.64D-07  0.00D+00 EMaxC= 1.00D-01 BMatC= 2.19D-10 BMatP= 1.38D-09
 IDIUse=1 WtCom= 1.00D+00 WtEn= 0.00D+00
 Coeff-Com:  0.472D-05-0.102D-04 0.289D-04 0.942D-04 0.140D-03-0.154D-03
 Coeff-Com: -0.112D-02-0.412D-02-0.439D-02 0.149D-01 0.467D-01 0.312D+00
 Coeff-Com:  0.636D+00
 Coeff:      0.472D-05-0.102D-04 0.289D-04 0.942D-04 0.140D-03-0.154D-03
 Coeff:     -0.112D-02-0.412D-02-0.439D-02 0.149D-01 0.467D-01 0.312D+00
 Coeff:      0.636D+00
 Gap=     0.149 Goal=   None    Shift=    0.000
 RMSDP=5.58D-08 MaxDP=1.86D-06 DE=-1.18D-09 OVMax= 2.56D-06

 Cycle  14  Pass 1  IDiag  1:
 RMSU=  3.19D-08    CP:  9.87D-01  5.00D-01  4.87D-01  1.10D+00  8.11D-01
                    CP:  8.79D-01  7.52D-01  7.94D-01  6.96D-01  8.28D-01
                    CP:  8.43D-01  8.91D-01  7.77D-01
 E= -906.601413153331     Delta-E=       -0.000000000206 Rises=F Damp=F
 DIIS: error= 1.86D-07 at cycle  14 NSaved=  14.
 NSaved=14 IEnMin=14 EnMin= -906.601413153331     IErMin=14 ErrMin= 1.86D-07
 ErrMax= 1.86D-07  0.00D+00 EMaxC= 1.00D-01 BMatC= 2.94D-11 BMatP= 2.19D-10
 IDIUse=1 WtCom= 1.00D+00 WtEn= 0.00D+00
 Coeff-Com:  0.698D-06-0.353D-05 0.607D-05 0.337D-04 0.721D-04 0.558D-04
 Coeff-Com: -0.328D-03-0.185D-02-0.339D-02-0.574D-02-0.131D-01 0.872D-01
 Coeff-Com:  0.328D+00 0.609D+00
 Coeff:      0.698D-06-0.353D-05 0.607D-05 0.337D-04 0.721D-04 0.558D-04
 Coeff:     -0.328D-03-0.185D-02-0.339D-02-0.574D-02-0.131D-01 0.872D-01
 Coeff:      0.328D+00 0.609D+00
 Gap=     0.149 Goal=   None    Shift=    0.000
 RMSDP=2.42D-08 MaxDP=1.40D-06 DE=-2.06D-10 OVMax= 1.35D-06

 Cycle  15  Pass 1  IDiag  1:
 RMSU=  1.20D-08    CP:  9.87D-01  5.00D-01  4.87D-01  1.10D+00  8.11D-01
                    CP:  8.79D-01  7.52D-01  7.94D-01  6.96D-01  8.30D-01
                    CP:  8.47D-01  9.12D-01  8.51D-01  7.81D-01
 E= -906.601413153329     Delta-E=        0.000000000003 Rises=F Damp=F
 DIIS: error= 1.03D-07 at cycle  15 NSaved=  15.
 NSaved=15 IEnMin=14 EnMin= -906.601413153331     IErMin=15 ErrMin= 1.03D-07
 ErrMax= 1.03D-07  0.00D+00 EMaxC= 1.00D-01 BMatC= 4.35D-12 BMatP= 2.94D-11
 IDIUse=1 WtCom= 1.00D+00 WtEn= 0.00D+00
 Coeff-Com:  0.685D-07-0.950D-06-0.278D-06 0.575D-05 0.288D-04 0.698D-04
 Coeff-Com:  0.401D-04-0.252D-03-0.909D-03-0.411D-02-0.131D-01 0.101D-01
 Coeff-Com:  0.109D+00 0.368D+00 0.531D+00
 Coeff:      0.685D-07-0.950D-06-0.278D-06 0.575D-05 0.288D-04 0.698D-04
 Coeff:      0.401D-04-0.252D-03-0.909D-03-0.411D-02-0.131D-01 0.101D-01
 Coeff:      0.109D+00 0.368D+00 0.531D+00
 Gap=     0.149 Goal=   None    Shift=    0.000
 RMSDP=9.42D-09 MaxDP=4.49D-07 DE= 2.50D-12 OVMax= 5.93D-07

 Error on total polarization charges =  0.00569
 SCF Done:  E(RB3LYP) =  -906.601413153     A.U. after   15 cycles
            NFock= 15  Conv=0.94D-08     -V/T= 2.0083
 KE= 8.991047457570D+02 PE=-4.703121891075D+03 EE= 1.614817492868D+03
 Leave Link  502 at Mon Jul 12 12:36:34 2021, MaxMem=   104857600 cpu:             732.0 elap:             189.1
 (Enter /dades/curu/g16A03_MST/g16/l601.exe)
 Copying SCF densities to generalized density rwf, IOpCl= 0 IROHF=0.

 **********************************************************************

            Population analysis using the SCF density.

 **********************************************************************

 Orbital symmetries:
       Occupied  (A) (A) (A) (A) (A) (A) (A) (A) (A) (A) (A) (A)
                 (A) (A) (A) (A) (A) (A) (A) (A) (A) (A) (A) (A)
                 (A) (A) (A) (A) (A) (A) (A) (A) (A) (A) (A) (A)
                 (A) (A) (A) (A) (A) (A) (A) (A) (A) (A) (A) (A)
                 (A) (A) (A) (A) (A) (A) (A) (A) (A) (A) (A) (A)
                 (A) (A) (A) (A)
       Virtual   (A) (A) (A) (A) (A) (A) (A) (A) (A) (A) (A) (A)
                 (A) (A) (A) (A) (A) (A) (A) (A) (A) (A) (A) (A)
                 (A) (A) (A) (A) (A) (A) (A) (A) (A) (A) (A) (A)
                 (A) (A) (A) (A) (A) (A) (A) (A) (A) (A) (A) (A)
                 (A) (A) (A) (A) (A) (A) (A) (A) (A) (A) (A) (A)
                 (A) (A) (A) (A) (A) (A) (A) (A) (A) (A) (A) (A)
                 (A) (A) (A) (A) (A) (A) (A) (A) (A) (A) (A) (A)
                 (A) (A) (A) (A) (A) (A) (A) (A) (A) (A) (A) (A)
                 (A) (A) (A) (A) (A) (A) (A) (A) (A) (A) (A) (A)
                 (A) (A) (A) (A) (A) (A) (A) (A) (A) (A) (A) (A)
                 (A) (A) (A) (A) (A) (A) (A) (A) (A) (A) (A) (A)
                 (A) (A) (A) (A) (A) (A) (A) (A) (A) (A) (A) (A)
                 (A) (A) (A) (A) (A) (A) (A) (A) (A) (A) (A) (A)
                 (A) (A) (A) (A) (A) (A) (A) (A) (A) (A) (A) (A)
                 (A) (A) (A) (A) (A) (A) (A) (A) (A) (A) (A) (A)
                 (A) (A) (A) (A) (A) (A) (A) (A) (A) (A) (A) (A)
                 (A) (A) (A) (A) (A) (A) (A) (A) (A) (A) (A) (A)
                 (A) (A) (A) (A) (A) (A) (A) (A) (A)
 The electronic state is 1-A.
 Alpha  occ. eigenvalues --  -19.17131 -19.15691 -19.14545 -19.12398 -19.02587
 Alpha  occ. eigenvalues --  -14.42755 -14.34880 -14.34838 -14.20106 -10.27926
 Alpha  occ. eigenvalues --  -10.23999 -10.23642 -10.23150 -10.23086 -10.19550
 Alpha  occ. eigenvalues --  -10.18868 -10.18373  -1.09783  -1.05336  -1.03050
 Alpha  occ. eigenvalues --   -1.02042  -0.99527  -0.95913  -0.87525  -0.84269
 Alpha  occ. eigenvalues --   -0.76944  -0.75823  -0.73107  -0.67830  -0.63341
 Alpha  occ. eigenvalues --   -0.60839  -0.59233  -0.56962  -0.52826  -0.52094
 Alpha  occ. eigenvalues --   -0.51360  -0.49543  -0.49004  -0.47605  -0.46383
 Alpha  occ. eigenvalues --   -0.45378  -0.44164  -0.43890  -0.43330  -0.41684
 Alpha  occ. eigenvalues --   -0.39646  -0.38523  -0.36297  -0.34773  -0.34543
 Alpha  occ. eigenvalues --   -0.34026  -0.32730  -0.31178  -0.31095  -0.30195
 Alpha  occ. eigenvalues --   -0.28537  -0.27150  -0.26689  -0.25990  -0.24563
 Alpha  occ. eigenvalues --   -0.23089  -0.18794  -0.17287  -0.15272
 Alpha virt. eigenvalues --   -0.00339   0.05032   0.06728   0.07938   0.11297
 Alpha virt. eigenvalues --    0.11632   0.12467   0.14153   0.15629   0.15955
 Alpha virt. eigenvalues --    0.16981   0.17941   0.18734   0.19107   0.19818
 Alpha virt. eigenvalues --    0.20102   0.21039   0.22282   0.23818   0.24293
 Alpha virt. eigenvalues --    0.26505   0.27447   0.28208   0.29505   0.31060
 Alpha virt. eigenvalues --    0.32699   0.35253   0.38451   0.40086   0.43743
 Alpha virt. eigenvalues --    0.46380   0.49459   0.53312   0.53972   0.54897
 Alpha virt. eigenvalues --    0.56113   0.56472   0.56778   0.58557   0.59500
 Alpha virt. eigenvalues --    0.60760   0.62501   0.62997   0.63589   0.63869
 Alpha virt. eigenvalues --    0.65806   0.66226   0.67619   0.68577   0.69713
 Alpha virt. eigenvalues --    0.70361   0.71766   0.74275   0.75319   0.75563
 Alpha virt. eigenvalues --    0.77142   0.77271   0.78580   0.80393   0.81676
 Alpha virt. eigenvalues --    0.82382   0.82859   0.83256   0.84027   0.84686
 Alpha virt. eigenvalues --    0.85921   0.86932   0.87992   0.88210   0.89298
 Alpha virt. eigenvalues --    0.90318   0.90882   0.93419   0.94808   0.96591
 Alpha virt. eigenvalues --    0.97409   0.99341   0.99994   1.00414   1.02218
 Alpha virt. eigenvalues --    1.03921   1.05028   1.05639   1.06898   1.08190
 Alpha virt. eigenvalues --    1.10570   1.11342   1.13500   1.14666   1.16803
 Alpha virt. eigenvalues --    1.18090   1.19254   1.19700   1.22481   1.23336
 Alpha virt. eigenvalues --    1.25707   1.27381   1.32179   1.33960   1.35741
 Alpha virt. eigenvalues --    1.36801   1.39177   1.40827   1.42213   1.43037
 Alpha virt. eigenvalues --    1.46467   1.49822   1.50953   1.52183   1.53208
 Alpha virt. eigenvalues --    1.54411   1.56528   1.58427   1.59207   1.59942
 Alpha virt. eigenvalues --    1.63053   1.65432   1.67094   1.68675   1.73022
 Alpha virt. eigenvalues --    1.73119   1.75021   1.76924   1.77876   1.78284
 Alpha virt. eigenvalues --    1.80328   1.81693   1.84054   1.85516   1.86748
 Alpha virt. eigenvalues --    1.87660   1.88499   1.88635   1.90907   1.92464
 Alpha virt. eigenvalues --    1.94793   1.97080   1.98965   1.99722   2.01117
 Alpha virt. eigenvalues --    2.02338   2.02920   2.04640   2.05616   2.08174
 Alpha virt. eigenvalues --    2.09633   2.11786   2.14047   2.16547   2.18315
 Alpha virt. eigenvalues --    2.18775   2.20707   2.23037   2.24681   2.26474
 Alpha virt. eigenvalues --    2.28178   2.31900   2.33043   2.35127   2.37592
 Alpha virt. eigenvalues --    2.38794   2.40160   2.41838   2.42134   2.43891
 Alpha virt. eigenvalues --    2.45157   2.47684   2.50211   2.52247   2.53295
 Alpha virt. eigenvalues --    2.56535   2.58555   2.61416   2.62706   2.63914
 Alpha virt. eigenvalues --    2.65830   2.66326   2.71301   2.71754   2.75870
 Alpha virt. eigenvalues --    2.77910   2.78438   2.80835   2.82655   2.83186
 Alpha virt. eigenvalues --    2.86976   2.88701   2.95098   2.96692   2.98658
 Alpha virt. eigenvalues --    3.02474   3.04927   3.07744   3.13031   3.27691
 Alpha virt. eigenvalues --    3.34300   3.73939   3.80233   3.82387   3.88157
 Alpha virt. eigenvalues --    3.92285   3.99470   4.06727   4.09555   4.18177
 Alpha virt. eigenvalues --    4.26222   4.29270   4.35672   4.49457   4.56686
 Alpha virt. eigenvalues --    4.66102   4.66799   4.70212
          Condensed to atoms (all electrons):
               1          2          3          4          5          6
     1  N    7.433843   0.257374   0.486825  -0.123904  -0.179072   0.015497
     2  H    0.257374   0.534659  -0.049111   0.007128  -0.003930   0.000204
     3  C    0.486825  -0.049111   4.325529   0.633315   0.231668  -0.019319
     4  O   -0.123904   0.007128   0.633315   8.224108  -0.124441   0.010054
     5  C   -0.179072  -0.003930   0.231668  -0.124441   5.241536   0.381860
     6  C    0.015497   0.000204  -0.019319   0.010054   0.381860   5.120550
     7  N   -0.000314  -0.000009   0.005904   0.000387  -0.024431   0.373126
     8  H    0.000177  -0.000041  -0.001372   0.006264  -0.040256   0.371357
     9  N   -0.021872   0.006289  -0.038750   0.002545   0.371638  -0.096446
    10  N    0.000604   0.000328   0.004347  -0.000066  -0.098698  -0.120836
    11  C    0.000022  -0.000031  -0.000140   0.000001   0.004450   0.007381
    12  H    0.000000   0.000000  -0.000002  -0.000000  -0.000530   0.000891
    13  O    0.000000   0.000001  -0.000005  -0.000000   0.000363   0.000101
    14  C   -0.000000   0.000002  -0.000000  -0.000000  -0.000035   0.000015
    15  C   -0.000000   0.000000  -0.000000  -0.000000   0.000001  -0.000000
    16  O   -0.000000   0.000000   0.000000   0.000000   0.000000   0.000000
    17  H   -0.000000   0.000000   0.000000  -0.000000   0.000000   0.000000
    18  H   -0.000000   0.000000   0.000000   0.000000  -0.000000  -0.000000
    19  H    0.000000  -0.000000  -0.000000   0.000000  -0.000000  -0.000000
    20  H   -0.000000   0.000002   0.000001   0.000000  -0.000004  -0.000000
    21  C   -0.000001  -0.000013   0.000001   0.000000  -0.000049   0.000008
    22  O    0.000000   0.000000  -0.000000   0.000000  -0.000000  -0.000000
    23  H   -0.000000  -0.000000  -0.000000  -0.000000  -0.000000  -0.000000
    24  H   -0.000003   0.000108  -0.000002  -0.000000   0.000224  -0.000004
    25  C   -0.000000   0.000003   0.000004  -0.000000   0.000576  -0.000531
    26  H    0.000000   0.000001   0.000001  -0.000000   0.000067  -0.000022
    27  O   -0.000000   0.000000  -0.000000   0.000000   0.000001   0.000002
    28  H   -0.000000   0.000000   0.000000  -0.000000   0.000000  -0.000000
               7          8          9         10         11         12
     1  N   -0.000314   0.000177  -0.021872   0.000604   0.000022   0.000000
     2  H   -0.000009  -0.000041   0.006289   0.000328  -0.000031   0.000000
     3  C    0.005904  -0.001372  -0.038750   0.004347  -0.000140  -0.000002
     4  O    0.000387   0.006264   0.002545  -0.000066   0.000001  -0.000000
     5  C   -0.024431  -0.040256   0.371638  -0.098698   0.004450  -0.000530
     6  C    0.373126   0.371357  -0.096446  -0.120836   0.007381   0.000891
     7  N    6.874823  -0.046134  -0.095776   0.251027  -0.055164   0.006951
     8  H   -0.046134   0.545852   0.005544   0.006484  -0.000136  -0.000020
     9  N   -0.095776   0.005544   7.077826   0.213402  -0.051477   0.004626
    10  N    0.251027   0.006484   0.213402   6.749803   0.169187  -0.045297
    11  C   -0.055164  -0.000136  -0.051477   0.169187   4.994631   0.362811
    12  H    0.006951  -0.000020   0.004626  -0.045297   0.362811   0.541639
    13  O    0.000548   0.000002   0.004163  -0.066871   0.221684  -0.029789
    14  C   -0.000095  -0.000000   0.001623   0.001707  -0.051168   0.004334
    15  C    0.000002   0.000000   0.000042  -0.000304   0.000693   0.000074
    16  O   -0.000000   0.000000  -0.000000   0.000047   0.003425   0.000276
    17  H   -0.000002  -0.000000  -0.000000   0.000097   0.000808  -0.000200
    18  H   -0.000000  -0.000000  -0.000000   0.000007   0.000046  -0.000008
    19  H    0.000000  -0.000000  -0.000000  -0.000002  -0.000224   0.000001
    20  H    0.000004  -0.000000   0.000015   0.000648   0.003894  -0.000211
    21  C   -0.000114   0.000000  -0.001351  -0.001145  -0.043001   0.005109
    22  O    0.000000  -0.000000   0.000014   0.000001   0.002689  -0.000068
    23  H    0.000000  -0.000000  -0.000001  -0.000015   0.000262  -0.000014
    24  H    0.000068  -0.000000   0.006211  -0.000235   0.003984  -0.000277
    25  C    0.003436   0.000003   0.000393  -0.027512   0.281330  -0.046890
    26  H    0.000059  -0.000000   0.001720   0.002152  -0.043437   0.001463
    27  O   -0.000072  -0.000000   0.000036   0.003214  -0.043982   0.008786
    28  H    0.000002   0.000000  -0.000002   0.000008   0.000678   0.000151
              13         14         15         16         17         18
     1  N    0.000000  -0.000000  -0.000000  -0.000000  -0.000000  -0.000000
     2  H    0.000001   0.000002   0.000000   0.000000   0.000000   0.000000
     3  C   -0.000005  -0.000000  -0.000000   0.000000   0.000000   0.000000
     4  O   -0.000000  -0.000000  -0.000000   0.000000  -0.000000   0.000000
     5  C    0.000363  -0.000035   0.000001   0.000000   0.000000  -0.000000
     6  C    0.000101   0.000015  -0.000000   0.000000   0.000000  -0.000000
     7  N    0.000548  -0.000095   0.000002  -0.000000  -0.000002  -0.000000
     8  H    0.000002  -0.000000   0.000000   0.000000  -0.000000  -0.000000
     9  N    0.004163   0.001623   0.000042  -0.000000  -0.000000  -0.000000
    10  N   -0.066871   0.001707  -0.000304   0.000047   0.000097   0.000007
    11  C    0.221684  -0.051168   0.000693   0.003425   0.000808   0.000046
    12  H   -0.029789   0.004334   0.000074   0.000276  -0.000200  -0.000008
    13  O    8.316863   0.229468  -0.049375  -0.001691   0.008762   0.003283
    14  C    0.229468   4.980776   0.304076  -0.045684  -0.003958  -0.037782
    15  C   -0.049375   0.304076   4.984802   0.235929  -0.026390   0.353858
    16  O   -0.001691  -0.045684   0.235929   8.208513   0.235856  -0.022941
    17  H    0.008762  -0.003958  -0.026390   0.235856   0.352934   0.006191
    18  H    0.003283  -0.037782   0.353858  -0.022941   0.006191   0.580593
    19  H   -0.000722  -0.041280   0.365674  -0.026842  -0.010148  -0.054636
    20  H   -0.044878   0.363529  -0.053352   0.003274   0.000174   0.006266
    21  C   -0.036744   0.305363  -0.038285  -0.000747  -0.000336  -0.005120
    22  O    0.000901  -0.040498   0.007663  -0.001094   0.000018   0.003798
    23  H   -0.000078   0.005568  -0.000070  -0.000027   0.000000  -0.000097
    24  H    0.003799  -0.050948   0.006590  -0.000103  -0.000015   0.000018
    25  C   -0.042935  -0.039982  -0.010679   0.001800   0.000252   0.000511
    26  H    0.002604   0.006973  -0.000141  -0.000056   0.000009  -0.000008
    27  O    0.000750  -0.000437   0.003207  -0.028864   0.002878   0.000008
    28  H    0.000264   0.000013  -0.005855   0.063408  -0.004828  -0.000286
              19         20         21         22         23         24
     1  N    0.000000  -0.000000  -0.000001   0.000000  -0.000000  -0.000003
     2  H   -0.000000   0.000002  -0.000013   0.000000  -0.000000   0.000108
     3  C   -0.000000   0.000001   0.000001  -0.000000  -0.000000  -0.000002
     4  O    0.000000   0.000000   0.000000   0.000000  -0.000000  -0.000000
     5  C   -0.000000  -0.000004  -0.000049  -0.000000  -0.000000   0.000224
     6  C   -0.000000  -0.000000   0.000008  -0.000000  -0.000000  -0.000004
     7  N    0.000000   0.000004  -0.000114   0.000000   0.000000   0.000068
     8  H   -0.000000  -0.000000   0.000000  -0.000000  -0.000000  -0.000000
     9  N   -0.000000   0.000015  -0.001351   0.000014  -0.000001   0.006211
    10  N   -0.000002   0.000648  -0.001145   0.000001  -0.000015  -0.000235
    11  C   -0.000224   0.003894  -0.043001   0.002689   0.000262   0.003984
    12  H    0.000001  -0.000211   0.005109  -0.000068  -0.000014  -0.000277
    13  O   -0.000722  -0.044878  -0.036744   0.000901  -0.000078   0.003799
    14  C   -0.041280   0.363529   0.305363  -0.040498   0.005568  -0.050948
    15  C    0.365674  -0.053352  -0.038285   0.007663  -0.000070   0.006590
    16  O   -0.026842   0.003274  -0.000747  -0.001094  -0.000027  -0.000103
    17  H   -0.010148   0.000174  -0.000336   0.000018   0.000000  -0.000015
    18  H   -0.054636   0.006266  -0.005120   0.003798  -0.000097   0.000018
    19  H    0.610882  -0.000510   0.005808   0.000184  -0.000001  -0.000109
    20  H   -0.000510   0.611239  -0.034671   0.001813  -0.000181  -0.009791
    21  C    0.005808  -0.034671   4.955133   0.241973  -0.026867   0.363276
    22  O    0.000184   0.001813   0.241973   8.271092   0.241818  -0.048882
    23  H   -0.000001  -0.000181  -0.026867   0.241818   0.354215  -0.000247
    24  H   -0.000109  -0.009791   0.363276  -0.048882  -0.000247   0.641441
    25  C   -0.000102   0.005919   0.292934  -0.037055  -0.006067  -0.055892
    26  H    0.000002  -0.000147  -0.042146   0.000453   0.001393  -0.005822
    27  O   -0.000106  -0.000078  -0.049037  -0.001265   0.005492   0.004549
    28  H    0.000784  -0.000003  -0.002306   0.002927  -0.000018   0.000118
              25         26         27         28
     1  N   -0.000000   0.000000  -0.000000  -0.000000
     2  H    0.000003   0.000001   0.000000   0.000000
     3  C    0.000004   0.000001  -0.000000   0.000000
     4  O   -0.000000  -0.000000   0.000000  -0.000000
     5  C    0.000576   0.000067   0.000001   0.000000
     6  C   -0.000531  -0.000022   0.000002  -0.000000
     7  N    0.003436   0.000059  -0.000072   0.000002
     8  H    0.000003  -0.000000  -0.000000   0.000000
     9  N    0.000393   0.001720   0.000036  -0.000002
    10  N   -0.027512   0.002152   0.003214   0.000008
    11  C    0.281330  -0.043437  -0.043982   0.000678
    12  H   -0.046890   0.001463   0.008786   0.000151
    13  O   -0.042935   0.002604   0.000750   0.000264
    14  C   -0.039982   0.006973  -0.000437   0.000013
    15  C   -0.010679  -0.000141   0.003207  -0.005855
    16  O    0.001800  -0.000056  -0.028864   0.063408
    17  H    0.000252   0.000009   0.002878  -0.004828
    18  H    0.000511  -0.000008   0.000008  -0.000286
    19  H   -0.000102   0.000002  -0.000106   0.000784
    20  H    0.005919  -0.000147  -0.000078  -0.000003
    21  C    0.292934  -0.042146  -0.049037  -0.002306
    22  O   -0.037055   0.000453  -0.001265   0.002927
    23  H   -0.006067   0.001393   0.005492  -0.000018
    24  H   -0.055892  -0.005822   0.004549   0.000118
    25  C    5.007271   0.377279   0.260024  -0.032848
    26  H    0.377279   0.567047  -0.038947   0.004330
    27  O    0.260024  -0.038947   8.337373   0.225145
    28  H   -0.032848   0.004330   0.225145   0.315500
 Mulliken charges:
               1
     1  N   -0.869177
     2  H    0.247036
     3  C    0.421106
     4  O   -0.635391
     5  C    0.239064
     6  C   -0.043887
     7  N   -0.294224
     8  H    0.152277
     9  N   -0.390413
    10  N   -0.042083
    11  C    0.230784
    12  H    0.186198
    13  O   -0.520466
    14  C    0.108419
    15  C   -0.078159
    16  O   -0.624480
    17  H    0.437898
    18  H    0.166301
    19  H    0.151349
    20  H    0.147051
    21  C    0.112327
    22  O   -0.646483
    23  H    0.424933
    24  H    0.141947
    25  C    0.068757
    26  H    0.165175
    27  O   -0.688676
    28  H    0.432818
 Sum of Mulliken charges =  -1.00000
 Mulliken charges with hydrogens summed into heavy atoms:
               1
     1  N   -0.622142
     3  C    0.421106
     4  O   -0.635391
     5  C    0.239064
     6  C    0.108390
     7  N   -0.294224
     9  N   -0.390413
    10  N   -0.042083
    11  C    0.416982
    13  O   -0.520466
    14  C    0.255470
    15  C    0.239491
    16  O   -0.186582
    21  C    0.254274
    22  O   -0.221550
    25  C    0.233932
    27  O   -0.255859
 Electronic spatial extent (au):  <R**2>=           4778.5869
 Charge=             -1.0000 electrons
 Dipole moment (field-independent basis, Debye):
    X=             20.7320    Y=             -4.6120    Z=              0.1887  Tot=             21.2396
 Quadrupole moment (field-independent basis, Debye-Ang):
   XX=           -205.8218   YY=           -111.3044   ZZ=            -95.7926
   XY=             23.4014   XZ=            -10.7197   YZ=              4.8413
 Traceless Quadrupole moment (field-independent basis, Debye-Ang):
   XX=            -68.1822   YY=             26.3352   ZZ=             41.8470
   XY=             23.4014   XZ=            -10.7197   YZ=              4.8413
 Octapole moment (field-independent basis, Debye-Ang**2):
  XXX=            491.6149  YYY=            -30.1301  ZZZ=              5.9179  XYY=             74.2063
  XXY=           -129.3995  XXZ=             -5.3541  XZZ=             27.8372  YZZ=             15.2748
  YYZ=              0.9537  XYZ=              4.6310
 Hexadecapole moment (field-independent basis, Debye-Ang**3):
 XXXX=          -7377.5806 YYYY=           -909.1871 ZZZZ=           -474.5064 XXXY=            493.7931
 XXXZ=           -129.4813 YYYX=             91.5045 YYYZ=             23.9781 ZZZX=              0.5711
 ZZZY=             42.0462 XXYY=          -1121.2996 XXZZ=           -830.0350 YYZZ=           -210.5599
 XXYZ=             46.5784 YYXZ=            -24.8952 ZZXY=             47.7301
 N-N= 1.282598239297D+03 E-N=-4.703121891370D+03  KE= 8.991047457570D+02
 No NMR shielding tensors so no spin-rotation constants.
 Leave Link  601 at Mon Jul 12 12:36:34 2021, MaxMem=   104857600 cpu:               0.5 elap:               0.2
 (Enter /dades/curu/g16A03_MST/g16/l701.exe)
 ... and contract with generalized density number  0.
 Compute integral first derivatives.
 D1PCM: PCM CHGder 1st derivatives, ID1Alg=3 FixD1E=F DoIter=F DoCFld=F I1PDM=0.
 GePol: Maximum number of non-zero 1st derivatives   =     245
 Leave Link  701 at Mon Jul 12 12:36:37 2021, MaxMem=   104857600 cpu:              13.2 elap:               3.4
 (Enter /dades/curu/g16A03_MST/g16/l702.exe)
 L702 exits ... SP integral derivatives will be done elsewhere.
 Leave Link  702 at Mon Jul 12 12:36:37 2021, MaxMem=   104857600 cpu:               0.0 elap:               0.0
 (Enter /dades/curu/g16A03_MST/g16/l703.exe)
 Integral derivatives from FoFJK, PRISM(SPDF).
 Compute integral first derivatives, UseDBF=F ICtDFT=           0.
 Calling FoFJK, ICntrl=      2127 FMM=F ISym2X=0 I1Cent= 0 IOpClX= 0 NMat=1 NMatS=1 NMatT=0.
 FoFJK:  IHMeth= 1 ICntrl=    2127 DoSepK=F KAlg= 0 I1Cent=           0 FoldK=F
 IRaf=         0 NMat=       1 IRICut=       1 DoRegI=T DoRafI=F ISym2E= 0 IDoP0=0 IntGTp=1.
 FoFCou: FMM=F IPFlag=           0 FMFlag=      100000 FMFlg1=         800
         NFxFlg=           0 DoJE=F BraDBF=F KetDBF=F FulRan=T
         wScrn=  0.000000 ICntrl=      2127 IOpCl=  0 I1Cent=           0 NGrid=           0
         NMat0=    1 NMatS0=      1 NMatT0=    0 NMatD0=    1 NMtDS0=    0 NMtDT0=    0
 Symmetry not used in FoFCou.
 Leave Link  703 at Mon Jul 12 12:37:03 2021, MaxMem=   104857600 cpu:             102.2 elap:              25.6
 (Enter /dades/curu/g16A03_MST/g16/l716.exe)
 Dipole        = 8.15658852D+00-1.81450839D+00 7.42542986D-02
 ***** Axes restored to original set *****
 -------------------------------------------------------------------
 Center     Atomic                   Forces (Hartrees/Bohr)
 Number     Number              X              Y              Z
 -------------------------------------------------------------------
      1        7           0.037125210   -0.021121531    0.007962762
      2        1          -0.018927704    0.010570083   -0.002171101
      3        6           0.043560126    0.053125102    0.077267369
      4        8          -0.022131102   -0.048904394   -0.067429355
      5        6          -0.016650531    0.003642659   -0.018658349
      6        6          -0.026996357   -0.013825650    0.009876349
      7        7           0.008165685    0.017571634   -0.035737708
      8        1           0.002247973   -0.001475959    0.004432870
      9        7           0.016787607    0.006162317   -0.000763724
     10        7          -0.031038778   -0.013868183    0.005346744
     11        6           0.021272591    0.014339676    0.036664027
     12        1           0.005955961   -0.009716795    0.006325419
     13        8          -0.010130976    0.006306196   -0.038650814
     14        6          -0.015383245    0.027973295    0.032246286
     15        6           0.030732883   -0.032624546    0.008379782
     16        8          -0.009519278   -0.004404323    0.010994656
     17        1          -0.003341140    0.005352028   -0.000290089
[...]
 Alpha virt. eigenvalues --    0.84313   0.84342   0.85203   0.85993   0.86505
 Alpha virt. eigenvalues --    0.87048   0.88164   0.88318   0.88367   0.89086
 Alpha virt. eigenvalues --    0.89601   0.90100   0.90474   0.91242   0.91864
 Alpha virt. eigenvalues --    0.92060   0.93043   0.93351   0.93973   0.94458
 Alpha virt. eigenvalues --    0.95605   0.96290   0.96706   0.97542   0.98215
 Alpha virt. eigenvalues --    0.98983   0.99264   0.99875   1.01066   1.01495
 Alpha virt. eigenvalues --    1.02039   1.03265   1.03529   1.04116   1.04985
 Alpha virt. eigenvalues --    1.05561   1.05842   1.06568   1.07296   1.08241
 Alpha virt. eigenvalues --    1.08509   1.09886   1.10194   1.10837   1.11852
 Alpha virt. eigenvalues --    1.12820   1.13521   1.13987   1.14721   1.16227
 Alpha virt. eigenvalues --    1.16754   1.18042   1.18065   1.19766   1.21477
 Alpha virt. eigenvalues --    1.21926   1.23991   1.24519   1.25270   1.25837
 Alpha virt. eigenvalues --    1.27227   1.27744   1.28169   1.28976   1.29260
 Alpha virt. eigenvalues --    1.29964   1.30727   1.31177   1.31958   1.33212
 Alpha virt. eigenvalues --    1.33654   1.35162   1.36270   1.37735   1.38336
 Alpha virt. eigenvalues --    1.39414   1.40571   1.41381   1.41934   1.42307
 Alpha virt. eigenvalues --    1.43219   1.44318   1.45154   1.46354   1.47579
 Alpha virt. eigenvalues --    1.48553   1.48691   1.49908   1.50986   1.51543
 Alpha virt. eigenvalues --    1.52138   1.52980   1.54340   1.55727   1.56899
 Alpha virt. eigenvalues --    1.58880   1.59815   1.60729   1.61776   1.63986
 Alpha virt. eigenvalues --    1.64994   1.66399   1.67159   1.68667   1.68855
 Alpha virt. eigenvalues --    1.71003   1.71822   1.72045   1.72487   1.72855
 Alpha virt. eigenvalues --    1.74930   1.75305   1.76013   1.76086   1.78165
 Alpha virt. eigenvalues --    1.79766   1.82082   1.82695   1.84080   1.84448
 Alpha virt. eigenvalues --    1.85171   1.85933   1.86740   1.87424   1.89028
 Alpha virt. eigenvalues --    1.89348   1.90730   1.92542   1.92826   1.94390
 Alpha virt. eigenvalues --    1.94605   1.94947   1.96386   1.97667   1.99131
 Alpha virt. eigenvalues --    1.99819   2.00282   2.00961   2.02693   2.03446
 Alpha virt. eigenvalues --    2.05564   2.06855   2.08325   2.10810   2.11035
 Alpha virt. eigenvalues --    2.12430   2.13464   2.14089   2.14536   2.15768
 Alpha virt. eigenvalues --    2.15921   2.16913   2.17630   2.20032   2.20148
 Alpha virt. eigenvalues --    2.21532   2.22550   2.23617   2.23901   2.25312
 Alpha virt. eigenvalues --    2.26564   2.27154   2.28255   2.29409   2.30913
 Alpha virt. eigenvalues --    2.32330   2.33428   2.34212   2.35150   2.36637
 Alpha virt. eigenvalues --    2.37114   2.38063   2.40973   2.41189   2.42439
 Alpha virt. eigenvalues --    2.43055   2.44489   2.46888   2.47690   2.48528
 Alpha virt. eigenvalues --    2.48818   2.49703   2.52014   2.53979   2.54668
 Alpha virt. eigenvalues --    2.55616   2.57069   2.58686   2.59721   2.60591
 Alpha virt. eigenvalues --    2.61067   2.62679   2.64233   2.65397   2.65999
 Alpha virt. eigenvalues --    2.67557   2.68572   2.69730   2.71458   2.72725
 Alpha virt. eigenvalues --    2.74146   2.75481   2.75627   2.77690   2.78439
 Alpha virt. eigenvalues --    2.79422   2.79923   2.81623   2.82850   2.84835
 Alpha virt. eigenvalues --    2.87565   2.87905   2.89237   2.91045   2.93905
 Alpha virt. eigenvalues --    2.95156   2.97120   2.98812   2.99057   3.00222
 Alpha virt. eigenvalues --    3.01698   3.02611   3.04218   3.06287   3.07059
 Alpha virt. eigenvalues --    3.08548   3.09008   3.10872   3.14167   3.15327
 Alpha virt. eigenvalues --    3.16233   3.17539   3.18477   3.20545   3.25500
 Alpha virt. eigenvalues --    3.26374   3.27980   3.29033   3.31596   3.35124
 Alpha virt. eigenvalues --    3.35951   3.37622   3.39786   3.40684   3.45454
 Alpha virt. eigenvalues --    3.50184   3.51883   3.58868   3.64774   3.69029
 Alpha virt. eigenvalues --    3.70947   3.76221   3.76696   3.80566   3.83082
 Alpha virt. eigenvalues --    3.87957   3.91452   3.92145   3.95114   3.97032
 Alpha virt. eigenvalues --    3.97574   3.99176   3.99899   4.01152   4.01557
 Alpha virt. eigenvalues --    4.02059   4.03961   4.05436   4.08596   4.09199
 Alpha virt. eigenvalues --    4.10889   4.12193   4.16203   4.19246   4.20022
 Alpha virt. eigenvalues --    4.22482   4.23972   4.24598   4.35792   4.40639
 Alpha virt. eigenvalues --    4.42965   4.51818   4.53725   4.61657   4.65997
 Alpha virt. eigenvalues --    4.92314
          Condensed to atoms (all electrons):
               1          2          3          4          5          6
     1  N    7.602008   0.211758  -0.241246  -0.160532   0.595553  -0.089784
     2  H    0.211758   0.835033   0.096623   0.017645  -0.313880  -0.014864
     3  C   -0.241246   0.096623   6.245309   0.116789  -1.647514   0.172288
     4  O   -0.160532   0.017645   0.116789   9.014122   0.041107   0.022244
     5  C    0.595553  -0.313880  -1.647514   0.041107   8.426981  -0.913955
     6  C   -0.089784  -0.014864   0.172288   0.022244  -0.913955   6.250591
     7  N    0.009297   0.022043  -0.027125   0.006790   0.252407   0.481419
     8  H   -0.003337   0.001515   0.071303  -0.014716  -0.051172   0.135493
     9  N   -0.143463   0.005173  -0.020397   0.001673   0.220956   0.272067
    10  N   -0.094128   0.168983   0.347302  -0.039048  -1.035882  -0.781286
    11  C   -0.026590   0.013738  -0.003774  -0.003417  -0.373213  -0.144151
    12  H   -0.001105  -0.001086  -0.003862  -0.000370  -0.053365   0.042706
    13  O    0.000601   0.000284  -0.000065  -0.000102   0.025487   0.007438
    14  C    0.006021   0.006211  -0.007079  -0.000611   0.094728  -0.025267
    15  C    0.000197   0.002384   0.000915  -0.000081   0.009552  -0.010261
    16  O    0.000007   0.000193  -0.000093   0.000001  -0.001133   0.000994
    17  H   -0.000007   0.000030   0.000039   0.000003  -0.000126  -0.000366
    18  H    0.000015  -0.000097   0.000134  -0.000008   0.001349  -0.001194
    19  H    0.000032  -0.000011  -0.000245   0.000002  -0.000834   0.000648
    20  H    0.000108   0.002192   0.003457   0.000006  -0.016215   0.008519
    21  C   -0.005898  -0.008618  -0.003343   0.001225  -0.132434   0.060249
    22  O    0.000399  -0.000007   0.000210  -0.000007   0.000180  -0.001434
    23  H   -0.000049   0.000272  -0.000157   0.000017  -0.000336   0.000520
    24  H   -0.003249  -0.022092   0.006179   0.000785   0.001985   0.003345
    25  C    0.005202   0.010003   0.003785  -0.001167   0.091652  -0.045311
    26  H    0.000631  -0.000228  -0.003602  -0.000401  -0.007194  -0.018110
    27  O    0.000251   0.000463  -0.000486   0.000016   0.012217   0.003078
    28  H    0.000065   0.000302   0.000188  -0.000007   0.002178   0.000043
               7          8          9         10         11         12
     1  N    0.009297  -0.003337  -0.143463  -0.094128  -0.026590  -0.001105
     2  H    0.022043   0.001515   0.005173   0.168983   0.013738  -0.001086
     3  C   -0.027125   0.071303  -0.020397   0.347302  -0.003774  -0.003862
     4  O    0.006790  -0.014716   0.001673  -0.039048  -0.003417  -0.000370
     5  C    0.252407  -0.051172   0.220956  -1.035882  -0.373213  -0.053365
     6  C    0.481419   0.135493   0.272067  -0.781286  -0.144151   0.042706
     7  N   10.577845  -0.273350  -1.875738  -1.445119  -0.552424   0.308613
     8  H   -0.273350   1.254472  -0.075720   0.275574  -0.006326  -0.003727
     9  N   -1.875738  -0.075720  11.831164  -1.788340  -0.589628  -0.097438
    10  N   -1.445119   0.275574  -1.788340  12.221451  -0.325478  -0.383739
    11  C   -0.552424  -0.006326  -0.589628  -0.325478   8.899065   0.016697
    12  H    0.308613  -0.003727  -0.097438  -0.383739   0.016697   1.735875
    13  O   -0.126050   0.000832   0.137492   0.055610  -0.086404  -0.173483
    14  C    0.122241   0.001234   0.010442   0.033477  -1.754944  -0.188679
    15  C   -0.013716  -0.000104   0.047192   0.002043   0.118080   0.026808
    16  O    0.011396  -0.000056  -0.015540   0.008074  -0.061757   0.013263
    17  H    0.000973  -0.000005  -0.001922  -0.005950   0.017445   0.007850
    18  H   -0.002578  -0.000016   0.009659  -0.015297   0.012865   0.001201
    19  H    0.002209  -0.000010  -0.004126   0.006797   0.014865   0.001400
    20  H    0.036859   0.000272  -0.091580   0.130141  -0.021661   0.009701
    21  C   -0.050293  -0.000731  -0.054258  -0.096906   0.997932   0.181062
    22  O    0.003542  -0.000038   0.005542   0.010803   0.066323   0.001675
    23  H    0.000101   0.000009   0.011148  -0.019300   0.017941   0.001196
    24  H   -0.011754  -0.001413  -0.027209   0.103997  -0.233922   0.005053
    25  C    0.012302   0.002526   0.064457   0.312305  -2.009661  -0.084980
    26  H   -0.056002   0.000748   0.053099  -0.176869   0.466164   0.006375
    27  O    0.031407   0.000037   0.025697   0.037222  -0.000551   0.008779
    28  H    0.000321   0.000055   0.001312  -0.000273  -0.067808  -0.011748
              13         14         15         16         17         18
     1  N    0.000601   0.006021   0.000197   0.000007  -0.000007   0.000015
     2  H    0.000284   0.006211   0.002384   0.000193   0.000030  -0.000097
     3  C   -0.000065  -0.007079   0.000915  -0.000093   0.000039   0.000134
     4  O   -0.000102  -0.000611  -0.000081   0.000001   0.000003  -0.000008
     5  C    0.025487   0.094728   0.009552  -0.001133  -0.000126   0.001349
     6  C    0.007438  -0.025267  -0.010261   0.000994  -0.000366  -0.001194
     7  N   -0.126050   0.122241  -0.013716   0.011396   0.000973  -0.002578
     8  H    0.000832   0.001234  -0.000104  -0.000056  -0.000005  -0.000016
     9  N    0.137492   0.010442   0.047192  -0.015540  -0.001922   0.009659
    10  N    0.055610   0.033477   0.002043   0.008074  -0.005950  -0.015297
    11  C   -0.086404  -1.754944   0.118080  -0.061757   0.017445   0.012865
    12  H   -0.173483  -0.188679   0.026808   0.013263   0.007850   0.001201
    13  O    9.686162  -0.291763   0.026444  -0.056608   0.032775   0.078039
    14  C   -0.291763  10.099885  -0.459709   0.199537  -0.125430  -0.187388
    15  C    0.026444  -0.459709   4.794174  -0.010543   0.015906   0.237228
    16  O   -0.056608   0.199537  -0.010543   8.639206   0.332130  -0.135205
    17  H    0.032775  -0.125430   0.015906   0.332130   0.491221   0.025676
    18  H    0.078039  -0.187388   0.237228  -0.135205   0.025676   1.355124
    19  H   -0.024755   0.083891   0.166619  -0.058065  -0.056248  -0.262195
    20  H   -0.115156  -0.789658  -0.013997   0.040085   0.012374  -0.039180
    21  C   -0.018689  -2.496878  -0.210804  -0.144464   0.031635   0.046525
    22  O    0.005744  -0.154748   0.073134   0.021276   0.001285  -0.010927
    23  H    0.002928  -0.044297   0.006408  -0.000654   0.000090  -0.002909
    24  H   -0.006590   0.231304  -0.026514  -0.012398  -0.000880   0.022318
    25  C   -0.002835   1.145292  -0.077289   0.132615   0.008763   0.001440
    26  H    0.053651  -0.145100   0.019427  -0.002180   0.001230   0.003710
    27  O   -0.018775   0.074700   0.031778  -0.076265   0.001530  -0.001788
    28  H    0.025577   0.146630  -0.032781  -0.006589  -0.006808  -0.006891
              19         20         21         22         23         24
     1  N    0.000032   0.000108  -0.005898   0.000399  -0.000049  -0.003249
     2  H   -0.000011   0.002192  -0.008618  -0.000007   0.000272  -0.022092
     3  C   -0.000245   0.003457  -0.003343   0.000210  -0.000157   0.006179
     4  O    0.000002   0.000006   0.001225  -0.000007   0.000017   0.000785
     5  C   -0.000834  -0.016215  -0.132434   0.000180  -0.000336   0.001985
     6  C    0.000648   0.008519   0.060249  -0.001434   0.000520   0.003345
     7  N    0.002209   0.036859  -0.050293   0.003542   0.000101  -0.011754
     8  H   -0.000010   0.000272  -0.000731  -0.000038   0.000009  -0.001413
     9  N   -0.004126  -0.091580  -0.054258   0.005542   0.011148  -0.027209
    10  N    0.006797   0.130141  -0.096906   0.010803  -0.019300   0.103997
    11  C    0.014865  -0.021661   0.997932   0.066323   0.017941  -0.233922
    12  H    0.001400   0.009701   0.181062   0.001675   0.001196   0.005053
    13  O   -0.024755  -0.115156  -0.018689   0.005744   0.002928  -0.006590
    14  C    0.083891  -0.789658  -2.496878  -0.154748  -0.044297   0.231304
    15  C    0.166619  -0.013997  -0.210804   0.073134   0.006408  -0.026514
    16  O   -0.058065   0.040085  -0.144464   0.021276  -0.000654  -0.012398
    17  H   -0.056248   0.012374   0.031635   0.001285   0.000090  -0.000880
    18  H   -0.262195  -0.039180   0.046525  -0.010927  -0.002909   0.022318
    19  H    1.219841  -0.036329   0.092339  -0.001307   0.002879   0.003334
    20  H   -0.036329   1.860243   0.336651   0.047735   0.002768  -0.073906
    21  C    0.092339   0.336651   9.064910  -0.400429   0.021304  -0.225314
    22  O   -0.001307   0.047735  -0.400429   8.862625   0.362715  -0.162008
    23  H    0.002879   0.002768   0.021304   0.362715   0.576595  -0.027050
    24  H    0.003334  -0.073906  -0.225314  -0.162008  -0.027050   1.451658
    25  C   -0.045745   0.034898  -1.953944   0.155806  -0.058060   0.123960
    26  H   -0.001750  -0.006957   0.153768   0.005516   0.007332  -0.025778
    27  O   -0.000160   0.000302  -0.033890  -0.019564   0.013735  -0.005334
    28  H    0.001654   0.001488  -0.161066   0.008256   0.000943   0.009741
              25         26         27         28
     1  N    0.005202   0.000631   0.000251   0.000065
     2  H    0.010003  -0.000228   0.000463   0.000302
     3  C    0.003785  -0.003602  -0.000486   0.000188
     4  O   -0.001167  -0.000401   0.000016  -0.000007
     5  C    0.091652  -0.007194   0.012217   0.002178
     6  C   -0.045311  -0.018110   0.003078   0.000043
     7  N    0.012302  -0.056002   0.031407   0.000321
     8  H    0.002526   0.000748   0.000037   0.000055
     9  N    0.064457   0.053099   0.025697   0.001312
    10  N    0.312305  -0.176869   0.037222  -0.000273
    11  C   -2.009661   0.466164  -0.000551  -0.067808
    12  H   -0.084980   0.006375   0.008779  -0.011748
    13  O   -0.002835   0.053651  -0.018775   0.025577
    14  C    1.145292  -0.145100   0.074700   0.146630
    15  C   -0.077289   0.019427   0.031778  -0.032781
    16  O    0.132615  -0.002180  -0.076265  -0.006589
    17  H    0.008763   0.001230   0.001530  -0.006808
    18  H    0.001440   0.003710  -0.001788  -0.006891
    19  H   -0.045745  -0.001750  -0.000160   0.001654
    20  H    0.034898  -0.006957   0.000302   0.001488
    21  C   -1.953944   0.153768  -0.033890  -0.161066
    22  O    0.155806   0.005516  -0.019564   0.008256
    23  H   -0.058060   0.007332   0.013735   0.000943
    24  H    0.123960  -0.025778  -0.005334   0.009741
    25  C    8.274380  -0.514485  -0.364944   0.052291
    26  H   -0.514485   1.574015  -0.160956   0.002165
    27  O   -0.364944  -0.160956   9.037088   0.263538
    28  H    0.052291   0.002165   0.263538   0.518216
 Mulliken charges:
               1
     1  N   -0.662756
     2  H   -0.033962
     3  C    0.894466
     4  O   -1.001959
     5  C    0.770919
     6  C    0.584341
     7  N   -0.445614
     8  H   -0.313348
     9  N   -0.911713
    10  N   -0.506161
    11  C    1.620594
    12  H   -0.364670
    13  O   -1.217789
    14  C    0.415956
    15  C    1.277511
    16  O   -0.817226
    17  H    0.216786
    18  H   -0.129607
    19  H   -0.104731
    20  H   -0.323159
    21  C    1.010359
    22  O   -0.882299
    23  H    0.123909
    24  H   -0.098248
    25  C    0.726743
    26  H   -0.228221
    27  O   -0.859126
    28  H    0.259009
 Sum of Mulliken charges =  -1.00000
 Mulliken charges with hydrogens summed into heavy atoms:
               1
     1  N   -0.696719
     3  C    0.894466
     4  O   -1.001959
     5  C    0.770919
     6  C    0.270993
     7  N   -0.445614
     9  N   -0.911713
    10  N   -0.506161
    11  C    1.255924
    13  O   -1.217789
    14  C    0.092797
    15  C    1.043173
    16  O   -0.600441
    21  C    0.912111
    22  O   -0.758390
    25  C    0.498521
    27  O   -0.600118
 Electronic spatial extent (au):  <R**2>=           4634.9278
 Charge=             -1.0000 electrons
 Dipole moment (field-independent basis, Debye):
    X=             17.4528    Y=             -3.3939    Z=             -0.0259  Tot=             17.7798
 Quadrupole moment (field-independent basis, Debye-Ang):
   XX=           -207.5560   YY=           -116.5946   ZZ=           -103.1751
   XY=             24.0185   XZ=            -10.9142   YZ=              4.1885
 Traceless Quadrupole moment (field-independent basis, Debye-Ang):
   XX=            -65.1141   YY=             25.8473   ZZ=             39.2668
   XY=             24.0185   XZ=            -10.9142   YZ=              4.1885
 Octapole moment (field-independent basis, Debye-Ang**2):
  XXX=            441.3782  YYY=            -28.3165  ZZZ=             -5.2155  XYY=             83.5852
  XXY=           -117.0099  XXZ=              3.8919  XZZ=             21.5664  YZZ=             13.2696
  YYZ=              9.3777  XYZ=              3.4177
 Hexadecapole moment (field-independent basis, Debye-Ang**3):
 XXXX=          -7211.0668 YYYY=          -1063.1458 ZZZZ=           -515.2464 XXXY=            479.0055
 XXXZ=           -154.0374 YYYX=            144.1047 YYYZ=             45.4256 ZZZX=            -32.4083
 ZZZY=             31.4591 XXYY=          -1124.9821 XXZZ=           -886.1965 YYZZ=           -235.2796
 XXYZ=             42.6604 YYXZ=              5.1705 ZZXY=             45.3573
 N-N= 1.288737765865D+03 E-N=-4.712768380957D+03  KE= 9.001538537634D+02
 Leave Link  601 at Mon Jul 12 14:46:37 2021, MaxMem=   262144000 cpu:               0.4 elap:               0.3
 (Enter /dades/curu/g16A03_MST/g16/l9999.exe)
 1\1\GINC-PIRINEUS10\SP\RMP2-FC\Aug-CC-pVDZ\C8H11N4O5(1-)\UBATOR02\12-J
 ul-2021\0\\#p mp2/aug-cc-pVDZ scf=tight maxdisk=180GB geom=allcheck\\S
 ET_328_BBB285_conf1.geo_300_300 geometry\\-1,1\N,0,3.2911864188,-2.537
 5776666,-1.1353146108\H,0,2.9965375643,-1.7206331931,-0.5969128431\C,0
 ,2.2626686224,-2.9125594234,-1.8787324798\O,0,2.2197989688,-3.88313233
 79,-2.684778505\C,0,0.9689780734,-2.1249949496,-1.7887583145\C,0,-0.22
 38632231,-2.3622676193,-2.5037194153\N,0,-1.1429679671,-1.4627889508,-
 2.1569446333\H,0,-0.427749951,-3.1287465572,-3.2336038972\N,0,0.759920
 0323,-1.0631714251,-1.0017730502\N,0,-0.502810122,-0.7002283425,-1.259
 6823743\C,0,-1.181046672,0.3777289714,-0.5538854349\H,0,-2.0818758483,
 0.5766221493,-1.1320555347\O,0,-1.5596384708,-0.0190636128,0.758431728
 \C,0,-0.6575148228,0.5227370821,1.7474440326\C,0,-1.4876222608,1.33802
 16977,2.7374644148\O,0,-2.3454395333,2.2720660389,2.0767213664\H,0,-2.
 9994873806,1.7399699264,1.5922859893\H,0,-0.8253637931,1.9169215978,3.
 3802801339\H,0,-2.0848022064,0.6610747538,3.3584687734\H,0,-0.18602077
 3,-0.3091037848,2.2819281189\C,0,0.3993786181,1.3334415547,0.960247103
 5\O,0,0.778555704,2.4751924366,1.7031073336\H,0,1.44290696,2.958661403
 ,1.1853367335\H,0,1.2529050817,0.6820718646,0.7502356201\C,0,-0.306282
 3461,1.6382353883,-0.3826503097\H,0,0.3983621281,1.7395906297,-1.21036
 98531\O,0,-1.0823731052,2.8127524627,-0.3430153839\H,0,-1.4943396964,2
 .859179906,0.5492452916\\Version=ES64L-G16RevA.03\State=1-A\HF=-901.54
 26145\MP2=-904.3646531\RMSD=9.176e-09\PG=C01 [X(C8H11N4O5)]\\@


 THOSE WHO TRY TO PASS CHEMISTRY OFF AS A NEW SCIENCE
 SHOW HOW LITTLE KNOWLEDGE THEY HAVE OF THE CHARACTER
 AND LITERATURE OF THE ANCIENTS.
   -- NICOLAS LEFEVRE
 "COURS DE CHYMIE" J.-N.LELOUP, PARIS, 1751
 Job cpu time:       0 days  2 hours  3 minutes 13.0 seconds.
 Elapsed time:       0 days  0 hours 39 minutes 19.5 seconds.
 File lengths (MBytes):  RWF=  58460 Int=      0 D2E=      0 Chk=     21 Scr=      1
 Normal termination of Gaussian 16 at Mon Jul 12 14:46:40 2021.
