 Entering Gaussian System, Link 0=g16
 Input=SET_328_BBB2_conf1.geo_240_060_OCTANOL.dat
 Output=SET_328_BBB2_conf1.geo_240_060_OCTANOL.log
 Initial command:
 /dades/curu/g16A03_MST/g16/l1.exe "/tmp/ubator02/1835268/Gau-117844.inp" -scrdir="/tmp/ubator02/1835268/"
 Entering Link 1 = /dades/curu/g16A03_MST/g16/l1.exe PID=    117845.
  
 Copyright (c) 1988,1990,1992,1993,1995,1998,2003,2009,2016,
            Gaussian, Inc.  All Rights Reserved.
  
 This is part of the Gaussian(R) 16 program.  It is based on
 the Gaussian(R) 09 system (copyright 2009, Gaussian, Inc.),
 the Gaussian(R) 03 system (copyright 2003, Gaussian, Inc.),
 the Gaussian(R) 98 system (copyright 1998, Gaussian, Inc.),
 the Gaussian(R) 94 system (copyright 1995, Gaussian, Inc.),
 the Gaussian 92(TM) system (copyright 1992, Gaussian, Inc.),
 the Gaussian 90(TM) system (copyright 1990, Gaussian, Inc.),
 the Gaussian 88(TM) system (copyright 1988, Gaussian, Inc.),
 the Gaussian 86(TM) system (copyright 1986, Carnegie Mellon
 University), and the Gaussian 82(TM) system (copyright 1983,
 Carnegie Mellon University). Gaussian is a federally registered
 trademark of Gaussian, Inc.
  
 This software contains proprietary and confidential information,
 including trade secrets, belonging to Gaussian, Inc.
  
 This software is provided under written license and may be
 used, copied, transmitted, or stored only in accord with that
 written license.
  
 The following legend is applicable only to US Government
 contracts under FAR:
  
                    RESTRICTED RIGHTS LEGEND
  
 Use, reproduction and disclosure by the US Government is
 subject to restrictions as set forth in subparagraphs (a)
 and (c) of the Commercial Computer Software - Restricted
 Rights clause in FAR 52.227-19.
  
 Gaussian, Inc.
 340 Quinnipiac St., Bldg. 40, Wallingford CT 06492
  
  
 ---------------------------------------------------------------
 Warning -- This program may not be used in any manner that
 competes with the business of Gaussian, Inc. or will provide
 assistance to any competitor of Gaussian, Inc.  The licensee
 of this program is prohibited from giving any competitor of
 Gaussian, Inc. access to this program.  By using this program,
 the user acknowledges that Gaussian, Inc. is engaged in the
 business of creating and licensing software in the field of
 computational chemistry and represents and warrants to the
 licensee that it is not a competitor of Gaussian, Inc. and that
 it will not use this program in any manner prohibited above.
 ---------------------------------------------------------------
  

 Cite this work as:
 Gaussian 16, Revision A.03,
 M. J. Frisch, G. W. Trucks, H. B. Schlegel, G. E. Scuseria, 
 M. A. Robb, J. R. Cheeseman, G. Scalmani, V. Barone, 
 G. A. Petersson, H. Nakatsuji, X. Li, M. Caricato, A. V. Marenich, 
 J. Bloino, B. G. Janesko, R. Gomperts, B. Mennucci, H. P. Hratchian, 
 J. V. Ortiz, A. F. Izmaylov, J. L. Sonnenberg, D. Williams-Young, 
 F. Ding, F. Lipparini, F. Egidi, J. Goings, B. Peng, A. Petrone, 
 T. Henderson, D. Ranasinghe, V. G. Zakrzewski, J. Gao, N. Rega, 
 G. Zheng, W. Liang, M. Hada, M. Ehara, K. Toyota, R. Fukuda, 
 J. Hasegawa, M. Ishida, T. Nakajima, Y. Honda, O. Kitao, H. Nakai, 
 T. Vreven, K. Throssell, J. A. Montgomery, Jr., J. E. Peralta, 
 F. Ogliaro, M. J. Bearpark, J. J. Heyd, E. N. Brothers, K. N. Kudin, 
 V. N. Staroverov, T. A. Keith, R. Kobayashi, J. Normand, 
 K. Raghavachari, A. P. Rendell, J. C. Burant, S. S. Iyengar, 
 J. Tomasi, M. Cossi, J. M. Millam, M. Klene, C. Adamo, R. Cammi, 
 J. W. Ochterski, R. L. Martin, K. Morokuma, O. Farkas, 
 J. B. Foresman, and D. J. Fox, Gaussian, Inc., Wallingford CT, 2016.
 
 ******************************************
 Gaussian 16:  ES64L-G16RevA.03 25-Dec-2016
                12-Jul-2021 
 ******************************************
 %mem=800MB
 %nproc=4
 Will use up to    4 processors via shared memory.
 %chk=SET_328_BBB2_conf1.geo_240_060.chk
 ---------------------------------------------------------------
 #p b3lyp/6-31G(d) opt freq scrf=(iefpcm,read,solvent=n-octanol)
 ---------------------------------------------------------------
 1/18=20,19=15,26=3,38=1,40=2/1,3;
 2/9=110,12=2,17=6,18=5,40=1/2;
 3/5=1,6=6,7=1,11=2,25=1,30=1,70=2203,71=1,72=25,74=-5/1,2,3;
 4//1;
 5/5=2,38=5,53=25/2;
 6/7=2,8=2,9=2,10=2,28=1/1;
 7//1,2,3,16;
 1/18=20,19=15,26=3/3(2);
 2/9=110/2;
 99//99;
 2/9=110/2;
 3/5=1,6=6,7=1,11=2,25=1,30=1,70=2205,71=1,72=25,74=-5/1,2,3;
 4/5=5,16=3,69=1/1;
 5/5=2,38=5,53=25/2;
 7//1,2,3,16;
 1/18=20,19=15,26=3/3(-5);
 2/9=110/2;
 6/7=2,8=2,9=2,10=2,19=2,28=1/1;
 99/9=1/99;
 Leave Link    1 at Mon Jul 12 11:17:55 2021, MaxMem=   104857600 cpu:               0.0 elap:               0.0
 (Enter /dades/curu/g16A03_MST/g16/l101.exe)
 ---------------------------------------
 SET_328_BBB2_conf1.geo_240_060 geometry
 ---------------------------------------
 Symbolic Z-matrix:
 Charge =  1 Multiplicity = 1
 C                    -3.331    -0.556    -2.039 
 H                    -3.213    -1.546    -1.591 
 H                    -2.527    -0.211    -2.694 
 H                    -4.244    -0.508    -2.637 
 N                    -3.566     0.294    -0.858 
 H                    -4.34     -0.081    -0.348 
 C                    -2.422     0.405     0.054 
 C                    -1.254     1.016    -0.762 
 C                    -0.012     0.33     -0.702 
 C                     1.033     0.823    -1.5 
 C                     0.869     1.991    -2.235 
 C                    -0.357     2.661    -2.328 
 C                    -1.399     2.128    -1.56 
 H                    -2.386     2.581    -1.6 
 H                    -0.422     3.545    -2.957 
 H                     1.674     2.387    -2.848 
 H                     1.966     0.281    -1.631 
 H                    -2.646     1.111     0.857 
 C                    -2.206    -0.969     0.732 
 H                    -2.143    -1.851     0.091 
 H                    -2.947    -1.097     1.524 
 C                    -0.84     -0.903     1.363 
 H                    -0.637    -1.719     2.06 
 H                    -0.648    -0.041     2.006 
 C                     0.327    -0.867     0.271 
 H                     0.223    -1.826    -0.242 
 C                     1.702    -0.773     1.019 
 C                     2.067     0.347     1.727 
 H                     1.398     1.19      1.879 
 C                     3.261     0.317     2.424 
 Cl                    3.652     1.702     3.365 
 C                     4.18     -0.764     2.357 
 Cl                    5.83     -0.613     2.891 
 C                     3.858    -1.83      1.508 
 H                     4.538    -2.66      1.336 
 C                     2.631    -1.757     0.83 
 H                     2.36     -2.603     0.204 
 H                    -3.809     1.212    -1.173 
 
 ITRead=  0  0  0  0  0  0  0  0  0  0  0  0  0  0  0  0  0  0  0  0
 ITRead=  0  0  0  0  0  0  0  0  0  0  0  0  0  0  0  0  0  0
 MicOpt= -1 -1 -1 -1 -1 -1 -1 -1 -1 -1 -1 -1 -1 -1 -1 -1 -1 -1 -1 -1
 MicOpt= -1 -1 -1 -1 -1 -1 -1 -1 -1 -1 -1 -1 -1 -1 -1 -1 -1 -1
 NAtoms=     38 NQM=       38 NQMF=       0 NMMI=      0 NMMIF=      0
                NMic=       0 NMicF=      0.
                    Isotopes and Nuclear Properties:
 (Nuclear quadrupole moments (NQMom) in fm**2, nuclear magnetic moments (NMagM)
  in nuclear magnetons)

  Atom         1           2           3           4           5           6           7           8           9          10
 IAtWgt=          12           1           1           1          14           1          12          12          12          12
 AtmWgt=  12.0000000   1.0078250   1.0078250   1.0078250  14.0030740   1.0078250  12.0000000  12.0000000  12.0000000  12.0000000
 NucSpn=           0           1           1           1           2           1           0           0           0           0
 AtZEff=  -0.0000000  -0.0000000  -0.0000000  -0.0000000  -0.0000000  -0.0000000  -0.0000000  -0.0000000  -0.0000000  -0.0000000
 NQMom=    0.0000000   0.0000000   0.0000000   0.0000000   2.0440000   0.0000000   0.0000000   0.0000000   0.0000000   0.0000000
 NMagM=    0.0000000   2.7928460   2.7928460   2.7928460   0.4037610   2.7928460   0.0000000   0.0000000   0.0000000   0.0000000
 AtZNuc=   6.0000000   1.0000000   1.0000000   1.0000000   7.0000000   1.0000000   6.0000000   6.0000000   6.0000000   6.0000000

  Atom        11          12          13          14          15          16          17          18          19          20
 IAtWgt=          12          12          12           1           1           1           1           1          12           1
 AtmWgt=  12.0000000  12.0000000  12.0000000   1.0078250   1.0078250   1.0078250   1.0078250   1.0078250  12.0000000   1.0078250
 NucSpn=           0           0           0           1           1           1           1           1           0           1
 AtZEff=  -0.0000000  -0.0000000  -0.0000000  -0.0000000  -0.0000000  -0.0000000  -0.0000000  -0.0000000  -0.0000000  -0.0000000
 NQMom=    0.0000000   0.0000000   0.0000000   0.0000000   0.0000000   0.0000000   0.0000000   0.0000000   0.0000000   0.0000000
 NMagM=    0.0000000   0.0000000   0.0000000   2.7928460   2.7928460   2.7928460   2.7928460   2.7928460   0.0000000   2.7928460
 AtZNuc=   6.0000000   6.0000000   6.0000000   1.0000000   1.0000000   1.0000000   1.0000000   1.0000000   6.0000000   1.0000000

  Atom        21          22          23          24          25          26          27          28          29          30
 IAtWgt=           1          12           1           1          12           1          12          12           1          12
 AtmWgt=   1.0078250  12.0000000   1.0078250   1.0078250  12.0000000   1.0078250  12.0000000  12.0000000   1.0078250  12.0000000
 NucSpn=           1           0           1           1           0           1           0           0           1           0
 AtZEff=  -0.0000000  -0.0000000  -0.0000000  -0.0000000  -0.0000000  -0.0000000  -0.0000000  -0.0000000  -0.0000000  -0.0000000
 NQMom=    0.0000000   0.0000000   0.0000000   0.0000000   0.0000000   0.0000000   0.0000000   0.0000000   0.0000000   0.0000000
 NMagM=    2.7928460   0.0000000   2.7928460   2.7928460   0.0000000   2.7928460   0.0000000   0.0000000   2.7928460   0.0000000
 AtZNuc=   1.0000000   6.0000000   1.0000000   1.0000000   6.0000000   1.0000000   6.0000000   6.0000000   1.0000000   6.0000000

  Atom        31          32          33          34          35          36          37          38
 IAtWgt=          35          12          35          12           1          12           1           1
 AtmWgt=  34.9688527  12.0000000  34.9688527  12.0000000   1.0078250  12.0000000   1.0078250   1.0078250
 NucSpn=           3           0           3           0           1           0           1           1
 AtZEff=  -0.0000000  -0.0000000  -0.0000000  -0.0000000  -0.0000000  -0.0000000  -0.0000000  -0.0000000
 NQMom=   -8.1650000   0.0000000  -8.1650000   0.0000000   0.0000000   0.0000000   0.0000000   0.0000000
 NMagM=    0.8218740   0.0000000   0.8218740   0.0000000   2.7928460   0.0000000   2.7928460   2.7928460
 AtZNuc=  17.0000000   6.0000000  17.0000000   6.0000000   1.0000000   6.0000000   1.0000000   1.0000000
 Leave Link  101 at Mon Jul 12 11:17:56 2021, MaxMem=   104857600 cpu:               0.1 elap:               0.1
 (Enter /dades/curu/g16A03_MST/g16/l103.exe)

 GradGradGradGradGradGradGradGradGradGradGradGradGradGradGradGradGradGrad
 Berny optimization.
 Initialization pass.
                           ----------------------------
                           !    Initial Parameters    !
                           ! (Angstroms and Degrees)  !
 --------------------------                            --------------------------
 ! Name  Definition              Value          Derivative Info.                !
 --------------------------------------------------------------------------------
 ! R1    R(1,2)                  1.093          estimate D2E/DX2                !
 ! R2    R(1,3)                  1.0929         estimate D2E/DX2                !
 ! R3    R(1,4)                  1.0925         estimate D2E/DX2                !
 ! R4    R(1,5)                  1.4739         estimate D2E/DX2                !
 ! R5    R(5,6)                  0.9999         estimate D2E/DX2                !
 ! R6    R(5,7)                  1.4672         estimate D2E/DX2                !
 ! R7    R(5,38)                 1.0005         estimate D2E/DX2                !
 ! R8    R(7,8)                  1.5503         estimate D2E/DX2                !
 ! R9    R(7,18)                 1.0924         estimate D2E/DX2                !
 ! R10   R(7,19)                 1.5473         estimate D2E/DX2                !
 ! R11   R(8,9)                  1.4201         estimate D2E/DX2                !
 ! R12   R(8,13)                 1.3764         estimate D2E/DX2                !
 ! R13   R(9,10)                 1.4042         estimate D2E/DX2                !
 ! R14   R(9,25)                 1.5794         estimate D2E/DX2                !
 ! R15   R(10,11)                1.3897         estimate D2E/DX2                !
 ! R16   R(10,17)                1.0869         estimate D2E/DX2                !
 ! R17   R(11,12)                1.4002         estimate D2E/DX2                !
 ! R18   R(11,16)                1.0866         estimate D2E/DX2                !
 ! R19   R(12,13)                1.3999         estimate D2E/DX2                !
 ! R20   R(12,15)                1.0869         estimate D2E/DX2                !
 ! R21   R(13,14)                1.0867         estimate D2E/DX2                !
 ! R22   R(19,20)                1.0921         estimate D2E/DX2                !
 ! R23   R(19,21)                1.0921         estimate D2E/DX2                !
 ! R24   R(19,22)                1.5061         estimate D2E/DX2                !
 ! R25   R(22,23)                1.0922         estimate D2E/DX2                !
 ! R26   R(22,24)                1.0924         estimate D2E/DX2                !
 ! R27   R(22,25)                1.5986         estimate D2E/DX2                !
 ! R28   R(25,26)                1.0926         estimate D2E/DX2                !
 ! R29   R(25,27)                1.5681         estimate D2E/DX2                !
 ! R30   R(27,28)                1.3744         estimate D2E/DX2                !
 ! R31   R(27,36)                1.3664         estimate D2E/DX2                !
 ! R32   R(28,29)                1.0869         estimate D2E/DX2                !
 ! R33   R(28,30)                1.3829         estimate D2E/DX2                !
 ! R34   R(30,31)                1.7195         estimate D2E/DX2                !
 ! R35   R(30,32)                1.4204         estimate D2E/DX2                !
 ! R36   R(32,33)                1.7408         estimate D2E/DX2                !
 ! R37   R(32,34)                1.4003         estimate D2E/DX2                !
 ! R38   R(34,35)                1.0867         estimate D2E/DX2                !
 ! R39   R(34,36)                1.4038         estimate D2E/DX2                !
 ! R40   R(36,37)                1.0868         estimate D2E/DX2                !
 ! A1    A(2,1,3)              116.8807         estimate D2E/DX2                !
 ! A2    A(2,1,4)              110.755          estimate D2E/DX2                !
 ! A3    A(2,1,5)              102.1885         estimate D2E/DX2                !
 ! A4    A(3,1,4)              105.8353         estimate D2E/DX2                !
 ! A5    A(3,1,5)              114.5477         estimate D2E/DX2                !
 ! A6    A(4,1,5)              106.261          estimate D2E/DX2                !
 ! A7    A(1,5,6)              108.4102         estimate D2E/DX2                !
 ! A8    A(1,5,7)              114.6677         estimate D2E/DX2                !
 ! A9    A(1,5,38)             108.3964         estimate D2E/DX2                !
 ! A10   A(6,5,7)              108.3536         estimate D2E/DX2                !
 ! A11   A(6,5,38)             108.463          estimate D2E/DX2                !
 ! A12   A(7,5,38)             108.4004         estimate D2E/DX2                !
 ! A13   A(5,7,8)              106.8625         estimate D2E/DX2                !
 ! A14   A(5,7,18)             110.2372         estimate D2E/DX2                !
 ! A15   A(5,7,19)             108.3018         estimate D2E/DX2                !
 ! A16   A(8,7,18)             106.6591         estimate D2E/DX2                !
 ! A17   A(8,7,19)             118.3876         estimate D2E/DX2                !
 ! A18   A(18,7,19)            106.2847         estimate D2E/DX2                !
 ! A19   A(7,8,9)              116.5057         estimate D2E/DX2                !
 ! A20   A(7,8,13)             122.9715         estimate D2E/DX2                !
 ! A21   A(9,8,13)             120.4579         estimate D2E/DX2                !
 ! A22   A(8,9,10)             117.2087         estimate D2E/DX2                !
 ! A23   A(8,9,25)             125.4399         estimate D2E/DX2                !
 ! A24   A(10,9,25)            117.158          estimate D2E/DX2                !
 ! A25   A(9,10,11)            120.5174         estimate D2E/DX2                !
 ! A26   A(9,10,17)            122.155          estimate D2E/DX2                !
 ! A27   A(11,10,17)           117.171          estimate D2E/DX2                !
 ! A28   A(10,11,12)           122.7248         estimate D2E/DX2                !
 ! A29   A(10,11,16)           121.1482         estimate D2E/DX2                !
 ! A30   A(12,11,16)           115.9017         estimate D2E/DX2                !
 ! A31   A(11,12,13)           115.665          estimate D2E/DX2                !
 ! A32   A(11,12,15)           118.6838         estimate D2E/DX2                !
 ! A33   A(13,12,15)           125.6373         estimate D2E/DX2                !
 ! A34   A(8,13,12)            123.1806         estimate D2E/DX2                !
 ! A35   A(8,13,14)            116.9881         estimate D2E/DX2                !
 ! A36   A(12,13,14)           119.8105         estimate D2E/DX2                !
 ! A37   A(7,19,20)            117.9048         estimate D2E/DX2                !
 ! A38   A(7,19,21)            109.0942         estimate D2E/DX2                !
 ! A39   A(7,19,22)            105.7398         estimate D2E/DX2                !
 ! A40   A(20,19,21)           111.7229         estimate D2E/DX2                !
 ! A41   A(20,19,22)           103.236          estimate D2E/DX2                !
 ! A42   A(21,19,22)           108.4622         estimate D2E/DX2                !
 ! A43   A(19,22,23)           113.7779         estimate D2E/DX2                !
 ! A44   A(19,22,24)           116.1409         estimate D2E/DX2                !
 ! A45   A(19,22,25)           112.1406         estimate D2E/DX2                !
 ! A46   A(23,22,24)           100.4422         estimate D2E/DX2                !
 ! A47   A(23,22,25)           108.4855         estimate D2E/DX2                !
 ! A48   A(24,22,25)           104.8325         estimate D2E/DX2                !
 ! A49   A(9,25,22)            106.3319         estimate D2E/DX2                !
 ! A50   A(9,25,26)            110.827          estimate D2E/DX2                !
 ! A51   A(9,25,27)            115.8899         estimate D2E/DX2                !
 ! A52   A(22,25,26)           103.3843         estimate D2E/DX2                !
 ! A53   A(22,25,27)           108.3979         estimate D2E/DX2                !
 ! A54   A(26,25,27)           111.1039         estimate D2E/DX2                !
 ! A55   A(25,27,28)           121.8333         estimate D2E/DX2                !
 ! A56   A(25,27,36)           119.1448         estimate D2E/DX2                !
 ! A57   A(28,27,36)           118.5257         estimate D2E/DX2                !
 ! A58   A(27,28,29)           122.727          estimate D2E/DX2                !
 ! A59   A(27,28,30)           118.1167         estimate D2E/DX2                !
 ! A60   A(29,28,30)           118.5413         estimate D2E/DX2                !
 ! A61   A(28,30,31)           117.0453         estimate D2E/DX2                !
 ! A62   A(28,30,32)           123.4602         estimate D2E/DX2                !
 ! A63   A(31,30,32)           119.4519         estimate D2E/DX2                !
 ! A64   A(30,32,33)           122.1916         estimate D2E/DX2                !
 ! A65   A(30,32,34)           117.3339         estimate D2E/DX2                !
 ! A66   A(33,32,34)           118.0323         estimate D2E/DX2                !
 ! A67   A(32,34,35)           122.2435         estimate D2E/DX2                !
 ! A68   A(32,34,36)           117.0162         estimate D2E/DX2                !
 ! A69   A(35,34,36)           120.6794         estimate D2E/DX2                !
 ! A70   A(27,36,34)           124.3971         estimate D2E/DX2                !
 ! A71   A(27,36,37)           118.0825         estimate D2E/DX2                !
 ! A72   A(34,36,37)           117.1099         estimate D2E/DX2                !
 ! D1    D(2,1,5,6)            -55.0078         estimate D2E/DX2                !
 ! D2    D(2,1,5,7)             66.1945         estimate D2E/DX2                !
 ! D3    D(2,1,5,38)          -172.5533         estimate D2E/DX2                !
 ! D4    D(3,1,5,6)            177.6065         estimate D2E/DX2                !
 ! D5    D(3,1,5,7)            -61.1912         estimate D2E/DX2                !
 ! D6    D(3,1,5,38)            60.0611         estimate D2E/DX2                !
 ! D7    D(4,1,5,6)             61.1379         estimate D2E/DX2                !
 ! D8    D(4,1,5,7)           -177.6598         estimate D2E/DX2                !
 ! D9    D(4,1,5,38)           -56.4076         estimate D2E/DX2                !
 ! D10   D(1,5,7,8)             59.9384         estimate D2E/DX2                !
 ! D11   D(1,5,7,18)           175.4701         estimate D2E/DX2                !
 ! D12   D(1,5,7,19)           -68.6351         estimate D2E/DX2                !
 ! D13   D(6,5,7,8)           -178.8283         estimate D2E/DX2                !
 ! D14   D(6,5,7,18)           -63.2966         estimate D2E/DX2                !
 ! D15   D(6,5,7,19)            52.5982         estimate D2E/DX2                !
 ! D16   D(38,5,7,8)           -61.3117         estimate D2E/DX2                !
 ! D17   D(38,5,7,18)           54.22           estimate D2E/DX2                !
 ! D18   D(38,5,7,19)          170.1149         estimate D2E/DX2                !
 ! D19   D(5,7,8,9)           -129.2759         estimate D2E/DX2                !
 ! D20   D(5,7,8,13)            47.8036         estimate D2E/DX2                !
 ! D21   D(18,7,8,9)           112.8205         estimate D2E/DX2                !
 ! D22   D(18,7,8,13)          -70.1            estimate D2E/DX2                !
 ! D23   D(19,7,8,9)            -6.8107         estimate D2E/DX2                !
 ! D24   D(19,7,8,13)          170.2688         estimate D2E/DX2                !
 ! D25   D(5,7,19,20)           51.0104         estimate D2E/DX2                !
 ! D26   D(5,7,19,21)          -77.7836         estimate D2E/DX2                !
 ! D27   D(5,7,19,22)          165.7461         estimate D2E/DX2                !
 ! D28   D(8,7,19,20)          -70.7278         estimate D2E/DX2                !
 ! D29   D(8,7,19,21)          160.4783         estimate D2E/DX2                !
 ! D30   D(8,7,19,22)           44.008          estimate D2E/DX2                !
 ! D31   D(18,7,19,20)         169.4472         estimate D2E/DX2                !
 ! D32   D(18,7,19,21)          40.6532         estimate D2E/DX2                !
 ! D33   D(18,7,19,22)         -75.8171         estimate D2E/DX2                !
 ! D34   D(7,8,9,10)           176.1754         estimate D2E/DX2                !
 ! D35   D(7,8,9,25)            -9.0394         estimate D2E/DX2                !
 ! D36   D(13,8,9,10)           -0.9823         estimate D2E/DX2                !
 ! D37   D(13,8,9,25)          173.8029         estimate D2E/DX2                !
 ! D38   D(7,8,13,12)         -178.1357         estimate D2E/DX2                !
 ! D39   D(7,8,13,14)            0.1974         estimate D2E/DX2                !
 ! D40   D(9,8,13,12)           -1.1677         estimate D2E/DX2                !
 ! D41   D(9,8,13,14)          177.1653         estimate D2E/DX2                !
 ! D42   D(8,9,10,11)            4.5648         estimate D2E/DX2                !
 ! D43   D(8,9,10,17)         -170.757          estimate D2E/DX2                !
 ! D44   D(25,9,10,11)        -170.6612         estimate D2E/DX2                !
 ! D45   D(25,9,10,17)          14.017          estimate D2E/DX2                !
 ! D46   D(8,9,25,22)          -13.0201         estimate D2E/DX2                !
 ! D47   D(8,9,25,26)           98.6674         estimate D2E/DX2                !
 ! D48   D(8,9,25,27)         -133.5373         estimate D2E/DX2                !
 ! D49   D(10,9,25,22)         161.7674         estimate D2E/DX2                !
 ! D50   D(10,9,25,26)         -86.545          estimate D2E/DX2                !
 ! D51   D(10,9,25,27)          41.2502         estimate D2E/DX2                !
 ! D52   D(9,10,11,12)          -6.2966         estimate D2E/DX2                !
 ! D53   D(9,10,11,16)         179.3831         estimate D2E/DX2                !
 ! D54   D(17,10,11,12)        169.2519         estimate D2E/DX2                !
 ! D55   D(17,10,11,16)         -5.0684         estimate D2E/DX2                !
 ! D56   D(10,11,12,13)          3.9768         estimate D2E/DX2                !
 ! D57   D(10,11,12,15)       -177.3032         estimate D2E/DX2                !
 ! D58   D(16,11,12,13)        178.5739         estimate D2E/DX2                !
 ! D59   D(16,11,12,15)         -2.7061         estimate D2E/DX2                !
 ! D60   D(11,12,13,8)          -0.2473         estimate D2E/DX2                !
 ! D61   D(11,12,13,14)       -178.5354         estimate D2E/DX2                !
 ! D62   D(15,12,13,8)        -178.8656         estimate D2E/DX2                !
 ! D63   D(15,12,13,14)          2.8463         estimate D2E/DX2                !
 ! D64   D(7,19,22,23)         167.4142         estimate D2E/DX2                !
 ! D65   D(7,19,22,24)          51.5107         estimate D2E/DX2                !
 ! D66   D(7,19,22,25)         -68.9903         estimate D2E/DX2                !
 ! D67   D(20,19,22,23)        -68.1283         estimate D2E/DX2                !
 ! D68   D(20,19,22,24)        175.9682         estimate D2E/DX2                !
 ! D69   D(20,19,22,25)         55.4672         estimate D2E/DX2                !
 ! D70   D(21,19,22,23)         50.5164         estimate D2E/DX2                !
 ! D71   D(21,19,22,24)        -65.3871         estimate D2E/DX2                !
 ! D72   D(21,19,22,25)        174.1119         estimate D2E/DX2                !
 ! D73   D(19,22,25,9)          53.7557         estimate D2E/DX2                !
 ! D74   D(19,22,25,26)        -63.0242         estimate D2E/DX2                !
 ! D75   D(19,22,25,27)        178.9938         estimate D2E/DX2                !
 ! D76   D(23,22,25,9)        -179.7318         estimate D2E/DX2                !
 ! D77   D(23,22,25,26)         63.4882         estimate D2E/DX2                !
 ! D78   D(23,22,25,27)        -54.4937         estimate D2E/DX2                !
 ! D79   D(24,22,25,9)         -73.0998         estimate D2E/DX2                !
 ! D80   D(24,22,25,26)        170.1202         estimate D2E/DX2                !
 ! D81   D(24,22,25,27)         52.1383         estimate D2E/DX2                !
 ! D82   D(9,25,27,28)          51.714          estimate D2E/DX2                !
 ! D83   D(9,25,27,36)        -120.0834         estimate D2E/DX2                !
 ! D84   D(22,25,27,28)        -67.6821         estimate D2E/DX2                !
 ! D85   D(22,25,27,36)        120.5204         estimate D2E/DX2                !
 ! D86   D(26,25,27,28)        179.3721         estimate D2E/DX2                !
 ! D87   D(26,25,27,36)          7.5747         estimate D2E/DX2                !
 ! D88   D(25,27,28,29)          5.2881         estimate D2E/DX2                !
 ! D89   D(25,27,28,30)        176.1575         estimate D2E/DX2                !
 ! D90   D(36,27,28,29)        177.1345         estimate D2E/DX2                !
 ! D91   D(36,27,28,30)        -11.9961         estimate D2E/DX2                !
 ! D92   D(25,27,36,34)       -175.6363         estimate D2E/DX2                !
 ! D93   D(25,27,36,37)         -3.2185         estimate D2E/DX2                !
 ! D94   D(28,27,36,34)         12.2936         estimate D2E/DX2                !
 ! D95   D(28,27,36,37)       -175.2886         estimate D2E/DX2                !
 ! D96   D(27,28,30,31)       -176.9478         estimate D2E/DX2                !
 ! D97   D(27,28,30,32)          5.4436         estimate D2E/DX2                !
 ! D98   D(29,28,30,31)         -5.6886         estimate D2E/DX2                !
 ! D99   D(29,28,30,32)        176.7029         estimate D2E/DX2                !
 ! D100  D(28,30,32,33)        163.6204         estimate D2E/DX2                !
 ! D101  D(28,30,32,34)          1.7162         estimate D2E/DX2                !
 ! D102  D(31,30,32,33)        -13.9336         estimate D2E/DX2                !
 ! D103  D(31,30,32,34)       -175.8377         estimate D2E/DX2                !
 ! D104  D(30,32,34,35)        175.1116         estimate D2E/DX2                !
 ! D105  D(30,32,34,36)         -2.0678         estimate D2E/DX2                !
 ! D106  D(33,32,34,35)         12.4369         estimate D2E/DX2                !
 ! D107  D(33,32,34,36)       -164.7426         estimate D2E/DX2                !
 ! D108  D(32,34,36,27)         -4.9519         estimate D2E/DX2                !
 ! D109  D(32,34,36,37)       -177.4371         estimate D2E/DX2                !
 ! D110  D(35,34,36,27)        177.8219         estimate D2E/DX2                !
 ! D111  D(35,34,36,37)          5.3367         estimate D2E/DX2                !
 --------------------------------------------------------------------------------
 Trust Radius=3.00D-01 FncErr=1.00D-07 GrdErr=1.00D-06 EigMax=2.50D+02 EigMin=1.00D-04
 Number of steps in this run=    228 maximum allowed number of steps=    228.
 GradGradGradGradGradGradGradGradGradGradGradGradGradGradGradGradGradGrad

 Leave Link  103 at Mon Jul 12 11:17:56 2021, MaxMem=   104857600 cpu:               0.0 elap:               0.0
 (Enter /dades/curu/g16A03_MST/g16/l202.exe)
                          Input orientation:                          
 ---------------------------------------------------------------------
 Center     Atomic      Atomic             Coordinates (Angstroms)
 Number     Number       Type             X           Y           Z
 ---------------------------------------------------------------------
      1          6           0       -3.331000   -0.556000   -2.039000
      2          1           0       -3.213000   -1.546000   -1.591000
      3          1           0       -2.527000   -0.211000   -2.694000
      4          1           0       -4.244000   -0.508000   -2.637000
      5          7           0       -3.566000    0.294000   -0.858000
      6          1           0       -4.340000   -0.081000   -0.348000
      7          6           0       -2.422000    0.405000    0.054000
      8          6           0       -1.254000    1.016000   -0.762000
      9          6           0       -0.012000    0.330000   -0.702000
     10          6           0        1.033000    0.823000   -1.500000
     11          6           0        0.869000    1.991000   -2.235000
     12          6           0       -0.357000    2.661000   -2.328000
     13          6           0       -1.399000    2.128000   -1.560000
     14          1           0       -2.386000    2.581000   -1.600000
     15          1           0       -0.422000    3.545000   -2.957000
     16          1           0        1.674000    2.387000   -2.848000
     17          1           0        1.966000    0.281000   -1.631000
     18          1           0       -2.646000    1.111000    0.857000
     19          6           0       -2.206000   -0.969000    0.732000
     20          1           0       -2.143000   -1.851000    0.091000
     21          1           0       -2.947000   -1.097000    1.524000
     22          6           0       -0.840000   -0.903000    1.363000
     23          1           0       -0.637000   -1.719000    2.060000
     24          1           0       -0.648000   -0.041000    2.006000
     25          6           0        0.327000   -0.867000    0.271000
     26          1           0        0.223000   -1.826000   -0.242000
     27          6           0        1.702000   -0.773000    1.019000
     28          6           0        2.067000    0.347000    1.727000
     29          1           0        1.398000    1.190000    1.879000
     30          6           0        3.261000    0.317000    2.424000
     31         17           0        3.652000    1.702000    3.365000
     32          6           0        4.180000   -0.764000    2.357000
     33         17           0        5.830000   -0.613000    2.891000
     34          6           0        3.858000   -1.830000    1.508000
     35          1           0        4.538000   -2.660000    1.336000
     36          6           0        2.631000   -1.757000    0.830000
     37          1           0        2.360000   -2.603000    0.204000
     38          1           0       -3.809000    1.212000   -1.173000
 ---------------------------------------------------------------------
                    Distance matrix (angstroms):
                    1          2          3          4          5
     1  C    0.000000
     2  H    1.093036   0.000000
     3  H    1.092916   1.862641   0.000000
     4  H    1.092464   1.798477   1.743430   0.000000
     5  N    1.473936   2.011839   2.169203   2.065848   0.000000
     6  H    2.025632   2.227421   2.967758   2.330465   0.999900
     7  C    2.475975   2.671724   2.818153   3.375609   1.467243
     8  C    2.901007   3.329980   2.618909   3.844256   2.424014
     9  C    3.686235   3.815245   3.253609   4.728244   3.557604
    10  C    4.608325   4.863019   3.894662   5.559771   4.673629
    11  C    4.915854   5.439470   4.073365   5.705206   4.944205
    12  C    4.390591   5.137972   3.618182   5.024620   4.249855
    13  C    3.341545   4.097540   2.833595   4.025227   2.924423
    14  H    3.305528   4.209054   3.001996   3.750927   2.678308
    15  H    5.111087   5.964387   4.313668   5.580044   4.985934
    16  H    5.862231   6.397758   4.941834   6.591530   5.983172
    17  H    5.378219   5.491955   4.643176   6.340241   5.585761
    18  H    3.411001   3.657026   3.790969   4.169269   2.110714
    19  C    3.019045   2.596788   3.523504   3.964357   2.443945
    20  H    2.761389   2.016693   3.254732   3.695921   2.743457
    21  H    3.624239   3.158414   4.330464   4.398074   2.827007
    22  C    4.230732   3.843266   4.447930   5.267185   3.714394
    23  H    5.041032   4.471633   5.333543   6.044732   4.598471
    24  H    4.881162   4.667190   5.064538   5.891244   4.102371
    25  C    4.337486   4.057054   4.167359   5.429492   4.216398
    26  H    4.180075   3.701932   4.022814   5.237102   4.385245
    27  C    5.893178   5.618439   5.655674   6.985090   5.693280
    28  C    6.643536   6.516976   6.400113   7.720378   6.198042
    29  H    6.384566   6.386542   6.187144   7.423586   5.738927
    30  C    8.008431   7.842428   7.744266   9.089520   7.574958
    31  Cl   9.113949   9.068609   8.862905  10.161443   8.480313
    32  C    8.705355   8.417522   8.414408   9.796395   8.453171
    33  Cl  10.403464  10.135811  10.059487  11.491531  10.156893
    34  C    8.117020   7.725510   7.813206   9.196255   8.076206
    35  H    8.816950   8.359804   8.494276   9.876202   8.900257
    36  C    6.724508   6.329147   6.435344   7.800366   6.742311
    37  H    6.450484   5.949588   6.164644   7.488199   6.681162
    38  H    2.025898   2.852456   2.445791   2.300200   1.000499
                    6          7          8          9         10
     6  H    0.000000
     7  C    2.019040   0.000000
     8  C    3.301242   1.550291   0.000000
     9  C    4.361860   2.526907   1.420127   0.000000
    10  C    5.568972   3.811386   2.410863   1.404236   0.000000
    11  C    5.915035   4.311102   2.761790   2.425937   1.389728
    12  C    5.225251   3.876556   2.441923   2.862946   2.448658
    13  C    3.872739   2.572985   1.376362   2.427496   2.760661
    14  H    3.531553   2.733494   2.105444   3.392533   3.845793
    15  H    5.941842   4.788081   3.450520   3.948335   3.413086
    16  H    6.964856   5.396957   3.847625   3.417479   2.161962
    17  H    6.445368   4.702036   3.415229   2.185847   1.086929
    18  H    2.396357   1.092438   2.137253   3.158860   4.378748
    19  C    2.551255   1.547325   2.660557   2.925302   4.322523
    20  H    2.855246   2.273488   3.120516   3.150678   4.446182
    21  H    2.545013   2.166225   3.543560   3.950396   5.354566
    22  C    3.981608   2.434557   2.893023   2.543639   3.831967
    23  H    4.711021   3.423688   3.978014   3.495378   4.682335
    24  H    4.378788   2.675125   3.024287   2.806314   3.983001
    25  C    4.773033   3.036787   2.666897   1.579386   2.547740
    26  H    4.886433   3.472895   3.244826   2.217016   3.042345
    27  C    6.233243   4.396167   3.887212   2.667629   3.056164
    28  C    6.748219   4.790972   4.203775   3.197276   3.421880
    29  H    6.284872   4.305723   3.746767   3.064190   3.418414
    30  C    8.100468   6.158014   5.569957   4.525989   4.540682
    31  Cl   8.990969   7.038353   6.447601   5.643383   5.594643
    32  C    8.965150   7.089201   6.513441   5.303506   5.224809
    33  Cl  10.686582   8.785237   8.135177   6.922995   6.659894
    34  C    8.585508   6.822590   6.275760   4.952434   4.905823
    35  H    9.397126   7.712286   7.173691   5.813437   5.697298
    36  C    7.265776   5.550606   5.031622   3.699735   3.826082
    37  H    7.180194   5.651379   5.204932   3.879395   4.049941
    38  H    1.623094   2.020036   2.595258   3.926445   4.868595
                   11         12         13         14         15
    11  C    0.000000
    12  C    1.400223   0.000000
    13  C    2.370278   1.399885   0.000000
    14  H    3.368434   2.157134   1.086728   0.000000
    15  H    2.145433   1.086886   2.216760   2.574498   0.000000
    16  H    1.086559   2.114341   3.342058   4.251910   2.397094
    17  H    2.119511   3.398020   3.839228   4.922486   4.256115
    18  H    4.763411   4.217374   2.903651   2.874952   5.041540
    19  C    5.198107   5.095027   3.936486   4.251250   6.096521
    20  H    5.407715   5.422131   4.371702   4.749858   6.431871
    21  H    6.182854   5.972317   4.723133   4.858166   6.928431
    22  C    4.923568   5.153529   4.247749   4.827809   6.214646
    23  H    5.871896   6.206234   5.337083   5.911396   7.275040
    24  H    4.941295   5.115568   4.240863   4.785265   6.127140
    25  C    3.839527   4.435024   3.911734   4.769666   5.517855
    26  H    4.354177   4.982064   4.472373   5.298367   6.052676
    27  C    4.349954   5.218644   4.968223   5.900866   6.242201
    28  C    4.453693   5.260551   5.097988   5.990734   6.193721
    29  H    4.224504   4.789855   4.530979   5.325127   5.678496
    30  C    5.498202   6.416055   6.392775   7.294305   7.275963
    31  Cl   6.260081   7.028656   7.067510   7.866467   7.743501
    32  C    6.295968   7.366425   7.404849   8.364163   8.245270
    33  Cl   7.593959   8.731323   8.920926   9.893097   9.517120
    34  C    6.127333   7.256046   7.260471   8.252522   8.194221
    35  H    6.917037   8.105490   8.158415   9.166785   9.029589
    36  C    5.152317   6.198373   6.086561   7.063528   7.195372
    37  H    5.410789   6.442267   6.294771   7.256224   7.451802
    38  H    4.859873   3.917899   2.607091   2.020252   4.483003
                   16         17         18         19         20
    16  H    0.000000
    17  H    2.449814   0.000000
    18  H    5.832461   5.305619   0.000000
    19  C    6.255680   4.954983   2.129701   0.000000
    20  H    6.416218   4.939088   3.100518   1.092142   0.000000
    21  H    7.253019   5.999206   2.326103   1.092121   1.807877
    22  C    5.905660   4.270776   2.752066   1.506145   2.052924
    23  H    6.803559   4.939544   3.673172   2.188114   2.482422
    24  H    5.903235   4.490484   2.576686   2.216218   3.029579
    25  C    4.704369   2.760766   3.618647   2.576628   2.664874
    26  H    5.161977   3.067054   4.250286   2.753755   2.389450
    27  C    4.994004   2.864108   4.741393   3.923423   4.099670
    28  C    5.024607   3.360167   4.853140   4.580438   5.023127
    29  H    4.884006   3.670014   4.171889   4.354963   4.998330
    30  C    5.881960   4.256917   6.162676   5.865556   6.272665
    31  Cl   6.556148   5.460939   6.804715   6.955796   7.544860
    32  C    6.580339   4.679526   7.236014   6.592696   6.804164
    33  Cl   7.694703   6.014833   8.885489   8.328584   8.540572
    34  C    6.444197   4.229575   7.167656   6.173783   6.166063
    35  H    7.154059   4.905890   8.127714   6.978956   6.843995
    36  C    5.622835   3.263769   6.006070   4.901746   4.831773
    37  H    5.889431   3.440918   6.267395   4.878227   4.566758
    38  H    5.852311   5.867465   2.341724   3.309894   3.708803
                   21         22         23         24         25
    21  H    0.000000
    22  C    2.122029   0.000000
    23  H    2.451587   1.092188   0.000000
    24  H    2.575434   1.092409   1.678905   0.000000
    25  C    3.513116   1.598640   2.203570   2.154791   0.000000
    26  H    3.701229   2.134929   2.459726   2.999728   1.092550
    27  C    4.687558   2.568463   2.729381   2.651885   1.568109
    28  C    5.221737   3.185223   3.419190   2.756739   2.573195
    29  H    4.922948   3.107338   3.554753   2.391152   2.822048
    30  C    6.430292   4.408211   4.412731   3.947552   3.826960
    31  Cl   7.400708   5.565258   5.639307   4.834763   5.218067
    32  C    7.183238   5.119351   4.919728   4.894437   4.382649
    33  Cl   8.895992   6.848926   6.613311   6.563147   6.100158
    34  C    6.844382   4.790778   4.530127   4.873660   3.863353
    35  H    7.648761   5.657797   5.309452   5.848304   4.699106
    36  C    5.659622   3.614035   3.492015   3.883230   2.532390
    37  H    5.672273   3.804377   3.634309   4.342708   2.674187
    38  H    3.653537   4.440662   5.394871   4.654887   4.849111
                   26         27         28         29         30
    26  H    0.000000
    27  C    2.210514   0.000000
    28  C    3.463990   1.374369   0.000000
    29  H    3.869822   2.164575   1.086883   0.000000
    30  C    4.574871   2.364869   1.382876   2.128362   0.000000
    31  Cl   6.100432   3.928338   2.651659   2.747882   1.719473
    32  C    4.851855   2.816169   2.469006   3.433092   1.420426
    33  Cl   6.536475   4.535457   4.054216   4.890560   2.771777
    34  C    4.034320   2.450450   2.827538   3.912754   2.409372
    35  H    4.669568   3.421133   3.911620   4.997694   3.417163
    36  C    2.636742   1.366389   2.355742   3.362365   2.690578
    37  H    2.317200   2.108575   3.332848   4.256515   3.777115
    38  H    5.133540   6.254295   6.609508   6.035564   7.982752
                   31         32         33         34         35
    31  Cl   0.000000
    32  C    2.715880   0.000000
    33  Cl   3.213656   1.740821   0.000000
    34  C    3.995736   1.400300   2.698622   0.000000
    35  H    4.891716   2.182984   2.877064   1.086685   0.000000
    36  C    4.408327   2.391062   3.973671   1.403760   2.169814
    37  H    5.494926   3.365966   4.818814   2.131185   2.455271
    38  H    8.746432   8.954864  10.618712   8.673201   9.537289
                   36         37         38
    36  C    0.000000
    37  H    1.086753   0.000000
    38  H    7.368892   7.382880   0.000000
 Stoichiometry    C17H18Cl2N(1+)
 Framework group  C1[X(C17H18Cl2N)]
 Deg. of freedom   108
 Full point group                 C1      NOp   1
 Largest Abelian subgroup         C1      NOp   1
 Largest concise Abelian subgroup C1      NOp   1
                         Standard orientation:                         
 ---------------------------------------------------------------------
 Center     Atomic      Atomic             Coordinates (Angstroms)
 Number     Number       Type             X           Y           Z
 ---------------------------------------------------------------------
      1          6           0       -5.027326   -0.923933   -0.744722
      2          1           0       -4.616609   -1.910068   -0.976187
      3          1           0       -4.686514   -0.089270   -1.362501
      4          1           0       -6.116756   -0.929512   -0.825894
      5          7           0       -4.721099   -0.788381    0.690665
      6          1           0       -5.105059   -1.576655    1.171289
      7          6           0       -3.290606   -0.706513    1.006558
      8          6           0       -2.738107    0.540799    0.270107
      9          6           0       -1.574216    0.346453   -0.520051
     10          6           0       -1.108783    1.446147   -1.258916
     11          6           0       -1.716897    2.689385   -1.132815
     12          6           0       -2.881870    2.889583   -0.382226
     13          6           0       -3.356030    1.769956    0.311522
     14          1           0       -4.269052    1.843482    0.896299
     15          1           0       -3.326970    3.880989   -0.364293
     16          1           0       -1.358931    3.549453   -1.692059
     17          1           0       -0.319208    1.352701   -2.000032
     18          1           0       -3.149179   -0.527608    2.074927
     19          6           0       -2.647605   -2.081898    0.708094
     20          1           0       -2.832620   -2.531163   -0.270018
     21          1           0       -2.885267   -2.771341    1.521061
     22          6           0       -1.160204   -1.845074    0.703019
     23          1           0       -0.568130   -2.762691    0.720386
     24          1           0       -0.751960   -1.329495    1.575300
     25          6           0       -0.694514   -0.964966   -0.547657
     26          1           0       -0.953833   -1.588669   -1.406386
     27          6           0        0.856080   -0.751436   -0.452642
     28          6           0        1.423362    0.010828    0.540351
     29          1           0        0.845958    0.435919    1.357184
     30          6           0        2.803139    0.081975    0.599497
     31         17           0        3.484844    0.976808    1.899935
     32          6           0        3.659681   -0.497491   -0.374241
     33         17           0        5.337177   -0.054149   -0.515345
     34          6           0        3.055082   -1.140013   -1.461655
     35          1           0        3.630959   -1.542005   -2.290902
     36          6           0        1.652388   -1.193898   -1.471042
     37          1           0        1.182840   -1.729268   -2.291979
     38          1           0       -5.167772    0.039238    1.032028
 ---------------------------------------------------------------------
 Rotational constants (GHZ):           0.5938328           0.1391865           0.1314833
 Leave Link  202 at Mon Jul 12 11:17:56 2021, MaxMem=   104857600 cpu:               0.0 elap:               0.0
 (Enter /dades/curu/g16A03_MST/g16/l301.exe)
 Standard basis: 6-31G(d) (6D, 7F)
 Ernie: Thresh=  0.10000D-02 Tol=  0.10000D-05 Strict=F.
 There are   344 symmetry adapted cartesian basis functions of A   symmetry.
 There are   344 symmetry adapted basis functions of A   symmetry.
   344 basis functions,   680 primitive gaussians,   344 cartesian basis functions
    80 alpha electrons       80 beta electrons
       nuclear repulsion energy      1753.7479129550 Hartrees.
 IExCor=  402 DFT=T Ex+Corr=B3LYP ExCW=0 ScaHFX=  0.200000
 ScaDFX=  0.800000  0.720000  1.000000  0.810000 ScalE2=  1.000000  1.000000
 IRadAn=      5 IRanWt=     -1 IRanGd=            0 ICorTp=0 IEmpDi=  4
 NAtoms=   38 NActive=   38 NUniq=   38 SFac= 1.00D+00 NAtFMM=   60 NAOKFM=F Big=F
 Integral buffers will be    131072 words long.
 Raffenetti 2 integral format.
 Two-electron integral symmetry is turned on.
 Using the following non-standard input for PCM:
 MSTModel=DFT cav MSTCharged
 --- end of non-standard input.
 MST model for solvation energy: B3LYP parametrization.
 MST cavity parameters:
 ISph   IAn     Re0     Alpha   Atom Type   QCorr
 ------------------------------------------------
   1      6     1.50     1.50      CN+        F
   2      1     1.20     1.50      CN+        F
   3      1     1.20     1.50      CN+        F
   4      1     1.20     1.50      CN+        F
   5      7     1.50     1.15      NH+        T
   6      1     0.90     1.15      NH+        T
   7      6     1.50     1.50      CN+        F
   8      6     1.50     1.50      C          F
   9      6     1.50     1.50      C          F
  10      6     1.50     1.50      CH         F
  11      6     1.50     1.50      CH         F
  12      6     1.50     1.50      CH         F
  13      6     1.50     1.50      CH         F
  14      1     1.20     1.50      CH         F
  15      1     1.20     1.50      CH         F
  16      1     1.20     1.50      CH         F
  17      1     1.20     1.50      CH         F
  18      1     1.20     1.50      CN+        F
  19      6     1.50     1.50      CH2        F
  20      1     1.20     1.50      CH2        F
  21      1     1.20     1.50      CH2        F
  22      6     1.50     1.50      CH2        F
  23      1     1.20     1.50      CH2        F
  24      1     1.20     1.50      CH2        F
  25      6     1.50     1.50      CH         F
  26      1     1.20     1.50      CH         F
  27      6     1.50     1.50      C          F
  28      6     1.50     1.50      CH         F
  29      1     1.20     1.50      CH         F
  30      6     1.50     1.50      C          F
  31     17     1.80     1.50      Cl         F
  32      6     1.50     1.50      C          F
  33     17     1.80     1.50      Cl         F
  34      6     1.50     1.50      CH         F
  35      1     1.20     1.50      CH         F
  36      6     1.50     1.50      CH         F
  37      1     1.20     1.50      CH         F
  38      1     0.90     1.15      NH+        T
 ------------------------------------------------------------------------------
 Polarizable Continuum Model (PCM)
 =================================
 Model                : PCM.
 Atomic radii         : MST.
 Polarization charges : Total charges.
 Charge compensation  : None.
 Solution method      : On-the-fly selection.
 Cavity type          : Scaled VdW (van der Waals Surface) (Alpha=1.500).
 Cavity algorithm     : GePol (No added spheres)
                        Default sphere list used, NSphG=   38.
                        Lebedev-Laikov grids with approx.  5.0 points / Ang**2.
                        Smoothing algorithm: York/Karplus (Gamma=1.0000).
                        Polarization charges: spherical gaussians, with
                                              point-specific exponents (IZeta= 3).
                        Self-potential: point-specific (ISelfS= 7).
                        Self-field    : sphere-specific E.n sum rule (ISelfD= 2).
 1st derivatives      : Analytical E(r).r(x)/FMM algorithm (CHGder, D1EAlg=3).
                        Cavity 1st derivative terms included.
 Solvent              : n-Octanol, Eps=   9.862900 Eps(inf)=   2.043470
 ------------------------------------------------------------------------------
 GePol: Number of generator spheres                  =      38
 GePol: Total number of spheres                      =      38
 GePol: Number of exposed spheres                    =      38 (100.00%)
 GePol: Number of points                             =    3642
 GePol: Average weight of points                     =       0.11
 GePol: Minimum weight of points                     =   0.63D-11
 GePol: Maximum weight of points                     =    0.21373
 GePol: Number of points with low weight             =     201
 GePol: Fraction of low-weight points (<1% of avg)   =       5.52%
 GePol: Cavity surface area                          =    407.026 Ang**2
 GePol: Cavity volume                                =    499.903 Ang**3
 Surface areas from nonelectrostatic (unscaled) cavity and vdw tensions:
 Sphere =    1 Type =  CN+ Surf =        5.209 Tension =       -0.227
 Sphere =    2 Type =  CN+ Surf =        8.479 Tension =       -0.227
 Sphere =    3 Type =  CN+ Surf =        9.902 Tension =       -0.227
 Sphere =    4 Type =  CN+ Surf =       10.033 Tension =       -0.227
 Sphere =    5 Type =  NH+ Surf =        7.258 Tension =       -0.274
 Sphere =    6 Type =  NH+ Surf =        3.841 Tension =       -0.274
 Sphere =    7 Type =  CN+ Surf =        2.579 Tension =       -0.227
 Sphere =    8 Type =  C   Surf =        5.572 Tension =       -0.205
 Sphere =    9 Type =  C   Surf =        6.439 Tension =       -0.205
 Sphere =   10 Type =  CH  Surf =        7.716 Tension =       -0.195
 Sphere =   11 Type =  CH  Surf =        7.683 Tension =       -0.195
 Sphere =   12 Type =  CH  Surf =        7.965 Tension =       -0.195
 Sphere =   13 Type =  CH  Surf =        7.558 Tension =       -0.195
 Sphere =   14 Type =  CH  Surf =        9.800 Tension =       -0.195
 Sphere =   15 Type =  CH  Surf =       10.259 Tension =       -0.195
 Sphere =   16 Type =  CH  Surf =       10.194 Tension =       -0.195
 Sphere =   17 Type =  CH  Surf =       10.221 Tension =       -0.195
 Sphere =   18 Type =  CN+ Surf =        9.848 Tension =       -0.227
 Sphere =   19 Type =  CH2 Surf =        3.654 Tension =       -0.194
 Sphere =   20 Type =  CH2 Surf =        8.540 Tension =       -0.194
 Sphere =   21 Type =  CH2 Surf =       10.019 Tension =       -0.194
 Sphere =   22 Type =  CH2 Surf =        3.285 Tension =       -0.194
 Sphere =   23 Type =  CH2 Surf =        9.995 Tension =       -0.194
 Sphere =   24 Type =  CH2 Surf =        9.652 Tension =       -0.194
 Sphere =   25 Type =  CH  Surf =        3.219 Tension =       -0.195
 Sphere =   26 Type =  CH  Surf =        9.558 Tension =       -0.195
 Sphere =   27 Type =  C   Surf =        6.065 Tension =       -0.205
 Sphere =   28 Type =  CH  Surf =        7.364 Tension =       -0.195
 Sphere =   29 Type =  CH  Surf =        9.802 Tension =       -0.195
 Sphere =   30 Type =  C   Surf =        5.179 Tension =       -0.205
 Sphere =   31 Type =  Cl  Surf =       30.867 Tension =       -0.163
 Sphere =   32 Type =  C   Surf =        5.410 Tension =       -0.205
 Sphere =   33 Type =  Cl  Surf =       31.302 Tension =       -0.163
 Sphere =   34 Type =  CH  Surf =        7.612 Tension =       -0.195
 Sphere =   35 Type =  CH  Surf =       10.155 Tension =       -0.195
 Sphere =   36 Type =  CH  Surf =        7.455 Tension =       -0.195
 Sphere =   37 Type =  CH  Surf =        9.917 Tension =       -0.195
 Sphere =   38 Type =  NH+ Surf =        3.643 Tension =       -0.274
 PCM non-electrostatic energy =        -0.0201888156 Hartrees.
 Nuclear repulsion after PCM non-electrostatic terms =     1753.7277241394 Hartrees.
 Leave Link  301 at Mon Jul 12 11:17:56 2021, MaxMem=   104857600 cpu:               0.2 elap:               0.1
 (Enter /dades/curu/g16A03_MST/g16/l302.exe)
 NPDir=0 NMtPBC=     1 NCelOv=     1 NCel=       1 NClECP=     1 NCelD=      1
         NCelK=      1 NCelE2=     1 NClLst=     1 CellRange=     0.0.
 One-electron integrals computed using PRISM.
 One-electron integral symmetry used in STVInt
 NBasis=   344 RedAO= T EigKep=  4.23D-04  NBF=   344
 NBsUse=   344 1.00D-06 EigRej= -1.00D+00 NBFU=   344
 Precomputing XC quadrature grid using
 IXCGrd= 4 IRadAn=           5 IRanWt=          -1 IRanGd=           0 AccXCQ= 0.00D+00.
 Generated NRdTot=       0 NPtTot=           0 NUsed=           0 NTot=          32
 NSgBfM=   340   340   340   340   340 MxSgAt=    38 MxSgA2=    38.
 Leave Link  302 at Mon Jul 12 11:17:57 2021, MaxMem=   104857600 cpu:               5.7 elap:               1.5
 (Enter /dades/curu/g16A03_MST/g16/l303.exe)
 DipDrv:  MaxL=1.
 Leave Link  303 at Mon Jul 12 11:17:57 2021, MaxMem=   104857600 cpu:               0.1 elap:               0.1
 (Enter /dades/curu/g16A03_MST/g16/l401.exe)
 ExpMin= 1.43D-01 ExpMax= 2.52D+04 ExpMxC= 3.78D+03 IAcc=3 IRadAn=         5 AccDes= 0.00D+00
 Harris functional with IExCor=  402 and IRadAn=       5 diagonalized for initial guess.
 HarFok:  IExCor=  402 AccDes= 0.00D+00 IRadAn=         5 IDoV= 1 UseB2=F ITyADJ=14
 ICtDFT=  3500011 ScaDFX=  1.000000  1.000000  1.000000  1.000000
 FoFCou: FMM=F IPFlag=           0 FMFlag=      100000 FMFlg1=           0
         NFxFlg=           0 DoJE=T BraDBF=F KetDBF=T FulRan=T
         wScrn=  0.000000 ICntrl=       500 IOpCl=  0 I1Cent=   200000004 NGrid=           0
         NMat0=    1 NMatS0=      1 NMatT0=    0 NMatD0=    1 NMtDS0=    0 NMtDT0=    0
 Petite list used in FoFCou.
 Harris En= -1633.43425578805    
 JPrj=0 DoOrth=F DoCkMO=F.
 Leave Link  401 at Mon Jul 12 11:18:07 2021, MaxMem=   104857600 cpu:              39.9 elap:              10.1
 (Enter /dades/curu/g16A03_MST/g16/l502.exe)
 Integral symmetry usage will be decided dynamically.
 Closed shell SCF:
 Using DIIS extrapolation, IDIIS=  1040.
 NGot=   104857600 LenX=   104614988 LenY=   104496211
 Requested convergence on RMS density matrix=1.00D-08 within 128 cycles.
 Requested convergence on MAX density matrix=1.00D-06.
 Requested convergence on             energy=1.00D-06.
 No special actions if energy rises.
 Fock matrices will be formed incrementally for  20 cycles.

 Cycle   1  Pass 1  IDiag  1:
 FoFJK:  IHMeth= 1 ICntrl=       0 DoSepK=F KAlg= 0 I1Cent=           0 FoldK=F
 IRaf= 810000000 NMat=       1 IRICut=       1 DoRegI=T DoRafI=F ISym2E= 0 IDoP0=0 IntGTp=1.
 FoFCou: FMM=F IPFlag=           0 FMFlag=      100000 FMFlg1=           0
         NFxFlg=           0 DoJE=F BraDBF=F KetDBF=F FulRan=T
         wScrn=  0.000000 ICntrl=         0 IOpCl=  0 I1Cent=           0 NGrid=           0
         NMat0=    1 NMatS0=      1 NMatT0=    0 NMatD0=    1 NMtDS0=    0 NMtDT0=    0
 Symmetry not used in FoFCou.
 Inv3:  Mode=1 IEnd=    39792492.
 Iteration    1 A*A^-1 deviation from unit magnitude is 8.66D-15 for    904.
 Iteration    1 A*A^-1 deviation from orthogonality  is 2.26D-15 for   2790   1293.
 Iteration    1 A^-1*A deviation from unit magnitude is 7.55D-15 for    904.
 Iteration    1 A^-1*A deviation from orthogonality  is 2.13D-15 for   3626   3625.
 E= -1633.19624058001    
 DIIS: error= 2.92D-02 at cycle   1 NSaved=   1.
 NSaved= 1 IEnMin= 1 EnMin= -1633.19624058001     IErMin= 1 ErrMin= 2.92D-02
 ErrMax= 2.92D-02  0.00D+00 EMaxC= 1.00D-01 BMatC= 4.09D-01 BMatP= 4.09D-01
 IDIUse=3 WtCom= 7.08D-01 WtEn= 2.92D-01
 Coeff-Com:  0.100D+01
 Coeff-En:   0.100D+01
 Coeff:      0.100D+01
 Gap=     0.351 Goal=   None    Shift=    0.000
 GapD=    0.351 DampG=1.000 DampE=0.500 DampFc=0.5000 IDamp=-1.
 Damping current iteration by 5.00D-01
 RMSDP=4.70D-03 MaxDP=1.32D-01              OVMax= 2.97D-01

 Cycle   2  Pass 1  IDiag  1:
 RMSU=  2.33D-03    CP:  9.84D-01
 E= -1633.38125959493     Delta-E=       -0.185019014916 Rises=F Damp=T
 DIIS: error= 9.18D-03 at cycle   2 NSaved=   2.
 NSaved= 2 IEnMin= 2 EnMin= -1633.38125959493     IErMin= 2 ErrMin= 9.18D-03
 ErrMax= 9.18D-03  0.00D+00 EMaxC= 1.00D-01 BMatC= 3.15D-02 BMatP= 4.09D-01
 IDIUse=3 WtCom= 9.08D-01 WtEn= 9.18D-02
 Coeff-Com:  0.603D-01 0.940D+00
 Coeff-En:   0.145D+00 0.855D+00
 Coeff:      0.681D-01 0.932D+00
 Gap=     0.291 Goal=   None    Shift=    0.000
 RMSDP=1.43D-03 MaxDP=5.17D-02 DE=-1.85D-01 OVMax= 2.09D-01

 Cycle   3  Pass 1  IDiag  1:
 RMSU=  1.33D-03    CP:  9.75D-01  7.90D-01
 E= -1633.60984235433     Delta-E=       -0.228582759407 Rises=F Damp=F
 DIIS: error= 5.33D-03 at cycle   3 NSaved=   3.
 NSaved= 3 IEnMin= 3 EnMin= -1633.60984235433     IErMin= 3 ErrMin= 5.33D-03
 ErrMax= 5.33D-03  0.00D+00 EMaxC= 1.00D-01 BMatC= 1.94D-02 BMatP= 3.15D-02
 IDIUse=3 WtCom= 9.47D-01 WtEn= 5.33D-02
 Coeff-Com: -0.256D-01 0.429D+00 0.597D+00
 Coeff-En:   0.000D+00 0.000D+00 0.100D+01
 Coeff:     -0.242D-01 0.406D+00 0.618D+00
 Gap=     0.215 Goal=   None    Shift=    0.000
 RMSDP=7.72D-04 MaxDP=3.23D-02 DE=-2.29D-01 OVMax= 8.81D-02

 Cycle   4  Pass 1  IDiag  1:
 RMSU=  6.32D-04    CP:  9.77D-01  8.94D-01  7.24D-01
 E= -1633.62155604222     Delta-E=       -0.011713687889 Rises=F Damp=F
 DIIS: error= 3.77D-03 at cycle   4 NSaved=   4.
 NSaved= 4 IEnMin= 4 EnMin= -1633.62155604222     IErMin= 4 ErrMin= 3.77D-03
 ErrMax= 3.77D-03  0.00D+00 EMaxC= 1.00D-01 BMatC= 9.30D-03 BMatP= 1.94D-02
 IDIUse=3 WtCom= 9.62D-01 WtEn= 3.77D-02
 Coeff-Com: -0.255D-01 0.117D+00 0.419D+00 0.489D+00
 Coeff-En:   0.000D+00 0.000D+00 0.343D+00 0.657D+00
 Coeff:     -0.246D-01 0.113D+00 0.416D+00 0.495D+00
 Gap=     0.212 Goal=   None    Shift=    0.000
 RMSDP=3.76D-04 MaxDP=1.49D-02 DE=-1.17D-02 OVMax= 3.30D-02

 Cycle   5  Pass 1  IDiag  1:
 RMSU=  1.58D-04    CP:  9.76D-01  8.81D-01  8.13D-01  4.96D-01
 E= -1633.63120623258     Delta-E=       -0.009650190359 Rises=F Damp=F
 DIIS: error= 5.53D-04 at cycle   5 NSaved=   5.
 NSaved= 5 IEnMin= 5 EnMin= -1633.63120623258     IErMin= 5 ErrMin= 5.53D-04
 ErrMax= 5.53D-04  0.00D+00 EMaxC= 1.00D-01 BMatC= 3.14D-04 BMatP= 9.30D-03
 IDIUse=3 WtCom= 9.94D-01 WtEn= 5.53D-03
 Coeff-Com: -0.950D-02 0.243D-01 0.160D+00 0.245D+00 0.580D+00
 Coeff-En:   0.000D+00 0.000D+00 0.000D+00 0.000D+00 0.100D+01
 Coeff:     -0.945D-02 0.242D-01 0.159D+00 0.243D+00 0.583D+00
 Gap=     0.211 Goal=   None    Shift=    0.000
 RMSDP=8.34D-05 MaxDP=3.95D-03 DE=-9.65D-03 OVMax= 4.92D-03

 Cycle   6  Pass 1  IDiag  1:
 RMSU=  5.32D-05    CP:  9.76D-01  8.78D-01  8.16D-01  5.52D-01  6.63D-01
 E= -1633.63150319762     Delta-E=       -0.000296965034 Rises=F Damp=F
 DIIS: error= 2.13D-04 at cycle   6 NSaved=   6.
 NSaved= 6 IEnMin= 6 EnMin= -1633.63150319762     IErMin= 6 ErrMin= 2.13D-04
 ErrMax= 2.13D-04  0.00D+00 EMaxC= 1.00D-01 BMatC= 3.30D-05 BMatP= 3.14D-04
 IDIUse=3 WtCom= 9.98D-01 WtEn= 2.13D-03
 Coeff-Com: -0.295D-02 0.405D-02 0.515D-01 0.886D-01 0.313D+00 0.546D+00
 Coeff-En:   0.000D+00 0.000D+00 0.000D+00 0.000D+00 0.277D-01 0.972D+00
 Coeff:     -0.294D-02 0.404D-02 0.514D-01 0.885D-01 0.312D+00 0.547D+00
 Gap=     0.211 Goal=   None    Shift=    0.000
 RMSDP=2.67D-05 MaxDP=6.40D-04 DE=-2.97D-04 OVMax= 1.84D-03

 Cycle   7  Pass 1  IDiag  1:
 RMSU=  1.36D-05    CP:  9.76D-01  8.78D-01  8.20D-01  5.53D-01  6.99D-01
                    CP:  5.98D-01
 E= -1633.63153566219     Delta-E=       -0.000032464576 Rises=F Damp=F
 DIIS: error= 7.56D-05 at cycle   7 NSaved=   7.
 NSaved= 7 IEnMin= 7 EnMin= -1633.63153566219     IErMin= 7 ErrMin= 7.56D-05
 ErrMax= 7.56D-05  0.00D+00 EMaxC= 1.00D-01 BMatC= 3.54D-06 BMatP= 3.30D-05
 IDIUse=1 WtCom= 1.00D+00 WtEn= 0.00D+00
 Coeff-Com: -0.971D-03 0.359D-03 0.182D-01 0.329D-01 0.137D+00 0.314D+00
 Coeff-Com:  0.498D+00
 Coeff:     -0.971D-03 0.359D-03 0.182D-01 0.329D-01 0.137D+00 0.314D+00
 Coeff:      0.498D+00
 Gap=     0.211 Goal=   None    Shift=    0.000
 RMSDP=7.87D-06 MaxDP=2.90D-04 DE=-3.25D-05 OVMax= 7.67D-04

 Cycle   8  Pass 1  IDiag  1:
 RMSU=  4.76D-06    CP:  9.76D-01  8.78D-01  8.20D-01  5.53D-01  7.08D-01
                    CP:  6.61D-01  6.35D-01
 E= -1633.63153926779     Delta-E=       -0.000003605603 Rises=F Damp=F
 DIIS: error= 2.33D-05 at cycle   8 NSaved=   8.
 NSaved= 8 IEnMin= 8 EnMin= -1633.63153926779     IErMin= 8 ErrMin= 2.33D-05
 ErrMax= 2.33D-05  0.00D+00 EMaxC= 1.00D-01 BMatC= 3.46D-07 BMatP= 3.54D-06
 IDIUse=1 WtCom= 1.00D+00 WtEn= 0.00D+00
 Coeff-Com:  0.122D-03-0.655D-03-0.753D-03-0.109D-02 0.841D-02 0.558D-01
 Coeff-Com:  0.261D+00 0.677D+00
 Coeff:      0.122D-03-0.655D-03-0.753D-03-0.109D-02 0.841D-02 0.558D-01
 Coeff:      0.261D+00 0.677D+00
 Gap=     0.211 Goal=   None    Shift=    0.000
 RMSDP=2.32D-06 MaxDP=7.82D-05 DE=-3.61D-06 OVMax= 2.07D-04

 Cycle   9  Pass 1  IDiag  1:
 RMSU=  1.50D-06    CP:  9.76D-01  8.78D-01  8.20D-01  5.53D-01  7.09D-01
                    CP:  6.62D-01  7.13D-01  7.56D-01
 E= -1633.63153965917     Delta-E=       -0.000000391377 Rises=F Damp=F
 DIIS: error= 3.67D-06 at cycle   9 NSaved=   9.
 NSaved= 9 IEnMin= 9 EnMin= -1633.63153965917     IErMin= 9 ErrMin= 3.67D-06
 ErrMax= 3.67D-06  0.00D+00 EMaxC= 1.00D-01 BMatC= 1.42D-08 BMatP= 3.46D-07
 IDIUse=1 WtCom= 1.00D+00 WtEn= 0.00D+00
 Coeff-Com:  0.113D-03-0.297D-03-0.130D-02-0.241D-02-0.434D-02 0.521D-02
 Coeff-Com:  0.734D-01 0.270D+00 0.660D+00
 Coeff:      0.113D-03-0.297D-03-0.130D-02-0.241D-02-0.434D-02 0.521D-02
 Coeff:      0.734D-01 0.270D+00 0.660D+00
 Gap=     0.211 Goal=   None    Shift=    0.000
 RMSDP=5.95D-07 MaxDP=2.37D-05 DE=-3.91D-07 OVMax= 4.14D-05

 Cycle  10  Pass 1  IDiag  1:
 RMSU=  3.83D-07    CP:  9.76D-01  8.78D-01  8.20D-01  5.53D-01  7.10D-01
                    CP:  6.65D-01  7.27D-01  8.02D-01  8.39D-01
 E= -1633.63153967469     Delta-E=       -0.000000015518 Rises=F Damp=F
 DIIS: error= 9.66D-07 at cycle  10 NSaved=  10.
 NSaved=10 IEnMin=10 EnMin= -1633.63153967469     IErMin=10 ErrMin= 9.66D-07
 ErrMax= 9.66D-07  0.00D+00 EMaxC= 1.00D-01 BMatC= 1.69D-09 BMatP= 1.42D-08
 IDIUse=1 WtCom= 1.00D+00 WtEn= 0.00D+00
 Coeff-Com:  0.366D-04-0.614D-04-0.469D-03-0.946D-03-0.262D-02-0.295D-02
 Coeff-Com:  0.511D-02 0.504D-01 0.294D+00 0.657D+00
 Coeff:      0.366D-04-0.614D-04-0.469D-03-0.946D-03-0.262D-02-0.295D-02
 Coeff:      0.511D-02 0.504D-01 0.294D+00 0.657D+00
 Gap=     0.211 Goal=   None    Shift=    0.000
 RMSDP=1.70D-07 MaxDP=5.54D-06 DE=-1.55D-08 OVMax= 1.67D-05

 Cycle  11  Pass 1  IDiag  1:
 RMSU=  1.11D-07    CP:  9.76D-01  8.78D-01  8.20D-01  5.53D-01  7.10D-01
                    CP:  6.65D-01  7.29D-01  8.14D-01  8.93D-01  8.09D-01
 E= -1633.63153967664     Delta-E=       -0.000000001952 Rises=F Damp=F
 DIIS: error= 3.48D-07 at cycle  11 NSaved=  11.
 NSaved=11 IEnMin=11 EnMin= -1633.63153967664     IErMin=11 ErrMin= 3.48D-07
 ErrMax= 3.48D-07  0.00D+00 EMaxC= 1.00D-01 BMatC= 1.34D-10 BMatP= 1.69D-09
 IDIUse=1 WtCom= 1.00D+00 WtEn= 0.00D+00
 Coeff-Com:  0.313D-05 0.527D-05-0.565D-04-0.139D-03-0.557D-03-0.163D-02
 Coeff-Com: -0.542D-02-0.695D-02 0.552D-01 0.265D+00 0.694D+00
 Coeff:      0.313D-05 0.527D-05-0.565D-04-0.139D-03-0.557D-03-0.163D-02
 Coeff:     -0.542D-02-0.695D-02 0.552D-01 0.265D+00 0.694D+00
 Gap=     0.211 Goal=   None    Shift=    0.000
 RMSDP=5.76D-08 MaxDP=2.77D-06 DE=-1.95D-09 OVMax= 5.95D-06

 Cycle  12  Pass 1  IDiag  1:
 RMSU=  4.11D-08    CP:  9.76D-01  8.78D-01  8.20D-01  5.53D-01  7.10D-01
                    CP:  6.65D-01  7.29D-01  8.16D-01  9.08D-01  8.65D-01
                    CP:  8.17D-01
 E= -1633.63153967671     Delta-E=       -0.000000000072 Rises=F Damp=F
 DIIS: error= 1.92D-07 at cycle  12 NSaved=  12.
 NSaved=12 IEnMin=12 EnMin= -1633.63153967671     IErMin=12 ErrMin= 1.92D-07
 ErrMax= 1.92D-07  0.00D+00 EMaxC= 1.00D-01 BMatC= 2.52D-11 BMatP= 1.34D-10
 IDIUse=1 WtCom= 1.00D+00 WtEn= 0.00D+00
 Coeff-Com: -0.215D-05 0.897D-05 0.188D-04 0.260D-04-0.418D-05-0.556D-03
 Coeff-Com: -0.340D-02-0.926D-02-0.281D-02 0.667D-01 0.358D+00 0.591D+00
 Coeff:     -0.215D-05 0.897D-05 0.188D-04 0.260D-04-0.418D-05-0.556D-03
 Coeff:     -0.340D-02-0.926D-02-0.281D-02 0.667D-01 0.358D+00 0.591D+00
 Gap=     0.211 Goal=   None    Shift=    0.000
 RMSDP=2.29D-08 MaxDP=9.23D-07 DE=-7.23D-11 OVMax= 2.23D-06

 Cycle  13  Pass 1  IDiag  1:
 RMSU=  1.56D-08    CP:  9.76D-01  8.78D-01  8.20D-01  5.53D-01  7.10D-01
                    CP:  6.65D-01  7.29D-01  8.16D-01  9.12D-01  8.76D-01
                    CP:  8.90D-01  7.24D-01
 E= -1633.63153967681     Delta-E=       -0.000000000097 Rises=F Damp=F
 DIIS: error= 8.36D-08 at cycle  13 NSaved=  13.
 NSaved=13 IEnMin=13 EnMin= -1633.63153967681     IErMin=13 ErrMin= 8.36D-08
 ErrMax= 8.36D-08  0.00D+00 EMaxC= 1.00D-01 BMatC= 3.84D-12 BMatP= 2.52D-11
 IDIUse=1 WtCom= 1.00D+00 WtEn= 0.00D+00
 Coeff-Com: -0.149D-05 0.418D-05 0.160D-04 0.299D-04 0.635D-04-0.117D-03
 Coeff-Com: -0.118D-02-0.423D-02-0.858D-02 0.185D-02 0.106D+00 0.330D+00
 Coeff-Com:  0.576D+00
 Coeff:     -0.149D-05 0.418D-05 0.160D-04 0.299D-04 0.635D-04-0.117D-03
 Coeff:     -0.118D-02-0.423D-02-0.858D-02 0.185D-02 0.106D+00 0.330D+00
 Coeff:      0.576D+00
 Gap=     0.211 Goal=   None    Shift=    0.000
 RMSDP=8.46D-09 MaxDP=2.91D-07 DE=-9.71D-11 OVMax= 8.45D-07

 Error on total polarization charges =  0.00691
 SCF Done:  E(RB3LYP) =  -1633.63153968     A.U. after   13 cycles
            NFock= 13  Conv=0.85D-08     -V/T= 2.0059
 KE= 1.623969253349D+03 PE=-7.325636296693D+03 EE= 2.314307779528D+03
 Leave Link  502 at Mon Jul 12 11:23:32 2021, MaxMem=   104857600 cpu:            1257.6 elap:             324.3
 (Enter /dades/curu/g16A03_MST/g16/l601.exe)
 Copying SCF densities to generalized density rwf, IOpCl= 0 IROHF=0.

 **********************************************************************

            Population analysis using the SCF density.

 **********************************************************************

 Orbital symmetries:
       Occupied  (A) (A) (A) (A) (A) (A) (A) (A) (A) (A) (A) (A)
                 (A) (A) (A) (A) (A) (A) (A) (A) (A) (A) (A) (A)
                 (A) (A) (A) (A) (A) (A) (A) (A) (A) (A) (A) (A)
                 (A) (A) (A) (A) (A) (A) (A) (A) (A) (A) (A) (A)
                 (A) (A) (A) (A) (A) (A) (A) (A) (A) (A) (A) (A)
                 (A) (A) (A) (A) (A) (A) (A) (A) (A) (A) (A) (A)
                 (A) (A) (A) (A) (A) (A) (A) (A)
       Virtual   (A) (A) (A) (A) (A) (A) (A) (A) (A) (A) (A) (A)
                 (A) (A) (A) (A) (A) (A) (A) (A) (A) (A) (A) (A)
                 (A) (A) (A) (A) (A) (A) (A) (A) (A) (A) (A) (A)
                 (A) (A) (A) (A) (A) (A) (A) (A) (A) (A) (A) (A)
                 (A) (A) (A) (A) (A) (A) (A) (A) (A) (A) (A) (A)
                 (A) (A) (A) (A) (A) (A) (A) (A) (A) (A) (A) (A)
                 (A) (A) (A) (A) (A) (A) (A) (A) (A) (A) (A) (A)
                 (A) (A) (A) (A) (A) (A) (A) (A) (A) (A) (A) (A)
                 (A) (A) (A) (A) (A) (A) (A) (A) (A) (A) (A) (A)
                 (A) (A) (A) (A) (A) (A) (A) (A) (A) (A) (A) (A)
                 (A) (A) (A) (A) (A) (A) (A) (A) (A) (A) (A) (A)
                 (A) (A) (A) (A) (A) (A) (A) (A) (A) (A) (A) (A)
                 (A) (A) (A) (A) (A) (A) (A) (A) (A) (A) (A) (A)
                 (A) (A) (A) (A) (A) (A) (A) (A) (A) (A) (A) (A)
                 (A) (A) (A) (A) (A) (A) (A) (A) (A) (A) (A) (A)
                 (A) (A) (A) (A) (A) (A) (A) (A) (A) (A) (A) (A)
                 (A) (A) (A) (A) (A) (A) (A) (A) (A) (A) (A) (A)
                 (A) (A) (A) (A) (A) (A) (A) (A) (A) (A) (A) (A)
                 (A) (A) (A) (A) (A) (A) (A) (A) (A) (A) (A) (A)
                 (A) (A) (A) (A) (A) (A) (A) (A) (A) (A) (A) (A)
                 (A) (A) (A) (A) (A) (A) (A) (A) (A) (A) (A) (A)
                 (A) (A) (A) (A) (A) (A) (A) (A) (A) (A) (A) (A)
 The electronic state is 1-A.
 Alpha  occ. eigenvalues -- -101.56712-101.56399 -14.48039 -10.28676 -10.27632
 Alpha  occ. eigenvalues --  -10.27507 -10.26860 -10.23524 -10.23433 -10.23124
 Alpha  occ. eigenvalues --  -10.22860 -10.22544 -10.22487 -10.22238 -10.22022
 Alpha  occ. eigenvalues --  -10.21751 -10.21219 -10.21146 -10.21128 -10.21035
 Alpha  occ. eigenvalues --   -9.48341  -9.48102  -7.24759  -7.24494  -7.23765
 Alpha  occ. eigenvalues --   -7.23714  -7.23533  -7.23476  -1.05760  -0.93110
 Alpha  occ. eigenvalues --   -0.89406  -0.87487  -0.86378  -0.84435  -0.80390
 Alpha  occ. eigenvalues --   -0.77547  -0.76639  -0.76528  -0.75215  -0.72587
 Alpha  occ. eigenvalues --   -0.67437  -0.65839  -0.64147  -0.62734  -0.61359
 Alpha  occ. eigenvalues --   -0.60329  -0.58662  -0.57960  -0.54153  -0.52893
 Alpha  occ. eigenvalues --   -0.51313  -0.50721  -0.49741  -0.48549  -0.48036
 Alpha  occ. eigenvalues --   -0.46767  -0.45830  -0.45433  -0.44791  -0.44149
 Alpha  occ. eigenvalues --   -0.43760  -0.42957  -0.42195  -0.41828  -0.41505
 Alpha  occ. eigenvalues --   -0.40426  -0.38839  -0.38041  -0.37231  -0.36840
 Alpha  occ. eigenvalues --   -0.36154  -0.35484  -0.34615  -0.33647  -0.33108
 Alpha  occ. eigenvalues --   -0.31778  -0.27914  -0.27398  -0.26541  -0.25462
 Alpha virt. eigenvalues --   -0.04366  -0.03718  -0.03382  -0.02576   0.00309
 Alpha virt. eigenvalues --    0.03076   0.05452   0.06238   0.06638   0.07842
 Alpha virt. eigenvalues --    0.09017   0.09477   0.10472   0.11159   0.11518
 Alpha virt. eigenvalues --    0.11925   0.12326   0.12730   0.13450   0.14067
 Alpha virt. eigenvalues --    0.14596   0.15205   0.15597   0.16769   0.17271
 Alpha virt. eigenvalues --    0.18186   0.19050   0.19808   0.20120   0.20928
 Alpha virt. eigenvalues --    0.21703   0.22648   0.23951   0.24212   0.25275
 Alpha virt. eigenvalues --    0.27773   0.28303   0.29784   0.30837   0.31654
 Alpha virt. eigenvalues --    0.32610   0.34042   0.35030   0.36923   0.39780
 Alpha virt. eigenvalues --    0.40642   0.41080   0.42848   0.44196   0.44568
 Alpha virt. eigenvalues --    0.44908   0.46133   0.46823   0.47354   0.48252
 Alpha virt. eigenvalues --    0.48911   0.49294   0.50637   0.51052   0.52161
 Alpha virt. eigenvalues --    0.52491   0.53885   0.54586   0.55057   0.55740
 Alpha virt. eigenvalues --    0.56077   0.56644   0.57590   0.58730   0.58808
 Alpha virt. eigenvalues --    0.59628   0.59846   0.60692   0.60722   0.61489
 Alpha virt. eigenvalues --    0.62030   0.62800   0.63515   0.64321   0.64893
 Alpha virt. eigenvalues --    0.66468   0.67257   0.68484   0.70406   0.70738
 Alpha virt. eigenvalues --    0.72312   0.73294   0.75442   0.76475   0.76664
 Alpha virt. eigenvalues --    0.77402   0.78612   0.79057   0.80382   0.80553
 Alpha virt. eigenvalues --    0.80895   0.82322   0.82928   0.83038   0.83449
 Alpha virt. eigenvalues --    0.84274   0.84616   0.85106   0.85311   0.85917
 Alpha virt. eigenvalues --    0.86435   0.86945   0.87685   0.88450   0.89581
 Alpha virt. eigenvalues --    0.90115   0.91009   0.91560   0.92459   0.93708
 Alpha virt. eigenvalues --    0.94257   0.95248   0.95392   0.96872   0.97795
 Alpha virt. eigenvalues --    0.98331   0.99535   1.01155   1.01825   1.03000
 Alpha virt. eigenvalues --    1.03432   1.04025   1.05677   1.06122   1.07961
 Alpha virt. eigenvalues --    1.10451   1.12059   1.12377   1.12919   1.13734
 Alpha virt. eigenvalues --    1.16587   1.17316   1.18042   1.23009   1.23354
 Alpha virt. eigenvalues --    1.26153   1.27422   1.28764   1.31001   1.33784
 Alpha virt. eigenvalues --    1.34012   1.37429   1.37876   1.39206   1.40446
 Alpha virt. eigenvalues --    1.41431   1.42291   1.43314   1.46896   1.48203
 Alpha virt. eigenvalues --    1.48655   1.51402   1.53872   1.54720   1.55784
 Alpha virt. eigenvalues --    1.59003   1.61152   1.62623   1.65031   1.67145
 Alpha virt. eigenvalues --    1.67572   1.70355   1.72946   1.74268   1.75105
 Alpha virt. eigenvalues --    1.76667   1.78557   1.79096   1.80901   1.81633
 Alpha virt. eigenvalues --    1.85040   1.85730   1.86283   1.88766   1.89886
 Alpha virt. eigenvalues --    1.90989   1.92404   1.93959   1.95245   1.96853
 Alpha virt. eigenvalues --    1.98760   2.00179   2.01339   2.02166   2.04283
 Alpha virt. eigenvalues --    2.04795   2.05905   2.08022   2.10790   2.11677
 Alpha virt. eigenvalues --    2.11918   2.13130   2.14625   2.15519   2.16025
 Alpha virt. eigenvalues --    2.17350   2.18955   2.20078   2.22106   2.23408
 Alpha virt. eigenvalues --    2.24316   2.26014   2.26926   2.28683   2.29850
 Alpha virt. eigenvalues --    2.31072   2.32523   2.33391   2.35504   2.39466
 Alpha virt. eigenvalues --    2.40769   2.41507   2.49261   2.51232   2.51910
 Alpha virt. eigenvalues --    2.55368   2.56889   2.57369   2.59157   2.60540
 Alpha virt. eigenvalues --    2.60913   2.62142   2.63736   2.67611   2.67965
 Alpha virt. eigenvalues --    2.72541   2.73880   2.74812   2.75851   2.78233
 Alpha virt. eigenvalues --    2.78606   2.80752   2.82195   2.88076   2.91981
 Alpha virt. eigenvalues --    3.04188   3.09846   3.32671   3.36432   3.89188
 Alpha virt. eigenvalues --    3.99935   4.07126   4.07816   4.11458   4.13352
 Alpha virt. eigenvalues --    4.14864   4.20527   4.21479   4.24234   4.26329
 Alpha virt. eigenvalues --    4.30952   4.32029   4.34468   4.38176   4.40993
 Alpha virt. eigenvalues --    4.53732   4.55546   4.66456   4.71673
          Condensed to atoms (all electrons):
               1          2          3          4          5          6
     1  C    5.076661   0.383953   0.381029   0.376313   0.240605  -0.019764
     2  H    0.383953   0.474716  -0.016369  -0.020324  -0.043833  -0.003227
     3  H    0.381029  -0.016369   0.445696  -0.027202  -0.026464   0.002776
     4  H    0.376313  -0.020324  -0.027202   0.481122  -0.029460  -0.002246
     5  N    0.240605  -0.043833  -0.026464  -0.029460   6.786823   0.301727
     6  H   -0.019764  -0.003227   0.002776  -0.002246   0.301727   0.285321
     7  C   -0.047467  -0.004645  -0.006782   0.004976   0.210124  -0.020478
     8  C   -0.004051  -0.001101   0.009452   0.000288  -0.064230   0.005356
     9  C    0.000364  -0.000065   0.000006   0.000035   0.000021  -0.000034
    10  C    0.000027  -0.000014  -0.000110   0.000000  -0.000149   0.000004
    11  C    0.000024  -0.000001   0.000035  -0.000001   0.000020  -0.000000
    12  C   -0.000395   0.000013   0.000242  -0.000007   0.000126   0.000005
    13  C   -0.004374   0.000260   0.003279   0.000086  -0.000764  -0.000025
    14  H    0.000368  -0.000007  -0.000003  -0.000013   0.000640  -0.000119
    15  H   -0.000003   0.000000   0.000002  -0.000000  -0.000000  -0.000000
    16  H    0.000000  -0.000000  -0.000000  -0.000000   0.000000  -0.000000
    17  H   -0.000000   0.000000  -0.000004  -0.000000   0.000001  -0.000000
    18  H    0.004318  -0.000036   0.000121  -0.000129  -0.033826  -0.001719
    19  C   -0.008304   0.007154  -0.000350   0.000133  -0.054394  -0.003082
    20  H   -0.000714   0.005754   0.000149   0.000046  -0.003032  -0.000281
    21  H    0.000205   0.000030   0.000013  -0.000024  -0.001625   0.003549
    22  C    0.000042  -0.000383  -0.000017  -0.000005   0.004469  -0.000035
    23  H   -0.000005   0.000014  -0.000000  -0.000000  -0.000103  -0.000009
    24  H   -0.000008   0.000008   0.000001   0.000000   0.000214  -0.000001
    25  C    0.000054  -0.000073   0.000045   0.000001   0.000071   0.000009
    26  H   -0.000025   0.000050   0.000011  -0.000000   0.000076  -0.000003
    27  C    0.000002  -0.000001   0.000001   0.000000  -0.000004   0.000000
    28  C   -0.000000   0.000000   0.000000  -0.000000   0.000000  -0.000000
    29  H    0.000000   0.000000   0.000000  -0.000000   0.000000  -0.000000
    30  C   -0.000000   0.000000   0.000000  -0.000000   0.000000  -0.000000
    31  Cl  -0.000000  -0.000000   0.000000   0.000000  -0.000000   0.000000
    32  C    0.000000  -0.000000   0.000000  -0.000000   0.000000  -0.000000
    33  Cl  -0.000000   0.000000  -0.000000  -0.000000   0.000000  -0.000000
    34  C   -0.000000  -0.000000  -0.000000   0.000000   0.000000  -0.000000
    35  H   -0.000000   0.000000   0.000000  -0.000000   0.000000   0.000000
    36  C   -0.000000   0.000000  -0.000000   0.000000   0.000000   0.000000
[...]
    25  C   -2.461252  -4.551486  -6.225513  -0.449634  -1.060623   0.490830
    26  H   -0.088179   0.170313   0.506882   0.331231   0.019478  -0.001276
    27  C   -0.404992  -0.610134  -0.030856  -1.620779   0.497150  -0.431906
    28  C   -0.387666   0.625707  -1.686335  -0.232734  -0.515386   0.211508
    29  H   -0.058045   0.060627  -0.143771   0.063574  -0.025634   0.016983
    30  C   -0.116174   0.104516  -0.561521   0.475987  -0.098214   0.118042
    31  Cl   0.002212   0.006386   0.026230  -0.018364  -0.002365  -0.000448
    32  C   -0.020528   0.055434  -0.283692   0.068128  -0.067363   0.040786
    33  Cl   0.000191  -0.002451   0.003951   0.001794   0.001959  -0.000246
    34  C    0.027930  -0.164424   0.518264  -0.195920   0.144546  -0.087418
    35  H   -0.001206  -0.002858  -0.028104  -0.006643   0.003574  -0.001827
    36  C    0.312924   0.228803   0.676477   0.005418   0.092805  -0.046525
    37  H    0.019400   0.000333   0.241874  -0.026643   0.008235   0.006673
    38  H    0.215830  -0.074306  -0.004200  -0.004971   0.005958  -0.004501
              13         14         15         16         17         18
     1  C    0.080900   0.016593  -0.001259   0.000864  -0.001940   0.040613
     2  H    0.040295   0.007213  -0.002295   0.000343   0.001743  -0.007922
     3  H   -0.020934  -0.024683   0.000009  -0.002275  -0.000916  -0.006681
     4  H    0.008979  -0.006340   0.002558  -0.000504   0.000316   0.022901
     5  N   -0.178281   0.047141   0.002017   0.003258  -0.005480  -0.062237
     6  H    0.039112  -0.004016   0.000361  -0.000063  -0.000215  -0.011022
     7  C    0.364526  -0.145081   0.057792  -0.026170   0.021621  -1.144175
     8  C   -4.240180   0.467228   0.431468  -0.431575   0.366096   0.495390
     9  C   -4.225920   0.505450  -0.336010   0.425130   0.682392   0.020951
    10  C   -1.430107   0.005860  -0.054330   0.406457  -1.093545  -0.011501
    11  C    0.441305  -0.159092   0.454715  -0.930815   0.017362  -0.005841
    12  C   -0.769826   0.026763  -0.823808   0.385581  -0.048136   0.032166
    13  C   17.016231  -1.229585   0.197891   0.013097  -0.063715   0.103790
    14  H   -1.229585   2.272720  -0.097749  -0.003397  -0.006181   0.009025
    15  H    0.197891  -0.097749   1.738387  -0.063551  -0.004582  -0.002009
    16  H    0.013097  -0.003397  -0.063551   1.727486  -0.095512  -0.000708
    17  H   -0.063715  -0.006181  -0.004582  -0.095512   2.361905   0.002144
    18  H    0.103790   0.009025  -0.002009  -0.000708   0.002144   1.531094
    19  C   -0.211516  -0.011268  -0.000460  -0.000347   0.018858   0.197328
    20  H   -0.015791  -0.002003   0.000227   0.000090  -0.000450   0.081213
    21  H   -0.003632  -0.000359  -0.000043   0.000019  -0.000676  -0.116179
    22  C   -0.579504   0.025916   0.002664  -0.001669   0.045174  -0.115318
    23  H   -0.019506   0.000795   0.000075  -0.000068   0.001794   0.020187
    24  H    0.005365   0.002718   0.001093   0.000493   0.000961  -0.003291
    25  C    0.146227   0.031836   0.003493   0.067666  -0.540759   0.136004
    26  H   -0.013941   0.006979  -0.001027   0.005154  -0.007141  -0.009515
    27  C    0.237558   0.009869  -0.008459   0.007767  -0.236600  -0.007382
    28  C   -0.324397  -0.009519  -0.002030   0.020029  -0.065664  -0.019324
    29  H    0.011631  -0.000662  -0.000870  -0.003508   0.024855   0.004483
    30  C   -0.079552  -0.002166   0.001702   0.000388   0.025656   0.010486
    31  Cl   0.001441   0.000042   0.000003  -0.000195   0.001419  -0.000223
    32  C   -0.043781  -0.001636   0.001372  -0.005451   0.019323  -0.001706
    33  Cl   0.000333   0.000015  -0.000018   0.000122  -0.000507   0.000015
    34  C    0.091813   0.003016  -0.002658   0.011252  -0.028327  -0.001129
    35  H    0.001505   0.000057  -0.000064   0.000099   0.000167  -0.000042
    36  C    0.051613  -0.002620   0.003081  -0.020242   0.192428   0.006038
    37  H   -0.009808  -0.000547   0.000227  -0.000460   0.009152  -0.000146
    38  H   -0.035788  -0.010838   0.003033  -0.000213   0.000393  -0.050618
              19         20         21         22         23         24
     1  C    0.019663   0.016323   0.008300  -0.043023  -0.004267   0.002257
     2  H    0.059573  -0.003032   0.003824  -0.000520   0.003588  -0.002513
     3  H    0.031383  -0.016032   0.003120  -0.034636  -0.000837  -0.000605
     4  H   -0.050103   0.009761  -0.003730   0.016931   0.000046   0.000199
     5  N    0.361184   0.006046   0.047842  -0.156795  -0.017335   0.013075
     6  H   -0.033104  -0.005653   0.001848   0.015864   0.001496  -0.000336
     7  C   -1.186474  -0.681585   0.095194   0.225083   0.207605  -0.163236
     8  C   -0.474745   0.255819   0.116126  -0.618500  -0.021931   0.063024
     9  C    0.173272  -0.136173  -0.047404  -0.527887   0.212300   0.109985
    10  C    0.205375   0.069991  -0.012813   0.934001  -0.021740   0.063270
    11  C    0.017088   0.000019  -0.003922  -0.175797   0.005533  -0.004105
    12  C   -0.133537  -0.022416   0.008087   0.120873   0.003448  -0.010964
    13  C   -0.211516  -0.015791  -0.003632  -0.579504  -0.019506   0.005365
    14  H   -0.011268  -0.002003  -0.000359   0.025916   0.000795   0.002718
    15  H   -0.000460   0.000227  -0.000043   0.002664   0.000075   0.001093
    16  H   -0.000347   0.000090   0.000019  -0.001669  -0.000068   0.000493
    17  H    0.018858  -0.000450  -0.000676   0.045174   0.001794   0.000961
    18  H    0.197328   0.081213  -0.116179  -0.115318   0.020187  -0.003291
    19  C    7.336153   0.321248  -0.326984  -0.000462  -0.053464  -0.134532
    20  H    0.321248   1.597713  -0.270086  -0.165107  -0.060705   0.105124
    21  H   -0.326984  -0.270086   1.491594   0.019438  -0.066407  -0.046798
    22  C   -0.000462  -0.165107   0.019438   7.293295  -0.444286   0.437625
    23  H   -0.053464  -0.060705  -0.066407  -0.444286   1.656597  -0.281678
    24  H   -0.134532   0.105124  -0.046798   0.437625  -0.281678   1.488981
    25  C   -0.914702   0.111504   0.143129  -1.186558  -0.024101  -0.475624
    26  H   -0.107392  -0.033424   0.030652   0.201331  -0.098406   0.057261
    27  C    0.007119   0.078701  -0.005443   0.840049  -0.035267   0.052355
    28  C    0.189328   0.014162  -0.003626  -0.417131   0.089125  -0.079546
    29  H    0.014501   0.000493   0.002585   0.084888   0.022945  -0.051148
    30  C    0.007879   0.004549   0.002114  -0.049653  -0.004347   0.024092
    31  Cl  -0.000882   0.000027   0.000045  -0.020080  -0.000699  -0.000842
    32  C    0.018140   0.000248   0.000519  -0.122115  -0.000187  -0.009922
    33  Cl  -0.000290   0.000019  -0.000033   0.012704   0.000212   0.000939
    34  C   -0.027090  -0.005648  -0.001468   0.117131   0.001603  -0.010110
    35  H   -0.000587  -0.000363  -0.000031  -0.004436  -0.001588  -0.001636
    36  C   -0.131821  -0.017065  -0.003962  -0.570270   0.094479   0.064608
    37  H    0.008053   0.002536  -0.001347   0.015550   0.008460   0.010557
    38  H   -0.050312  -0.010836   0.008070   0.012856  -0.000428  -0.000123
              25         26         27         28         29         30
     1  C   -0.065071  -0.006627  -0.012844  -0.011022  -0.000225  -0.003133
     2  H   -0.009576   0.001478   0.026415  -0.005674   0.000133  -0.000346
     3  H    0.020946  -0.000791   0.033652  -0.008174   0.000926  -0.000638
     4  H   -0.028053  -0.001595  -0.014461   0.001229  -0.000212   0.000071
     5  N    0.248109   0.019235   0.206489  -0.009306   0.007407  -0.004816
     6  H   -0.014877   0.000928   0.002139   0.001884   0.000257  -0.000697
     7  C   -2.461252  -0.088179  -0.404992  -0.387666  -0.058045  -0.116174
     8  C   -4.551486   0.170313  -0.610134   0.625707   0.060627   0.104516
     9  C   -6.225513   0.506882  -0.030856  -1.686335  -0.143771  -0.561521
    10  C   -0.449634   0.331231  -1.620779  -0.232734   0.063574   0.475987
    11  C   -1.060623   0.019478   0.497150  -0.515386  -0.025634  -0.098214
    12  C    0.490830  -0.001276  -0.431906   0.211508   0.016983   0.118042
    13  C    0.146227  -0.013941   0.237558  -0.324397   0.011631  -0.079552
    14  H    0.031836   0.006979   0.009869  -0.009519  -0.000662  -0.002166
    15  H    0.003493  -0.001027  -0.008459  -0.002030  -0.000870   0.001702
    16  H    0.067666   0.005154   0.007767   0.020029  -0.003508   0.000388
    17  H   -0.540759  -0.007141  -0.236600  -0.065664   0.024855   0.025656
    18  H    0.136004  -0.009515  -0.007382  -0.019324   0.004483   0.010486
    19  C   -0.914702  -0.107392   0.007119   0.189328   0.014501   0.007879
    20  H    0.111504  -0.033424   0.078701   0.014162   0.000493   0.004549
    21  H    0.143129   0.030652  -0.005443  -0.003626   0.002585   0.002114
    22  C   -1.186558   0.201331   0.840049  -0.417131   0.084888  -0.049653
    23  H   -0.024101  -0.098406  -0.035267   0.089125   0.022945  -0.004347
    24  H   -0.475624   0.057261   0.052355  -0.079546  -0.051148   0.024092
    25  C   32.378873  -1.507135  -7.954522   0.172408  -0.043291   1.481465
    26  H   -1.507135   1.932997  -0.071294  -0.133906  -0.011226  -0.050872
    27  C   -7.954522  -0.071294  32.517442 -11.029634   0.765151   1.698281
    28  C    0.172408  -0.133906 -11.029634  33.220156  -2.156179  -9.617391
    29  H   -0.043291  -0.011226   0.765151  -2.156179   2.600982   0.847599
    30  C    1.481465  -0.050872   1.698281  -9.617391   0.847599  17.932197
    31  Cl  -0.004415   0.000077  -0.524165   0.336783  -0.143296  -0.308826
    32  C    0.715447   0.028523  -5.040958   0.791525  -0.118920  -2.621642
    33  Cl  -0.093620  -0.001338   0.183492   0.236016  -0.005408  -0.033700
    34  C   -2.342387   0.048512   5.172794  -3.488157   0.131777   1.261357
    35  H    0.127842   0.010731  -0.218747   0.183226   0.010471  -0.300270
    36  C   -0.324666   0.120491 -10.576927  -1.089078  -0.145312  -3.699702
    37  H   -0.001717  -0.077527   0.664985  -0.072447  -0.024560   0.135483
    38  H   -0.006024   0.001291   0.006974   0.000022  -0.000022  -0.000157
              31         32         33         34         35         36
     1  C    0.000049  -0.000100   0.000000   0.001361  -0.000032   0.007466
     2  H   -0.000001   0.000095   0.000001  -0.000188  -0.000058   0.005175
     3  H   -0.000014  -0.000092   0.000003   0.000636   0.000038  -0.000249
     4  H    0.000003  -0.000047  -0.000000   0.000112  -0.000003   0.000372
     5  N   -0.000071   0.001113   0.000001  -0.000549   0.000139  -0.016916
     6  H    0.000009   0.000176  -0.000001  -0.000218  -0.000003   0.000291
     7  C    0.002212  -0.020528   0.000191   0.027930  -0.001206   0.312924
     8  C    0.006386   0.055434  -0.002451  -0.164424  -0.002858   0.228803
     9  C    0.026230  -0.283692   0.003951   0.518264  -0.028104   0.676477
    10  C   -0.018364   0.068128   0.001794  -0.195920  -0.006643   0.005418
    11  C   -0.002365  -0.067363   0.001959   0.144546   0.003574   0.092805
    12  C   -0.000448   0.040786  -0.000246  -0.087418  -0.001827  -0.046525
    13  C    0.001441  -0.043781   0.000333   0.091813   0.001505   0.051613
    14  H    0.000042  -0.001636   0.000015   0.003016   0.000057  -0.002620
    15  H    0.000003   0.001372  -0.000018  -0.002658  -0.000064   0.003081
    16  H   -0.000195  -0.005451   0.000122   0.011252   0.000099  -0.020242
    17  H    0.001419   0.019323  -0.000507  -0.028327   0.000167   0.192428
    18  H   -0.000223  -0.001706   0.000015  -0.001129  -0.000042   0.006038
    19  C   -0.000882   0.018140  -0.000290  -0.027090  -0.000587  -0.131821
    20  H    0.000027   0.000248   0.000019  -0.005648  -0.000363  -0.017065
    21  H    0.000045   0.000519  -0.000033  -0.001468  -0.000031  -0.003962
    22  C   -0.020080  -0.122115   0.012704   0.117131  -0.004436  -0.570270
    23  H   -0.000699  -0.000187   0.000212   0.001603  -0.001588   0.094479
    24  H   -0.000842  -0.009922   0.000939  -0.010110  -0.001636   0.064608
    25  C   -0.004415   0.715447  -0.093620  -2.342387   0.127842  -0.324666
    26  H    0.000077   0.028523  -0.001338   0.048512   0.010731   0.120491
    27  C   -0.524165  -5.040958   0.183492   5.172794  -0.218747 -10.576927
    28  C    0.336783   0.791525   0.236016  -3.488157   0.183226  -1.089078
    29  H   -0.143296  -0.118920  -0.005408   0.131777   0.010471  -0.145312
    30  C   -0.308826  -2.621642  -0.033700   1.261357  -0.300270  -3.699702
    31  Cl  17.591782   0.291970  -0.014047  -0.099502  -0.000233   0.216814
    32  C    0.291970  12.886935  -0.112393  -3.843170   0.813036   3.310959
    33  Cl  -0.014047  -0.112393  17.541746   0.080153  -0.121423  -0.353626
    34  C   -0.099502  -3.843170   0.080153  18.002834  -1.503651  -9.411782
    35  H   -0.000233   0.813036  -0.121423  -1.503651   1.868470   0.745759
    36  C    0.216814   3.310959  -0.353626  -9.411782   0.745759  27.960930
    37  H    0.003692  -0.272338   0.004628   1.004789  -0.133360  -2.113295
    38  H   -0.000009   0.000090   0.000002  -0.000076   0.000006  -0.000354
              37         38
     1  C    0.000927  -0.023891
     2  H    0.000496   0.009553
     3  H   -0.000504  -0.033920
     4  H    0.000079   0.023709
     5  N   -0.001623   0.336810
     6  H    0.000018  -0.050341
     7  C    0.019400   0.215830
     8  C    0.000333  -0.074306
     9  C    0.241874  -0.004200
    10  C   -0.026643  -0.004971
    11  C    0.008235   0.005958
    12  C    0.006673  -0.004501
    13  C   -0.009808  -0.035788
    14  H   -0.000547  -0.010838
    15  H    0.000227   0.003033
    16  H   -0.000460  -0.000213
    17  H    0.009152   0.000393
    18  H   -0.000146  -0.050618
    19  C    0.008053  -0.050312
    20  H    0.002536  -0.010836
    21  H   -0.001347   0.008070
    22  C    0.015550   0.012856
    23  H    0.008460  -0.000428
    24  H    0.010557  -0.000123
    25  C   -0.001717  -0.006024
    26  H   -0.077527   0.001291
    27  C    0.664985   0.006974
    28  C   -0.072447   0.000022
    29  H   -0.024560  -0.000022
    30  C    0.135483  -0.000157
    31  Cl   0.003692  -0.000009
    32  C   -0.272338   0.000090
    33  Cl   0.004628   0.000002
    34  C    1.004789  -0.000076
    35  H   -0.133360   0.000006
    36  C   -2.113295  -0.000354
    37  H    2.354876   0.000015
    38  H    0.000015   0.601821
 Mulliken charges:
               1
     1  C    0.914019
     2  H   -0.095870
     3  H    0.004444
     4  H   -0.169332
     5  N   -0.652597
     6  H    0.172048
     7  C    0.608339
     8  C   -0.545202
     9  C   -0.095989
    10  C    0.554450
    11  C    0.330000
    12  C    0.469439
    13  C    0.642149
    14  H   -0.721496
    15  H   -0.500944
    16  H   -0.488571
    17  H   -0.593412
    18  H   -0.136860
    19  C    0.863928
    20  H   -0.229446
    21  H   -0.067564
    22  C    0.812374
    23  H   -0.173041
    24  H   -0.226969
    25  C    0.009830
    26  H   -0.270930
    27  C    1.826987
    28  C    1.271221
    29  H   -0.739980
    30  C   -0.578047
    31  Cl  -0.340311
    32  C   -0.477776
    33  Cl  -0.329194
    34  C    0.593993
    35  H   -0.437952
    36  C    0.427480
    37  H   -0.764716
    38  H    0.135496
 Sum of Mulliken charges =   1.00000
 Mulliken charges with hydrogens summed into heavy atoms:
               1
     1  C    0.653261
     5  N   -0.345053
     7  C    0.471479
     8  C   -0.545202
     9  C   -0.095989
    10  C   -0.038963
    11  C   -0.158571
    12  C   -0.031505
    13  C   -0.079347
    19  C    0.566919
    22  C    0.412364
    25  C   -0.261100
    27  C    1.826987
    28  C    0.531241
    30  C   -0.578047
    31  Cl  -0.340311
    32  C   -0.477776
    33  Cl  -0.329194
    34  C    0.156041
    36  C   -0.337236
 Electronic spatial extent (au):  <R**2>=           8218.6601
 Charge=              1.0000 electrons
 Dipole moment (field-independent basis, Debye):
    X=            -20.4490    Y=             -3.8934    Z=              0.5979  Tot=             20.8249
 Quadrupole moment (field-independent basis, Debye-Ang):
   XX=            -38.0759   YY=           -113.6754   ZZ=           -121.6665
   XY=             11.1926   XZ=            -16.6949   YZ=             -2.2685
 Traceless Quadrupole moment (field-independent basis, Debye-Ang):
   XX=             53.0633   YY=            -22.5361   ZZ=            -30.5272
   XY=             11.1926   XZ=            -16.6949   YZ=             -2.2685
 Octapole moment (field-independent basis, Debye-Ang**2):
  XXX=           -523.9112  YYY=             11.2445  ZZZ=             13.8315  XYY=            -53.5066
  XXY=            -79.5543  XXZ=             52.4571  XZZ=            -22.5961  YZZ=            -12.2804
  YYZ=            -11.8961  XYZ=             20.3676
 Hexadecapole moment (field-independent basis, Debye-Ang**3):
 XXXX=          -5680.2726 YYYY=          -1459.1636 ZZZZ=           -887.9526 XXXY=            417.1118
 XXXZ=           -331.9922 YYYX=             14.9213 YYYZ=            -47.8259 ZZZX=            -51.3530
 ZZZY=             20.3806 XXYY=          -1456.3309 XXZZ=          -1397.1624 YYZZ=           -372.7002
 XXYZ=              7.3410 YYXZ=            -12.3781 ZZXY=             40.4761
 N-N= 1.749279351000D+03 E-N=-7.316786057132D+03  KE= 1.626856278005D+03
 Leave Link  601 at Mon Jul 12 15:14:25 2021, MaxMem=   262144000 cpu:               0.5 elap:               0.4
 (Enter /dades/curu/g16A03_MST/g16/l9999.exe)
 1\1\GINC-PIRINEUS10\SP\RMP2-FC\Aug-CC-pVDZ\C17H18Cl2N1(1+)\UBATOR02\12
 -Jul-2021\0\\#p mp2/aug-cc-pVDZ scf=tight maxdisk=180GB geom=allcheck\
 \SET_328_BBB2_conf1.geo_240_060 geometry\\1,1\C,0,-3.4412008795,-0.549
 3947059,-2.1135419509\H,0,-3.1203202511,-1.554215458,-1.8504054207\H,0
 ,-2.6809986789,-0.0525579788,-2.7102528365\H,0,-4.3886740341,-0.586787
 2693,-2.6478430749\N,0,-3.6450568073,0.2424969375,-0.85599821\H,0,-4.3
 905890698,-0.1946453307,-0.2906475364\C,0,-2.4058649556,0.4099500995,0
 .0409106177\C,0,-1.2245697348,0.9527966458,-0.7476537714\C,0,0.0597588
 66,0.3847229721,-0.626357525\C,0,1.1027070798,0.9165051993,-1.40043759
 72\C,0,0.9008531671,1.9958458771,-2.2543333534\C,0,-0.3594681418,2.588
 7177641,-2.332631067\C,0,-1.4052204253,2.0704890456,-1.5768529315\H,0,
 -2.3736758417,2.5572529851,-1.6330958198\H,0,-0.5270712093,3.448237409
 2,-2.9715616587\H,0,1.7264308759,2.3834268251,-2.8415843641\H,0,2.0911
 894934,0.4771848357,-1.3159750198\H,0,-2.7277238235,1.151892558,0.7765
 804354\C,0,-2.1349359178,-0.9177558809,0.7502965706\H,0,-2.1845554467,
 -1.7462108103,0.0352682716\H,0,-2.9104010475,-1.0926939296,1.501370429
 8\C,0,-0.752820448,-0.9052311812,1.3917826635\H,0,-0.6036072466,-1.820
 8579207,1.9681932086\H,0,-0.6723538174,-0.0717437982,2.0977089442\C,0,
 0.3404474192,-0.7876233831,0.3164880157\H,0,0.3082635133,-1.7104337152
 ,-0.2781579681\C,0,1.7158485809,-0.7434636925,0.9629514743\C,0,2.13319
 40057,0.3641992995,1.7086260738\H,0,1.5037599633,1.24186577,1.79560189
 4\C,0,3.3713779604,0.3701252477,2.3463520255\Cl,0,3.8361998005,1.78501
 43763,3.2608499403\C,0,4.2174386135,-0.7413988773,2.2480031474\Cl,0,5.
 7771869891,-0.7724426948,3.0321249468\C,0,3.8099670867,-1.8481961809,1
 .5059834509\H,0,4.468880434,-2.7045115417,1.4307336443\C,0,2.570795351
 9,-1.8453201694,0.8708396813\H,0,2.2635659433,-2.7129151916,0.29707426
 8\H,0,-4.0287573674,1.1636758625,-1.0974095984\\Version=ES64L-G16RevA.
 03\State=1-A\HF=-1627.5700794\MP2=-1630.3964825\RMSD=7.872e-09\PG=C01 
 [X(C17H18Cl2N1)]\\@


 EVERYBODY NEEDS BEAUTY AS WELL AS BREAD, PLACES TO PLAY IN AND PRAY IN,
 WHERE NATURE MAY HEAL AND CHEER AND GIVE STRENGTH TO BODY AND SOUL ALIKE.

                                    -- JOHN MUIR
 Job cpu time:       0 days  5 hours 35 minutes 23.6 seconds.
 Elapsed time:       0 days  1 hours 38 minutes 10.4 seconds.
 File lengths (MBytes):  RWF= 134215 Int=      0 D2E=      0 Chk=     33 Scr=      1
 Normal termination of Gaussian 16 at Mon Jul 12 15:14:27 2021.
