 Entering Gaussian System, Link 0=g16
 Input=SET_328_BBB212_conf1.geo_315_300_OCTANOL.dat
 Output=SET_328_BBB212_conf1.geo_315_300_OCTANOL.log
 Initial command:
 /dades/curu/g16A03_MST/g16/l1.exe "/tmp/ubator02/1835280/Gau-43859.inp" -scrdir="/tmp/ubator02/1835280/"
 Entering Link 1 = /dades/curu/g16A03_MST/g16/l1.exe PID=     43860.
  
 Copyright (c) 1988,1990,1992,1993,1995,1998,2003,2009,2016,
            Gaussian, Inc.  All Rights Reserved.
  
 This is part of the Gaussian(R) 16 program.  It is based on
 the Gaussian(R) 09 system (copyright 2009, Gaussian, Inc.),
 the Gaussian(R) 03 system (copyright 2003, Gaussian, Inc.),
 the Gaussian(R) 98 system (copyright 1998, Gaussian, Inc.),
 the Gaussian(R) 94 system (copyright 1995, Gaussian, Inc.),
 the Gaussian 92(TM) system (copyright 1992, Gaussian, Inc.),
 the Gaussian 90(TM) system (copyright 1990, Gaussian, Inc.),
 the Gaussian 88(TM) system (copyright 1988, Gaussian, Inc.),
 the Gaussian 86(TM) system (copyright 1986, Carnegie Mellon
 University), and the Gaussian 82(TM) system (copyright 1983,
 Carnegie Mellon University). Gaussian is a federally registered
 trademark of Gaussian, Inc.
  
 This software contains proprietary and confidential information,
 including trade secrets, belonging to Gaussian, Inc.
  
 This software is provided under written license and may be
 used, copied, transmitted, or stored only in accord with that
 written license.
  
 The following legend is applicable only to US Government
 contracts under FAR:
  
                    RESTRICTED RIGHTS LEGEND
  
 Use, reproduction and disclosure by the US Government is
 subject to restrictions as set forth in subparagraphs (a)
 and (c) of the Commercial Computer Software - Restricted
 Rights clause in FAR 52.227-19.
  
 Gaussian, Inc.
 340 Quinnipiac St., Bldg. 40, Wallingford CT 06492
  
  
 ---------------------------------------------------------------
 Warning -- This program may not be used in any manner that
 competes with the business of Gaussian, Inc. or will provide
 assistance to any competitor of Gaussian, Inc.  The licensee
 of this program is prohibited from giving any competitor of
 Gaussian, Inc. access to this program.  By using this program,
 the user acknowledges that Gaussian, Inc. is engaged in the
 business of creating and licensing software in the field of
 computational chemistry and represents and warrants to the
 licensee that it is not a competitor of Gaussian, Inc. and that
 it will not use this program in any manner prohibited above.
 ---------------------------------------------------------------
  

 Cite this work as:
 Gaussian 16, Revision A.03,
 M. J. Frisch, G. W. Trucks, H. B. Schlegel, G. E. Scuseria, 
 M. A. Robb, J. R. Cheeseman, G. Scalmani, V. Barone, 
 G. A. Petersson, H. Nakatsuji, X. Li, M. Caricato, A. V. Marenich, 
 J. Bloino, B. G. Janesko, R. Gomperts, B. Mennucci, H. P. Hratchian, 
 J. V. Ortiz, A. F. Izmaylov, J. L. Sonnenberg, D. Williams-Young, 
 F. Ding, F. Lipparini, F. Egidi, J. Goings, B. Peng, A. Petrone, 
 T. Henderson, D. Ranasinghe, V. G. Zakrzewski, J. Gao, N. Rega, 
 G. Zheng, W. Liang, M. Hada, M. Ehara, K. Toyota, R. Fukuda, 
 J. Hasegawa, M. Ishida, T. Nakajima, Y. Honda, O. Kitao, H. Nakai, 
 T. Vreven, K. Throssell, J. A. Montgomery, Jr., J. E. Peralta, 
 F. Ogliaro, M. J. Bearpark, J. J. Heyd, E. N. Brothers, K. N. Kudin, 
 V. N. Staroverov, T. A. Keith, R. Kobayashi, J. Normand, 
 K. Raghavachari, A. P. Rendell, J. C. Burant, S. S. Iyengar, 
 J. Tomasi, M. Cossi, J. M. Millam, M. Klene, C. Adamo, R. Cammi, 
 J. W. Ochterski, R. L. Martin, K. Morokuma, O. Farkas, 
 J. B. Foresman, and D. J. Fox, Gaussian, Inc., Wallingford CT, 2016.
 
 ******************************************
 Gaussian 16:  ES64L-G16RevA.03 25-Dec-2016
                12-Jul-2021 
 ******************************************
 %mem=800MB
 %nproc=4
 Will use up to    4 processors via shared memory.
 %chk=SET_328_BBB212_conf1.geo_315_300.chk
 ---------------------------------------------------------------
 #p b3lyp/6-31G(d) opt freq scrf=(iefpcm,read,solvent=n-octanol)
 ---------------------------------------------------------------
 1/18=20,19=15,26=3,38=1,40=2/1,3;
 2/9=110,12=2,17=6,18=5,40=1/2;
 3/5=1,6=6,7=1,11=2,25=1,30=1,70=2203,71=1,72=25,74=-5/1,2,3;
 4//1;
 5/5=2,38=5,53=25/2;
 6/7=2,8=2,9=2,10=2,28=1/1;
 7//1,2,3,16;
 1/18=20,19=15,26=3/3(2);
 2/9=110/2;
 99//99;
 2/9=110/2;
 3/5=1,6=6,7=1,11=2,25=1,30=1,70=2205,71=1,72=25,74=-5/1,2,3;
 4/5=5,16=3,69=1/1;
 5/5=2,38=5,53=25/2;
 7//1,2,3,16;
 1/18=20,19=15,26=3/3(-5);
 2/9=110/2;
 6/7=2,8=2,9=2,10=2,19=2,28=1/1;
 99/9=1/99;
 Leave Link    1 at Mon Jul 12 12:15:40 2021, MaxMem=   104857600 cpu:               0.0 elap:               0.0
 (Enter /dades/curu/g16A03_MST/g16/l101.exe)
 -----------------------------------------
 SET_328_BBB212_conf1.geo_315_300 geometry
 -----------------------------------------
 Symbolic Z-matrix:
 Charge = -1 Multiplicity = 1
 C                     0.32      1.687    -1.682 
 H                     1.145     1.612    -2.392 
 H                     0.583     2.386    -0.885 
 H                    -0.42      2.102    -2.369 
 C                    -0.119     0.3      -1.107 
 C                    -0.787    -0.384    -2.302 
 H                    -1.497     0.312    -2.754 
 H                    -1.216    -1.345    -2.012 
 H                    -0.034    -0.703    -3.026 
 C                    -1.193     0.482     0. 
 C                    -1.454    -0.585     0.807 
 C                    -2.402    -0.564     1.802 
 C                    -3.087     0.712     2.055 
 O                    -4.01      0.802     3.07 
 H                    -4.379     1.693     3.207 
 C                    -2.87      1.772     1.173 
 C                    -1.844     1.68      0.195 
 H                    -1.603     2.611    -0.311 
 H                    -3.477     2.669     1.262 
 H                    -2.518    -1.447     2.426 
 H                    -1.095    -1.585     0.576 
 C                     1.098    -0.415    -0.511 
 C                     1.756     0.219     0.557 
 H                     1.385     1.152     0.974 
 C                     2.909    -0.301     1.047 
 H                     3.425     0.156     1.888 
 C                     3.397    -1.478     0.529 
 O                     4.343    -2.06      1.265 
 C                     2.711    -2.193    -0.464 
 H                     3.102    -3.129    -0.857 
 C                     1.563    -1.65     -1.064 
 H                     1.121    -2.256    -1.851 
 
 ITRead=  0  0  0  0  0  0  0  0  0  0  0  0  0  0  0  0  0  0  0  0
 ITRead=  0  0  0  0  0  0  0  0  0  0  0  0
 MicOpt= -1 -1 -1 -1 -1 -1 -1 -1 -1 -1 -1 -1 -1 -1 -1 -1 -1 -1 -1 -1
 MicOpt= -1 -1 -1 -1 -1 -1 -1 -1 -1 -1 -1 -1
 NAtoms=     32 NQM=       32 NQMF=       0 NMMI=      0 NMMIF=      0
                NMic=       0 NMicF=      0.
                    Isotopes and Nuclear Properties:
 (Nuclear quadrupole moments (NQMom) in fm**2, nuclear magnetic moments (NMagM)
  in nuclear magnetons)

  Atom         1           2           3           4           5           6           7           8           9          10
 IAtWgt=          12           1           1           1          12          12           1           1           1          12
 AtmWgt=  12.0000000   1.0078250   1.0078250   1.0078250  12.0000000  12.0000000   1.0078250   1.0078250   1.0078250  12.0000000
 NucSpn=           0           1           1           1           0           0           1           1           1           0
 AtZEff=  -0.0000000  -0.0000000  -0.0000000  -0.0000000  -0.0000000  -0.0000000  -0.0000000  -0.0000000  -0.0000000  -0.0000000
 NQMom=    0.0000000   0.0000000   0.0000000   0.0000000   0.0000000   0.0000000   0.0000000   0.0000000   0.0000000   0.0000000
 NMagM=    0.0000000   2.7928460   2.7928460   2.7928460   0.0000000   0.0000000   2.7928460   2.7928460   2.7928460   0.0000000
 AtZNuc=   6.0000000   1.0000000   1.0000000   1.0000000   6.0000000   6.0000000   1.0000000   1.0000000   1.0000000   6.0000000

  Atom        11          12          13          14          15          16          17          18          19          20
 IAtWgt=          12          12          12          16           1          12          12           1           1           1
 AtmWgt=  12.0000000  12.0000000  12.0000000  15.9949146   1.0078250  12.0000000  12.0000000   1.0078250   1.0078250   1.0078250
 NucSpn=           0           0           0           0           1           0           0           1           1           1
 AtZEff=  -0.0000000  -0.0000000  -0.0000000  -0.0000000  -0.0000000  -0.0000000  -0.0000000  -0.0000000  -0.0000000  -0.0000000
 NQMom=    0.0000000   0.0000000   0.0000000   0.0000000   0.0000000   0.0000000   0.0000000   0.0000000   0.0000000   0.0000000
 NMagM=    0.0000000   0.0000000   0.0000000   0.0000000   2.7928460   0.0000000   0.0000000   2.7928460   2.7928460   2.7928460
 AtZNuc=   6.0000000   6.0000000   6.0000000   8.0000000   1.0000000   6.0000000   6.0000000   1.0000000   1.0000000   1.0000000

  Atom        21          22          23          24          25          26          27          28          29          30
 IAtWgt=           1          12          12           1          12           1          12          16          12           1
 AtmWgt=   1.0078250  12.0000000  12.0000000   1.0078250  12.0000000   1.0078250  12.0000000  15.9949146  12.0000000   1.0078250
 NucSpn=           1           0           0           1           0           1           0           0           0           1
 AtZEff=  -0.0000000  -0.0000000  -0.0000000  -0.0000000  -0.0000000  -0.0000000  -0.0000000  -0.0000000  -0.0000000  -0.0000000
 NQMom=    0.0000000   0.0000000   0.0000000   0.0000000   0.0000000   0.0000000   0.0000000   0.0000000   0.0000000   0.0000000
 NMagM=    2.7928460   0.0000000   0.0000000   2.7928460   0.0000000   2.7928460   0.0000000   0.0000000   0.0000000   2.7928460
 AtZNuc=   1.0000000   6.0000000   6.0000000   1.0000000   6.0000000   1.0000000   6.0000000   8.0000000   6.0000000   1.0000000

  Atom        31          32
 IAtWgt=          12           1
 AtmWgt=  12.0000000   1.0078250
 NucSpn=           0           1
 AtZEff=  -0.0000000  -0.0000000
 NQMom=    0.0000000   0.0000000
 NMagM=    0.0000000   2.7928460
 AtZNuc=   6.0000000   1.0000000
 Leave Link  101 at Mon Jul 12 12:15:40 2021, MaxMem=   104857600 cpu:               0.2 elap:               0.2
 (Enter /dades/curu/g16A03_MST/g16/l103.exe)

 GradGradGradGradGradGradGradGradGradGradGradGradGradGradGradGradGradGrad
 Berny optimization.
 Initialization pass.
                           ----------------------------
                           !    Initial Parameters    !
                           ! (Angstroms and Degrees)  !
 --------------------------                            --------------------------
 ! Name  Definition              Value          Derivative Info.                !
 --------------------------------------------------------------------------------
 ! R1    R(1,2)                  1.091          estimate D2E/DX2                !
 ! R2    R(1,3)                  1.0922         estimate D2E/DX2                !
 ! R3    R(1,4)                  1.0917         estimate D2E/DX2                !
 ! R4    R(1,5)                  1.5643         estimate D2E/DX2                !
 ! R5    R(5,6)                  1.5304         estimate D2E/DX2                !
 ! R6    R(5,10)                 1.5531         estimate D2E/DX2                !
 ! R7    R(5,22)                 1.5322         estimate D2E/DX2                !
 ! R8    R(6,7)                  1.0922         estimate D2E/DX2                !
 ! R9    R(6,8)                  1.0916         estimate D2E/DX2                !
 ! R10   R(6,9)                  1.0922         estimate D2E/DX2                !
 ! R11   R(10,11)                1.363          estimate D2E/DX2                !
 ! R12   R(10,17)                1.3773         estimate D2E/DX2                !
 ! R13   R(11,12)                1.3745         estimate D2E/DX2                !
 ! R14   R(11,21)                1.0873         estimate D2E/DX2                !
 ! R15   R(12,13)                1.4702         estimate D2E/DX2                !
 ! R16   R(12,20)                1.0874         estimate D2E/DX2                !
 ! R17   R(13,14)                1.3749         estimate D2E/DX2                !
 ! R18   R(13,16)                1.3959         estimate D2E/DX2                !
 ! R19   R(14,15)                0.9741         estimate D2E/DX2                !
 ! R20   R(16,17)                1.4204         estimate D2E/DX2                !
 ! R21   R(16,19)                1.0867         estimate D2E/DX2                !
 ! R22   R(17,18)                1.0867         estimate D2E/DX2                !
 ! R23   R(22,23)                1.4055         estimate D2E/DX2                !
 ! R24   R(22,31)                1.4308         estimate D2E/DX2                !
 ! R25   R(23,24)                1.0872         estimate D2E/DX2                !
 ! R26   R(23,25)                1.3564         estimate D2E/DX2                !
 ! R27   R(25,26)                1.0874         estimate D2E/DX2                !
 ! R28   R(25,27)                1.3754         estimate D2E/DX2                !
 ! R29   R(27,28)                1.3324         estimate D2E/DX2                !
 ! R30   R(27,29)                1.4028         estimate D2E/DX2                !
 ! R31   R(29,30)                1.0879         estimate D2E/DX2                !
 ! R32   R(29,31)                1.4045         estimate D2E/DX2                !
 ! R33   R(31,32)                1.0872         estimate D2E/DX2                !
 ! A1    A(2,1,3)              109.6804         estimate D2E/DX2                !
 ! A2    A(2,1,4)               97.4218         estimate D2E/DX2                !
 ! A3    A(2,1,5)              112.9828         estimate D2E/DX2                !
 ! A4    A(3,1,4)              112.28           estimate D2E/DX2                !
 ! A5    A(3,1,5)              111.5175         estimate D2E/DX2                !
 ! A6    A(4,1,5)              112.2184         estimate D2E/DX2                !
 ! A7    A(1,5,6)              103.4006         estimate D2E/DX2                !
 ! A8    A(1,5,10)             110.6194         estimate D2E/DX2                !
 ! A9    A(1,5,22)             109.5018         estimate D2E/DX2                !
 ! A10   A(6,5,10)             107.8845         estimate D2E/DX2                !
 ! A11   A(6,5,22)             116.2236         estimate D2E/DX2                !
 ! A12   A(10,5,22)            109.0689         estimate D2E/DX2                !
 ! A13   A(5,6,7)              108.7894         estimate D2E/DX2                !
 ! A14   A(5,6,8)              110.9503         estimate D2E/DX2                !
 ! A15   A(5,6,9)              110.3168         estimate D2E/DX2                !
 ! A16   A(7,6,8)              114.5492         estimate D2E/DX2                !
 ! A17   A(7,6,9)              111.0986         estimate D2E/DX2                !
 ! A18   A(8,6,9)              100.9479         estimate D2E/DX2                !
 ! A19   A(5,10,11)            117.5609         estimate D2E/DX2                !
 ! A20   A(5,10,17)            121.9851         estimate D2E/DX2                !
 ! A21   A(11,10,17)           120.4351         estimate D2E/DX2                !
 ! A22   A(10,11,12)           123.2788         estimate D2E/DX2                !
 ! A23   A(10,11,21)           122.0695         estimate D2E/DX2                !
 ! A24   A(12,11,21)           113.3018         estimate D2E/DX2                !
 ! A25   A(11,12,13)           117.3355         estimate D2E/DX2                !
 ! A26   A(11,12,20)           118.4616         estimate D2E/DX2                !
 ! A27   A(13,12,20)           123.8006         estimate D2E/DX2                !
 ! A28   A(12,13,14)           119.7791         estimate D2E/DX2                !
 ! A29   A(12,13,16)           118.5482         estimate D2E/DX2                !
 ! A30   A(14,13,16)           121.4068         estimate D2E/DX2                !
 ! A31   A(13,14,15)           114.7103         estimate D2E/DX2                !
 ! A32   A(13,16,17)           119.8769         estimate D2E/DX2                !
 ! A33   A(13,16,19)           119.2226         estimate D2E/DX2                !
 ! A34   A(17,16,19)           120.8842         estimate D2E/DX2                !
 ! A35   A(10,17,16)           119.6844         estimate D2E/DX2                !
 ! A36   A(10,17,18)           125.0606         estimate D2E/DX2                !
 ! A37   A(16,17,18)           115.17           estimate D2E/DX2                !
 ! A38   A(5,22,23)            117.1891         estimate D2E/DX2                !
 ! A39   A(5,22,31)            120.703          estimate D2E/DX2                !
 ! A40   A(23,22,31)           122.0643         estimate D2E/DX2                !
 ! A41   A(22,23,24)           121.2507         estimate D2E/DX2                !
 ! A42   A(22,23,25)           119.9672         estimate D2E/DX2                !
 ! A43   A(24,23,25)           118.7176         estimate D2E/DX2                !
 ! A44   A(23,25,26)           121.4425         estimate D2E/DX2                !
 ! A45   A(23,25,27)           119.5771         estimate D2E/DX2                !
 ! A46   A(26,25,27)           118.8527         estimate D2E/DX2                !
 ! A47   A(25,27,28)           114.6867         estimate D2E/DX2                !
 ! A48   A(25,27,29)           121.9546         estimate D2E/DX2                !
 ! A49   A(28,27,29)           121.0359         estimate D2E/DX2                !
 ! A50   A(27,29,30)           121.232          estimate D2E/DX2                !
 ! A51   A(27,29,31)           120.3339         estimate D2E/DX2                !
 ! A52   A(30,29,31)           118.1696         estimate D2E/DX2                !
 ! A53   A(22,31,29)           115.7354         estimate D2E/DX2                !
 ! A54   A(22,31,32)           128.9592         estimate D2E/DX2                !
 ! A55   A(29,31,32)           115.2163         estimate D2E/DX2                !
 ! D1    D(2,1,5,6)            -70.4758         estimate D2E/DX2                !
 ! D2    D(2,1,5,10)           174.2504         estimate D2E/DX2                !
 ! D3    D(2,1,5,22)            54.0143         estimate D2E/DX2                !
 ! D4    D(3,1,5,6)            165.4386         estimate D2E/DX2                !
 ! D5    D(3,1,5,10)            50.1648         estimate D2E/DX2                !
 ! D6    D(3,1,5,22)           -70.0713         estimate D2E/DX2                !
 ! D7    D(4,1,5,6)             38.4779         estimate D2E/DX2                !
 ! D8    D(4,1,5,10)           -76.7959         estimate D2E/DX2                !
 ! D9    D(4,1,5,22)           162.968          estimate D2E/DX2                !
 ! D10   D(1,5,6,7)            -48.5719         estimate D2E/DX2                !
 ! D11   D(1,5,6,8)           -175.4553         estimate D2E/DX2                !
 ! D12   D(1,5,6,9)             73.5301         estimate D2E/DX2                !
 ! D13   D(10,5,6,7)            68.6397         estimate D2E/DX2                !
 ! D14   D(10,5,6,8)           -58.2438         estimate D2E/DX2                !
 ! D15   D(10,5,6,9)          -169.2584         estimate D2E/DX2                !
 ! D16   D(22,5,6,7)          -168.5657         estimate D2E/DX2                !
 ! D17   D(22,5,6,8)            64.5509         estimate D2E/DX2                !
 ! D18   D(22,5,6,9)           -46.4638         estimate D2E/DX2                !
 ! D19   D(1,5,10,11)         -165.28           estimate D2E/DX2                !
 ! D20   D(1,5,10,17)           13.1423         estimate D2E/DX2                !
 ! D21   D(6,5,10,11)           82.2865         estimate D2E/DX2                !
 ! D22   D(6,5,10,17)          -99.2912         estimate D2E/DX2                !
 ! D23   D(22,5,10,11)         -44.7853         estimate D2E/DX2                !
 ! D24   D(22,5,10,17)         133.637          estimate D2E/DX2                !
 ! D25   D(1,5,22,23)           61.1516         estimate D2E/DX2                !
 ! D26   D(1,5,22,31)         -116.495          estimate D2E/DX2                !
 ! D27   D(6,5,22,23)          177.8002         estimate D2E/DX2                !
 ! D28   D(6,5,22,31)            0.1536         estimate D2E/DX2                !
 ! D29   D(10,5,22,23)         -60.0268         estimate D2E/DX2                !
 ! D30   D(10,5,22,31)         122.3267         estimate D2E/DX2                !
 ! D31   D(5,10,11,12)        -178.4227         estimate D2E/DX2                !
 ! D32   D(5,10,11,21)         -12.5834         estimate D2E/DX2                !
 ! D33   D(17,10,11,12)          3.1294         estimate D2E/DX2                !
 ! D34   D(17,10,11,21)        168.9687         estimate D2E/DX2                !
 ! D35   D(5,10,17,16)         176.5496         estimate D2E/DX2                !
 ! D36   D(5,10,17,18)          -6.9727         estimate D2E/DX2                !
 ! D37   D(11,10,17,16)         -5.0726         estimate D2E/DX2                !
 ! D38   D(11,10,17,18)        171.4051         estimate D2E/DX2                !
 ! D39   D(10,11,12,13)         -4.5781         estimate D2E/DX2                !
 ! D40   D(10,11,12,20)       -177.5782         estimate D2E/DX2                !
 ! D41   D(21,11,12,13)       -171.5327         estimate D2E/DX2                !
 ! D42   D(21,11,12,20)         15.4672         estimate D2E/DX2                !
 ! D43   D(11,12,13,14)       -177.6993         estimate D2E/DX2                !
 ! D44   D(11,12,13,16)          8.1393         estimate D2E/DX2                !
 ! D45   D(20,12,13,14)         -5.107          estimate D2E/DX2                !
 ! D46   D(20,12,13,16)       -179.2685         estimate D2E/DX2                !
 ! D47   D(12,13,14,15)        176.498          estimate D2E/DX2                !
 ! D48   D(16,13,14,15)         -9.5116         estimate D2E/DX2                !
 ! D49   D(12,13,16,17)        -10.3363         estimate D2E/DX2                !
 ! D50   D(12,13,16,19)        171.1188         estimate D2E/DX2                !
 ! D51   D(14,13,16,17)        175.6014         estimate D2E/DX2                !
 ! D52   D(14,13,16,19)         -2.9434         estimate D2E/DX2                !
 ! D53   D(13,16,17,10)          8.8956         estimate D2E/DX2                !
 ! D54   D(13,16,17,18)       -167.9192         estimate D2E/DX2                !
 ! D55   D(19,16,17,10)       -172.5841         estimate D2E/DX2                !
 ! D56   D(19,16,17,18)         10.6011         estimate D2E/DX2                !
 ! D57   D(5,22,23,24)           3.0472         estimate D2E/DX2                !
 ! D58   D(5,22,23,25)        -173.9925         estimate D2E/DX2                !
 ! D59   D(31,22,23,24)       -179.3406         estimate D2E/DX2                !
 ! D60   D(31,22,23,25)          3.6197         estimate D2E/DX2                !
 ! D61   D(5,22,31,29)         178.0615         estimate D2E/DX2                !
 ! D62   D(5,22,31,32)          -5.5707         estimate D2E/DX2                !
 ! D63   D(23,22,31,29)          0.5318         estimate D2E/DX2                !
 ! D64   D(23,22,31,32)        176.8996         estimate D2E/DX2                !
 ! D65   D(22,23,25,26)       -178.4945         estimate D2E/DX2                !
 ! D66   D(22,23,25,27)         -2.6504         estimate D2E/DX2                !
 ! D67   D(24,23,25,26)          4.3912         estimate D2E/DX2                !
 ! D68   D(24,23,25,27)       -179.7647         estimate D2E/DX2                !
 ! D69   D(23,25,27,28)       -165.3016         estimate D2E/DX2                !
 ! D70   D(23,25,27,29)         -2.4581         estimate D2E/DX2                !
 ! D71   D(26,25,27,28)         10.6503         estimate D2E/DX2                !
 ! D72   D(26,25,27,29)        173.4939         estimate D2E/DX2                !
 ! D73   D(25,27,29,30)       -179.2639         estimate D2E/DX2                !
 ! D74   D(25,27,29,31)          6.7522         estimate D2E/DX2                !
 ! D75   D(28,27,29,30)        -17.492          estimate D2E/DX2                !
 ! D76   D(28,27,29,31)        168.524          estimate D2E/DX2                !
 ! D77   D(27,29,31,22)         -5.5133         estimate D2E/DX2                !
 ! D78   D(27,29,31,32)        177.608          estimate D2E/DX2                !
 ! D79   D(30,29,31,22)       -179.6786         estimate D2E/DX2                !
 ! D80   D(30,29,31,32)          3.4428         estimate D2E/DX2                !
 --------------------------------------------------------------------------------
 Trust Radius=3.00D-01 FncErr=1.00D-07 GrdErr=1.00D-06 EigMax=2.50D+02 EigMin=1.00D-04
 Number of steps in this run=    178 maximum allowed number of steps=    192.
 GradGradGradGradGradGradGradGradGradGradGradGradGradGradGradGradGradGrad

 Leave Link  103 at Mon Jul 12 12:15:40 2021, MaxMem=   104857600 cpu:               0.0 elap:               0.0
 (Enter /dades/curu/g16A03_MST/g16/l202.exe)
                          Input orientation:                          
 ---------------------------------------------------------------------
 Center     Atomic      Atomic             Coordinates (Angstroms)
 Number     Number       Type             X           Y           Z
 ---------------------------------------------------------------------
      1          6           0        0.320000    1.687000   -1.682000
      2          1           0        1.145000    1.612000   -2.392000
      3          1           0        0.583000    2.386000   -0.885000
      4          1           0       -0.420000    2.102000   -2.369000
      5          6           0       -0.119000    0.300000   -1.107000
      6          6           0       -0.787000   -0.384000   -2.302000
      7          1           0       -1.497000    0.312000   -2.754000
      8          1           0       -1.216000   -1.345000   -2.012000
      9          1           0       -0.034000   -0.703000   -3.026000
     10          6           0       -1.193000    0.482000    0.000000
     11          6           0       -1.454000   -0.585000    0.807000
     12          6           0       -2.402000   -0.564000    1.802000
     13          6           0       -3.087000    0.712000    2.055000
     14          8           0       -4.010000    0.802000    3.070000
     15          1           0       -4.379000    1.693000    3.207000
     16          6           0       -2.870000    1.772000    1.173000
     17          6           0       -1.844000    1.680000    0.195000
     18          1           0       -1.603000    2.611000   -0.311000
     19          1           0       -3.477000    2.669000    1.262000
     20          1           0       -2.518000   -1.447000    2.426000
     21          1           0       -1.095000   -1.585000    0.576000
     22          6           0        1.098000   -0.415000   -0.511000
     23          6           0        1.756000    0.219000    0.557000
     24          1           0        1.385000    1.152000    0.974000
     25          6           0        2.909000   -0.301000    1.047000
     26          1           0        3.425000    0.156000    1.888000
     27          6           0        3.397000   -1.478000    0.529000
     28          8           0        4.343000   -2.060000    1.265000
     29          6           0        2.711000   -2.193000   -0.464000
     30          1           0        3.102000   -3.129000   -0.857000
     31          6           0        1.563000   -1.650000   -1.064000
     32          1           0        1.121000   -2.256000   -1.851000
 ---------------------------------------------------------------------
                    Distance matrix (angstroms):
                    1          2          3          4          5
     1  C    0.000000
     2  H    1.091032   0.000000
     3  H    1.092236   1.784928   0.000000
     4  H    1.091693   1.640077   1.813538   0.000000
     5  C    1.564326   2.229409   2.212122   2.220461   0.000000
     6  C    2.428763   2.779342   3.399660   2.513837   1.530394
     7  H    2.518193   2.966683   3.481528   2.124207   2.147472
     8  H    3.414853   3.802969   4.292655   3.555682   2.174502
     9  H    2.764734   2.674177   3.808739   2.906660   2.166978
    10  C    2.563263   3.530553   2.750021   2.972220   1.553077
    11  C    3.808436   4.670676   3.979833   4.286735   2.495766
    12  C    4.961304   5.908115   4.983241   5.332272   3.797482
    13  C    5.150092   6.204485   4.991470   5.349464   4.356261
    14  O    6.489501   7.554043   6.264721   6.645361   5.730551
    15  H    6.781074   7.865745   6.468861   6.850747   6.220823
    16  C    4.281863   5.371690   4.066395   4.319394   3.864348
    17  C    2.864625   3.953646   2.748666   2.963099   2.564221
    18  H    2.536010   3.588881   2.271277   2.427743   2.859474
    19  H    4.903944   5.985971   4.601445   4.780261   4.743468
    20  H    5.895071   6.781458   5.938923   6.323688   4.614033
    21  H    4.219807   4.903818   4.551818   4.766825   2.708928
    22  C    2.528820   2.765700   2.872404   3.477323   1.532165
    23  C    3.038131   3.318188   2.855027   4.103918   2.508203
    24  H    2.911149   3.405753   2.371042   3.916143   2.705269
    25  C    4.254704   4.312538   4.045104   5.340946   3.764266
    26  H    4.972915   5.063273   4.554052   6.057474   4.642273
    27  C    4.936970   4.811636   4.984826   5.981997   4.266150
    28  O    6.237736   6.089699   6.207013   7.294818   5.577224
    29  C    4.717500   4.543959   5.066840   5.646168   3.825885
    30  H    5.622633   5.353798   6.063116   6.484905   4.711198
    31  C    3.614214   3.546682   4.157131   4.439912   2.575553
    32  H    4.027085   3.905724   4.771872   4.651362   2.936711
                    6          7          8          9         10
     6  C    0.000000
     7  H    1.092163   0.000000
     8  H    1.091633   1.837165   0.000000
     9  H    1.092221   1.801271   1.684483   0.000000
    10  C    2.492789   2.775938   2.717830   3.450244   0.000000
    11  C    3.186090   3.672489   2.929335   4.089280   1.363033
    12  C    4.414005   4.726895   4.069785   5.379250   2.408942
    13  C    5.047243   5.080805   4.926701   6.094226   2.804133
    14  O    6.375948   6.361937   6.184074   7.432013   4.178850
    15  H    6.896773   6.763624   6.817036   7.966814   4.679954
    16  C    4.589428   4.408861   4.753486   5.639160   2.419165
    17  C    3.407690   3.269317   3.796822   4.396548   1.377327
    18  H    3.687813   3.356320   4.323552   4.562410   2.190311
    19  H    5.409159   5.060050   5.651849   6.450704   3.404742
    20  H    5.145903   5.564973   4.626170   6.037226   3.370778
    21  H    3.133712   3.853455   2.601919   3.857207   2.147992
    22  C    2.600359   3.506223   2.910755   2.773012   2.512849
    23  C    3.873543   4.642562   4.228314   4.109997   3.012643
    24  H    4.220078   4.786388   4.681496   4.631910   2.836135
    25  C    4.988297   5.851171   5.240519   5.041050   4.305311
    26  H    5.965622   6.767465   6.245149   6.070417   4.999674
    27  C    5.168873   6.159012   5.268220   5.001041   5.018918
    28  O    6.469109   7.475583   6.492491   6.277918   6.221679
    29  C    4.345886   5.406144   4.305431   4.039674   4.755222
    30  H    4.974673   6.048958   4.812671   4.519351   5.676336
    31  C    2.942431   4.008634   2.952045   2.701233   3.643221
    32  H    2.710765   3.776765   2.513446   2.264169   4.034531
                   11         12         13         14         15
    11  C    0.000000
    12  C    1.374471   0.000000
    13  C    2.430309   1.470173   0.000000
    14  O    3.684844   2.461594   1.374865   0.000000
    15  H    4.416436   3.313096   1.989655   0.974069   0.000000
    16  C    2.773889   2.464054   1.395927   2.416425   2.533866
    17  C    2.378417   2.815910   2.437555   3.705140   3.936818
    18  H    3.389180   3.896639   3.377338   4.527393   4.574410
    19  H    3.858506   3.449567   2.147277   2.653044   2.355675
    20  H    2.120448   1.087438   2.263334   2.774671   3.732678
    21  H    1.087310   2.062466   3.381082   4.518299   5.334051
    22  C    2.877278   4.197877   5.036736   6.355809   6.947281
    23  C    3.318586   4.410451   5.093300   6.316788   6.843493
    24  H    3.332413   4.239293   4.621790   5.798426   6.205052
    25  C    4.378815   5.370839   6.163948   7.292578   7.858535
    26  H    5.051958   5.871944   6.537826   7.556035   8.062540
    27  C    4.940337   6.007023   7.011921   8.155902   8.814369
    28  O    5.999216   6.929748   7.969503   9.012307   9.691731
    29  C    4.642018   5.825046   6.957096   8.162783   8.879490
    30  H    5.477040   6.628991   7.844536   9.025222   9.784331
    31  C    3.706367   5.011445   6.076982   7.359388   8.045151
    32  H    4.060521   5.349654   6.463213   7.739171   8.451507
                   16         17         18         19         20
    16  C    0.000000
    17  C    1.420431   0.000000
    18  H    2.124021   1.086682   0.000000
    19  H    1.086729   2.187075   2.447360   0.000000
    20  H    3.472157   3.899970   4.979534   4.383610   0.000000
    21  H    3.844019   3.371407   4.318709   4.923519   2.338049
    22  C    4.833617   3.680058   4.061044   5.795275   4.771420
    23  C    4.918449   3.901995   4.214021   5.820981   4.953362
    24  H    4.304536   3.363341   3.564835   5.101302   4.908820
    25  C    6.140851   5.219317   5.539138   7.046142   5.715530
    26  H    6.538326   5.740312   6.011939   7.371882   6.178859
    27  C    7.088902   6.128018   6.513488   8.061437   6.211827
    28  O    8.168235   7.308315   7.723790   9.138701   6.985486
    29  C    7.039073   6.015184   6.458515   8.056641   6.020885
    30  H    7.987834   6.978259   7.441958   9.021652   6.722471
    31  C    6.030401   4.927639   5.361594   7.033181   5.373627
    32  H    6.426309   5.335676   5.786144   7.422129   5.673582
                   21         22         23         24         25
    21  H    0.000000
    22  C    2.712880   0.000000
    23  C    3.373867   1.405540   0.000000
    24  H    3.714831   2.177862   1.087207   0.000000
    25  C    4.231136   2.391669   1.356432   2.106921   0.000000
    26  H    5.018249   3.390600   2.135671   2.447246   1.087376
    27  C    4.493520   2.738060   2.360821   3.341118   1.375426
    28  O    5.502017   4.048484   3.519613   4.376230   2.279904
    29  C    3.992105   2.401096   2.787868   3.874938   2.429401
    30  H    4.695981   3.391390   3.875592   4.962621   3.414681
    31  C    3.123906   1.430825   2.481542   3.469342   2.843912
    32  H    3.354285   2.277150   3.511027   4.434499   3.926496
                   26         27         28         29         30
    26  H    0.000000
    27  C    2.125470   0.000000
    28  O    2.478207   1.332417   0.000000
    29  C    3.399927   1.402808   2.381293   0.000000
    30  H    4.293085   2.175735   2.680620   1.087854   0.000000
    31  C    3.929756   2.435321   3.649759   1.404547   2.144484
    32  H    5.010617   3.383764   4.486553   2.110886   2.382126
                   31         32
    31  C    0.000000
    32  H    1.087184   0.000000
 Stoichiometry    C15H15O2(1-)
 Framework group  C1[X(C15H15O2)]
 Deg. of freedom    90
 Full point group                 C1      NOp   1
 Largest Abelian subgroup         C1      NOp   1
 Largest concise Abelian subgroup C1      NOp   1
                         Standard orientation:                         
 ---------------------------------------------------------------------
 Center     Atomic      Atomic             Coordinates (Angstroms)
 Number     Number       Type             X           Y           Z
 ---------------------------------------------------------------------
      1          6           0       -0.124712    2.366734   -1.230851
      2          1           0       -1.059213    2.921394   -1.327855
      3          1           0        0.062762    1.799175   -2.145022
      4          1           0        0.540444    3.226954   -1.133990
      5          6           0       -0.089206    1.446214    0.033465
      6          6           0        0.007222    2.440087    1.193216
      7          1           0        0.797376    3.161368    0.973601
      8          1           0        0.120888    1.918783    2.145573
      9          1           0       -0.951557    2.941015    1.344082
     10          6           0        1.198155    0.577488    0.041523
     11          6           0        1.237453   -0.483830    0.895876
     12          6           0        2.328272   -1.310494    1.022014
     13          6           0        3.459183   -1.079627    0.111437
     14          8           0        4.556246   -1.906774    0.161767
     15          1           0        5.237810   -1.720422   -0.508721
     16          6           0        3.440559    0.055357   -0.701014
     17          6           0        2.257561    0.835315   -0.800032
     18          1           0        2.255582    1.572664   -1.598274
     19          1           0        4.329573    0.315748   -1.269196
     20          1           0        2.260203   -2.158654    1.699149
     21          1           0        0.505280   -0.613786    1.689146
     22          6           0       -1.314140    0.525856    0.030638
     23          6           0       -1.447646   -0.362289   -1.050527
     24          1           0       -0.686697   -0.427324   -1.824313
     25          6           0       -2.569070   -1.115280   -1.174312
     26          1           0       -2.687231   -1.827410   -1.987512
     27          6           0       -3.545356   -1.043100   -0.208158
     28          8           0       -4.445769   -2.024236   -0.252486
     29          6           0       -3.398359   -0.247579    0.937882
     30          1           0       -4.173156   -0.208398    1.700496
     31          6           0       -2.297944    0.615850    1.065670
     32          1           0       -2.287703    1.222767    1.967621
 ---------------------------------------------------------------------
 Rotational constants (GHZ):           0.8395837           0.2760059           0.2406736
 Leave Link  202 at Mon Jul 12 12:15:40 2021, MaxMem=   104857600 cpu:               0.0 elap:               0.0
 (Enter /dades/curu/g16A03_MST/g16/l301.exe)
 Standard basis: 6-31G(d) (6D, 7F)
 Ernie: Thresh=  0.10000D-02 Tol=  0.10000D-05 Strict=F.
 There are   285 symmetry adapted cartesian basis functions of A   symmetry.
 There are   285 symmetry adapted basis functions of A   symmetry.
   285 basis functions,   536 primitive gaussians,   285 cartesian basis functions
    61 alpha electrons       61 beta electrons
       nuclear repulsion energy      1136.9550265404 Hartrees.
 IExCor=  402 DFT=T Ex+Corr=B3LYP ExCW=0 ScaHFX=  0.200000
 ScaDFX=  0.800000  0.720000  1.000000  0.810000 ScalE2=  1.000000  1.000000
 IRadAn=      5 IRanWt=     -1 IRanGd=            0 ICorTp=0 IEmpDi=  4
 NAtoms=   32 NActive=   32 NUniq=   32 SFac= 1.00D+00 NAtFMM=   60 NAOKFM=F Big=F
 Integral buffers will be    131072 words long.
 Raffenetti 2 integral format.
 Two-electron integral symmetry is turned on.
 Using the following non-standard input for PCM:
 MSTModel=DFT cav MSTCharged
 --- end of non-standard input.
 MST model for solvation energy: B3LYP parametrization.
 MST cavity parameters:
 ISph   IAn     Re0     Alpha   Atom Type   QCorr
 ------------------------------------------------
   1      6     1.50     1.50      CH3        F
   2      1     1.20     1.50      CH3        F
   3      1     1.20     1.50      CH3        F
   4      1     1.20     1.50      CH3        F
   5      6     1.50     1.50      C          F
   6      6     1.50     1.50      CH3        F
   7      1     1.20     1.50      CH3        F
   8      1     1.20     1.50      CH3        F
   9      1     1.20     1.50      CH3        F
  10      6     1.50     1.50      C          F
  11      6     1.50     1.50      CH         F
  12      6     1.50     1.50      CH         F
  13      6     1.50     1.50      C          F
  14      8     1.40     1.50      OH         F
  15      1     0.90     1.50      OH         F
  16      6     1.50     1.50      CH         F
  17      6     1.50     1.50      CH         F
  18      1     1.20     1.50      CH         F
  19      1     1.20     1.50      CH         F
  20      1     1.20     1.50      CH         F
  21      1     1.20     1.50      CH         F
  22      6     1.50     1.50      C          F
  23      6     1.50     1.50      CH         F
  24      1     1.20     1.50      CH         F
  25      6     1.50     1.50      CH         F
  26      1     1.20     1.50      CH         F
  27      6     1.50     1.50      C          F
  28      8     1.40     1.15      O          T
  29      6     1.50     1.50      CH         F
  30      1     1.20     1.50      CH         F
  31      6     1.50     1.50      CH         F
  32      1     1.20     1.50      CH         F
 ------------------------------------------------------------------------------
 Polarizable Continuum Model (PCM)
 =================================
 Model                : PCM.
 Atomic radii         : MST.
 Polarization charges : Total charges.
 Charge compensation  : None.
 Solution method      : On-the-fly selection.
 Cavity type          : Scaled VdW (van der Waals Surface) (Alpha=1.500).
 Cavity algorithm     : GePol (No added spheres)
                        Default sphere list used, NSphG=   32.
                        Lebedev-Laikov grids with approx.  5.0 points / Ang**2.
                        Smoothing algorithm: York/Karplus (Gamma=1.0000).
                        Polarization charges: spherical gaussians, with
                                              point-specific exponents (IZeta= 3).
                        Self-potential: point-specific (ISelfS= 7).
                        Self-field    : sphere-specific E.n sum rule (ISelfD= 2).
 1st derivatives      : Analytical E(r).r(x)/FMM algorithm (CHGder, D1EAlg=3).
                        Cavity 1st derivative terms included.
 Solvent              : n-Octanol, Eps=   9.862900 Eps(inf)=   2.043470
 ------------------------------------------------------------------------------
 GePol: Number of generator spheres                  =      32
 GePol: Total number of spheres                      =      32
 GePol: Number of exposed spheres                    =      32 (100.00%)
 GePol: Number of points                             =    2902
 GePol: Average weight of points                     =       0.11
 GePol: Minimum weight of points                     =   0.20D-09
 GePol: Maximum weight of points                     =    0.20790
 GePol: Number of points with low weight             =     149
 GePol: Fraction of low-weight points (<1% of avg)   =       5.13%
 GePol: Cavity surface area                          =    320.071 Ang**2
 GePol: Cavity volume                                =    375.757 Ang**3
 Surface areas from nonelectrostatic (unscaled) cavity and vdw tensions:
 Sphere =    1 Type =  CH3 Surf =        4.183 Tension =       -0.183
 Sphere =    2 Type =  CH3 Surf =       10.019 Tension =       -0.183
 Sphere =    3 Type =  CH3 Surf =        9.593 Tension =       -0.183
 Sphere =    4 Type =  CH3 Surf =        9.164 Tension =       -0.183
 Sphere =    5 Type =  C   Surf =        1.912 Tension =       -0.205
 Sphere =    6 Type =  CH3 Surf =        4.547 Tension =       -0.183
 Sphere =    7 Type =  CH3 Surf =        9.329 Tension =       -0.183
 Sphere =    8 Type =  CH3 Surf =       10.077 Tension =       -0.183
 Sphere =    9 Type =  CH3 Surf =        9.501 Tension =       -0.183
 Sphere =   10 Type =  C   Surf =        5.646 Tension =       -0.205
 Sphere =   11 Type =  CH  Surf =        7.258 Tension =       -0.195
 Sphere =   12 Type =  CH  Surf =        8.002 Tension =       -0.195
 Sphere =   13 Type =  C   Surf =        7.083 Tension =       -0.205
 Sphere =   14 Type =  OH  Surf =       14.453 Tension =       -0.238
 Sphere =   15 Type =  OH  Surf =        4.495 Tension =       -0.238
 Sphere =   16 Type =  CH  Surf =        7.822 Tension =       -0.195
 Sphere =   17 Type =  CH  Surf =        7.582 Tension =       -0.195
 Sphere =   18 Type =  CH  Surf =        9.266 Tension =       -0.195
 Sphere =   19 Type =  CH  Surf =       10.232 Tension =       -0.195
 Sphere =   20 Type =  CH  Surf =       10.245 Tension =       -0.195
 Sphere =   21 Type =  CH  Surf =       10.079 Tension =       -0.195
 Sphere =   22 Type =  C   Surf =        5.705 Tension =       -0.205
 Sphere =   23 Type =  CH  Surf =        7.559 Tension =       -0.195
 Sphere =   24 Type =  CH  Surf =       10.059 Tension =       -0.195
 Sphere =   25 Type =  CH  Surf =        7.459 Tension =       -0.195
 Sphere =   26 Type =  CH  Surf =       10.179 Tension =       -0.195
 Sphere =   27 Type =  C   Surf =        6.633 Tension =       -0.205
 Sphere =   28 Type =  O   Surf =       16.814 Tension =       -0.185
 Sphere =   29 Type =  CH  Surf =        7.770 Tension =       -0.195
 Sphere =   30 Type =  CH  Surf =       10.228 Tension =       -0.195
 Sphere =   31 Type =  CH  Surf =        7.896 Tension =       -0.195
 Sphere =   32 Type =  CH  Surf =        9.664 Tension =       -0.195
 PCM non-electrostatic energy =        -0.0136701637 Hartrees.
 Nuclear repulsion after PCM non-electrostatic terms =     1136.9413563768 Hartrees.
 Leave Link  301 at Mon Jul 12 12:15:40 2021, MaxMem=   104857600 cpu:               0.1 elap:               0.1
 (Enter /dades/curu/g16A03_MST/g16/l302.exe)
 NPDir=0 NMtPBC=     1 NCelOv=     1 NCel=       1 NClECP=     1 NCelD=      1
         NCelK=      1 NCelE2=     1 NClLst=     1 CellRange=     0.0.
 One-electron integrals computed using PRISM.
 One-electron integral symmetry used in STVInt
 NBasis=   285 RedAO= T EigKep=  5.15D-04  NBF=   285
 NBsUse=   285 1.00D-06 EigRej= -1.00D+00 NBFU=   285
 Precomputing XC quadrature grid using
 IXCGrd= 4 IRadAn=           5 IRanWt=          -1 IRanGd=           0 AccXCQ= 0.00D+00.
 Generated NRdTot=       0 NPtTot=           0 NUsed=           0 NTot=          32
 NSgBfM=   283   283   283   283   283 MxSgAt=    32 MxSgA2=    32.
 Leave Link  302 at Mon Jul 12 12:15:41 2021, MaxMem=   104857600 cpu:               3.6 elap:               0.9
 (Enter /dades/curu/g16A03_MST/g16/l303.exe)
 DipDrv:  MaxL=1.
 Leave Link  303 at Mon Jul 12 12:15:41 2021, MaxMem=   104857600 cpu:               0.1 elap:               0.0
 (Enter /dades/curu/g16A03_MST/g16/l401.exe)
 ExpMin= 1.61D-01 ExpMax= 5.48D+03 ExpMxC= 8.25D+02 IAcc=3 IRadAn=         5 AccDes= 0.00D+00
 Harris functional with IExCor=  402 and IRadAn=       5 diagonalized for initial guess.
 HarFok:  IExCor=  402 AccDes= 0.00D+00 IRadAn=         5 IDoV= 1 UseB2=F ITyADJ=14
 ICtDFT=  3500011 ScaDFX=  1.000000  1.000000  1.000000  1.000000
 FoFCou: FMM=F IPFlag=           0 FMFlag=      100000 FMFlg1=           0
         NFxFlg=           0 DoJE=T BraDBF=F KetDBF=T FulRan=T
         wScrn=  0.000000 ICntrl=       500 IOpCl=  0 I1Cent=   200000004 NGrid=           0
         NMat0=    1 NMatS0=      1 NMatT0=    0 NMatD0=    1 NMtDS0=    0 NMtDT0=    0
 Petite list used in FoFCou.
 Harris En= -731.329069725212    
 JPrj=0 DoOrth=F DoCkMO=F.
 Leave Link  401 at Mon Jul 12 12:15:48 2021, MaxMem=   104857600 cpu:              26.6 elap:               6.7
 (Enter /dades/curu/g16A03_MST/g16/l502.exe)
 Integral symmetry usage will be decided dynamically.
 Closed shell SCF:
 Using DIIS extrapolation, IDIIS=  1040.
 NGot=   104857600 LenX=   104690183 LenY=   104608517
 Requested convergence on RMS density matrix=1.00D-08 within 128 cycles.
 Requested convergence on MAX density matrix=1.00D-06.
 Requested convergence on             energy=1.00D-06.
 No special actions if energy rises.
 Fock matrices will be formed incrementally for  20 cycles.

 Cycle   1  Pass 1  IDiag  1:
 FoFJK:  IHMeth= 1 ICntrl=       0 DoSepK=F KAlg= 0 I1Cent=           0 FoldK=F
 IRaf= 850000000 NMat=       1 IRICut=       1 DoRegI=T DoRafI=F ISym2E= 0 IDoP0=0 IntGTp=1.
 FoFCou: FMM=F IPFlag=           0 FMFlag=      100000 FMFlg1=           0
         NFxFlg=           0 DoJE=F BraDBF=F KetDBF=F FulRan=T
         wScrn=  0.000000 ICntrl=         0 IOpCl=  0 I1Cent=           0 NGrid=           0
         NMat0=    1 NMatS0=      1 NMatT0=    0 NMatD0=    1 NMtDS0=    0 NMtDT0=    0
 Symmetry not used in FoFCou.
 Inv3:  Mode=1 IEnd=    25264812.
 Iteration    1 A*A^-1 deviation from unit magnitude is 4.00D-15 for   2881.
 Iteration    1 A*A^-1 deviation from orthogonality  is 3.03D-15 for   2887    719.
 Iteration    1 A^-1*A deviation from unit magnitude is 4.00D-15 for   2886.
 Iteration    1 A^-1*A deviation from orthogonality  is 1.99D-13 for   2509   2506.
 E= -730.617756284698    
 DIIS: error= 3.46D-02 at cycle   1 NSaved=   1.
 NSaved= 1 IEnMin= 1 EnMin= -730.617756284698     IErMin= 1 ErrMin= 3.46D-02
 ErrMax= 3.46D-02  0.00D+00 EMaxC= 1.00D-01 BMatC= 5.18D-01 BMatP= 5.18D-01
 IDIUse=3 WtCom= 6.54D-01 WtEn= 3.46D-01
 Coeff-Com:  0.100D+01
 Coeff-En:   0.100D+01
 Coeff:      0.100D+01
 Gap=     0.107 Goal=   None    Shift=    0.000
 GapD=    0.107 DampG=1.000 DampE=0.500 DampFc=0.5000 IDamp=-1.
 Damping current iteration by 5.00D-01
 RMSDP=6.57D-03 MaxDP=1.95D-01              OVMax= 2.65D-01

 Cycle   2  Pass 1  IDiag  1:
 RMSU=  3.26D-03    CP:  9.81D-01
 E= -730.853937183655     Delta-E=       -0.236180898957 Rises=F Damp=T
 DIIS: error= 1.05D-02 at cycle   2 NSaved=   2.
 NSaved= 2 IEnMin= 2 EnMin= -730.853937183655     IErMin= 2 ErrMin= 1.05D-02
 ErrMax= 1.05D-02  0.00D+00 EMaxC= 1.00D-01 BMatC= 2.97D-02 BMatP= 5.18D-01
 IDIUse=3 WtCom= 8.95D-01 WtEn= 1.05D-01
 Coeff-Com:  0.669D-01 0.933D+00
 Coeff-En:   0.900D-01 0.910D+00
 Coeff:      0.694D-01 0.931D+00
 Gap=     0.199 Goal=   None    Shift=    0.000
 RMSDP=1.74D-03 MaxDP=5.43D-02 DE=-2.36D-01 OVMax= 1.76D-01

 Cycle   3  Pass 1  IDiag  1:
 RMSU=  1.55D-03    CP:  9.69D-01  7.70D-01
 E= -731.116001629054     Delta-E=       -0.262064445399 Rises=F Damp=F
 DIIS: error= 8.74D-03 at cycle   3 NSaved=   3.
 NSaved= 3 IEnMin= 3 EnMin= -731.116001629054     IErMin= 3 ErrMin= 8.74D-03
 ErrMax= 8.74D-03  0.00D+00 EMaxC= 1.00D-01 BMatC= 3.09D-02 BMatP= 2.97D-02
 IDIUse=3 WtCom= 9.13D-01 WtEn= 8.74D-02
 Coeff-Com: -0.467D-02 0.507D+00 0.498D+00
 Coeff-En:   0.000D+00 0.000D+00 0.100D+01
 Coeff:     -0.426D-02 0.463D+00 0.542D+00
 Gap=     0.130 Goal=   None    Shift=    0.000
 RMSDP=9.86D-04 MaxDP=3.89D-02 DE=-2.62D-01 OVMax= 7.85D-02

 Cycle   4  Pass 1  IDiag  1:
 RMSU=  6.99D-04    CP:  9.73D-01  8.51D-01  5.89D-01
 E= -731.137538994384     Delta-E=       -0.021537365330 Rises=F Damp=F
 DIIS: error= 4.04D-03 at cycle   4 NSaved=   4.
 NSaved= 4 IEnMin= 4 EnMin= -731.137538994384     IErMin= 4 ErrMin= 4.04D-03
 ErrMax= 4.04D-03  0.00D+00 EMaxC= 1.00D-01 BMatC= 7.08D-03 BMatP= 2.97D-02
 IDIUse=3 WtCom= 9.60D-01 WtEn= 4.04D-02
 Coeff-Com: -0.850D-02 0.746D-01 0.333D+00 0.601D+00
 Coeff-En:   0.000D+00 0.000D+00 0.218D+00 0.782D+00
 Coeff:     -0.816D-02 0.716D-01 0.328D+00 0.608D+00
 Gap=     0.130 Goal=   None    Shift=    0.000
 RMSDP=3.59D-04 MaxDP=1.27D-02 DE=-2.15D-02 OVMax= 2.63D-02

 Cycle   5  Pass 1  IDiag  1:
 RMSU=  1.20D-04    CP:  9.72D-01  8.26D-01  7.17D-01  6.29D-01
 E= -731.143678327704     Delta-E=       -0.006139333320 Rises=F Damp=F
 DIIS: error= 3.86D-04 at cycle   5 NSaved=   5.
 NSaved= 5 IEnMin= 5 EnMin= -731.143678327704     IErMin= 5 ErrMin= 3.86D-04
 ErrMax= 3.86D-04  0.00D+00 EMaxC= 1.00D-01 BMatC= 1.72D-04 BMatP= 7.08D-03
 IDIUse=3 WtCom= 9.96D-01 WtEn= 3.86D-03
 Coeff-Com: -0.329D-02 0.124D-01 0.127D+00 0.281D+00 0.583D+00
 Coeff-En:   0.000D+00 0.000D+00 0.000D+00 0.000D+00 0.100D+01
 Coeff:     -0.327D-02 0.124D-01 0.126D+00 0.280D+00 0.584D+00
 Gap=     0.130 Goal=   None    Shift=    0.000
 RMSDP=5.81D-05 MaxDP=2.14D-03 DE=-6.14D-03 OVMax= 3.18D-03

 Cycle   6  Pass 1  IDiag  1:
 RMSU=  4.51D-05    CP:  9.72D-01  8.30D-01  7.13D-01  6.47D-01  7.46D-01
 E= -731.143813026701     Delta-E=       -0.000134698997 Rises=F Damp=F
 DIIS: error= 1.72D-04 at cycle   6 NSaved=   6.
 NSaved= 6 IEnMin= 6 EnMin= -731.143813026701     IErMin= 6 ErrMin= 1.72D-04
 ErrMax= 1.72D-04  0.00D+00 EMaxC= 1.00D-01 BMatC= 2.15D-05 BMatP= 1.72D-04
 IDIUse=3 WtCom= 9.98D-01 WtEn= 1.72D-03
 Coeff-Com: -0.990D-03 0.480D-03 0.357D-01 0.912D-01 0.315D+00 0.559D+00
 Coeff-En:   0.000D+00 0.000D+00 0.000D+00 0.000D+00 0.501D-01 0.950D+00
 Coeff:     -0.988D-03 0.479D-03 0.357D-01 0.911D-01 0.315D+00 0.559D+00
 Gap=     0.130 Goal=   None    Shift=    0.000
 RMSDP=1.94D-05 MaxDP=6.53D-04 DE=-1.35D-04 OVMax= 1.27D-03

 Cycle   7  Pass 1  IDiag  1:
 RMSU=  8.72D-06    CP:  9.72D-01  8.29D-01  7.14D-01  6.54D-01  7.57D-01
                    CP:  6.49D-01
 E= -731.143831834010     Delta-E=       -0.000018807309 Rises=F Damp=F
 DIIS: error= 3.73D-05 at cycle   7 NSaved=   7.
 NSaved= 7 IEnMin= 7 EnMin= -731.143831834010     IErMin= 7 ErrMin= 3.73D-05
 ErrMax= 3.73D-05  0.00D+00 EMaxC= 1.00D-01 BMatC= 1.14D-06 BMatP= 2.15D-05
 IDIUse=1 WtCom= 1.00D+00 WtEn= 0.00D+00
 Coeff-Com: -0.346D-03-0.359D-03 0.121D-01 0.331D-01 0.135D+00 0.287D+00
 Coeff-Com:  0.534D+00
 Coeff:     -0.346D-03-0.359D-03 0.121D-01 0.331D-01 0.135D+00 0.287D+00
 Coeff:      0.534D+00
 Gap=     0.130 Goal=   None    Shift=    0.000
 RMSDP=5.04D-06 MaxDP=1.39D-04 DE=-1.88D-05 OVMax= 3.34D-04

 Cycle   8  Pass 1  IDiag  1:
 RMSU=  3.59D-06    CP:  9.72D-01  8.29D-01  7.15D-01  6.55D-01  7.60D-01
                    CP:  6.62D-01  6.23D-01
 E= -731.143832849128     Delta-E=       -0.000001015118 Rises=F Damp=F
 DIIS: error= 1.02D-05 at cycle   8 NSaved=   8.
 NSaved= 8 IEnMin= 8 EnMin= -731.143832849128     IErMin= 8 ErrMin= 1.02D-05
 ErrMax= 1.02D-05  0.00D+00 EMaxC= 1.00D-01 BMatC= 1.08D-07 BMatP= 1.14D-06
 IDIUse=1 WtCom= 1.00D+00 WtEn= 0.00D+00
 Coeff-Com: -0.189D-04-0.265D-03 0.716D-03 0.289D-02 0.209D-01 0.600D-01
 Coeff-Com:  0.260D+00 0.655D+00
 Coeff:     -0.189D-04-0.265D-03 0.716D-03 0.289D-02 0.209D-01 0.600D-01
 Coeff:      0.260D+00 0.655D+00
 Gap=     0.130 Goal=   None    Shift=    0.000
 RMSDP=1.60D-06 MaxDP=5.00D-05 DE=-1.02D-06 OVMax= 1.37D-04

 Cycle   9  Pass 1  IDiag  1:
 RMSU=  1.03D-06    CP:  9.72D-01  8.29D-01  7.15D-01  6.55D-01  7.63D-01
                    CP:  6.63D-01  7.01D-01  7.34D-01
 E= -731.143832952431     Delta-E=       -0.000000103303 Rises=F Damp=F
 DIIS: error= 3.79D-06 at cycle   9 NSaved=   9.
 NSaved= 9 IEnMin= 9 EnMin= -731.143832952431     IErMin= 9 ErrMin= 3.79D-06
 ErrMax= 3.79D-06  0.00D+00 EMaxC= 1.00D-01 BMatC= 1.23D-08 BMatP= 1.08D-07
 IDIUse=1 WtCom= 1.00D+00 WtEn= 0.00D+00
 Coeff-Com:  0.119D-04-0.115D-03-0.444D-03-0.762D-03 0.174D-02 0.115D-01
 Coeff-Com:  0.961D-01 0.346D+00 0.546D+00
 Coeff:      0.119D-04-0.115D-03-0.444D-03-0.762D-03 0.174D-02 0.115D-01
 Coeff:      0.961D-01 0.346D+00 0.546D+00
 Gap=     0.130 Goal=   None    Shift=    0.000
 RMSDP=5.22D-07 MaxDP=1.37D-05 DE=-1.03D-07 OVMax= 3.57D-05

 Cycle  10  Pass 1  IDiag  1:
 RMSU=  3.05D-07    CP:  9.72D-01  8.29D-01  7.15D-01  6.55D-01  7.63D-01
                    CP:  6.67D-01  7.02D-01  7.94D-01  6.93D-01
 E= -731.143832963404     Delta-E=       -0.000000010973 Rises=F Damp=F
 DIIS: error= 1.19D-06 at cycle  10 NSaved=  10.
 NSaved=10 IEnMin=10 EnMin= -731.143832963404     IErMin=10 ErrMin= 1.19D-06
 ErrMax= 1.19D-06  0.00D+00 EMaxC= 1.00D-01 BMatC= 1.16D-09 BMatP= 1.23D-08
 IDIUse=1 WtCom= 1.00D+00 WtEn= 0.00D+00
 Coeff-Com:  0.754D-05-0.198D-04-0.317D-03-0.761D-03-0.156D-02-0.122D-02
 Coeff-Com:  0.174D-01 0.102D+00 0.276D+00 0.608D+00
 Coeff:      0.754D-05-0.198D-04-0.317D-03-0.761D-03-0.156D-02-0.122D-02
 Coeff:      0.174D-01 0.102D+00 0.276D+00 0.608D+00
 Gap=     0.130 Goal=   None    Shift=    0.000
 RMSDP=1.66D-07 MaxDP=5.21D-06 DE=-1.10D-08 OVMax= 1.74D-05

 Cycle  11  Pass 1  IDiag  1:
 RMSU=  1.02D-07    CP:  9.72D-01  8.29D-01  7.15D-01  6.55D-01  7.63D-01
                    CP:  6.66D-01  7.05D-01  7.99D-01  7.65D-01  7.03D-01
 E= -731.143832964320     Delta-E=       -0.000000000916 Rises=F Damp=F
 DIIS: error= 5.33D-07 at cycle  11 NSaved=  11.
 NSaved=11 IEnMin=11 EnMin= -731.143832964320     IErMin=11 ErrMin= 5.33D-07
 ErrMax= 5.33D-07  0.00D+00 EMaxC= 1.00D-01 BMatC= 2.18D-10 BMatP= 1.16D-09
 IDIUse=1 WtCom= 1.00D+00 WtEn= 0.00D+00
 Coeff-Com:  0.361D-05-0.330D-05-0.162D-03-0.418D-03-0.115D-02-0.185D-02
 Coeff-Com:  0.257D-02 0.357D-01 0.128D+00 0.380D+00 0.457D+00
 Coeff:      0.361D-05-0.330D-05-0.162D-03-0.418D-03-0.115D-02-0.185D-02
 Coeff:      0.257D-02 0.357D-01 0.128D+00 0.380D+00 0.457D+00
 Gap=     0.130 Goal=   None    Shift=    0.000
 RMSDP=7.91D-08 MaxDP=1.78D-06 DE=-9.16D-10 OVMax= 5.73D-06

 Cycle  12  Pass 1  IDiag  1:
 RMSU=  5.08D-08    CP:  9.72D-01  8.29D-01  7.15D-01  6.55D-01  7.63D-01
                    CP:  6.66D-01  7.05D-01  8.00D-01  7.45D-01  8.03D-01
                    CP:  6.03D-01
 E= -731.143832964563     Delta-E=       -0.000000000242 Rises=F Damp=F
 DIIS: error= 1.42D-07 at cycle  12 NSaved=  12.
 NSaved=12 IEnMin=12 EnMin= -731.143832964563     IErMin=12 ErrMin= 1.42D-07
 ErrMax= 1.42D-07  0.00D+00 EMaxC= 1.00D-01 BMatC= 1.47D-11 BMatP= 2.18D-10
 IDIUse=1 WtCom= 1.00D+00 WtEn= 0.00D+00
 Coeff-Com: -0.290D-07 0.244D-05-0.152D-04-0.483D-04-0.209D-03-0.563D-03
 Coeff-Com: -0.211D-02-0.258D-02 0.331D-02 0.560D-01 0.227D+00 0.720D+00
 Coeff:     -0.290D-07 0.244D-05-0.152D-04-0.483D-04-0.209D-03-0.563D-03
 Coeff:     -0.211D-02-0.258D-02 0.331D-02 0.560D-01 0.227D+00 0.720D+00
 Gap=     0.130 Goal=   None    Shift=    0.000
 RMSDP=2.40D-08 MaxDP=5.52D-07 DE=-2.42D-10 OVMax= 2.33D-06

 Cycle  13  Pass 1  IDiag  1:
 RMSU=  1.30D-08    CP:  9.72D-01  8.29D-01  7.15D-01  6.55D-01  7.63D-01
                    CP:  6.66D-01  7.05D-01  8.02D-01  7.56D-01  8.07D-01
                    CP:  7.02D-01  7.90D-01
 E= -731.143832964544     Delta-E=        0.000000000018 Rises=F Damp=F
 DIIS: error= 4.69D-08 at cycle  13 NSaved=  13.
 NSaved=13 IEnMin=12 EnMin= -731.143832964563     IErMin=13 ErrMin= 4.69D-08
 ErrMax= 4.69D-08  0.00D+00 EMaxC= 1.00D-01 BMatC= 2.38D-12 BMatP= 1.47D-11
 IDIUse=1 WtCom= 1.00D+00 WtEn= 0.00D+00
 Coeff-Com: -0.280D-06 0.162D-05 0.389D-05 0.473D-05-0.310D-04-0.188D-03
 Coeff-Com: -0.144D-02-0.409D-02-0.750D-02 0.396D-02 0.957D-01 0.412D+00
 Coeff-Com:  0.502D+00
 Coeff:     -0.280D-06 0.162D-05 0.389D-05 0.473D-05-0.310D-04-0.188D-03
 Coeff:     -0.144D-02-0.409D-02-0.750D-02 0.396D-02 0.957D-01 0.412D+00
 Coeff:      0.502D+00
 Gap=     0.130 Goal=   None    Shift=    0.000
 RMSDP=7.13D-09 MaxDP=2.42D-07 DE= 1.82D-11 OVMax= 7.02D-07

 Error on total polarization charges =  0.00358
 SCF Done:  E(RB3LYP) =  -731.143832965     A.U. after   13 cycles
            NFock= 13  Conv=0.71D-08     -V/T= 2.0091
 KE= 7.245340241133D+02 PE=-3.991151667168D+03 EE= 1.398532453713D+03
 Leave Link  502 at Mon Jul 12 12:19:09 2021, MaxMem=   104857600 cpu:             777.2 elap:             201.3
 (Enter /dades/curu/g16A03_MST/g16/l601.exe)
 Copying SCF densities to generalized density rwf, IOpCl= 0 IROHF=0.

 **********************************************************************

            Population analysis using the SCF density.

 **********************************************************************

 Orbital symmetries:
       Occupied  (A) (A) (A) (A) (A) (A) (A) (A) (A) (A) (A) (A)
                 (A) (A) (A) (A) (A) (A) (A) (A) (A) (A) (A) (A)
                 (A) (A) (A) (A) (A) (A) (A) (A) (A) (A) (A) (A)
                 (A) (A) (A) (A) (A) (A) (A) (A) (A) (A) (A) (A)
                 (A) (A) (A) (A) (A) (A) (A) (A) (A) (A) (A) (A)
                 (A)
       Virtual   (A) (A) (A) (A) (A) (A) (A) (A) (A) (A) (A) (A)
                 (A) (A) (A) (A) (A) (A) (A) (A) (A) (A) (A) (A)
                 (A) (A) (A) (A) (A) (A) (A) (A) (A) (A) (A) (A)
                 (A) (A) (A) (A) (A) (A) (A) (A) (A) (A) (A) (A)
                 (A) (A) (A) (A) (A) (A) (A) (A) (A) (A) (A) (A)
                 (A) (A) (A) (A) (A) (A) (A) (A) (A) (A) (A) (A)
                 (A) (A) (A) (A) (A) (A) (A) (A) (A) (A) (A) (A)
                 (A) (A) (A) (A) (A) (A) (A) (A) (A) (A) (A) (A)
                 (A) (A) (A) (A) (A) (A) (A) (A) (A) (A) (A) (A)
                 (A) (A) (A) (A) (A) (A) (A) (A) (A) (A) (A) (A)
                 (A) (A) (A) (A) (A) (A) (A) (A) (A) (A) (A) (A)
                 (A) (A) (A) (A) (A) (A) (A) (A) (A) (A) (A) (A)
                 (A) (A) (A) (A) (A) (A) (A) (A) (A) (A) (A) (A)
                 (A) (A) (A) (A) (A) (A) (A) (A) (A) (A) (A) (A)
                 (A) (A) (A) (A) (A) (A) (A) (A) (A) (A) (A) (A)
                 (A) (A) (A) (A) (A) (A) (A) (A) (A) (A) (A) (A)
                 (A) (A) (A) (A) (A) (A) (A) (A) (A) (A) (A) (A)
                 (A) (A) (A) (A) (A) (A) (A) (A) (A) (A) (A) (A)
                 (A) (A) (A) (A) (A) (A) (A) (A)
 The electronic state is 1-A.
 Alpha  occ. eigenvalues --  -19.16268 -18.99954 -10.24136 -10.17676 -10.17665
 Alpha  occ. eigenvalues --  -10.17368 -10.17305 -10.16472 -10.16399 -10.16205
 Alpha  occ. eigenvalues --  -10.15401 -10.15204 -10.14807 -10.13958 -10.13874
 Alpha  occ. eigenvalues --  -10.12233 -10.11756  -1.03642  -0.88072  -0.84185
 Alpha  occ. eigenvalues --   -0.80080  -0.76453  -0.73234  -0.70807  -0.69984
 Alpha  occ. eigenvalues --   -0.66234  -0.65683  -0.60518  -0.59478  -0.55635
 Alpha  occ. eigenvalues --   -0.55203  -0.52764  -0.52015  -0.47066  -0.44592
 Alpha  occ. eigenvalues --   -0.44218  -0.42914  -0.41541  -0.40640  -0.40368
 Alpha  occ. eigenvalues --   -0.39499  -0.38976  -0.38765  -0.37442  -0.36868
 Alpha  occ. eigenvalues --   -0.35959  -0.34828  -0.33605  -0.32775  -0.32282
 Alpha  occ. eigenvalues --   -0.30978  -0.30771  -0.30031  -0.28980  -0.27373
 Alpha  occ. eigenvalues --   -0.24159  -0.23431  -0.20944  -0.19917  -0.15189
 Alpha  occ. eigenvalues --   -0.12186
 Alpha virt. eigenvalues --    0.00828   0.02967   0.04650   0.07157   0.09140
 Alpha virt. eigenvalues --    0.10897   0.12238   0.14339   0.14531   0.15508
 Alpha virt. eigenvalues --    0.16003   0.17203   0.17266   0.18733   0.19377
 Alpha virt. eigenvalues --    0.20220   0.21070   0.21833   0.22311   0.23009
 Alpha virt. eigenvalues --    0.24927   0.25902   0.26505   0.26783   0.27854
 Alpha virt. eigenvalues --    0.30263   0.32351   0.33114   0.34087   0.35850
 Alpha virt. eigenvalues --    0.37616   0.38205   0.40019   0.41202   0.42832
 Alpha virt. eigenvalues --    0.50428   0.51418   0.52516   0.52691   0.54194
 Alpha virt. eigenvalues --    0.54606   0.55635   0.56421   0.57260   0.58121
 Alpha virt. eigenvalues --    0.59506   0.59806   0.60471   0.60795   0.61660
 Alpha virt. eigenvalues --    0.62851   0.63291   0.63982   0.64631   0.65509
 Alpha virt. eigenvalues --    0.66282   0.66822   0.67945   0.68786   0.69439
 Alpha virt. eigenvalues --    0.70021   0.70646   0.73736   0.74841   0.76227
 Alpha virt. eigenvalues --    0.77037   0.77769   0.79094   0.82135   0.83146
 Alpha virt. eigenvalues --    0.83724   0.84037   0.84686   0.85564   0.87220
 Alpha virt. eigenvalues --    0.87768   0.88117   0.88756   0.89621   0.90400
 Alpha virt. eigenvalues --    0.91250   0.91633   0.92748   0.93097   0.94171
 Alpha virt. eigenvalues --    0.96492   0.97062   0.97507   0.98910   0.99567
 Alpha virt. eigenvalues --    1.00093   1.01456   1.02236   1.04313   1.05231
 Alpha virt. eigenvalues --    1.05565   1.06533   1.07758   1.08723   1.11250
 Alpha virt. eigenvalues --    1.15505   1.16961   1.18070   1.18870   1.19942
 Alpha virt. eigenvalues --    1.20876   1.23094   1.25907   1.27040   1.29609
 Alpha virt. eigenvalues --    1.31776   1.32799   1.34457   1.35524   1.38936
 Alpha virt. eigenvalues --    1.40416   1.40857   1.42082   1.45714   1.47472
 Alpha virt. eigenvalues --    1.50959   1.52739   1.52942   1.54287   1.55084
 Alpha virt. eigenvalues --    1.56289   1.57997   1.62257   1.64739   1.67604
 Alpha virt. eigenvalues --    1.69646   1.74698   1.75420   1.76157   1.77004
 Alpha virt. eigenvalues --    1.80836   1.83347   1.84930   1.85905   1.88097
 Alpha virt. eigenvalues --    1.89280   1.89994   1.91143   1.91607   1.92785
 Alpha virt. eigenvalues --    1.94285   1.96129   1.96645   1.98096   1.99891
 Alpha virt. eigenvalues --    2.00924   2.01268   2.04312   2.07312   2.07855
 Alpha virt. eigenvalues --    2.09398   2.10772   2.12951   2.15232   2.16265
 Alpha virt. eigenvalues --    2.16568   2.18654   2.19871   2.22205   2.23159
 Alpha virt. eigenvalues --    2.23800   2.25440   2.28904   2.29784   2.30554
 Alpha virt. eigenvalues --    2.30864   2.33056   2.34404   2.35060   2.35344
 Alpha virt. eigenvalues --    2.38664   2.41935   2.42550   2.43943   2.44991
 Alpha virt. eigenvalues --    2.50140   2.51839   2.56139   2.58185   2.60708
 Alpha virt. eigenvalues --    2.64227   2.66485   2.66924   2.68357   2.69285
 Alpha virt. eigenvalues --    2.72280   2.73032   2.76836   2.79719   2.81950
 Alpha virt. eigenvalues --    2.83114   2.86934   2.90742   2.92176   2.94078
 Alpha virt. eigenvalues --    2.96899   3.01118   3.04353   3.15333   3.24298
 Alpha virt. eigenvalues --    3.40591   3.47053   3.93974   3.94789   4.11608
 Alpha virt. eigenvalues --    4.13365   4.16018   4.19610   4.26045   4.26585
 Alpha virt. eigenvalues --    4.29005   4.33979   4.34694   4.41520   4.48180
 Alpha virt. eigenvalues --    4.52335   4.69204   4.76296   4.82356
          Condensed to atoms (all electrons):
               1          2          3          4          5          6
     1  C    5.252068   0.359266   0.359138   0.343471   0.341623  -0.073217
     2  H    0.359266   0.595350  -0.025638  -0.047935  -0.023824  -0.002238
     3  H    0.359138  -0.025638   0.573021  -0.028375  -0.022830   0.006665
     4  H    0.343471  -0.047935  -0.028375   0.625992  -0.020987  -0.011720
     5  C    0.341623  -0.023824  -0.022830  -0.020987   5.004553   0.345913
     6  C   -0.073217  -0.002238   0.006665  -0.011720   0.345913   5.208282
     7  H   -0.011871  -0.000171   0.000176   0.007899  -0.026562   0.365921
     8  H    0.007802  -0.000185  -0.000253   0.000075  -0.027570   0.359380
     9  H   -0.005843   0.003030  -0.000054   0.000503  -0.025290   0.352215
    10  C   -0.047209   0.004408  -0.007883  -0.005138   0.349727  -0.054913
    11  C    0.007678  -0.000079  -0.000107  -0.000353  -0.058102  -0.010347
    12  C   -0.000162   0.000002  -0.000013  -0.000004   0.006636  -0.000250
    13  C   -0.000021   0.000000  -0.000003   0.000003   0.000309   0.000064
    14  O    0.000000  -0.000000   0.000000   0.000000   0.000000  -0.000000
    15  H    0.000000  -0.000000   0.000000   0.000000  -0.000000   0.000000
    16  C    0.000202  -0.000006   0.000004   0.000097   0.006509  -0.000319
    17  C   -0.015560   0.000315   0.003086   0.001637  -0.050099   0.002765
    18  H    0.007729  -0.000212   0.002244   0.001680  -0.014799   0.000418
    19  H    0.000009  -0.000000   0.000000  -0.000002  -0.000143   0.000001
    20  H    0.000002  -0.000000   0.000000  -0.000000  -0.000186  -0.000003
    21  H    0.000312  -0.000010   0.000006  -0.000010  -0.010597   0.001036
    22  C   -0.056388  -0.002177  -0.006400   0.005954   0.373690  -0.031079
    23  C   -0.011527   0.000331   0.004216   0.000332  -0.060237   0.006921
    24  H   -0.000810   0.000216   0.003412  -0.000031  -0.010187   0.000287
    25  C    0.000242  -0.000104  -0.000014  -0.000001   0.005831  -0.000177
    26  H   -0.000001   0.000002  -0.000001  -0.000000  -0.000208   0.000002
    27  C    0.000039  -0.000022  -0.000001  -0.000000   0.000516  -0.000001
    28  O    0.000000   0.000000  -0.000000   0.000000  -0.000002   0.000000
    29  C   -0.000222  -0.000056   0.000008   0.000001   0.005976   0.000225
    30  H    0.000002   0.000002   0.000000  -0.000000  -0.000194  -0.000001
    31  C    0.003009   0.001218  -0.000227  -0.000052  -0.044858  -0.015971
    32  H    0.000200  -0.000016  -0.000006  -0.000006  -0.011039   0.003209
               7          8          9         10         11         12
     1  C   -0.011871   0.007802  -0.005843  -0.047209   0.007678  -0.000162
     2  H   -0.000171  -0.000185   0.003030   0.004408  -0.000079   0.000002
     3  H    0.000176  -0.000253  -0.000054  -0.007883  -0.000107  -0.000013
     4  H    0.007899   0.000075   0.000503  -0.005138  -0.000353  -0.000004
     5  C   -0.026562  -0.027570  -0.025290   0.349727  -0.058102   0.006636
     6  C    0.365921   0.359380   0.352215  -0.054913  -0.010347  -0.000250
     7  H    0.574620  -0.023541  -0.027794  -0.002812  -0.000319  -0.000000
     8  H   -0.023541   0.594011  -0.043258  -0.009401   0.005430  -0.000147
     9  H   -0.027794  -0.043258   0.601082   0.006608   0.000135   0.000005
    10  C   -0.002812  -0.009401   0.006608   4.766182   0.515370  -0.015946
    11  C   -0.000319   0.005430   0.000135   0.515370   5.019366   0.491930
    12  C   -0.000000  -0.000147   0.000005  -0.015946   0.491930   5.051305
    13  C   -0.000013  -0.000006  -0.000000  -0.039225  -0.015392   0.492443
    14  O   -0.000000  -0.000000   0.000000   0.000311   0.002384  -0.045677
    15  H    0.000000   0.000000  -0.000000  -0.000022  -0.000148   0.004479
    16  C   -0.000037  -0.000012   0.000004  -0.016821  -0.044575  -0.052405
    17  C    0.002101  -0.000316  -0.000092   0.530134  -0.062794  -0.045113
    18  H    0.000020   0.000006  -0.000021  -0.035229   0.006256   0.000303
    19  H    0.000002   0.000000  -0.000000   0.003422   0.000570   0.004710
    20  H    0.000000   0.000007  -0.000000   0.004588  -0.038306   0.349601
    21  H   -0.000012   0.002937  -0.000260  -0.044120   0.356348  -0.051382
    22  C    0.004030  -0.004383  -0.007301  -0.063591  -0.005001   0.001434
    23  C   -0.000116  -0.000163  -0.000233  -0.006062  -0.003254  -0.000057
    24  H   -0.000011  -0.000002  -0.000007   0.004936   0.000889  -0.000161
    25  C    0.000002   0.000003   0.000008   0.000498  -0.000116  -0.000041
    26  H   -0.000000  -0.000000   0.000000   0.000006   0.000002  -0.000000
    27  C    0.000000   0.000000  -0.000020  -0.000027  -0.000009   0.000001
    28  O   -0.000000   0.000000  -0.000000  -0.000000   0.000000   0.000000
    29  C   -0.000002  -0.000044   0.000013   0.000121  -0.000249  -0.000003
    30  H   -0.000000  -0.000002   0.000015   0.000002   0.000000  -0.000000
    31  C    0.000309   0.002359   0.004997  -0.002969   0.002289   0.000126
    32  H    0.000006   0.001357   0.001906   0.000102  -0.000057   0.000000
              13         14         15         16         17         18
     1  C   -0.000021   0.000000   0.000000   0.000202  -0.015560   0.007729
     2  H    0.000000  -0.000000  -0.000000  -0.000006   0.000315  -0.000212
     3  H   -0.000003   0.000000   0.000000   0.000004   0.003086   0.002244
     4  H    0.000003   0.000000   0.000000   0.000097   0.001637   0.001680
     5  C    0.000309   0.000000  -0.000000   0.006509  -0.050099  -0.014799
     6  C    0.000064  -0.000000   0.000000  -0.000319   0.002765   0.000418
     7  H   -0.000013  -0.000000   0.000000  -0.000037   0.002101   0.000020
     8  H   -0.000006  -0.000000   0.000000  -0.000012  -0.000316   0.000006
     9  H   -0.000000   0.000000  -0.000000   0.000004  -0.000092  -0.000021
    10  C   -0.039225   0.000311  -0.000022  -0.016821   0.530134  -0.035229
    11  C   -0.015392   0.002384  -0.000148  -0.044575  -0.062794   0.006256
    12  C    0.492443  -0.045677   0.004479  -0.052405  -0.045113   0.000303
    13  C    4.545837   0.266637  -0.024845   0.520787  -0.007268   0.003458
    14  O    0.266637   8.262671   0.243694  -0.053918   0.004525  -0.000068
    15  H   -0.024845   0.243694   0.340475  -0.002817   0.000431  -0.000011
    16  C    0.520787  -0.053918  -0.002817   5.131332   0.424568  -0.046888
    17  C   -0.007268   0.004525   0.000431   0.424568   5.094403   0.353482
    18  H    0.003458  -0.000068  -0.000011  -0.046888   0.353482   0.592093
    19  H   -0.044473  -0.005577   0.005790   0.347394  -0.032086  -0.004949
    20  H   -0.039616  -0.000445  -0.000212   0.005157   0.000201   0.000016
    21  H    0.005031  -0.000060   0.000005   0.000031   0.006886  -0.000151
    22  C   -0.000105  -0.000000  -0.000000   0.000010   0.000501   0.000335
    23  C   -0.000027  -0.000000  -0.000000  -0.000010   0.001535  -0.000077
    24  H    0.000007   0.000000   0.000000  -0.000025   0.001028  -0.000148
    25  C    0.000001   0.000000   0.000000  -0.000000   0.000025  -0.000000
    26  H   -0.000000   0.000000  -0.000000  -0.000000   0.000000   0.000000
    27  C    0.000000   0.000000   0.000000  -0.000000   0.000000  -0.000000
    28  O   -0.000000  -0.000000  -0.000000   0.000000  -0.000000   0.000000
    29  C    0.000000   0.000000   0.000000  -0.000000   0.000005   0.000000
    30  H    0.000000   0.000000  -0.000000   0.000000  -0.000000  -0.000000
    31  C   -0.000002  -0.000000  -0.000000   0.000003  -0.000426  -0.000002
    32  H    0.000000   0.000000  -0.000000   0.000000  -0.000003   0.000000
              19         20         21         22         23         24
     1  C    0.000009   0.000002   0.000312  -0.056388  -0.011527  -0.000810
     2  H   -0.000000  -0.000000  -0.000010  -0.002177   0.000331   0.000216
     3  H    0.000000   0.000000   0.000006  -0.006400   0.004216   0.003412
     4  H   -0.000002  -0.000000  -0.000010   0.005954   0.000332  -0.000031
     5  C   -0.000143  -0.000186  -0.010597   0.373690  -0.060237  -0.010187
     6  C    0.000001  -0.000003   0.001036  -0.031079   0.006921   0.000287
     7  H    0.000002   0.000000  -0.000012   0.004030  -0.000116  -0.000011
     8  H    0.000000   0.000007   0.002937  -0.004383  -0.000163  -0.000002
     9  H   -0.000000  -0.000000  -0.000260  -0.007301  -0.000233  -0.000007
    10  C    0.003422   0.004588  -0.044120  -0.063591  -0.006062   0.004936
    11  C    0.000570  -0.038306   0.356348  -0.005001  -0.003254   0.000889
    12  C    0.004710   0.349601  -0.051382   0.001434  -0.000057  -0.000161
    13  C   -0.044473  -0.039616   0.005031  -0.000105  -0.000027   0.000007
    14  O   -0.005577  -0.000445  -0.000060  -0.000000  -0.000000   0.000000
    15  H    0.005790  -0.000212   0.000005  -0.000000  -0.000000   0.000000
    16  C    0.347394   0.005157   0.000031   0.000010  -0.000010  -0.000025
    17  C   -0.032086   0.000201   0.006886   0.000501   0.001535   0.001028
    18  H   -0.004949   0.000016  -0.000151   0.000335  -0.000077  -0.000148
    19  H    0.597847  -0.000125   0.000017   0.000002   0.000000  -0.000001
    20  H   -0.000125   0.591699  -0.007524   0.000042   0.000010  -0.000004
    21  H    0.000017  -0.007524   0.598929   0.005859   0.000394   0.000068
    22  C    0.000002   0.000042   0.005859   4.836970   0.515864  -0.052369
    23  C    0.000000   0.000010   0.000394   0.515864   5.142384   0.341747
    24  H   -0.000001  -0.000004   0.000068  -0.052369   0.341747   0.647153
    25  C   -0.000000  -0.000001  -0.000266  -0.020276   0.380012  -0.035875
    26  H   -0.000000   0.000000  -0.000002   0.005511  -0.053179  -0.007143
    27  C    0.000000  -0.000000   0.000004  -0.044451  -0.005087   0.004090
    28  O    0.000000   0.000000   0.000000   0.000014   0.010781  -0.000151
    29  C   -0.000000  -0.000000   0.000195  -0.025752  -0.039449   0.000086
    30  H   -0.000000  -0.000000  -0.000004   0.005212   0.000089   0.000025
    31  C   -0.000000   0.000002   0.002974   0.508593  -0.059731   0.005062
    32  H   -0.000000  -0.000000   0.000094  -0.039854   0.004147  -0.000118
              25         26         27         28         29         30
     1  C    0.000242  -0.000001   0.000039   0.000000  -0.000222   0.000002
     2  H   -0.000104   0.000002  -0.000022   0.000000  -0.000056   0.000002
     3  H   -0.000014  -0.000001  -0.000001  -0.000000   0.000008   0.000000
     4  H   -0.000001  -0.000000  -0.000000   0.000000   0.000001  -0.000000
     5  C    0.005831  -0.000208   0.000516  -0.000002   0.005976  -0.000194
     6  C   -0.000177   0.000002  -0.000001   0.000000   0.000225  -0.000001
     7  H    0.000002  -0.000000   0.000000  -0.000000  -0.000002  -0.000000
     8  H    0.000003  -0.000000   0.000000   0.000000  -0.000044  -0.000002
     9  H    0.000008   0.000000  -0.000020  -0.000000   0.000013   0.000015
    10  C    0.000498   0.000006  -0.000027  -0.000000   0.000121   0.000002
    11  C   -0.000116   0.000002  -0.000009   0.000000  -0.000249   0.000000
    12  C   -0.000041  -0.000000   0.000001   0.000000  -0.000003  -0.000000
    13  C    0.000001  -0.000000   0.000000  -0.000000   0.000000   0.000000
    14  O    0.000000   0.000000   0.000000  -0.000000   0.000000   0.000000
    15  H    0.000000  -0.000000   0.000000  -0.000000   0.000000  -0.000000
    16  C   -0.000000  -0.000000  -0.000000   0.000000  -0.000000   0.000000
    17  C    0.000025   0.000000   0.000000  -0.000000   0.000005  -0.000000
    18  H   -0.000000   0.000000  -0.000000   0.000000   0.000000  -0.000000
    19  H   -0.000000  -0.000000   0.000000   0.000000  -0.000000  -0.000000
    20  H   -0.000001   0.000000  -0.000000   0.000000  -0.000000  -0.000000
    21  H   -0.000266  -0.000002   0.000004   0.000000   0.000195  -0.000004
    22  C   -0.020276   0.005511  -0.044451   0.000014  -0.025752   0.005212
    23  C    0.380012  -0.053179  -0.005087   0.010781  -0.039449   0.000089
    24  H   -0.035875  -0.007143   0.004090  -0.000151   0.000086   0.000025
    25  C    5.268242   0.331063   0.461252  -0.083910  -0.048224   0.009107
    26  H    0.331063   0.677562  -0.040363   0.001072   0.009868  -0.000162
    27  C    0.461252  -0.040363   4.399420   0.397286   0.457283  -0.040843
    28  O   -0.083910   0.001072   0.397286   8.598054  -0.073959   0.000825
    29  C   -0.048224   0.009868   0.457283  -0.073959   5.296149   0.329380
    30  H    0.009107  -0.000162  -0.040843   0.000825   0.329380   0.681102
    31  C   -0.040527  -0.000049   0.003893   0.006895   0.387532  -0.050050
    32  H    0.000107   0.000023   0.003155  -0.000096  -0.039284  -0.006733
              31         32
     1  C    0.003009   0.000200
     2  H    0.001218  -0.000016
     3  H   -0.000227  -0.000006
     4  H   -0.000052  -0.000006
     5  C   -0.044858  -0.011039
     6  C   -0.015971   0.003209
     7  H    0.000309   0.000006
     8  H    0.002359   0.001357
     9  H    0.004997   0.001906
    10  C   -0.002969   0.000102
    11  C    0.002289  -0.000057
    12  C    0.000126   0.000000
    13  C   -0.000002   0.000000
    14  O   -0.000000   0.000000
    15  H   -0.000000  -0.000000
    16  C    0.000003   0.000000
    17  C   -0.000426  -0.000003
    18  H   -0.000002   0.000000
    19  H   -0.000000  -0.000000
    20  H    0.000002  -0.000000
    21  H    0.002974   0.000094
    22  C    0.508593  -0.039854
    23  C   -0.059731   0.004147
    24  H    0.005062  -0.000118
    25  C   -0.040527   0.000107
    26  H   -0.000049   0.000023
    27  C    0.003893   0.003155
    28  O    0.006895  -0.000096
    29  C    0.387532  -0.039284
    30  H   -0.050050  -0.006733
    31  C    5.147081   0.345655
    32  H    0.345655   0.632385
 Mulliken charges:
               1
     1  C   -0.459959
     2  H    0.138535
     3  H    0.139829
     4  H    0.126970
     5  C   -0.033569
     6  C   -0.453066
[...]
 Alpha virt. eigenvalues --    2.81890   2.85158   2.86832   2.87555   2.88727
 Alpha virt. eigenvalues --    2.90748   2.90824   2.91648   2.95552   2.96583
 Alpha virt. eigenvalues --    2.98056   2.99394   3.01756   3.01896   3.04900
 Alpha virt. eigenvalues --    3.06012   3.07950   3.09005   3.12738   3.14045
 Alpha virt. eigenvalues --    3.15899   3.17480   3.20232   3.21266   3.22495
 Alpha virt. eigenvalues --    3.25696   3.26271   3.28575   3.29192   3.31774
 Alpha virt. eigenvalues --    3.33903   3.37316   3.38153   3.44227   3.49522
 Alpha virt. eigenvalues --    3.52070   3.54077   3.58030   3.59506   3.60643
 Alpha virt. eigenvalues --    3.78595   3.80660   3.83970   3.84611   3.85994
 Alpha virt. eigenvalues --    3.91856   3.97008   3.99649   4.01789   4.03948
 Alpha virt. eigenvalues --    4.04239   4.04491   4.16764   4.23845   4.28899
 Alpha virt. eigenvalues --    4.35873   4.49230   4.77951   5.06267   5.13580
          Condensed to atoms (all electrons):
               1          2          3          4          5          6
     1  C    7.379328  -0.224085   0.441609   0.382385  -1.646599  -1.358179
     2  H   -0.224085   1.860789  -0.344083  -0.440475  -0.269639  -0.153335
     3  H    0.441609  -0.344083   1.432550  -0.289739   0.120730  -0.042086
     4  H    0.382385  -0.440475  -0.289739   1.596773  -0.024550   0.091275
     5  C   -1.646599  -0.269639   0.120730  -0.024550  31.826628  -1.720909
     6  C   -1.358179  -0.153335  -0.042086   0.091275  -1.720909   7.383281
     7  H    0.030507   0.029514   0.013903  -0.047485  -0.369417  -0.302948
     8  H   -0.037448  -0.007794  -0.011903   0.020131   0.465933   0.299136
     9  H   -0.029579  -0.021846   0.007647   0.001825  -0.033878   0.276165
    10  C    1.875766   0.383372   0.085440  -0.092205  -6.538703  -0.993884
    11  C   -0.270596   0.107904  -0.004412  -0.137355  -1.497799  -0.027840
    12  C   -0.302143   0.005145  -0.019068   0.014596  -0.131453   0.488570
    13  C    0.046666   0.007397  -0.003290  -0.022278  -0.734769  -0.096285
    14  O    0.000028  -0.000045   0.000187   0.000549   0.013837   0.003591
    15  H    0.000258   0.000116  -0.000132  -0.000412  -0.007703  -0.000646
    16  C    0.367278  -0.081185   0.052369   0.182850   0.243786  -0.034039
    17  C   -0.504616  -0.138313  -0.091939  -0.089936  -1.412680  -0.185140
    18  H    0.101337   0.048628  -0.037954  -0.048367  -0.421167   0.023226
    19  H    0.017797  -0.000535   0.000744   0.001857   0.041252  -0.000457
    20  H   -0.000981  -0.000134  -0.000472   0.000626  -0.027078   0.003455
    21  H    0.041090   0.003644   0.004201  -0.005597   0.072510  -0.063822
    22  C   -1.351100   0.121685  -0.034021   0.116133  -7.179005   2.036914
    23  C   -0.156599   0.017155  -0.151010   0.009751   0.334623  -0.317382
    24  H    0.076786   0.014009  -0.044216   0.000993  -0.173978  -0.010617
    25  C    0.594771   0.010671   0.009634   0.028363  -1.064364  -0.352805
    26  H   -0.011067   0.001553  -0.001489  -0.000952   0.020500  -0.000886
    27  C    0.004563   0.011586  -0.006785  -0.003311  -0.083615   0.039224
    28  O    0.003366  -0.000123   0.000506   0.000289  -0.001461  -0.001489
    29  C   -0.349857  -0.013864  -0.004926  -0.012928  -0.821800   0.366460
    30  H    0.003020  -0.002415   0.000811   0.000946   0.028770   0.023620
    31  C   -0.172338   0.261537  -0.024392  -0.151015  -1.641833  -0.362219
    32  H   -0.021666   0.016139  -0.002421  -0.008092  -0.423606   0.055894
               7          8          9         10         11         12
     1  C    0.030507  -0.037448  -0.029579   1.875766  -0.270596  -0.302143
     2  H    0.029514  -0.007794  -0.021846   0.383372   0.107904   0.005145
     3  H    0.013903  -0.011903   0.007647   0.085440  -0.004412  -0.019068
     4  H   -0.047485   0.020131   0.001825  -0.092205  -0.137355   0.014596
     5  C   -0.369417   0.465933  -0.033878  -6.538703  -1.497799  -0.131453
     6  C   -0.302948   0.299136   0.276165  -0.993884  -0.027840   0.488570
     7  H    1.964268  -0.428352  -0.369707   0.082956   0.041049  -0.029804
     8  H   -0.428352   1.470036  -0.256742  -0.345571   0.114821   0.028461
     9  H   -0.369707  -0.256742   1.425781   0.267200  -0.032260   0.018214
    10  C    0.082956  -0.345571   0.267200  30.692564 -12.389902   5.165622
    11  C    0.041049   0.114821  -0.032260 -12.389902  30.258771 -10.058676
    12  C   -0.029804   0.028461   0.018214   5.165622 -10.058676  18.984761
    13  C    0.037402  -0.003000  -0.005378  -5.908720   5.399493  -5.223389
    14  O   -0.000551   0.000552   0.000141   0.238687  -0.232238   0.039676
    15  H    0.000002  -0.000121   0.000028  -0.039570   0.083926  -0.153822
    16  C   -0.039047  -0.006243  -0.000726   3.631060  -6.077866   4.028357
    17  C    0.328735  -0.052145  -0.159060 -13.541386   2.412414  -6.749903
    18  H   -0.009937   0.012961  -0.007330   1.354947   0.183649  -0.015946
    19  H   -0.003437   0.000033   0.000595  -0.099433  -0.041691   0.020741
    20  H    0.000572  -0.003009  -0.000045  -0.603737   0.750871  -1.594233
    21  H    0.021996  -0.062993  -0.008238   1.287177  -2.222573   0.626962
    22  C    0.249948  -0.152580   0.066964   0.248392  -0.611773   0.645270
    23  C    0.071820  -0.010793  -0.074633  -0.467258  -0.306811   0.063527
    24  H    0.000260   0.000252  -0.003333  -0.041635  -0.006929  -0.022071
    25  C    0.020575  -0.027063  -0.030761   0.225196   0.017193  -0.207132
    26  H    0.000158  -0.000293   0.000542  -0.011728   0.029728   0.001342
    27  C    0.000150  -0.000360   0.000626  -0.010634  -0.005279  -0.034068
    28  O   -0.000096   0.000432   0.000163   0.002561   0.000177  -0.000626
    29  C   -0.065500   0.076178   0.111123  -0.251223   0.349625   0.246759
    30  H    0.000048   0.002696  -0.000233  -0.010823  -0.019321   0.000059
    31  C   -0.068574  -0.044696  -0.055836   0.824007  -0.335392  -0.226515
    32  H    0.047202  -0.040812  -0.046285   0.066823   0.121234   0.040608
              13         14         15         16         17         18
     1  C    0.046666   0.000028   0.000258   0.367278  -0.504616   0.101337
     2  H    0.007397  -0.000045   0.000116  -0.081185  -0.138313   0.048628
     3  H   -0.003290   0.000187  -0.000132   0.052369  -0.091939  -0.037954
     4  H   -0.022278   0.000549  -0.000412   0.182850  -0.089936  -0.048367
     5  C   -0.734769   0.013837  -0.007703   0.243786  -1.412680  -0.421167
     6  C   -0.096285   0.003591  -0.000646  -0.034039  -0.185140   0.023226
     7  H    0.037402  -0.000551   0.000002  -0.039047   0.328735  -0.009937
     8  H   -0.003000   0.000552  -0.000121  -0.006243  -0.052145   0.012961
     9  H   -0.005378   0.000141   0.000028  -0.000726  -0.159060  -0.007330
    10  C   -5.908720   0.238687  -0.039570   3.631060 -13.541386   1.354947
    11  C    5.399493  -0.232238   0.083926  -6.077866   2.412414   0.183649
    12  C   -5.223389   0.039676  -0.153822   4.028357  -6.749903  -0.015946
    13  C   11.434404  -0.720919  -0.023110  -4.151747   4.449560  -0.266552
    14  O   -0.720919   9.091455   0.312335   0.379699  -0.045743   0.003506
    15  H   -0.023110   0.312335   0.600436  -0.001584   0.055462   0.000012
    16  C   -4.151747   0.379699  -0.001584  16.489501  -7.952146   0.166140
    17  C    4.449560  -0.045743   0.055462  -7.952146  29.832225  -1.868316
    18  H   -0.266552   0.003506   0.000012   0.166140  -1.868316   2.509263
    19  H    0.522227  -0.093745   0.004252  -1.201242   0.594406  -0.095539
    20  H    1.045794  -0.043680  -0.003050  -0.000142   0.238297   0.011049
    21  H   -0.564758  -0.004864  -0.000045   0.226884  -0.012687  -0.029033
    22  C   -0.021492   0.002154   0.000157  -0.237585  -0.557790   0.199762
    23  C    0.011540  -0.000276  -0.000151   0.078921   0.279656  -0.011992
    24  H    0.010460  -0.000377  -0.000045   0.003466   0.185566  -0.008456
    25  C   -0.017817  -0.000098   0.000033   0.089184   0.200970   0.011420
    26  H    0.001451   0.000054   0.000023  -0.001042  -0.010997   0.001559
    27  C   -0.001746  -0.000024   0.000038   0.004928   0.055305   0.000912
    28  O    0.000145  -0.000001   0.000001  -0.000026  -0.000367  -0.000067
    29  C    0.032702   0.000187  -0.000007  -0.042727  -0.234288   0.003913
    30  H   -0.000165   0.000005  -0.000003  -0.000174   0.001285  -0.000159
    31  C    0.037047  -0.000920   0.000382  -0.115868   0.330923  -0.006543
    32  H    0.006408  -0.000164   0.000009  -0.008905  -0.025805  -0.000017
              19         20         21         22         23         24
     1  C    0.017797  -0.000981   0.041090  -1.351100  -0.156599   0.076786
     2  H   -0.000535  -0.000134   0.003644   0.121685   0.017155   0.014009
     3  H    0.000744  -0.000472   0.004201  -0.034021  -0.151010  -0.044216
     4  H    0.001857   0.000626  -0.005597   0.116133   0.009751   0.000993
     5  C    0.041252  -0.027078   0.072510  -7.179005   0.334623  -0.173978
     6  C   -0.000457   0.003455  -0.063822   2.036914  -0.317382  -0.010617
     7  H   -0.003437   0.000572   0.021996   0.249948   0.071820   0.000260
     8  H    0.000033  -0.003009  -0.062993  -0.152580  -0.010793   0.000252
     9  H    0.000595  -0.000045  -0.008238   0.066964  -0.074633  -0.003333
    10  C   -0.099433  -0.603737   1.287177   0.248392  -0.467258  -0.041635
    11  C   -0.041691   0.750871  -2.222573  -0.611773  -0.306811  -0.006929
    12  C    0.020741  -1.594233   0.626962   0.645270   0.063527  -0.022071
    13  C    0.522227   1.045794  -0.564758  -0.021492   0.011540   0.010460
    14  O   -0.093745  -0.043680  -0.004864   0.002154  -0.000276  -0.000377
    15  H    0.004252  -0.003050  -0.000045   0.000157  -0.000151  -0.000045
    16  C   -1.201242  -0.000142   0.226884  -0.237585   0.078921   0.003466
    17  C    0.594406   0.238297  -0.012687  -0.557790   0.279656   0.185566
    18  H   -0.095539   0.011049  -0.029033   0.199762  -0.011992  -0.008456
    19  H    1.971236  -0.017616   0.008167  -0.008460  -0.007128   0.000213
    20  H   -0.017616   1.846190  -0.117184   0.016893   0.002955  -0.000210
    21  H    0.008167  -0.117184   2.628388  -0.312320   0.036472   0.017646
    22  C   -0.008460   0.016893  -0.312320  26.817384  -7.552929   0.699212
    23  C   -0.007128   0.002955   0.036472  -7.552929  23.233191  -2.055783
    24  H    0.000213  -0.000210   0.017646   0.699212  -2.055783   2.586831
    25  C   -0.000935  -0.000161  -0.038167   1.210623  -5.014608   0.903186
    26  H   -0.000146  -0.000468   0.002921  -0.137076   0.705389  -0.141921
    27  C   -0.000235  -0.001730   0.036352  -2.765331   1.160393  -0.107203
    28  O   -0.000001  -0.000092   0.000138   0.173234  -0.090996  -0.001309
    29  C   -0.000086   0.001816  -0.079529   2.343866  -2.559351   0.078976
    30  H    0.000007  -0.000029  -0.003577   0.023130   0.121051   0.003369
    31  C   -0.000689  -0.006732   0.212337 -10.298132  -1.566306  -0.106844
    32  H   -0.000213   0.000929   0.010774   1.135985  -0.110544  -0.018056
              25         26         27         28         29         30
     1  C    0.594771  -0.011067   0.004563   0.003366  -0.349857   0.003020
     2  H    0.010671   0.001553   0.011586  -0.000123  -0.013864  -0.002415
     3  H    0.009634  -0.001489  -0.006785   0.000506  -0.004926   0.000811
     4  H    0.028363  -0.000952  -0.003311   0.000289  -0.012928   0.000946
     5  C   -1.064364   0.020500  -0.083615  -0.001461  -0.821800   0.028770
     6  C   -0.352805  -0.000886   0.039224  -0.001489   0.366460   0.023620
     7  H    0.020575   0.000158   0.000150  -0.000096  -0.065500   0.000048
     8  H   -0.027063  -0.000293  -0.000360   0.000432   0.076178   0.002696
     9  H   -0.030761   0.000542   0.000626   0.000163   0.111123  -0.000233
    10  C    0.225196  -0.011728  -0.010634   0.002561  -0.251223  -0.010823
    11  C    0.017193   0.029728  -0.005279   0.000177   0.349625  -0.019321
    12  C   -0.207132   0.001342  -0.034068  -0.000626   0.246759   0.000059
    13  C   -0.017817   0.001451  -0.001746   0.000145   0.032702  -0.000165
    14  O   -0.000098   0.000054  -0.000024  -0.000001   0.000187   0.000005
    15  H    0.000033   0.000023   0.000038   0.000001  -0.000007  -0.000003
    16  C    0.089184  -0.001042   0.004928  -0.000026  -0.042727  -0.000174
    17  C    0.200970  -0.010997   0.055305  -0.000367  -0.234288   0.001285
    18  H    0.011420   0.001559   0.000912  -0.000067   0.003913  -0.000159
    19  H   -0.000935  -0.000146  -0.000235  -0.000001  -0.000086   0.000007
    20  H   -0.000161  -0.000468  -0.001730  -0.000092   0.001816  -0.000029
    21  H   -0.038167   0.002921   0.036352   0.000138  -0.079529  -0.003577
    22  C    1.210623  -0.137076  -2.765331   0.173234   2.343866   0.023130
    23  C   -5.014608   0.705389   1.160393  -0.090996  -2.559351   0.121051
    24  H    0.903186  -0.141921  -0.107203  -0.001309   0.078976   0.003369
    25  C   12.244210  -0.858714  -1.410347   0.124876   1.916921  -0.172977
    26  H   -0.858714   1.821615   0.190250  -0.033484  -0.161248  -0.011001
    27  C   -1.410347   0.190250   8.268103  -0.353373  -1.645421   0.139379
    28  O    0.124876  -0.033484  -0.353373   9.329592   0.124207  -0.021008
    29  C    1.916921  -0.161248  -1.645421   0.124207  12.438362  -0.969544
    30  H   -0.172977  -0.011001   0.139379  -0.021008  -0.969544   1.794623
    31  C   -2.674822   0.153879   2.170679  -0.104412  -5.702493   0.722339
    32  H    0.070096   0.006017  -0.061948  -0.003937   0.685935  -0.112663
              31         32
     1  C   -0.172338  -0.021666
     2  H    0.261537   0.016139
     3  H   -0.024392  -0.002421
     4  H   -0.151015  -0.008092
     5  C   -1.641833  -0.423606
     6  C   -0.362219   0.055894
     7  H   -0.068574   0.047202
     8  H   -0.044696  -0.040812
     9  H   -0.055836  -0.046285
    10  C    0.824007   0.066823
    11  C   -0.335392   0.121234
    12  C   -0.226515   0.040608
    13  C    0.037047   0.006408
    14  O   -0.000920  -0.000164
    15  H    0.000382   0.000009
    16  C   -0.115868  -0.008905
    17  C    0.330923  -0.025805
    18  H   -0.006543  -0.000017
    19  H   -0.000689  -0.000213
    20  H   -0.006732   0.000929
    21  H    0.212337   0.010774
    22  C  -10.298132   1.135985
    23  C   -1.566306  -0.110544
    24  H   -0.106844  -0.018056
    25  C   -2.674822   0.070096
    26  H    0.153879   0.006017
    27  C    2.170679  -0.061948
    28  O   -0.104412  -0.003937
    29  C   -5.702493   0.685935
    30  H    0.722339  -0.112663
    31  C   26.434607  -2.123700
    32  H   -2.123700   2.641364
 Mulliken charges:
               1
     1  C    1.070299
     2  H   -0.202973
     3  H   -0.055994
     4  H   -0.074643
     5  C   -0.942560
     6  C    0.934157
     7  H   -0.206206
     8  H    0.000296
     9  H   -0.041141
    10  C    0.914643
    11  C    0.407858
    12  C    0.350180
    13  C    0.722721
    14  O   -0.943002
    15  H    0.172930
    16  C    0.007871
    17  C    0.668454
    18  H   -0.804910
    19  H   -0.611935
    20  H   -0.498664
    21  H   -0.712270
    22  C    1.111887
    23  C    0.328109
    24  H   -0.838239
    25  C    0.192850
    26  H   -0.554468
    27  C    0.408917
    28  O   -1.146820
    29  C    0.137763
    30  H   -0.541062
    31  C    0.642535
    32  H   -0.896581
 Sum of Mulliken charges =  -1.00000
 Mulliken charges with hydrogens summed into heavy atoms:
               1
     1  C    0.736688
     5  C   -0.942560
     6  C    0.687106
    10  C    0.914643
    11  C   -0.304412
    12  C   -0.148484
    13  C    0.722721
    14  O   -0.770072
    16  C   -0.604064
    17  C   -0.136456
    22  C    1.111887
    23  C   -0.510131
    25  C   -0.361618
    27  C    0.408917
    28  O   -1.146820
    29  C   -0.403299
    31  C   -0.254046
 Electronic spatial extent (au):  <R**2>=           4838.9988
 Charge=             -1.0000 electrons
 Dipole moment (field-independent basis, Debye):
    X=             15.6570    Y=              6.0705    Z=             -0.0838  Tot=             16.7929
 Quadrupole moment (field-independent basis, Debye-Ang):
   XX=           -183.0415   YY=           -123.2118   ZZ=           -107.2818
   XY=            -22.3328   XZ=            -11.2608   YZ=             -1.5233
 Traceless Quadrupole moment (field-independent basis, Debye-Ang):
   XX=            -45.1965   YY=             14.6332   ZZ=             30.5633
   XY=            -22.3328   XZ=            -11.2608   YZ=             -1.5233
 Octapole moment (field-independent basis, Debye-Ang**2):
  XXX=            432.1622  YYY=             16.6662  ZZZ=              0.4827  XYY=             49.2052
  XXY=            141.0440  XXZ=            -18.1878  XZZ=             11.1537  YZZ=             -5.6815
  YYZ=              2.5478  XYZ=              6.8441
 Hexadecapole moment (field-independent basis, Debye-Ang**3):
 XXXX=          -6229.2608 YYYY=          -1406.8000 ZZZZ=           -655.4212 XXXY=           -648.5836
 XXXZ=           -305.0134 YYYX=           -102.6320 YYYZ=            -13.8244 ZZZX=             -9.1213
 ZZZY=              1.2584 XXYY=          -1361.1053 XXZZ=           -919.6236 YYZZ=           -330.9943
 XXYZ=              4.3702 YYXZ=            -21.9910 ZZXY=            -14.6410
 N-N= 1.130028154263D+03 E-N=-3.974169426142D+03  KE= 7.258548520278D+02
 Leave Link  601 at Mon Jul 12 15:36:18 2021, MaxMem=   262144000 cpu:               0.4 elap:               0.3
 (Enter /dades/curu/g16A03_MST/g16/l9999.exe)
 1\1\GINC-PIRINEUS27\SP\RMP2-FC\Aug-CC-pVDZ\C15H15O2(1-)\UBATOR02\12-Ju
 l-2021\0\\#p mp2/aug-cc-pVDZ scf=tight maxdisk=180GB geom=allcheck\\SE
 T_328_BBB212_conf1.geo_315_300 geometry\\-1,1\C,0,0.3384659365,1.72716
 8426,-1.6448214217\H,0,1.1071707027,1.5691018255,-2.4056552624\H,0,0.7
 688145301,2.3537692761,-0.8586969792\H,0,-0.4874230873,2.2765527303,-2
 .1120021698\C,0,-0.1117405423,0.3609215247,-1.0850286633\C,0,-0.762112
 9685,-0.4239855377,-2.2437675004\H,0,-1.6395669006,0.1144325192,-2.613
 2506213\H,0,-1.0867592823,-1.4169491362,-1.9234365405\H,0,-0.060965544
 2,-0.5491878236,-3.0767583077\C,0,-1.1786446089,0.52750016,0.011992015
 8\C,0,-1.4630511804,-0.5485331563,0.8668541416\C,0,-2.4567004903,-0.48
 06297423,1.8353603442\C,0,-3.2020181898,0.6944552294,1.9856618591\O,0,
 -4.1651765249,0.7152212258,2.9593429594\H,0,-4.5974847405,1.5841329644
 ,2.9598921066\C,0,-2.9351199168,1.7826537195,1.1551189638\C,0,-1.93731
 6933,1.6899075675,0.1806224401\H,0,-1.7565049103,2.5524645429,-0.44964
 13583\H,0,-3.4999567281,2.703422944,1.2664510451\H,0,-2.661234169,-1.3
 213498043,2.4886390826\H,0,-0.8694077851,-1.450797759,0.7711458379\C,0
 ,1.1152176961,-0.3677023263,-0.5253826004\C,0,1.8791064094,0.226280911
 3,0.4977016189\H,0,1.5631952636,1.1914617214,0.8891060489\C,0,3.015675
 426,-0.3717627881,1.0207815129\H,0,3.5782597515,0.1212886618,1.8098392
 039\C,0,3.5030278014,-1.6462581471,0.5608023389\O,0,4.5582557561,-2.20
 15088819,1.0380988556\C,0,2.7030784741,-2.2314052402,-0.477349979\H,0,
 3.0155291634,-3.1982372849,-0.8683048496\C,0,1.5654224514,-1.612710769
 3,-0.9896394437\H,0,1.0129651399,-2.1177175523,-1.777674678\\Version=E
 S64L-G16RevA.03\State=1-A\HF=-726.5704648\MP2=-729.0719995\RMSD=5.832e
 -09\PG=C01 [X(C15H15O2)]\\@


 ALL MY ATTEMPTS TO ADAPT THE THEORETICAL FOUNDATIONS OF PHYSICS
 TO THESE NEW NOTIONS FAILED COMPLETELY. IT WAS AS IF THE GROUND HAD
 BEEN PULLED OUT FROM UNDER ONE WITH NO FIRM FOUNDATION TO BE SEEN ANYWHERE,
 UPON WHICH ONE COULD HAVE BUILT.  -- A.EINSTEIN
 Job cpu time:       0 days  3 hours  1 minutes 22.7 seconds.
 Elapsed time:       0 days  0 hours 53 minutes 46.2 seconds.
 File lengths (MBytes):  RWF=  69093 Int=      0 D2E=      0 Chk=     24 Scr=      1
 Normal termination of Gaussian 16 at Mon Jul 12 15:36:20 2021.
