 Entering Gaussian System, Link 0=g16
 Input=SET_328_BBB212_conf1.geo_060_045_OCTANOL.dat
 Output=SET_328_BBB212_conf1.geo_060_045_OCTANOL.log
 Initial command:
 /dades/curu/g16A03_MST/g16/l1.exe "/tmp/ubator02/1835273/Gau-112941.inp" -scrdir="/tmp/ubator02/1835273/"
 Entering Link 1 = /dades/curu/g16A03_MST/g16/l1.exe PID=    112942.
  
 Copyright (c) 1988,1990,1992,1993,1995,1998,2003,2009,2016,
            Gaussian, Inc.  All Rights Reserved.
  
 This is part of the Gaussian(R) 16 program.  It is based on
 the Gaussian(R) 09 system (copyright 2009, Gaussian, Inc.),
 the Gaussian(R) 03 system (copyright 2003, Gaussian, Inc.),
 the Gaussian(R) 98 system (copyright 1998, Gaussian, Inc.),
 the Gaussian(R) 94 system (copyright 1995, Gaussian, Inc.),
 the Gaussian 92(TM) system (copyright 1992, Gaussian, Inc.),
 the Gaussian 90(TM) system (copyright 1990, Gaussian, Inc.),
 the Gaussian 88(TM) system (copyright 1988, Gaussian, Inc.),
 the Gaussian 86(TM) system (copyright 1986, Carnegie Mellon
 University), and the Gaussian 82(TM) system (copyright 1983,
 Carnegie Mellon University). Gaussian is a federally registered
 trademark of Gaussian, Inc.
  
 This software contains proprietary and confidential information,
 including trade secrets, belonging to Gaussian, Inc.
  
 This software is provided under written license and may be
 used, copied, transmitted, or stored only in accord with that
 written license.
  
 The following legend is applicable only to US Government
 contracts under FAR:
  
                    RESTRICTED RIGHTS LEGEND
  
 Use, reproduction and disclosure by the US Government is
 subject to restrictions as set forth in subparagraphs (a)
 and (c) of the Commercial Computer Software - Restricted
 Rights clause in FAR 52.227-19.
  
 Gaussian, Inc.
 340 Quinnipiac St., Bldg. 40, Wallingford CT 06492
  
  
 ---------------------------------------------------------------
 Warning -- This program may not be used in any manner that
 competes with the business of Gaussian, Inc. or will provide
 assistance to any competitor of Gaussian, Inc.  The licensee
 of this program is prohibited from giving any competitor of
 Gaussian, Inc. access to this program.  By using this program,
 the user acknowledges that Gaussian, Inc. is engaged in the
 business of creating and licensing software in the field of
 computational chemistry and represents and warrants to the
 licensee that it is not a competitor of Gaussian, Inc. and that
 it will not use this program in any manner prohibited above.
 ---------------------------------------------------------------
  

 Cite this work as:
 Gaussian 16, Revision A.03,
 M. J. Frisch, G. W. Trucks, H. B. Schlegel, G. E. Scuseria, 
 M. A. Robb, J. R. Cheeseman, G. Scalmani, V. Barone, 
 G. A. Petersson, H. Nakatsuji, X. Li, M. Caricato, A. V. Marenich, 
 J. Bloino, B. G. Janesko, R. Gomperts, B. Mennucci, H. P. Hratchian, 
 J. V. Ortiz, A. F. Izmaylov, J. L. Sonnenberg, D. Williams-Young, 
 F. Ding, F. Lipparini, F. Egidi, J. Goings, B. Peng, A. Petrone, 
 T. Henderson, D. Ranasinghe, V. G. Zakrzewski, J. Gao, N. Rega, 
 G. Zheng, W. Liang, M. Hada, M. Ehara, K. Toyota, R. Fukuda, 
 J. Hasegawa, M. Ishida, T. Nakajima, Y. Honda, O. Kitao, H. Nakai, 
 T. Vreven, K. Throssell, J. A. Montgomery, Jr., J. E. Peralta, 
 F. Ogliaro, M. J. Bearpark, J. J. Heyd, E. N. Brothers, K. N. Kudin, 
 V. N. Staroverov, T. A. Keith, R. Kobayashi, J. Normand, 
 K. Raghavachari, A. P. Rendell, J. C. Burant, S. S. Iyengar, 
 J. Tomasi, M. Cossi, J. M. Millam, M. Klene, C. Adamo, R. Cammi, 
 J. W. Ochterski, R. L. Martin, K. Morokuma, O. Farkas, 
 J. B. Foresman, and D. J. Fox, Gaussian, Inc., Wallingford CT, 2016.
 
 ******************************************
 Gaussian 16:  ES64L-G16RevA.03 25-Dec-2016
                12-Jul-2021 
 ******************************************
 %mem=800MB
 %nproc=4
 Will use up to    4 processors via shared memory.
 %chk=SET_328_BBB212_conf1.geo_060_045.chk
 ---------------------------------------------------------------
 #p b3lyp/6-31G(d) opt freq scrf=(iefpcm,read,solvent=n-octanol)
 ---------------------------------------------------------------
 1/18=20,19=15,26=3,38=1,40=2/1,3;
 2/9=110,12=2,17=6,18=5,40=1/2;
 3/5=1,6=6,7=1,11=2,25=1,30=1,70=2203,71=1,72=25,74=-5/1,2,3;
 4//1;
 5/5=2,38=5,53=25/2;
 6/7=2,8=2,9=2,10=2,28=1/1;
 7//1,2,3,16;
 1/18=20,19=15,26=3/3(2);
 2/9=110/2;
 99//99;
 2/9=110/2;
 3/5=1,6=6,7=1,11=2,25=1,30=1,70=2205,71=1,72=25,74=-5/1,2,3;
 4/5=5,16=3,69=1/1;
 5/5=2,38=5,53=25/2;
 7//1,2,3,16;
 1/18=20,19=15,26=3/3(-5);
 2/9=110/2;
 6/7=2,8=2,9=2,10=2,19=2,28=1/1;
 99/9=1/99;
 Leave Link    1 at Mon Jul 12 12:15:36 2021, MaxMem=   104857600 cpu:               0.0 elap:               0.0
 (Enter /dades/curu/g16A03_MST/g16/l101.exe)
 -----------------------------------------
 SET_328_BBB212_conf1.geo_060_045 geometry
 -----------------------------------------
 Symbolic Z-matrix:
 Charge = -1 Multiplicity = 1
 C                    -1.421     0.815     1.862 
 H                    -1.034     1.479     2.638 
 H                    -2.064     0.106     2.387 
 H                    -2.11      1.268     1.147 
 C                    -0.251    -0.057     1.126 
 C                     0.421    -0.825     2.274 
 H                     0.634    -0.189     3.135 
 H                     1.326    -1.321     1.919 
 H                    -0.226    -1.62      2.652 
 C                     0.645     1.039     0.484 
 C                     0.201     1.883    -0.576 
 C                     0.931     2.924    -1.108 
 C                     2.222     3.08     -0.666 
 O                     3.071     4.006    -1.143 
 H                     2.432     4.501    -1.685 
 C                     2.806     2.207     0.234 
 C                     2.028     1.136     0.765 
 H                     2.425     0.458     1.515 
 H                     3.852     2.315     0.509 
 H                     0.509     3.587    -1.859 
 H                    -0.774     1.744    -1.036 
 C                    -0.702    -1.117     0.081 
 C                     0.127    -1.712    -0.868 
 H                     1.113    -1.266    -0.964 
 C                    -0.361    -2.562    -1.853 
 H                     0.279    -2.876    -2.674 
 C                    -1.627    -3.048    -1.749 
 O                    -2.159    -3.927    -2.685 
 C                    -2.46     -2.525    -0.772 
 H                    -3.503    -2.83     -0.771 
 C                    -2.025    -1.604     0.178 
 H                    -2.699    -1.304     0.976 
 
 ITRead=  0  0  0  0  0  0  0  0  0  0  0  0  0  0  0  0  0  0  0  0
 ITRead=  0  0  0  0  0  0  0  0  0  0  0  0
 MicOpt= -1 -1 -1 -1 -1 -1 -1 -1 -1 -1 -1 -1 -1 -1 -1 -1 -1 -1 -1 -1
 MicOpt= -1 -1 -1 -1 -1 -1 -1 -1 -1 -1 -1 -1
 NAtoms=     32 NQM=       32 NQMF=       0 NMMI=      0 NMMIF=      0
                NMic=       0 NMicF=      0.
                    Isotopes and Nuclear Properties:
 (Nuclear quadrupole moments (NQMom) in fm**2, nuclear magnetic moments (NMagM)
  in nuclear magnetons)

  Atom         1           2           3           4           5           6           7           8           9          10
 IAtWgt=          12           1           1           1          12          12           1           1           1          12
 AtmWgt=  12.0000000   1.0078250   1.0078250   1.0078250  12.0000000  12.0000000   1.0078250   1.0078250   1.0078250  12.0000000
 NucSpn=           0           1           1           1           0           0           1           1           1           0
 AtZEff=  -0.0000000  -0.0000000  -0.0000000  -0.0000000  -0.0000000  -0.0000000  -0.0000000  -0.0000000  -0.0000000  -0.0000000
 NQMom=    0.0000000   0.0000000   0.0000000   0.0000000   0.0000000   0.0000000   0.0000000   0.0000000   0.0000000   0.0000000
 NMagM=    0.0000000   2.7928460   2.7928460   2.7928460   0.0000000   0.0000000   2.7928460   2.7928460   2.7928460   0.0000000
 AtZNuc=   6.0000000   1.0000000   1.0000000   1.0000000   6.0000000   6.0000000   1.0000000   1.0000000   1.0000000   6.0000000

  Atom        11          12          13          14          15          16          17          18          19          20
 IAtWgt=          12          12          12          16           1          12          12           1           1           1
 AtmWgt=  12.0000000  12.0000000  12.0000000  15.9949146   1.0078250  12.0000000  12.0000000   1.0078250   1.0078250   1.0078250
 NucSpn=           0           0           0           0           1           0           0           1           1           1
 AtZEff=  -0.0000000  -0.0000000  -0.0000000  -0.0000000  -0.0000000  -0.0000000  -0.0000000  -0.0000000  -0.0000000  -0.0000000
 NQMom=    0.0000000   0.0000000   0.0000000   0.0000000   0.0000000   0.0000000   0.0000000   0.0000000   0.0000000   0.0000000
 NMagM=    0.0000000   0.0000000   0.0000000   0.0000000   2.7928460   0.0000000   0.0000000   2.7928460   2.7928460   2.7928460
 AtZNuc=   6.0000000   6.0000000   6.0000000   8.0000000   1.0000000   6.0000000   6.0000000   1.0000000   1.0000000   1.0000000

  Atom        21          22          23          24          25          26          27          28          29          30
 IAtWgt=           1          12          12           1          12           1          12          16          12           1
 AtmWgt=   1.0078250  12.0000000  12.0000000   1.0078250  12.0000000   1.0078250  12.0000000  15.9949146  12.0000000   1.0078250
 NucSpn=           1           0           0           1           0           1           0           0           0           1
 AtZEff=  -0.0000000  -0.0000000  -0.0000000  -0.0000000  -0.0000000  -0.0000000  -0.0000000  -0.0000000  -0.0000000  -0.0000000
 NQMom=    0.0000000   0.0000000   0.0000000   0.0000000   0.0000000   0.0000000   0.0000000   0.0000000   0.0000000   0.0000000
 NMagM=    2.7928460   0.0000000   0.0000000   2.7928460   0.0000000   2.7928460   0.0000000   0.0000000   0.0000000   2.7928460
 AtZNuc=   1.0000000   6.0000000   6.0000000   1.0000000   6.0000000   1.0000000   6.0000000   8.0000000   6.0000000   1.0000000

  Atom        31          32
 IAtWgt=          12           1
 AtmWgt=  12.0000000   1.0078250
 NucSpn=           0           1
 AtZEff=  -0.0000000  -0.0000000
 NQMom=    0.0000000   0.0000000
 NMagM=    0.0000000   2.7928460
 AtZNuc=   6.0000000   1.0000000
 Leave Link  101 at Mon Jul 12 12:15:36 2021, MaxMem=   104857600 cpu:               0.1 elap:               0.1
 (Enter /dades/curu/g16A03_MST/g16/l103.exe)

 GradGradGradGradGradGradGradGradGradGradGradGradGradGradGradGradGradGrad
 Berny optimization.
 Initialization pass.
                           ----------------------------
                           !    Initial Parameters    !
                           ! (Angstroms and Degrees)  !
 --------------------------                            --------------------------
 ! Name  Definition              Value          Derivative Info.                !
 --------------------------------------------------------------------------------
 ! R1    R(1,2)                  1.0922         estimate D2E/DX2                !
 ! R2    R(1,3)                  1.0917         estimate D2E/DX2                !
 ! R3    R(1,4)                  1.0914         estimate D2E/DX2                !
 ! R4    R(1,5)                  1.6343         estimate D2E/DX2                !
 ! R5    R(5,6)                  1.536          estimate D2E/DX2                !
 ! R6    R(5,10)                 1.5544         estimate D2E/DX2                !
 ! R7    R(5,22)                 1.5553         estimate D2E/DX2                !
 ! R8    R(6,7)                  1.0914         estimate D2E/DX2                !
 ! R9    R(6,8)                  1.0914         estimate D2E/DX2                !
 ! R10   R(6,9)                  1.0925         estimate D2E/DX2                !
 ! R11   R(10,11)                1.4259         estimate D2E/DX2                !
 ! R12   R(10,17)                1.4146         estimate D2E/DX2                !
 ! R13   R(11,12)                1.3783         estimate D2E/DX2                !
 ! R14   R(11,21)                1.087          estimate D2E/DX2                !
 ! R15   R(12,13)                1.3735         estimate D2E/DX2                !
 ! R16   R(12,20)                1.087          estimate D2E/DX2                !
 ! R17   R(13,14)                1.3438         estimate D2E/DX2                !
 ! R18   R(13,16)                1.3832         estimate D2E/DX2                !
 ! R19   R(14,15)                0.9732         estimate D2E/DX2                !
 ! R20   R(16,17)                1.4263         estimate D2E/DX2                !
 ! R21   R(16,19)                1.0869         estimate D2E/DX2                !
 ! R22   R(17,18)                1.0862         estimate D2E/DX2                !
 ! R23   R(22,23)                1.3935         estimate D2E/DX2                !
 ! R24   R(22,31)                1.4131         estimate D2E/DX2                !
 ! R25   R(23,24)                1.0864         estimate D2E/DX2                !
 ! R26   R(23,25)                1.3896         estimate D2E/DX2                !
 ! R27   R(25,26)                1.0873         estimate D2E/DX2                !
 ! R28   R(25,27)                1.3601         estimate D2E/DX2                !
 ! R29   R(27,28)                1.3899         estimate D2E/DX2                !
 ! R30   R(27,29)                1.3863         estimate D2E/DX2                !
 ! R31   R(29,30)                1.0867         estimate D2E/DX2                !
 ! R32   R(29,31)                1.3928         estimate D2E/DX2                !
 ! R33   R(31,32)                1.0868         estimate D2E/DX2                !
 ! A1    A(2,1,3)              105.1806         estimate D2E/DX2                !
 ! A2    A(2,1,4)              115.9013         estimate D2E/DX2                !
 ! A3    A(2,1,5)              112.9971         estimate D2E/DX2                !
 ! A4    A(3,1,4)              102.2857         estimate D2E/DX2                !
 ! A5    A(3,1,5)              106.9607         estimate D2E/DX2                !
 ! A6    A(4,1,5)              112.2331         estimate D2E/DX2                !
 ! A7    A(1,5,6)              104.0872         estimate D2E/DX2                !
 ! A8    A(1,5,10)             102.8532         estimate D2E/DX2                !
 ! A9    A(1,5,22)             117.2984         estimate D2E/DX2                !
 ! A10   A(6,5,10)             114.1449         estimate D2E/DX2                !
 ! A11   A(6,5,22)             106.7539         estimate D2E/DX2                !
 ! A12   A(10,5,22)            111.7271         estimate D2E/DX2                !
 ! A13   A(5,6,7)              112.5584         estimate D2E/DX2                !
 ! A14   A(5,6,8)              110.2988         estimate D2E/DX2                !
 ! A15   A(5,6,9)              111.306          estimate D2E/DX2                !
 ! A16   A(7,6,8)              111.0765         estimate D2E/DX2                !
 ! A17   A(7,6,9)              105.4666         estimate D2E/DX2                !
 ! A18   A(8,6,9)              105.8383         estimate D2E/DX2                !
 ! A19   A(5,10,11)            123.0184         estimate D2E/DX2                !
 ! A20   A(5,10,17)            121.9958         estimate D2E/DX2                !
 ! A21   A(11,10,17)           114.3006         estimate D2E/DX2                !
 ! A22   A(10,11,12)           124.6877         estimate D2E/DX2                !
 ! A23   A(10,11,21)           121.2129         estimate D2E/DX2                !
 ! A24   A(12,11,21)           114.0994         estimate D2E/DX2                !
 ! A25   A(11,12,13)           117.35           estimate D2E/DX2                !
 ! A26   A(11,12,20)           121.4478         estimate D2E/DX2                !
 ! A27   A(13,12,20)           121.1956         estimate D2E/DX2                !
 ! A28   A(12,13,14)           123.9103         estimate D2E/DX2                !
 ! A29   A(12,13,16)           122.3153         estimate D2E/DX2                !
 ! A30   A(14,13,16)           113.5242         estimate D2E/DX2                !
 ! A31   A(13,14,15)            97.6632         estimate D2E/DX2                !
 ! A32   A(13,16,17)           119.0696         estimate D2E/DX2                !
 ! A33   A(13,16,19)           120.5461         estimate D2E/DX2                !
 ! A34   A(17,16,19)           120.3548         estimate D2E/DX2                !
 ! A35   A(10,17,16)           120.719          estimate D2E/DX2                !
 ! A36   A(10,17,18)           116.8527         estimate D2E/DX2                !
 ! A37   A(16,17,18)           121.7634         estimate D2E/DX2                !
 ! A38   A(5,22,23)            125.1739         estimate D2E/DX2                !
 ! A39   A(5,22,31)            117.4022         estimate D2E/DX2                !
 ! A40   A(23,22,31)           117.1653         estimate D2E/DX2                !
 ! A41   A(22,23,24)           115.1381         estimate D2E/DX2                !
 ! A42   A(22,23,25)           122.3443         estimate D2E/DX2                !
 ! A43   A(24,23,25)           120.478          estimate D2E/DX2                !
 ! A44   A(23,25,26)           120.3433         estimate D2E/DX2                !
 ! A45   A(23,25,27)           119.425          estimate D2E/DX2                !
 ! A46   A(26,25,27)           120.162          estimate D2E/DX2                !
 ! A47   A(25,27,28)           122.0588         estimate D2E/DX2                !
 ! A48   A(25,27,29)           118.5802         estimate D2E/DX2                !
 ! A49   A(28,27,29)           118.8939         estimate D2E/DX2                !
 ! A50   A(27,29,30)           118.13           estimate D2E/DX2                !
 ! A51   A(27,29,31)           122.8521         estimate D2E/DX2                !
 ! A52   A(30,29,31)           118.9945         estimate D2E/DX2                !
 ! A53   A(22,31,29)           118.2592         estimate D2E/DX2                !
 ! A54   A(22,31,32)           122.4051         estimate D2E/DX2                !
 ! A55   A(29,31,32)           119.319          estimate D2E/DX2                !
 ! D1    D(2,1,5,6)             57.6944         estimate D2E/DX2                !
 ! D2    D(2,1,5,10)           -61.6348         estimate D2E/DX2                !
 ! D3    D(2,1,5,22)           175.3373         estimate D2E/DX2                !
 ! D4    D(3,1,5,6)            -57.5731         estimate D2E/DX2                !
 ! D5    D(3,1,5,10)          -176.9023         estimate D2E/DX2                !
 ! D6    D(3,1,5,22)            60.0699         estimate D2E/DX2                !
 ! D7    D(4,1,5,6)           -168.9805         estimate D2E/DX2                !
 ! D8    D(4,1,5,10)            71.6904         estimate D2E/DX2                !
 ! D9    D(4,1,5,22)           -51.3375         estimate D2E/DX2                !
 ! D10   D(1,5,6,7)            -46.2103         estimate D2E/DX2                !
 ! D11   D(1,5,6,8)           -170.8802         estimate D2E/DX2                !
 ! D12   D(1,5,6,9)             71.9517         estimate D2E/DX2                !
 ! D13   D(10,5,6,7)            65.1253         estimate D2E/DX2                !
 ! D14   D(10,5,6,8)           -59.5447         estimate D2E/DX2                !
 ! D15   D(10,5,6,9)          -176.7127         estimate D2E/DX2                !
 ! D16   D(22,5,6,7)          -170.9153         estimate D2E/DX2                !
 ! D17   D(22,5,6,8)            64.4148         estimate D2E/DX2                !
 ! D18   D(22,5,6,9)           -52.7532         estimate D2E/DX2                !
 ! D19   D(1,5,10,11)          -66.5607         estimate D2E/DX2                !
 ! D20   D(1,5,10,17)          123.4698         estimate D2E/DX2                !
 ! D21   D(6,5,10,11)         -178.6388         estimate D2E/DX2                !
 ! D22   D(6,5,10,17)           11.3916         estimate D2E/DX2                !
 ! D23   D(22,5,10,11)          60.1169         estimate D2E/DX2                !
 ! D24   D(22,5,10,17)        -109.8526         estimate D2E/DX2                !
 ! D25   D(1,5,22,23)          163.4279         estimate D2E/DX2                !
 ! D26   D(1,5,22,31)          -22.5985         estimate D2E/DX2                !
 ! D27   D(6,5,22,23)          -80.378          estimate D2E/DX2                !
 ! D28   D(6,5,22,31)           93.5956         estimate D2E/DX2                !
 ! D29   D(10,5,22,23)          45.0592         estimate D2E/DX2                !
 ! D30   D(10,5,22,31)        -140.9671         estimate D2E/DX2                !
 ! D31   D(5,10,11,12)         175.3237         estimate D2E/DX2                !
 ! D32   D(5,10,11,21)          -4.6125         estimate D2E/DX2                !
 ! D33   D(17,10,11,12)        -14.0035         estimate D2E/DX2                !
 ! D34   D(17,10,11,21)        166.0602         estimate D2E/DX2                !
 ! D35   D(5,10,17,16)        -175.6407         estimate D2E/DX2                !
 ! D36   D(5,10,17,18)          -4.8237         estimate D2E/DX2                !
 ! D37   D(11,10,17,16)         13.5801         estimate D2E/DX2                !
 ! D38   D(11,10,17,18)       -175.6029         estimate D2E/DX2                !
 ! D39   D(10,11,12,13)          6.1362         estimate D2E/DX2                !
 ! D40   D(10,11,12,20)       -174.7933         estimate D2E/DX2                !
 ! D41   D(21,11,12,13)       -173.9235         estimate D2E/DX2                !
 ! D42   D(21,11,12,20)          5.147          estimate D2E/DX2                !
 ! D43   D(11,12,13,14)        176.5431         estimate D2E/DX2                !
 ! D44   D(11,12,13,16)          2.6655         estimate D2E/DX2                !
 ! D45   D(20,12,13,14)         -2.5299         estimate D2E/DX2                !
 ! D46   D(20,12,13,16)       -176.4075         estimate D2E/DX2                !
 ! D47   D(12,13,14,15)          8.7016         estimate D2E/DX2                !
 ! D48   D(16,13,14,15)       -176.94           estimate D2E/DX2                !
 ! D49   D(12,13,16,17)         -2.5295         estimate D2E/DX2                !
 ! D50   D(12,13,16,19)        175.5015         estimate D2E/DX2                !
 ! D51   D(14,13,16,17)       -176.9898         estimate D2E/DX2                !
 ! D52   D(14,13,16,19)          1.0411         estimate D2E/DX2                !
 ! D53   D(13,16,17,10)         -6.2246         estimate D2E/DX2                !
 ! D54   D(13,16,17,18)       -176.5843         estimate D2E/DX2                !
 ! D55   D(19,16,17,10)        175.7406         estimate D2E/DX2                !
 ! D56   D(19,16,17,18)          5.3808         estimate D2E/DX2                !
 ! D57   D(5,22,23,24)         -10.2012         estimate D2E/DX2                !
 ! D58   D(5,22,23,25)        -174.0057         estimate D2E/DX2                !
 ! D59   D(31,22,23,24)        175.8123         estimate D2E/DX2                !
 ! D60   D(31,22,23,25)         12.0078         estimate D2E/DX2                !
 ! D61   D(5,22,31,29)         178.1781         estimate D2E/DX2                !
 ! D62   D(5,22,31,32)          -3.3184         estimate D2E/DX2                !
 ! D63   D(23,22,31,29)         -7.357          estimate D2E/DX2                !
 ! D64   D(23,22,31,32)        171.1464         estimate D2E/DX2                !
 ! D65   D(22,23,25,26)        169.7213         estimate D2E/DX2                !
 ! D66   D(22,23,25,27)        -13.3101         estimate D2E/DX2                !
 ! D67   D(24,23,25,26)          6.7578         estimate D2E/DX2                !
 ! D68   D(24,23,25,27)       -176.2736         estimate D2E/DX2                !
 ! D69   D(23,25,27,28)       -178.4103         estimate D2E/DX2                !
 ! D70   D(23,25,27,29)          9.5216         estimate D2E/DX2                !
 ! D71   D(26,25,27,28)         -1.4361         estimate D2E/DX2                !
 ! D72   D(26,25,27,29)       -173.5042         estimate D2E/DX2                !
 ! D73   D(25,27,29,30)        172.7562         estimate D2E/DX2                !
 ! D74   D(25,27,29,31)         -5.4628         estimate D2E/DX2                !
 ! D75   D(28,27,29,30)          0.4327         estimate D2E/DX2                !
 ! D76   D(28,27,29,31)       -177.7862         estimate D2E/DX2                !
 ! D77   D(27,29,31,22)          4.4233         estimate D2E/DX2                !
 ! D78   D(27,29,31,32)       -174.1275         estimate D2E/DX2                !
 ! D79   D(30,29,31,22)       -173.7809         estimate D2E/DX2                !
 ! D80   D(30,29,31,32)          7.6682         estimate D2E/DX2                !
 --------------------------------------------------------------------------------
 Trust Radius=3.00D-01 FncErr=1.00D-07 GrdErr=1.00D-06 EigMax=2.50D+02 EigMin=1.00D-04
 Number of steps in this run=    178 maximum allowed number of steps=    192.
 GradGradGradGradGradGradGradGradGradGradGradGradGradGradGradGradGradGrad

 Leave Link  103 at Mon Jul 12 12:15:37 2021, MaxMem=   104857600 cpu:               0.1 elap:               0.0
 (Enter /dades/curu/g16A03_MST/g16/l202.exe)
                          Input orientation:                          
 ---------------------------------------------------------------------
 Center     Atomic      Atomic             Coordinates (Angstroms)
 Number     Number       Type             X           Y           Z
 ---------------------------------------------------------------------
      1          6           0       -1.421000    0.815000    1.862000
      2          1           0       -1.034000    1.479000    2.638000
      3          1           0       -2.064000    0.106000    2.387000
      4          1           0       -2.110000    1.268000    1.147000
      5          6           0       -0.251000   -0.057000    1.126000
      6          6           0        0.421000   -0.825000    2.274000
      7          1           0        0.634000   -0.189000    3.135000
      8          1           0        1.326000   -1.321000    1.919000
      9          1           0       -0.226000   -1.620000    2.652000
     10          6           0        0.645000    1.039000    0.484000
     11          6           0        0.201000    1.883000   -0.576000
     12          6           0        0.931000    2.924000   -1.108000
     13          6           0        2.222000    3.080000   -0.666000
     14          8           0        3.071000    4.006000   -1.143000
     15          1           0        2.432000    4.501000   -1.685000
     16          6           0        2.806000    2.207000    0.234000
     17          6           0        2.028000    1.136000    0.765000
     18          1           0        2.425000    0.458000    1.515000
     19          1           0        3.852000    2.315000    0.509000
     20          1           0        0.509000    3.587000   -1.859000
     21          1           0       -0.774000    1.744000   -1.036000
     22          6           0       -0.702000   -1.117000    0.081000
     23          6           0        0.127000   -1.712000   -0.868000
     24          1           0        1.113000   -1.266000   -0.964000
     25          6           0       -0.361000   -2.562000   -1.853000
     26          1           0        0.279000   -2.876000   -2.674000
     27          6           0       -1.627000   -3.048000   -1.749000
     28          8           0       -2.159000   -3.927000   -2.685000
     29          6           0       -2.460000   -2.525000   -0.772000
     30          1           0       -3.503000   -2.830000   -0.771000
     31          6           0       -2.025000   -1.604000    0.178000
     32          1           0       -2.699000   -1.304000    0.976000
 ---------------------------------------------------------------------
                    Distance matrix (angstroms):
                    1          2          3          4          5
     1  C    0.000000
     2  H    1.092173   0.000000
     3  H    1.091675   1.734656   0.000000
     4  H    1.091400   1.850778   1.699988   0.000000
     5  C    1.634313   2.293148   2.214421   2.282969   0.000000
     6  C    2.500462   2.749170   2.656079   3.472282   1.536005
     7  H    2.617550   2.410696   2.815268   3.688432   2.199257
     8  H    3.480195   3.731831   3.707756   4.370927   2.171054
     9  H    2.825128   3.202633   2.535260   3.762316   2.184553
    10  C    2.493475   2.766289   3.439561   2.842892   1.554412
    11  C    3.116946   3.466733   4.131262   2.947486   2.620059
    12  C    4.335976   4.470097   5.396867   4.132196   3.908227
    13  C    4.979203   4.907255   6.044442   5.033541   4.378100
    14  O    6.276191   6.126395   7.351131   6.291542   5.717693
    15  H    6.404172   6.311416   7.490743   6.253181   5.989622
    16  C    4.738732   4.588551   5.724204   5.087470   3.907251
    17  C    3.633463   3.605776   4.520647   4.157691   2.597578
    18  H    3.878089   3.777334   4.586438   4.621444   2.752730
    19  H    5.646693   5.394862   6.588294   6.086764   4.779297
    20  H    5.025408   5.200723   6.063514   4.612262   4.771432
    21  H    3.111279   3.692709   4.008001   2.603260   2.862058
    22  C    2.724251   3.658919   2.944216   2.967667   1.555322
    23  C    4.029260   4.880823   4.324423   4.236130   2.618768
    24  H    4.328740   5.011890   4.817148   4.611421   2.773135
    25  C    5.131175   6.078790   5.291128   5.169903   3.893786
    26  H    6.090056   6.993378   6.324215   6.122099   4.761057
    27  C    5.291930   6.331757   5.219692   5.219958   4.370936
    28  O    6.611083   7.669732   6.480687   6.455591   5.756829
    29  C    4.378707   5.449183   4.130164   4.265198   3.817474
    30  H    4.955143   6.023680   4.545743   4.734213   4.675857
    31  C    3.008693   4.066764   2.793797   3.032255   2.537516
    32  H    2.628391   3.644113   2.093381   2.644115   2.751402
                    6          7          8          9         10
     6  C    0.000000
     7  H    1.091415   0.000000
     8  H    1.091360   1.799707   0.000000
     9  H    1.092482   1.738002   1.742238   0.000000
    10  C    2.593988   2.921627   2.844747   3.539653   0.000000
    11  C    3.937533   4.272259   4.213818   4.782606   1.425858
    12  C    5.074744   5.270866   5.228650   6.010340   2.483845
    13  C    5.209244   5.258869   5.182069   6.252346   2.824024
    14  O    6.483591   6.468252   6.387315   7.544807   4.163615
    15  H    6.934268   6.961415   6.935974   7.958717   4.459078
    16  C    4.363811   4.344445   4.180480   5.448456   2.469139
    17  C    2.950432   3.052173   2.803813   4.029494   1.414588
    18  H    2.497636   2.500138   2.129755   3.555088   2.137504
    19  H    4.974594   4.849888   4.646426   6.058610   3.451616
    20  H    6.046088   6.262095   6.247338   6.928362   3.464166
    21  H    4.357050   4.807930   4.747236   5.021767   2.195674
    22  C    2.481057   3.460202   2.744566   2.662635   2.573937
    23  C    3.278013   4.312840   3.059060   3.538852   3.108734
    24  H    3.340358   4.265111   2.891381   3.872169   2.762020
    25  C    4.545418   5.612602   4.314398   4.604412   4.409173
    26  H    5.358122   6.410185   4.960835   5.495347   5.043228
    27  C    5.031954   6.094215   5.015672   4.834334   5.181876
    28  O    6.393003   7.459617   6.335083   6.127178   6.524273
    29  C    4.524188   5.504033   4.798426   4.187309   4.890875
    30  H    5.356288   6.272678   5.729958   4.890783   5.809483
    31  C    3.314057   4.220942   3.786868   3.058976   3.769348
    32  H    3.413011   4.124730   4.134025   3.004091   4.112669
                   11         12         13         14         15
    11  C    0.000000
    12  C    1.378262   0.000000
    13  C    2.350606   1.373456   0.000000
    14  O    3.614626   2.398239   1.343803   0.000000
    15  H    3.614024   2.252301   1.761165   0.973196   0.000000
    16  C    2.747199   2.414680   1.383179   2.280955   3.014112
    17  C    2.386256   2.812202   2.421680   3.600724   4.181978
    18  H    3.368840   3.897861   3.416556   4.480021   5.156151
    19  H    3.833230   3.393790   2.150058   2.489688   3.407144
    20  H    2.155126   1.087039   2.148178   2.692965   2.136259
    21  H    1.086989   2.074755   3.301183   4.462300   4.277930
    22  C    3.201103   4.517753   5.169390   6.479108   6.671030
    23  C    3.607598   4.711317   5.233841   6.437258   6.676967
    24  H    3.301286   4.196422   4.495153   5.626703   5.959689
    25  C    4.658819   5.685111   6.317675   7.444552   7.597042
    26  H    5.201516   6.042968   6.578849   7.582951   7.748139
    27  C    5.388161   6.528325   7.317108   8.496903   8.571288
    28  O    6.616161   7.679273   8.506913   9.626170   9.649273
    29  C    5.152650   6.426770   7.303998   8.566421   8.609873
    30  H    5.997500   7.272031   8.228897   9.491404   9.476454
    31  C    4.205088   5.558284   6.378809   7.693267   7.785027
    32  H    4.579921   5.949449   6.792044   8.122756   8.191832
                   16         17         18         19         20
    16  C    0.000000
    17  C    1.426284   0.000000
    18  H    2.201164   1.086183   0.000000
    19  H    1.086925   2.186905   2.548885   0.000000
    20  H    3.400185   3.898735   4.984533   4.289645   0.000000
    21  H    3.826705   3.385922   4.288939   4.910493   2.391666
    22  C    4.835127   3.605103   3.783531   5.718455   5.230462
    23  C    4.873398   3.793625   3.958332   5.655836   5.404388
    24  H    4.045143   3.097785   3.292258   4.742933   4.971665
    25  C    6.093342   5.122153   5.312779   6.863931   6.210245
    26  H    6.378016   5.566136   5.767893   7.060050   6.518243
    27  C    7.155334   6.097957   6.274108   7.992482   6.971214
    28  O    8.414139   7.420744   7.607975   9.235601   8.016277
    29  C    7.150847   5.992281   6.163756   8.056544   6.881357
    30  H    8.135409   6.977135   7.153875   9.066722   7.645769
    31  C    6.153488   4.927370   5.083494   7.071581   6.125113
    32  H    6.571355   5.323782   5.445231   7.498723   6.500028
                   21         22         23         24         25
    21  H    0.000000
    22  C    3.072164   0.000000
    23  C    3.575467   1.393509   0.000000
    24  H    3.553316   2.099631   1.086429   0.000000
    25  C    4.402237   2.438168   1.389557   2.154672   0.000000
    26  H    5.013607   3.412692   2.153981   2.492339   1.087307
    27  C    4.919273   2.816609   2.374357   3.361450   1.360062
    28  O    6.066108   4.203535   3.665175   4.555079   2.405879
    29  C    4.597462   2.408451   2.713440   3.793188   2.361299
    30  H    5.332836   3.392031   3.799504   4.877581   3.333873
    31  C    3.774639   1.413120   2.395179   3.356405   2.794928
    32  H    4.128447   2.196361   3.398982   4.277428   3.879697
                   26         27         28         29         30
    26  H    0.000000
    27  C    2.125569   0.000000
    28  O    2.654914   1.389878   0.000000
    29  C    3.353047   1.386343   2.390768   0.000000
    30  H    4.234035   2.126825   2.583242   1.086681   0.000000
    31  C    3.880761   2.440670   3.689316   1.392827   2.141999
    32  H    4.966102   3.408276   4.535929   2.145569   2.455015
                   31         32
    31  C    0.000000
    32  H    1.086775   0.000000
 Stoichiometry    C15H15O2(1-)
 Framework group  C1[X(C15H15O2)]
 Deg. of freedom    90
 Full point group                 C1      NOp   1
 Largest Abelian subgroup         C1      NOp   1
 Largest concise Abelian subgroup C1      NOp   1
                         Standard orientation:                         
 ---------------------------------------------------------------------
 Center     Atomic      Atomic             Coordinates (Angstroms)
 Number     Number       Type             X           Y           Z
 ---------------------------------------------------------------------
      1          6           0       -0.072892    2.382054    1.245578
      2          1           0       -0.932636    3.050901    1.166040
      3          1           0        0.800110    3.037509    1.246301
      4          1           0        0.033266    1.852822    2.194155
      5          6           0        0.081021    1.384429   -0.039737
      6          6           0        0.186810    2.335876   -1.240932
      7          1           0       -0.563561    3.127997   -1.214988
      8          1           0        0.132216    1.773992   -2.174941
      9          1           0        1.151323    2.848673   -1.257403
     10          6           0       -1.235431    0.559036    0.003593
     11          6           0       -1.542290   -0.359825    1.049826
     12          6           0       -2.734941   -1.039751    1.171855
     13          6           0       -3.641584   -0.912242    0.148078
     14          8           0       -4.813685   -1.567640    0.098681
     15          1           0       -4.792073   -1.940122    0.997513
     16          6           0       -3.368783   -0.182038   -0.994536
     17          6           0       -2.124585    0.507945   -1.095431
     18          1           0       -1.887624    1.137935   -1.947930
     19          1           0       -4.077648   -0.159670   -1.818196
     20          1           0       -2.945504   -1.664964    2.035815
     21          1           0       -0.824040   -0.578951    1.835731
     22          6           0        1.335342    0.465852   -0.083553
     23          6           0        1.480495   -0.656342   -0.896867
     24          1           0        0.575975   -0.977639   -1.405728
     25          6           0        2.575853   -1.506148   -0.802588
     26          1           0        2.580216   -2.457162   -1.329647
     27          6           0        3.668744   -1.111607   -0.095697
     28          8           0        4.806183   -1.903689    0.007255
     29          6           0        3.581200    0.038139    0.673958
     30          1           0        4.414322    0.281677    1.327771
     31          6           0        2.461837    0.866977    0.669451
     32          1           0        2.490908    1.803508    1.220036
 ---------------------------------------------------------------------
 Rotational constants (GHZ):           0.8926787           0.2537473           0.2259024
 Leave Link  202 at Mon Jul 12 12:15:37 2021, MaxMem=   104857600 cpu:               0.0 elap:               0.0
 (Enter /dades/curu/g16A03_MST/g16/l301.exe)
 Standard basis: 6-31G(d) (6D, 7F)
 Ernie: Thresh=  0.10000D-02 Tol=  0.10000D-05 Strict=F.
 There are   285 symmetry adapted cartesian basis functions of A   symmetry.
 There are   285 symmetry adapted basis functions of A   symmetry.
   285 basis functions,   536 primitive gaussians,   285 cartesian basis functions
    61 alpha electrons       61 beta electrons
       nuclear repulsion energy      1124.2294871404 Hartrees.
 IExCor=  402 DFT=T Ex+Corr=B3LYP ExCW=0 ScaHFX=  0.200000
 ScaDFX=  0.800000  0.720000  1.000000  0.810000 ScalE2=  1.000000  1.000000
 IRadAn=      5 IRanWt=     -1 IRanGd=            0 ICorTp=0 IEmpDi=  4
 NAtoms=   32 NActive=   32 NUniq=   32 SFac= 1.00D+00 NAtFMM=   60 NAOKFM=F Big=F
 Integral buffers will be    131072 words long.
 Raffenetti 2 integral format.
 Two-electron integral symmetry is turned on.
 Using the following non-standard input for PCM:
 MSTModel=DFT cav MSTCharged
 --- end of non-standard input.
 MST model for solvation energy: B3LYP parametrization.
 MST cavity parameters:
 ISph   IAn     Re0     Alpha   Atom Type   QCorr
 ------------------------------------------------
   1      6     1.50     1.50      CH3        F
   2      1     1.20     1.50      CH3        F
   3      1     1.20     1.50      CH3        F
   4      1     1.20     1.50      CH3        F
   5      6     1.50     1.50      C          F
   6      6     1.50     1.50      CH3        F
   7      1     1.20     1.50      CH3        F
   8      1     1.20     1.50      CH3        F
   9      1     1.20     1.50      CH3        F
  10      6     1.50     1.50      C          F
  11      6     1.50     1.50      CH         F
  12      6     1.50     1.50      CH         F
  13      6     1.50     1.50      C          F
  14      8     1.40     1.50      OH         F
  15      1     0.90     1.50      OH         F
  16      6     1.50     1.50      CH         F
  17      6     1.50     1.50      CH         F
  18      1     1.20     1.50      CH         F
  19      1     1.20     1.50      CH         F
  20      1     1.20     1.50      CH         F
  21      1     1.20     1.50      CH         F
  22      6     1.50     1.50      C          F
  23      6     1.50     1.50      CH         F
  24      1     1.20     1.50      CH         F
  25      6     1.50     1.50      CH         F
  26      1     1.20     1.50      CH         F
  27      6     1.50     1.50      C          F
  28      8     1.40     1.15      O          T
  29      6     1.50     1.50      CH         F
  30      1     1.20     1.50      CH         F
  31      6     1.50     1.50      CH         F
  32      1     1.20     1.50      CH         F
 ------------------------------------------------------------------------------
 Polarizable Continuum Model (PCM)
 =================================
 Model                : PCM.
 Atomic radii         : MST.
 Polarization charges : Total charges.
 Charge compensation  : None.
 Solution method      : On-the-fly selection.
 Cavity type          : Scaled VdW (van der Waals Surface) (Alpha=1.500).
 Cavity algorithm     : GePol (No added spheres)
                        Default sphere list used, NSphG=   32.
                        Lebedev-Laikov grids with approx.  5.0 points / Ang**2.
                        Smoothing algorithm: York/Karplus (Gamma=1.0000).
                        Polarization charges: spherical gaussians, with
                                              point-specific exponents (IZeta= 3).
                        Self-potential: point-specific (ISelfS= 7).
                        Self-field    : sphere-specific E.n sum rule (ISelfD= 2).
 1st derivatives      : Analytical E(r).r(x)/FMM algorithm (CHGder, D1EAlg=3).
                        Cavity 1st derivative terms included.
 Solvent              : n-Octanol, Eps=   9.862900 Eps(inf)=   2.043470
 ------------------------------------------------------------------------------
 GePol: Number of generator spheres                  =      32
 GePol: Total number of spheres                      =      32
 GePol: Number of exposed spheres                    =      31 ( 96.88%)
 GePol: Number of points                             =    2941
 GePol: Average weight of points                     =       0.11
 GePol: Minimum weight of points                     =   0.24D-10
 GePol: Maximum weight of points                     =    0.20790
 GePol: Number of points with low weight             =     174
 GePol: Fraction of low-weight points (<1% of avg)   =       5.92%
 GePol: Cavity surface area                          =    322.917 Ang**2
 GePol: Cavity volume                                =    378.422 Ang**3
 Surface areas from nonelectrostatic (unscaled) cavity and vdw tensions:
 Sphere =    1 Type =  CH3 Surf =        4.872 Tension =       -0.183
 Sphere =    2 Type =  CH3 Surf =       10.127 Tension =       -0.183
 Sphere =    3 Type =  CH3 Surf =        8.905 Tension =       -0.183
 Sphere =    4 Type =  CH3 Surf =       10.156 Tension =       -0.183
 Sphere =    5 Type =  C   Surf =        2.348 Tension =       -0.205
 Sphere =    6 Type =  CH3 Surf =        4.176 Tension =       -0.183
 Sphere =    7 Type =  CH3 Surf =        9.966 Tension =       -0.183
 Sphere =    8 Type =  CH3 Surf =        9.291 Tension =       -0.183
 Sphere =    9 Type =  CH3 Surf =       10.064 Tension =       -0.183
 Sphere =   10 Type =  C   Surf =        6.108 Tension =       -0.205
 Sphere =   11 Type =  CH  Surf =        7.656 Tension =       -0.195
 Sphere =   12 Type =  CH  Surf =        7.642 Tension =       -0.195
 Sphere =   13 Type =  C   Surf =        6.435 Tension =       -0.205
 Sphere =   14 Type =  OH  Surf =       14.332 Tension =       -0.238
 Sphere =   15 Type =  OH  Surf =        4.185 Tension =       -0.238
 Sphere =   16 Type =  CH  Surf =        7.749 Tension =       -0.195
 Sphere =   17 Type =  CH  Surf =        7.813 Tension =       -0.195
 Sphere =   18 Type =  CH  Surf =        8.806 Tension =       -0.195
 Sphere =   19 Type =  CH  Surf =       10.208 Tension =       -0.195
 Sphere =   20 Type =  CH  Surf =       10.231 Tension =       -0.195
 Sphere =   21 Type =  CH  Surf =       10.178 Tension =       -0.195
 Sphere =   22 Type =  C   Surf =        6.081 Tension =       -0.205
 Sphere =   23 Type =  CH  Surf =        7.684 Tension =       -0.195
 Sphere =   24 Type =  CH  Surf =       10.165 Tension =       -0.195
 Sphere =   25 Type =  CH  Surf =        7.637 Tension =       -0.195
 Sphere =   26 Type =  CH  Surf =       10.232 Tension =       -0.195
 Sphere =   27 Type =  C   Surf =        6.726 Tension =       -0.205
 Sphere =   28 Type =  O   Surf =       17.279 Tension =       -0.185
 Sphere =   29 Type =  CH  Surf =        7.598 Tension =       -0.195
 Sphere =   30 Type =  CH  Surf =       10.195 Tension =       -0.195
 Sphere =   31 Type =  CH  Surf =        7.740 Tension =       -0.195
 Sphere =   32 Type =  CH  Surf =        8.998 Tension =       -0.195
 PCM non-electrostatic energy =        -0.0137406527 Hartrees.
 Nuclear repulsion after PCM non-electrostatic terms =     1124.2157464877 Hartrees.
 Leave Link  301 at Mon Jul 12 12:15:37 2021, MaxMem=   104857600 cpu:               0.1 elap:               0.1
 (Enter /dades/curu/g16A03_MST/g16/l302.exe)
 NPDir=0 NMtPBC=     1 NCelOv=     1 NCel=       1 NClECP=     1 NCelD=      1
         NCelK=      1 NCelE2=     1 NClLst=     1 CellRange=     0.0.
 One-electron integrals computed using PRISM.
 One-electron integral symmetry used in STVInt
 NBasis=   285 RedAO= T EigKep=  5.25D-04  NBF=   285
 NBsUse=   285 1.00D-06 EigRej= -1.00D+00 NBFU=   285
 Precomputing XC quadrature grid using
 IXCGrd= 4 IRadAn=           5 IRanWt=          -1 IRanGd=           0 AccXCQ= 0.00D+00.
 Generated NRdTot=       0 NPtTot=           0 NUsed=           0 NTot=          32
 NSgBfM=   283   283   283   283   283 MxSgAt=    32 MxSgA2=    32.
 Leave Link  302 at Mon Jul 12 12:15:38 2021, MaxMem=   104857600 cpu:               3.7 elap:               1.0
 (Enter /dades/curu/g16A03_MST/g16/l303.exe)
 DipDrv:  MaxL=1.
 Leave Link  303 at Mon Jul 12 12:15:38 2021, MaxMem=   104857600 cpu:               0.1 elap:               0.0
 (Enter /dades/curu/g16A03_MST/g16/l401.exe)
 ExpMin= 1.61D-01 ExpMax= 5.48D+03 ExpMxC= 8.25D+02 IAcc=3 IRadAn=         5 AccDes= 0.00D+00
 Harris functional with IExCor=  402 and IRadAn=       5 diagonalized for initial guess.
 HarFok:  IExCor=  402 AccDes= 0.00D+00 IRadAn=         5 IDoV= 1 UseB2=F ITyADJ=14
 ICtDFT=  3500011 ScaDFX=  1.000000  1.000000  1.000000  1.000000
 FoFCou: FMM=F IPFlag=           0 FMFlag=      100000 FMFlg1=           0
         NFxFlg=           0 DoJE=T BraDBF=F KetDBF=T FulRan=T
         wScrn=  0.000000 ICntrl=       500 IOpCl=  0 I1Cent=   200000004 NGrid=           0
         NMat0=    1 NMatS0=      1 NMatT0=    0 NMatD0=    1 NMtDS0=    0 NMtDT0=    0
 Petite list used in FoFCou.
 Harris En= -731.317746347608    
 JPrj=0 DoOrth=F DoCkMO=F.
 Leave Link  401 at Mon Jul 12 12:15:45 2021, MaxMem=   104857600 cpu:              27.7 elap:               7.0
 (Enter /dades/curu/g16A03_MST/g16/l502.exe)
 Integral symmetry usage will be decided dynamically.
 Closed shell SCF:
 Using DIIS extrapolation, IDIIS=  1040.
 NGot=   104857600 LenX=   104690183 LenY=   104608517
 Requested convergence on RMS density matrix=1.00D-08 within 128 cycles.
 Requested convergence on MAX density matrix=1.00D-06.
 Requested convergence on             energy=1.00D-06.
 No special actions if energy rises.
 Fock matrices will be formed incrementally for  20 cycles.

 Cycle   1  Pass 1  IDiag  1:
 FoFJK:  IHMeth= 1 ICntrl=       0 DoSepK=F KAlg= 0 I1Cent=           0 FoldK=F
 IRaf= 840000000 NMat=       1 IRICut=       1 DoRegI=T DoRafI=F ISym2E= 0 IDoP0=0 IntGTp=1.
 FoFCou: FMM=F IPFlag=           0 FMFlag=      100000 FMFlg1=           0
         NFxFlg=           0 DoJE=F BraDBF=F KetDBF=F FulRan=T
         wScrn=  0.000000 ICntrl=         0 IOpCl=  0 I1Cent=           0 NGrid=           0
         NMat0=    1 NMatS0=      1 NMatT0=    0 NMatD0=    1 NMtDS0=    0 NMtDT0=    0
 Symmetry not used in FoFCou.
 Inv3:  Mode=1 IEnd=    25948443.
 Iteration    1 A*A^-1 deviation from unit magnitude is 4.44D-15 for   2916.
 Iteration    1 A*A^-1 deviation from orthogonality  is 5.31D-15 for   2901   1360.
 Iteration    1 A^-1*A deviation from unit magnitude is 4.44D-15 for   2916.
 Iteration    1 A^-1*A deviation from orthogonality  is 1.60D-14 for   2053   2027.
 E= -730.643714283371    
 DIIS: error= 2.97D-02 at cycle   1 NSaved=   1.
 NSaved= 1 IEnMin= 1 EnMin= -730.643714283371     IErMin= 1 ErrMin= 2.97D-02
 ErrMax= 2.97D-02  0.00D+00 EMaxC= 1.00D-01 BMatC= 4.95D-01 BMatP= 4.95D-01
 IDIUse=3 WtCom= 7.03D-01 WtEn= 2.97D-01
 Coeff-Com:  0.100D+01
 Coeff-En:   0.100D+01
 Coeff:      0.100D+01
 Gap=     0.133 Goal=   None    Shift=    0.000
 GapD=    0.133 DampG=1.000 DampE=0.500 DampFc=0.5000 IDamp=-1.
 Damping current iteration by 5.00D-01
 RMSDP=6.37D-03 MaxDP=2.05D-01              OVMax= 2.78D-01

 Cycle   2  Pass 1  IDiag  1:
 RMSU=  3.16D-03    CP:  9.80D-01
 E= -730.874177857300     Delta-E=       -0.230463573929 Rises=F Damp=T
 DIIS: error= 1.25D-02 at cycle   2 NSaved=   2.
 NSaved= 2 IEnMin= 2 EnMin= -730.874177857300     IErMin= 2 ErrMin= 1.25D-02
 ErrMax= 1.25D-02  0.00D+00 EMaxC= 1.00D-01 BMatC= 2.76D-02 BMatP= 4.95D-01
 IDIUse=3 WtCom= 8.75D-01 WtEn= 1.25D-01
 Coeff-Com:  0.561D-01 0.944D+00
 Coeff-En:   0.567D-01 0.943D+00
 Coeff:      0.562D-01 0.944D+00
 Gap=     0.192 Goal=   None    Shift=    0.000
 RMSDP=1.58D-03 MaxDP=6.30D-02 DE=-2.30D-01 OVMax= 1.84D-01

 Cycle   3  Pass 1  IDiag  1:
 RMSU=  1.43D-03    CP:  9.70D-01  7.96D-01
 E= -731.119241825279     Delta-E=       -0.245063967980 Rises=F Damp=F
 DIIS: error= 1.15D-02 at cycle   3 NSaved=   3.
 NSaved= 3 IEnMin= 3 EnMin= -731.119241825279     IErMin= 3 ErrMin= 1.15D-02
 ErrMax= 1.15D-02  0.00D+00 EMaxC= 1.00D-01 BMatC= 2.98D-02 BMatP= 2.76D-02
 IDIUse=3 WtCom= 8.85D-01 WtEn= 1.15D-01
 Coeff-Com: -0.116D-01 0.514D+00 0.497D+00
 Coeff-En:   0.000D+00 0.000D+00 0.100D+01
 Coeff:     -0.103D-01 0.455D+00 0.555D+00
 Gap=     0.138 Goal=   None    Shift=    0.000
 RMSDP=1.07D-03 MaxDP=5.10D-02 DE=-2.45D-01 OVMax= 1.03D-01

 Cycle   4  Pass 1  IDiag  1:
 RMSU=  7.65D-04    CP:  9.74D-01  8.89D-01  5.24D-01
 E= -731.136285319095     Delta-E=       -0.017043493816 Rises=F Damp=F
 DIIS: error= 6.27D-03 at cycle   4 NSaved=   4.
 NSaved= 4 IEnMin= 4 EnMin= -731.136285319095     IErMin= 4 ErrMin= 6.27D-03
 ErrMax= 6.27D-03  0.00D+00 EMaxC= 1.00D-01 BMatC= 9.13D-03 BMatP= 2.76D-02
 IDIUse=3 WtCom= 9.37D-01 WtEn= 6.27D-02
 Coeff-Com: -0.856D-02 0.769D-01 0.362D+00 0.570D+00
 Coeff-En:   0.000D+00 0.000D+00 0.278D+00 0.722D+00
 Coeff:     -0.802D-02 0.720D-01 0.357D+00 0.579D+00
 Gap=     0.138 Goal=   None    Shift=    0.000
 RMSDP=4.57D-04 MaxDP=1.97D-02 DE=-1.70D-02 OVMax= 4.17D-02

 Cycle   5  Pass 1  IDiag  1:
 RMSU=  1.36D-04    CP:  9.72D-01  8.53D-01  7.01D-01  5.63D-01
 E= -731.143805529217     Delta-E=       -0.007520210122 Rises=F Damp=F
 DIIS: error= 5.21D-04 at cycle   5 NSaved=   5.
 NSaved= 5 IEnMin= 5 EnMin= -731.143805529217     IErMin= 5 ErrMin= 5.21D-04
 ErrMax= 5.21D-04  0.00D+00 EMaxC= 1.00D-01 BMatC= 2.06D-04 BMatP= 9.13D-03
 IDIUse=3 WtCom= 9.95D-01 WtEn= 5.21D-03
 Coeff-Com: -0.311D-02 0.128D-01 0.137D+00 0.272D+00 0.581D+00
 Coeff-En:   0.000D+00 0.000D+00 0.000D+00 0.000D+00 0.100D+01
 Coeff:     -0.309D-02 0.127D-01 0.136D+00 0.271D+00 0.583D+00
 Gap=     0.137 Goal=   None    Shift=    0.000
 RMSDP=6.73D-05 MaxDP=2.40D-03 DE=-7.52D-03 OVMax= 5.14D-03

 Cycle   6  Pass 1  IDiag  1:
 RMSU=  4.36D-05    CP:  9.72D-01  8.58D-01  6.94D-01  6.00D-01  7.15D-01
 E= -731.143966162606     Delta-E=       -0.000160633389 Rises=F Damp=F
 DIIS: error= 2.67D-04 at cycle   6 NSaved=   6.
 NSaved= 6 IEnMin= 6 EnMin= -731.143966162606     IErMin= 6 ErrMin= 2.67D-04
 ErrMax= 2.67D-04  0.00D+00 EMaxC= 1.00D-01 BMatC= 3.05D-05 BMatP= 2.06D-04
 IDIUse=3 WtCom= 9.97D-01 WtEn= 2.67D-03
 Coeff-Com: -0.996D-03 0.226D-03 0.404D-01 0.973D-01 0.333D+00 0.530D+00
 Coeff-En:   0.000D+00 0.000D+00 0.000D+00 0.000D+00 0.904D-01 0.910D+00
 Coeff:     -0.993D-03 0.225D-03 0.403D-01 0.970D-01 0.332D+00 0.531D+00
 Gap=     0.137 Goal=   None    Shift=    0.000
 RMSDP=2.49D-05 MaxDP=7.54D-04 DE=-1.61D-04 OVMax= 2.02D-03

 Cycle   7  Pass 1  IDiag  1:
 RMSU=  1.49D-05    CP:  9.72D-01  8.58D-01  6.95D-01  6.02D-01  7.45D-01
                    CP:  5.56D-01
 E= -731.143993108433     Delta-E=       -0.000026945827 Rises=F Damp=F
 DIIS: error= 7.32D-05 at cycle   7 NSaved=   7.
 NSaved= 7 IEnMin= 7 EnMin= -731.143993108433     IErMin= 7 ErrMin= 7.32D-05
 ErrMax= 7.32D-05  0.00D+00 EMaxC= 1.00D-01 BMatC= 2.95D-06 BMatP= 3.05D-05
 IDIUse=1 WtCom= 1.00D+00 WtEn= 0.00D+00
 Coeff-Com: -0.396D-03-0.474D-03 0.137D-01 0.377D-01 0.155D+00 0.314D+00
 Coeff-Com:  0.480D+00
 Coeff:     -0.396D-03-0.474D-03 0.137D-01 0.377D-01 0.155D+00 0.314D+00
 Coeff:      0.480D+00
 Gap=     0.137 Goal=   None    Shift=    0.000
 RMSDP=9.39D-06 MaxDP=2.45D-04 DE=-2.69D-05 OVMax= 6.15D-04

 Cycle   8  Pass 1  IDiag  1:
 RMSU=  4.28D-06    CP:  9.72D-01  8.57D-01  6.95D-01  6.06D-01  7.39D-01
                    CP:  6.08D-01  5.03D-01
 E= -731.143996154313     Delta-E=       -0.000003045880 Rises=F Damp=F
 DIIS: error= 1.69D-05 at cycle   8 NSaved=   8.
 NSaved= 8 IEnMin= 8 EnMin= -731.143996154313     IErMin= 8 ErrMin= 1.69D-05
 ErrMax= 1.69D-05  0.00D+00 EMaxC= 1.00D-01 BMatC= 2.10D-07 BMatP= 2.95D-06
 IDIUse=1 WtCom= 1.00D+00 WtEn= 0.00D+00
 Coeff-Com: -0.442D-04-0.322D-03 0.709D-03 0.439D-02 0.283D-01 0.764D-01
 Coeff-Com:  0.243D+00 0.647D+00
 Coeff:     -0.442D-04-0.322D-03 0.709D-03 0.439D-02 0.283D-01 0.764D-01
 Coeff:      0.243D+00 0.647D+00
 Gap=     0.137 Goal=   None    Shift=    0.000
 RMSDP=2.28D-06 MaxDP=5.82D-05 DE=-3.05D-06 OVMax= 1.65D-04

 Cycle   9  Pass 1  IDiag  1:
 RMSU=  1.35D-06    CP:  9.72D-01  8.57D-01  6.95D-01  6.06D-01  7.44D-01
                    CP:  6.06D-01  5.88D-01  7.76D-01
 E= -731.143996346397     Delta-E=       -0.000000192084 Rises=F Damp=F
 DIIS: error= 7.14D-06 at cycle   9 NSaved=   9.
 NSaved= 9 IEnMin= 9 EnMin= -731.143996346397     IErMin= 9 ErrMin= 7.14D-06
 ErrMax= 7.14D-06  0.00D+00 EMaxC= 1.00D-01 BMatC= 3.08D-08 BMatP= 2.10D-07
 IDIUse=1 WtCom= 1.00D+00 WtEn= 0.00D+00
 Coeff-Com:  0.223D-05-0.128D-03-0.679D-03-0.487D-03 0.402D-02 0.185D-01
 Coeff-Com:  0.102D+00 0.367D+00 0.510D+00
 Coeff:      0.223D-05-0.128D-03-0.679D-03-0.487D-03 0.402D-02 0.185D-01
 Coeff:      0.102D+00 0.367D+00 0.510D+00
 Gap=     0.137 Goal=   None    Shift=    0.000
 RMSDP=6.92D-07 MaxDP=2.84D-05 DE=-1.92D-07 OVMax= 4.44D-05

 Cycle  10  Pass 1  IDiag  1:
 RMSU=  4.14D-07    CP:  9.72D-01  8.57D-01  6.95D-01  6.06D-01  7.44D-01
                    CP:  6.09D-01  5.82D-01  8.09D-01  6.21D-01
 E= -731.143996372321     Delta-E=       -0.000000025924 Rises=F Damp=F
 DIIS: error= 2.22D-06 at cycle  10 NSaved=  10.
 NSaved=10 IEnMin=10 EnMin= -731.143996372321     IErMin=10 ErrMin= 2.22D-06
 ErrMax= 2.22D-06  0.00D+00 EMaxC= 1.00D-01 BMatC= 1.71D-09 BMatP= 3.08D-08
 IDIUse=1 WtCom= 1.00D+00 WtEn= 0.00D+00
 Coeff-Com:  0.442D-05-0.172D-04-0.395D-03-0.729D-03-0.136D-02-0.403D-03
 Coeff-Com:  0.194D-01 0.935D-01 0.237D+00 0.653D+00
 Coeff:      0.442D-05-0.172D-04-0.395D-03-0.729D-03-0.136D-02-0.403D-03
 Coeff:      0.194D-01 0.935D-01 0.237D+00 0.653D+00
 Gap=     0.137 Goal=   None    Shift=    0.000
 RMSDP=2.21D-07 MaxDP=5.77D-06 DE=-2.59D-08 OVMax= 1.73D-05

 Cycle  11  Pass 1  IDiag  1:
 RMSU=  1.22D-07    CP:  9.72D-01  8.57D-01  6.95D-01  6.06D-01  7.44D-01
                    CP:  6.08D-01  5.88D-01  8.17D-01  6.79D-01  6.93D-01
 E= -731.143996373870     Delta-E=       -0.000000001550 Rises=F Damp=F
 DIIS: error= 7.65D-07 at cycle  11 NSaved=  11.
 NSaved=11 IEnMin=11 EnMin= -731.143996373870     IErMin=11 ErrMin= 7.65D-07
 ErrMax= 7.65D-07  0.00D+00 EMaxC= 1.00D-01 BMatC= 2.22D-10 BMatP= 1.71D-09
 IDIUse=1 WtCom= 1.00D+00 WtEn= 0.00D+00
 Coeff-Com:  0.185D-05-0.741D-08-0.176D-03-0.361D-03-0.975D-03-0.130D-02
 Coeff-Com:  0.437D-02 0.288D-01 0.979D-01 0.358D+00 0.513D+00
 Coeff:      0.185D-05-0.741D-08-0.176D-03-0.361D-03-0.975D-03-0.130D-02
 Coeff:      0.437D-02 0.288D-01 0.979D-01 0.358D+00 0.513D+00
 Gap=     0.137 Goal=   None    Shift=    0.000
 RMSDP=6.66D-08 MaxDP=1.87D-06 DE=-1.55D-09 OVMax= 4.65D-06

 Cycle  12  Pass 1  IDiag  1:
 RMSU=  4.11D-08    CP:  9.72D-01  8.57D-01  6.95D-01  6.06D-01  7.44D-01
                    CP:  6.08D-01  5.88D-01  8.16D-01  6.74D-01  7.47D-01
                    CP:  6.27D-01
 E= -731.143996374052     Delta-E=       -0.000000000182 Rises=F Damp=F
 DIIS: error= 1.97D-07 at cycle  12 NSaved=  12.
 NSaved=12 IEnMin=12 EnMin= -731.143996374052     IErMin=12 ErrMin= 1.97D-07
 ErrMax= 1.97D-07  0.00D+00 EMaxC= 1.00D-01 BMatC= 1.93D-11 BMatP= 2.22D-10
 IDIUse=1 WtCom= 1.00D+00 WtEn= 0.00D+00
 Coeff-Com: -0.140D-06 0.293D-05-0.263D-04-0.599D-04-0.286D-03-0.605D-03
 Coeff-Com: -0.129D-02-0.149D-02 0.828D-02 0.687D-01 0.245D+00 0.682D+00
 Coeff:     -0.140D-06 0.293D-05-0.263D-04-0.599D-04-0.286D-03-0.605D-03
 Coeff:     -0.129D-02-0.149D-02 0.828D-02 0.687D-01 0.245D+00 0.682D+00
 Gap=     0.137 Goal=   None    Shift=    0.000
 RMSDP=2.11D-08 MaxDP=5.18D-07 DE=-1.82D-10 OVMax= 1.57D-06

 Cycle  13  Pass 1  IDiag  1:
 RMSU=  1.29D-08    CP:  9.72D-01  8.57D-01  6.95D-01  6.06D-01  7.44D-01
                    CP:  6.08D-01  5.88D-01  8.18D-01  6.79D-01  7.49D-01
                    CP:  6.94D-01  7.44D-01
 E= -731.143996374115     Delta-E=       -0.000000000062 Rises=F Damp=F
 DIIS: error= 6.58D-08 at cycle  13 NSaved=  13.
 NSaved=13 IEnMin=13 EnMin= -731.143996374115     IErMin=13 ErrMin= 6.58D-08
 ErrMax= 6.58D-08  0.00D+00 EMaxC= 1.00D-01 BMatC= 2.46D-12 BMatP= 1.93D-11
 IDIUse=1 WtCom= 1.00D+00 WtEn= 0.00D+00
 Coeff-Com: -0.260D-06 0.161D-05-0.156D-05-0.358D-05-0.794D-04-0.216D-03
 Coeff-Com: -0.101D-02-0.283D-02-0.278D-02 0.999D-02 0.904D-01 0.366D+00
 Coeff-Com:  0.540D+00
 Coeff:     -0.260D-06 0.161D-05-0.156D-05-0.358D-05-0.794D-04-0.216D-03
 Coeff:     -0.101D-02-0.283D-02-0.278D-02 0.999D-02 0.904D-01 0.366D+00
 Coeff:      0.540D+00
 Gap=     0.137 Goal=   None    Shift=    0.000
 RMSDP=6.89D-09 MaxDP=1.87D-07 DE=-6.23D-11 OVMax= 5.30D-07

 Error on total polarization charges =  0.00410
 SCF Done:  E(RB3LYP) =  -731.143996374     A.U. after   13 cycles
            NFock= 13  Conv=0.69D-08     -V/T= 2.0093
 KE= 7.244386621263D+02 PE=-3.964917545746D+03 EE= 1.385119140758D+03
 Leave Link  502 at Mon Jul 12 12:19:14 2021, MaxMem=   104857600 cpu:             807.5 elap:             208.9
 (Enter /dades/curu/g16A03_MST/g16/l601.exe)
 Copying SCF densities to generalized density rwf, IOpCl= 0 IROHF=0.

 **********************************************************************

            Population analysis using the SCF density.

 **********************************************************************

 Orbital symmetries:
       Occupied  (A) (A) (A) (A) (A) (A) (A) (A) (A) (A) (A) (A)
                 (A) (A) (A) (A) (A) (A) (A) (A) (A) (A) (A) (A)
                 (A) (A) (A) (A) (A) (A) (A) (A) (A) (A) (A) (A)
                 (A) (A) (A) (A) (A) (A) (A) (A) (A) (A) (A) (A)
                 (A) (A) (A) (A) (A) (A) (A) (A) (A) (A) (A) (A)
                 (A)
       Virtual   (A) (A) (A) (A) (A) (A) (A) (A) (A) (A) (A) (A)
                 (A) (A) (A) (A) (A) (A) (A) (A) (A) (A) (A) (A)
                 (A) (A) (A) (A) (A) (A) (A) (A) (A) (A) (A) (A)
                 (A) (A) (A) (A) (A) (A) (A) (A) (A) (A) (A) (A)
                 (A) (A) (A) (A) (A) (A) (A) (A) (A) (A) (A) (A)
                 (A) (A) (A) (A) (A) (A) (A) (A) (A) (A) (A) (A)
                 (A) (A) (A) (A) (A) (A) (A) (A) (A) (A) (A) (A)
                 (A) (A) (A) (A) (A) (A) (A) (A) (A) (A) (A) (A)
                 (A) (A) (A) (A) (A) (A) (A) (A) (A) (A) (A) (A)
                 (A) (A) (A) (A) (A) (A) (A) (A) (A) (A) (A) (A)
                 (A) (A) (A) (A) (A) (A) (A) (A) (A) (A) (A) (A)
                 (A) (A) (A) (A) (A) (A) (A) (A) (A) (A) (A) (A)
                 (A) (A) (A) (A) (A) (A) (A) (A) (A) (A) (A) (A)
                 (A) (A) (A) (A) (A) (A) (A) (A) (A) (A) (A) (A)
                 (A) (A) (A) (A) (A) (A) (A) (A) (A) (A) (A) (A)
                 (A) (A) (A) (A) (A) (A) (A) (A) (A) (A) (A) (A)
                 (A) (A) (A) (A) (A) (A) (A) (A) (A) (A) (A) (A)
                 (A) (A) (A) (A) (A) (A) (A) (A) (A) (A) (A) (A)
                 (A) (A) (A) (A) (A) (A) (A) (A)
 The electronic state is 1-A.
 Alpha  occ. eigenvalues --  -19.16780 -19.00049 -10.22967 -10.19356 -10.17818
 Alpha  occ. eigenvalues --  -10.17758 -10.17732 -10.17541 -10.17028 -10.16371
 Alpha  occ. eigenvalues --  -10.16352 -10.15707 -10.14588 -10.14524 -10.14480
 Alpha  occ. eigenvalues --  -10.12601 -10.12518  -1.06385  -0.85899  -0.83892
 Alpha  occ. eigenvalues --   -0.80369  -0.76731  -0.73422  -0.70909  -0.69669
 Alpha  occ. eigenvalues --   -0.66866  -0.66520  -0.61174  -0.59456  -0.56086
 Alpha  occ. eigenvalues --   -0.55514  -0.52555  -0.51759  -0.47198  -0.46049
 Alpha  occ. eigenvalues --   -0.43717  -0.43106  -0.40942  -0.40821  -0.40796
 Alpha  occ. eigenvalues --   -0.40354  -0.39639  -0.39203  -0.37791  -0.37153
 Alpha  occ. eigenvalues --   -0.36938  -0.35753  -0.33995  -0.33275  -0.32541
 Alpha  occ. eigenvalues --   -0.31900  -0.30733  -0.30521  -0.28580  -0.27460
 Alpha  occ. eigenvalues --   -0.23808  -0.23680  -0.20707  -0.19975  -0.15244
 Alpha  occ. eigenvalues --   -0.13028
 Alpha virt. eigenvalues --    0.00679   0.02663   0.04148   0.06845   0.09232
 Alpha virt. eigenvalues --    0.10665   0.12327   0.14439   0.14754   0.15382
 Alpha virt. eigenvalues --    0.16242   0.16549   0.17164   0.18744   0.19250
 Alpha virt. eigenvalues --    0.19353   0.20636   0.20926   0.21926   0.22796
 Alpha virt. eigenvalues --    0.24653   0.24753   0.26112   0.26865   0.27985
 Alpha virt. eigenvalues --    0.29286   0.30392   0.33178   0.34202   0.35749
 Alpha virt. eigenvalues --    0.36604   0.38129   0.39148   0.41138   0.42401
 Alpha virt. eigenvalues --    0.50625   0.51102   0.51649   0.52809   0.53429
 Alpha virt. eigenvalues --    0.53789   0.55123   0.55735   0.56177   0.57674
 Alpha virt. eigenvalues --    0.58265   0.59426   0.60188   0.60863   0.61776
 Alpha virt. eigenvalues --    0.62341   0.63028   0.63654   0.63976   0.64158
 Alpha virt. eigenvalues --    0.65029   0.66066   0.67563   0.68240   0.69055
 Alpha virt. eigenvalues --    0.69838   0.71156   0.72277   0.73999   0.75429
 Alpha virt. eigenvalues --    0.75690   0.76662   0.78861   0.80006   0.81144
 Alpha virt. eigenvalues --    0.83193   0.84092   0.84780   0.85579   0.86442
 Alpha virt. eigenvalues --    0.87769   0.88811   0.89478   0.90366   0.90649
 Alpha virt. eigenvalues --    0.91156   0.91838   0.92714   0.92953   0.94303
 Alpha virt. eigenvalues --    0.95772   0.96301   0.97708   0.99562   0.99748
 Alpha virt. eigenvalues --    1.00242   1.01682   1.01818   1.02792   1.04675
 Alpha virt. eigenvalues --    1.06018   1.07296   1.08233   1.08909   1.11617
 Alpha virt. eigenvalues --    1.13915   1.14261   1.16276   1.17214   1.18555
 Alpha virt. eigenvalues --    1.20823   1.21614   1.24810   1.25302   1.26946
 Alpha virt. eigenvalues --    1.29154   1.30047   1.31659   1.34067   1.37183
 Alpha virt. eigenvalues --    1.37707   1.41047   1.41907   1.43342   1.48334
 Alpha virt. eigenvalues --    1.48643   1.49962   1.52136   1.53709   1.55031
 Alpha virt. eigenvalues --    1.57409   1.59290   1.63530   1.66370   1.67997
 Alpha virt. eigenvalues --    1.68620   1.72076   1.73527   1.74886   1.77509
 Alpha virt. eigenvalues --    1.79068   1.80343   1.83310   1.86482   1.87232
 Alpha virt. eigenvalues --    1.88544   1.89222   1.89566   1.90772   1.91274
 Alpha virt. eigenvalues --    1.93120   1.94205   1.96982   1.97369   1.99440
 Alpha virt. eigenvalues --    2.01248   2.01911   2.03353   2.04720   2.08210
 Alpha virt. eigenvalues --    2.08827   2.09221   2.10440   2.12248   2.12992
 Alpha virt. eigenvalues --    2.15233   2.16091   2.18124   2.19960   2.22295
 Alpha virt. eigenvalues --    2.23876   2.25898   2.26979   2.29420   2.30080
 Alpha virt. eigenvalues --    2.31497   2.32940   2.34790   2.35051   2.36457
 Alpha virt. eigenvalues --    2.37750   2.38692   2.41281   2.42640   2.44022
 Alpha virt. eigenvalues --    2.48962   2.52413   2.55931   2.57952   2.61340
 Alpha virt. eigenvalues --    2.62251   2.64458   2.65657   2.65876   2.67404
 Alpha virt. eigenvalues --    2.70125   2.70806   2.73387   2.77492   2.79768
 Alpha virt. eigenvalues --    2.81898   2.85489   2.91494   2.94804   2.95536
 Alpha virt. eigenvalues --    2.97265   3.01620   3.03126   3.16296   3.21035
 Alpha virt. eigenvalues --    3.40249   3.46126   3.93458   3.98532   4.12691
 Alpha virt. eigenvalues --    4.13015   4.16239   4.17508   4.23589   4.28609
 Alpha virt. eigenvalues --    4.30078   4.33295   4.35642   4.39818   4.46733
 Alpha virt. eigenvalues --    4.53189   4.67407   4.75305   4.79810
          Condensed to atoms (all electrons):
               1          2          3          4          5          6
     1  C    5.215674   0.366945   0.348888   0.362872   0.338876  -0.064873
     2  H    0.366945   0.562363  -0.034651  -0.022439  -0.021025  -0.003624
     3  H    0.348888  -0.034651   0.608657  -0.038421  -0.026411  -0.005326
     4  H    0.362872  -0.022439  -0.038421   0.568461  -0.023662   0.005388
     5  C    0.338876  -0.021025  -0.026411  -0.023662   5.020576   0.347135
     6  C   -0.064873  -0.003624  -0.005326   0.005388   0.347135   5.215889
     7  H   -0.006677   0.004014   0.000252   0.000030  -0.026169   0.344090
     8  H    0.006563  -0.000076  -0.000060  -0.000195  -0.025316   0.357491
     9  H   -0.005687  -0.000040   0.003844  -0.000079  -0.024732   0.365664
    10  C   -0.056836  -0.002651   0.005793  -0.006563   0.358101  -0.039668
    11  C   -0.008548   0.000136   0.000270   0.003686  -0.055695   0.005689
    12  C    0.000038  -0.000028   0.000002   0.000011   0.004947  -0.000134
    13  C    0.000023  -0.000015  -0.000000  -0.000008   0.000170  -0.000008
    14  O   -0.000000   0.000000   0.000000  -0.000000   0.000000   0.000000
    15  H    0.000000   0.000000  -0.000000   0.000000  -0.000001   0.000000
    16  C   -0.000291  -0.000012   0.000002   0.000009   0.005842   0.000186
    17  C    0.002322   0.000528  -0.000048  -0.000093  -0.045178  -0.011841
    18  H    0.000394  -0.000030  -0.000013  -0.000010  -0.015939   0.008239
    19  H    0.000003   0.000001  -0.000000   0.000000  -0.000110   0.000002
    20  H    0.000002   0.000000  -0.000000   0.000002  -0.000099   0.000001
    21  H    0.000566   0.000091  -0.000090   0.002109  -0.006639   0.000129
    22  C   -0.026030   0.002401  -0.005933  -0.000557   0.351904  -0.062564
    23  C    0.004122  -0.000046  -0.000295  -0.000008  -0.057663  -0.005864
    24  H    0.000091  -0.000005  -0.000007  -0.000002  -0.011171   0.000174
    25  C   -0.000061   0.000001   0.000005  -0.000006   0.005237   0.000044
    26  H    0.000001  -0.000000   0.000000   0.000000  -0.000128   0.000002
    27  C   -0.000005   0.000000  -0.000004  -0.000003   0.000353  -0.000003
    28  O    0.000000  -0.000000  -0.000000   0.000000   0.000000  -0.000000
    29  C    0.000289  -0.000002   0.000168  -0.000129   0.006157  -0.000157
    30  H   -0.000002  -0.000000   0.000004   0.000001  -0.000195   0.000001
    31  C   -0.013033   0.000322   0.000808   0.002084  -0.047979  -0.002863
    32  H    0.003272  -0.000011   0.002923   0.000776  -0.013842   0.000494
               7          8          9         10         11         12
     1  C   -0.006677   0.006563  -0.005687  -0.056836  -0.008548   0.000038
     2  H    0.004014  -0.000076  -0.000040  -0.002651   0.000136  -0.000028
     3  H    0.000252  -0.000060   0.003844   0.005793   0.000270   0.000002
     4  H    0.000030  -0.000195  -0.000079  -0.006563   0.003686   0.000011
     5  C   -0.026169  -0.025316  -0.024732   0.358101  -0.055695   0.004947
     6  C    0.344090   0.357491   0.365664  -0.039668   0.005689  -0.000134
     7  H    0.610708  -0.029087  -0.034117  -0.002553  -0.000214  -0.000006
     8  H   -0.029087   0.580294  -0.030893  -0.007926  -0.000196   0.000003
     9  H   -0.034117  -0.030893   0.574543   0.003848  -0.000084   0.000002
    10  C   -0.002553  -0.007926   0.003848   4.781777   0.503661  -0.029308
    11  C   -0.000214  -0.000196  -0.000084   0.503661   5.041615   0.469535
    12  C   -0.000006   0.000003   0.000002  -0.029308   0.469535   5.111792
    13  C    0.000003  -0.000008   0.000000  -0.032495  -0.002246   0.502052
    14  O    0.000000   0.000000  -0.000000   0.000387   0.004999  -0.060631
    15  H   -0.000000  -0.000000   0.000000  -0.000044   0.000875  -0.004194
    16  C   -0.000050   0.000107  -0.000001  -0.027057  -0.048485  -0.069943
    17  C    0.000748   0.001392   0.000410   0.527631  -0.040720  -0.041125
    18  H    0.001233   0.003127  -0.000220  -0.043424   0.007077   0.000505
    19  H   -0.000001   0.000006  -0.000000   0.003609   0.000094   0.006729
    20  H   -0.000000   0.000000  -0.000000   0.003022  -0.030596   0.349568
    21  H   -0.000009   0.000001  -0.000005  -0.042809   0.348786  -0.042570
    22  C    0.006299  -0.004618  -0.003269  -0.049753  -0.001933   0.000395
    23  C    0.000068   0.004632  -0.000066  -0.007035  -0.000953   0.000027
    24  H   -0.000060   0.000998   0.000072   0.008190   0.001849  -0.000131
    25  C    0.000003   0.000021  -0.000065   0.000214  -0.000186  -0.000013
    26  H   -0.000000   0.000002   0.000000  -0.000007   0.000001  -0.000000
    27  C   -0.000000  -0.000014   0.000001   0.000022   0.000005   0.000000
    28  O    0.000000  -0.000000  -0.000000  -0.000000   0.000000   0.000000
    29  C    0.000003   0.000018  -0.000134  -0.000150  -0.000041  -0.000000
    30  H   -0.000000   0.000000   0.000005   0.000002   0.000000   0.000000
    31  C    0.000029  -0.000176   0.003732   0.002597   0.000889   0.000011
    32  H   -0.000082  -0.000018   0.000401   0.000208  -0.000029   0.000000
              13         14         15         16         17         18
     1  C    0.000023  -0.000000   0.000000  -0.000291   0.002322   0.000394
     2  H   -0.000015   0.000000   0.000000  -0.000012   0.000528  -0.000030
     3  H   -0.000000   0.000000  -0.000000   0.000002  -0.000048  -0.000013
     4  H   -0.000008  -0.000000   0.000000   0.000009  -0.000093  -0.000010
     5  C    0.000170   0.000000  -0.000001   0.005842  -0.045178  -0.015939
     6  C   -0.000008   0.000000   0.000000   0.000186  -0.011841   0.008239
     7  H    0.000003   0.000000  -0.000000  -0.000050   0.000748   0.001233
     8  H   -0.000008   0.000000  -0.000000   0.000107   0.001392   0.003127
     9  H    0.000000  -0.000000   0.000000  -0.000001   0.000410  -0.000220
    10  C   -0.032495   0.000387  -0.000044  -0.027057   0.527631  -0.043424
    11  C   -0.002246   0.004999   0.000875  -0.048485  -0.040720   0.007077
    12  C    0.502052  -0.060631  -0.004194  -0.069943  -0.041125   0.000505
    13  C    4.500625   0.280408  -0.043817   0.557488  -0.014112   0.004442
    14  O    0.280408   8.235826   0.248627  -0.063697   0.003034  -0.000068
    15  H   -0.043817   0.248627   0.359340   0.008053  -0.000255   0.000009
    16  C    0.557488  -0.063697   0.008053   5.037422   0.478256  -0.043937
    17  C   -0.014112   0.003034  -0.000255   0.478256   5.034181   0.350614
    18  H    0.004442  -0.000068   0.000009  -0.043937   0.350614   0.603397
    19  H   -0.039032  -0.001970  -0.000247   0.349277  -0.038222  -0.004856
    20  H   -0.046068  -0.005279   0.008820   0.004849   0.000358   0.000015
    21  H    0.004222  -0.000090  -0.000024   0.000798   0.005865  -0.000197
    22  C   -0.000003   0.000000   0.000000  -0.000036  -0.002483   0.000214
    23  C    0.000005  -0.000000   0.000000  -0.000066   0.000851  -0.000101
    24  H   -0.000052   0.000000  -0.000000   0.000139   0.003119  -0.000138
    25  C    0.000000   0.000000  -0.000000  -0.000000   0.000075   0.000000
    26  H   -0.000000   0.000000   0.000000   0.000000  -0.000000  -0.000000
    27  C    0.000000   0.000000  -0.000000  -0.000000  -0.000001   0.000000
    28  O   -0.000000  -0.000000   0.000000   0.000000  -0.000000   0.000000
    29  C    0.000000  -0.000000  -0.000000  -0.000000   0.000003   0.000000
    30  H    0.000000   0.000000  -0.000000   0.000000  -0.000000  -0.000000
    31  C   -0.000000   0.000000  -0.000000   0.000003  -0.000204  -0.000008
    32  H   -0.000000   0.000000  -0.000000   0.000000  -0.000002  -0.000000
              19         20         21         22         23         24
     1  C    0.000003   0.000002   0.000566  -0.026030   0.004122   0.000091
     2  H    0.000001   0.000000   0.000091   0.002401  -0.000046  -0.000005
     3  H   -0.000000  -0.000000  -0.000090  -0.005933  -0.000295  -0.000007
     4  H    0.000000   0.000002   0.002109  -0.000557  -0.000008  -0.000002
     5  C   -0.000110  -0.000099  -0.006639   0.351904  -0.057663  -0.011171
     6  C    0.000002   0.000001   0.000129  -0.062564  -0.005864   0.000174
     7  H   -0.000001  -0.000000  -0.000009   0.006299   0.000068  -0.000060
     8  H    0.000006   0.000000   0.000001  -0.004618   0.004632   0.000998
     9  H   -0.000000  -0.000000  -0.000005  -0.003269  -0.000066   0.000072
    10  C    0.003609   0.003022  -0.042809  -0.049753  -0.007035   0.008190
    11  C    0.000094  -0.030596   0.348786  -0.001933  -0.000953   0.001849
    12  C    0.006729   0.349568  -0.042570   0.000395   0.000027  -0.000131
    13  C   -0.039032  -0.046068   0.004222  -0.000003   0.000005  -0.000052
    14  O   -0.001970  -0.005279  -0.000090   0.000000  -0.000000   0.000000
    15  H   -0.000247   0.008820  -0.000024   0.000000   0.000000  -0.000000
    16  C    0.349277   0.004849   0.000798  -0.000036  -0.000066   0.000139
    17  C   -0.038222   0.000358   0.005865  -0.002483   0.000851   0.003119
    18  H   -0.004856   0.000015  -0.000197   0.000214  -0.000101  -0.000138
    19  H    0.592473  -0.000171   0.000018   0.000000   0.000001  -0.000002
    20  H   -0.000171   0.577674  -0.006843   0.000002   0.000000  -0.000001
    21  H    0.000018  -0.006843   0.600586   0.004354   0.000986  -0.000093
    22  C    0.000000   0.000002   0.004354   4.815206   0.519929  -0.051127
    23  C    0.000001   0.000000   0.000986   0.519929   5.187870   0.335094
    24  H   -0.000002  -0.000001  -0.000093  -0.051127   0.335094   0.651167
    25  C    0.000000  -0.000000  -0.000070  -0.014177   0.355095  -0.039123
    26  H   -0.000000   0.000000   0.000000   0.004952  -0.053916  -0.006979
    27  C    0.000000   0.000000  -0.000006  -0.044624   0.025754   0.003422
    28  O    0.000000   0.000000   0.000000   0.000055   0.006747  -0.000074
    29  C    0.000000  -0.000000  -0.000023  -0.012606  -0.063557   0.000179
    30  H   -0.000000  -0.000000  -0.000001   0.005445  -0.000092   0.000028
    31  C   -0.000000  -0.000000   0.000245   0.495940  -0.042604   0.007720
    32  H   -0.000000   0.000000  -0.000004  -0.045932   0.006825  -0.000228
              25         26         27         28         29         30
     1  C   -0.000061   0.000001  -0.000005   0.000000   0.000289  -0.000002
     2  H    0.000001  -0.000000   0.000000  -0.000000  -0.000002  -0.000000
     3  H    0.000005   0.000000  -0.000004  -0.000000   0.000168   0.000004
     4  H   -0.000006   0.000000  -0.000003   0.000000  -0.000129   0.000001
     5  C    0.005237  -0.000128   0.000353   0.000000   0.006157  -0.000195
     6  C    0.000044   0.000002  -0.000003  -0.000000  -0.000157   0.000001
     7  H    0.000003  -0.000000  -0.000000   0.000000   0.000003  -0.000000
     8  H    0.000021   0.000002  -0.000014  -0.000000   0.000018   0.000000
     9  H   -0.000065   0.000000   0.000001  -0.000000  -0.000134   0.000005
    10  C    0.000214  -0.000007   0.000022  -0.000000  -0.000150   0.000002
    11  C   -0.000186   0.000001   0.000005   0.000000  -0.000041   0.000000
    12  C   -0.000013  -0.000000   0.000000   0.000000  -0.000000   0.000000
    13  C    0.000000  -0.000000   0.000000  -0.000000   0.000000   0.000000
    14  O    0.000000   0.000000   0.000000  -0.000000  -0.000000   0.000000
    15  H   -0.000000   0.000000  -0.000000   0.000000  -0.000000  -0.000000
    16  C   -0.000000   0.000000  -0.000000   0.000000  -0.000000   0.000000
    17  C    0.000075  -0.000000  -0.000001  -0.000000   0.000003  -0.000000
    18  H    0.000000  -0.000000   0.000000   0.000000   0.000000  -0.000000
    19  H    0.000000  -0.000000   0.000000   0.000000   0.000000  -0.000000
    20  H   -0.000000   0.000000   0.000000   0.000000  -0.000000  -0.000000
    21  H   -0.000070   0.000000  -0.000006   0.000000  -0.000023  -0.000001
    22  C   -0.014177   0.004952  -0.044624   0.000055  -0.012606   0.005445
    23  C    0.355095  -0.053916   0.025754   0.006747  -0.063557  -0.000092
    24  H   -0.039123  -0.006979   0.003422  -0.000074   0.000179   0.000028
    25  C    5.317081   0.333662   0.430476  -0.071192  -0.046314   0.011410
    26  H    0.333662   0.673399  -0.043362   0.000559   0.011099  -0.000237
    27  C    0.430476  -0.043362   4.418308   0.392338   0.433045  -0.041944
    28  O   -0.071192   0.000559   0.392338   8.632926  -0.069241   0.001343
    29  C   -0.046314   0.011099   0.433045  -0.069241   5.310778   0.327857
    30  H    0.011410  -0.000237  -0.041944   0.001343   0.327857   0.685225
    31  C   -0.057143  -0.000274   0.018780   0.007423   0.367195  -0.055377
    32  H    0.000092   0.000023   0.003438  -0.000075  -0.038923  -0.007105
              31         32
     1  C   -0.013033   0.003272
     2  H    0.000322  -0.000011
     3  H    0.000808   0.002923
     4  H    0.002084   0.000776
     5  C   -0.047979  -0.013842
     6  C   -0.002863   0.000494
     7  H    0.000029  -0.000082
     8  H   -0.000176  -0.000018
     9  H    0.003732   0.000401
    10  C    0.002597   0.000208
    11  C    0.000889  -0.000029
    12  C    0.000011   0.000000
    13  C   -0.000000  -0.000000
    14  O    0.000000   0.000000
    15  H   -0.000000  -0.000000
    16  C    0.000003   0.000000
    17  C   -0.000204  -0.000002
    18  H   -0.000008  -0.000000
    19  H   -0.000000  -0.000000
    20  H   -0.000000   0.000000
    21  H    0.000245  -0.000004
    22  C    0.495940  -0.045932
    23  C   -0.042604   0.006825
    24  H    0.007720  -0.000228
    25  C   -0.057143   0.000092
    26  H   -0.000274   0.000023
    27  C    0.018780   0.003438
    28  O    0.007423  -0.000075
    29  C    0.367195  -0.038923
    30  H   -0.055377  -0.007105
    31  C    5.169653   0.342923
    32  H    0.342923   0.643835
 Mulliken charges:
               1
     1  C   -0.468897
     2  H    0.147856
     3  H    0.139645
     4  H    0.146745
     5  C   -0.037343
     6  C   -0.453695
[...]
 Alpha virt. eigenvalues --    2.68897   2.70121   2.71412   2.71600   2.72455
 Alpha virt. eigenvalues --    2.74070   2.75615   2.77656   2.78223   2.79943
 Alpha virt. eigenvalues --    2.82281   2.84318   2.86860   2.88006   2.88141
 Alpha virt. eigenvalues --    2.90368   2.91008   2.91843   2.95492   2.96805
 Alpha virt. eigenvalues --    2.98986   2.99660   3.01624   3.02410   3.03780
 Alpha virt. eigenvalues --    3.06183   3.07377   3.09040   3.12455   3.14077
 Alpha virt. eigenvalues --    3.15971   3.17142   3.20111   3.21650   3.23650
 Alpha virt. eigenvalues --    3.25215   3.25684   3.27476   3.28268   3.33658
 Alpha virt. eigenvalues --    3.34714   3.36073   3.38279   3.43482   3.49992
 Alpha virt. eigenvalues --    3.50915   3.53559   3.58897   3.59489   3.61673
 Alpha virt. eigenvalues --    3.77351   3.82184   3.83890   3.85033   3.85530
 Alpha virt. eigenvalues --    3.92664   3.95994   3.99127   4.02098   4.03031
 Alpha virt. eigenvalues --    4.04050   4.04240   4.16482   4.25001   4.28901
 Alpha virt. eigenvalues --    4.35970   4.48287   4.80252   5.06677   5.15581
          Condensed to atoms (all electrons):
               1          2          3          4          5          6
     1  C    8.103157  -0.358929   0.371917   0.337659  -1.806301  -1.695973
     2  H   -0.358929   1.968015  -0.388040  -0.414726  -0.298853  -0.045466
     3  H    0.371917  -0.388040   1.427216  -0.255370  -0.066491  -0.018605
     4  H    0.337659  -0.414726  -0.255370   1.461118   0.416835  -0.030578
     5  C   -1.806301  -0.298853  -0.066491   0.416835  32.833986  -2.045722
     6  C   -1.695973  -0.045466  -0.018605  -0.030578  -2.045722   7.962524
     7  H    0.053604  -0.042412   0.001274   0.017367  -0.012281   0.379885
     8  H   -0.025849   0.004797   0.011004  -0.008437   0.199197   0.441595
     9  H   -0.161315   0.032174  -0.027625  -0.006693  -0.268172  -0.249335
    10  C   -1.136617   0.053800   0.253815  -0.303873  -6.895110   1.931131
    11  C   -0.120416   0.022934  -0.032012   0.045557  -0.609705  -0.161893
    12  C    0.723554  -0.041092   0.034757   0.056155  -0.576741  -0.556174
    13  C   -0.167739   0.041557  -0.008920  -0.021244  -0.654171   0.161408
    14  O    0.004524  -0.000892   0.000273   0.000805   0.018364   0.000227
    15  H   -0.002725   0.000447  -0.000147  -0.000688  -0.009668   0.001516
    16  C   -0.023417  -0.038182  -0.005598   0.027636   0.080854   0.303018
    17  C   -0.543156   0.398355  -0.180379  -0.085782  -2.030206  -0.136244
    18  H    0.031350   0.001107  -0.009162   0.011268  -0.303282   0.042035
    19  H    0.002370  -0.004157   0.000944   0.000449  -0.014196   0.022473
    20  H    0.014249  -0.000701   0.000472   0.001300   0.036076  -0.011651
    21  H   -0.079070   0.025565  -0.009247  -0.063700  -0.192843   0.054411
    22  C    2.269503   0.287695   0.028534  -0.118985  -6.923129  -1.416044
    23  C   -0.314779   0.074549  -0.073377  -0.000854   0.152722  -0.194345
    24  H   -0.011769   0.002111  -0.004653  -0.000893  -0.212807   0.058689
    25  C   -0.430621   0.020094  -0.036234  -0.031767  -1.117725   0.634344
    26  H   -0.001965   0.000101   0.000262  -0.000107   0.021515  -0.007446
    27  C    0.041745  -0.000775   0.001391   0.001170  -0.144179   0.017868
    28  O   -0.001145  -0.000074   0.000290   0.000315  -0.001882   0.002566
    29  C    0.463172  -0.058255   0.131863   0.059153  -0.930244  -0.359026
    30  H    0.024213   0.000023   0.000101   0.002811   0.036349   0.002537
    31  C   -0.515295  -0.078354  -0.074968  -0.038248  -1.513773  -0.130640
    32  H    0.084698   0.048893  -0.030898  -0.045626  -0.571979  -0.025106
               7          8          9         10         11         12
     1  C    0.053604  -0.025849  -0.161315  -1.136617  -0.120416   0.723554
     2  H   -0.042412   0.004797   0.032174   0.053800   0.022934  -0.041092
     3  H    0.001274   0.011004  -0.027625   0.253815  -0.032012   0.034757
     4  H    0.017367  -0.008437  -0.006693  -0.303873   0.045557   0.056155
     5  C   -0.012281   0.199197  -0.268172  -6.895110  -0.609705  -0.576741
     6  C    0.379885   0.441595  -0.249335   1.931131  -0.161893  -0.556174
     7  H    1.576639  -0.277026  -0.435465  -0.059866  -0.090778  -0.009022
     8  H   -0.277026   1.444219  -0.375134  -0.051491  -0.003296  -0.045443
     9  H   -0.435465  -0.375134   1.907997   0.392153   0.092264   0.009436
    10  C   -0.059866  -0.051491   0.392153  31.000372 -10.911074   3.951578
    11  C   -0.090778  -0.003296   0.092264 -10.911074  27.563570  -8.616711
    12  C   -0.009022  -0.045443   0.009436   3.951578  -8.616711  17.924568
    13  C   -0.020444   0.010980   0.004863  -5.938630   3.835236  -4.297170
    14  O    0.001071   0.000605  -0.000122   0.240590  -0.023254   0.331938
    15  H   -0.000403  -0.000122   0.000109  -0.050213   0.045857  -0.016836
    16  C    0.181240   0.042030  -0.065595   5.418090  -6.030394   4.442394
    17  C   -0.128473   0.003871  -0.125566 -15.531104   2.628619  -7.303610
    18  H   -0.043791  -0.044765   0.044434   1.722392  -0.012222   0.241094
    19  H    0.000752   0.001656   0.000186  -0.429822   0.208129   0.000736
    20  H    0.001293  -0.000384  -0.000576  -0.301920   0.704515  -1.198290
    21  H   -0.007480   0.001891   0.005639   1.025203  -1.586883   0.303953
    22  C    0.141703  -0.080350   0.054169   0.444428  -1.088652   0.686432
    23  C    0.001381  -0.116072   0.049645  -0.624836   0.133861   0.160195
    24  H   -0.001856  -0.048182   0.018935  -0.062157  -0.008382  -0.038974
    25  C    0.032558   0.008306   0.005919   0.266422   0.054720  -0.237714
    26  H   -0.000844  -0.000477   0.001593  -0.013850   0.025655   0.004296
    27  C   -0.002894  -0.007011   0.015670  -0.053977   0.033441  -0.032719
    28  O    0.000269   0.000422  -0.000277   0.004082  -0.000416  -0.001159
    29  C   -0.015916   0.002676  -0.020904  -0.034416   0.153216   0.213417
    30  H    0.000967   0.000840  -0.003002  -0.014124  -0.018501   0.000527
    31  C   -0.157351  -0.044221   0.298350   0.597372  -0.241099  -0.189318
    32  H   -0.008278  -0.001217   0.014482   0.133988   0.113373   0.037410
              13         14         15         16         17         18
     1  C   -0.167739   0.004524  -0.002725  -0.023417  -0.543156   0.031350
     2  H    0.041557  -0.000892   0.000447  -0.038182   0.398355   0.001107
     3  H   -0.008920   0.000273  -0.000147  -0.005598  -0.180379  -0.009162
     4  H   -0.021244   0.000805  -0.000688   0.027636  -0.085782   0.011268
     5  C   -0.654171   0.018364  -0.009668   0.080854  -2.030206  -0.303282
     6  C    0.161408   0.000227   0.001516   0.303018  -0.136244   0.042035
     7  H   -0.020444   0.001071  -0.000403   0.181240  -0.128473  -0.043791
     8  H    0.010980   0.000605  -0.000122   0.042030   0.003871  -0.044765
     9  H    0.004863  -0.000122   0.000109  -0.065595  -0.125566   0.044434
    10  C   -5.938630   0.240590  -0.050213   5.418090 -15.531104   1.722392
    11  C    3.835236  -0.023254   0.045857  -6.030394   2.628619  -0.012222
    12  C   -4.297170   0.331938  -0.016836   4.442394  -7.303610   0.241094
    13  C   11.432084  -0.679797  -0.009515  -5.546414   6.499464  -0.574144
    14  O   -0.679797   9.104012   0.306868   0.044477  -0.258059  -0.006854
    15  H   -0.009515   0.306868   0.603366  -0.140208   0.097790  -0.000474
    16  C   -5.546414   0.044477  -0.140208  18.611122 -10.735084   0.697546
    17  C    6.499464  -0.258059   0.097790 -10.735084  33.978606  -2.712621
    18  H   -0.574144  -0.006854  -0.000474   0.697546  -2.712621   2.697308
    19  H    1.039659  -0.035102  -0.002871  -1.623346   0.605212  -0.104705
    20  H    0.580294  -0.108454   0.004728   0.016209   0.007932   0.013079
    21  H   -0.251623   0.005369   0.001322  -0.011169   0.116101  -0.033139
    22  C   -0.252916   0.002548  -0.001333   0.183096  -0.420294   0.201434
    23  C    0.061277  -0.001205   0.000263   0.051128  -0.070868   0.006921
    24  H    0.019913  -0.000522   0.000171  -0.000486   0.224037   0.000571
    25  C   -0.020086  -0.000461   0.000216   0.098526   0.198517   0.019921
    26  H   -0.000483   0.000027  -0.000018   0.000740  -0.009852   0.001221
    27  C    0.003279  -0.000071   0.000108   0.004051   0.035302   0.001438
    28  O   -0.000002  -0.000000   0.000006  -0.000023  -0.000181  -0.000076
    29  C    0.008308   0.000203  -0.000364  -0.029757  -0.167126   0.000446
    30  H   -0.000624   0.000008  -0.000018   0.000339   0.001044  -0.000160
    31  C    0.074462  -0.000316   0.001186  -0.173215   0.415596  -0.018471
    32  H    0.010045  -0.000204   0.000162  -0.012247  -0.029855   0.000245
              19         20         21         22         23         24
     1  C    0.002370   0.014249  -0.079070   2.269503  -0.314779  -0.011769
     2  H   -0.004157  -0.000701   0.025565   0.287695   0.074549   0.002111
     3  H    0.000944   0.000472  -0.009247   0.028534  -0.073377  -0.004653
     4  H    0.000449   0.001300  -0.063700  -0.118985  -0.000854  -0.000893
     5  C   -0.014196   0.036076  -0.192843  -6.923129   0.152722  -0.212807
     6  C    0.022473  -0.011651   0.054411  -1.416044  -0.194345   0.058689
     7  H    0.000752   0.001293  -0.007480   0.141703   0.001381  -0.001856
     8  H    0.001656  -0.000384   0.001891  -0.080350  -0.116072  -0.048182
     9  H    0.000186  -0.000576   0.005639   0.054169   0.049645   0.018935
    10  C   -0.429822  -0.301920   1.025203   0.444428  -0.624836  -0.062157
    11  C    0.208129   0.704515  -1.586883  -1.088652   0.133861  -0.008382
    12  C    0.000736  -1.198290   0.303953   0.686432   0.160195  -0.038974
    13  C    1.039659   0.580294  -0.251623  -0.252916   0.061277   0.019913
    14  O   -0.035102  -0.108454   0.005369   0.002548  -0.001205  -0.000522
    15  H   -0.002871   0.004728   0.001322  -0.001333   0.000263   0.000171
    16  C   -1.623346   0.016209  -0.011169   0.183096   0.051128  -0.000486
    17  C    0.605212   0.007932   0.116101  -0.420294  -0.070868   0.224037
    18  H   -0.104705   0.013079  -0.033139   0.201434   0.006921   0.000571
    19  H    1.882578  -0.017583   0.007923  -0.008367  -0.003463  -0.001563
    20  H   -0.017583   1.971198  -0.125493   0.015393   0.007004   0.000104
    21  H    0.007923  -0.125493   2.511200  -0.212305   0.012360   0.017165
    22  C   -0.008367   0.015393  -0.212305  26.409456  -7.488966   0.704099
    23  C   -0.003463   0.007004   0.012360  -7.488966  23.480999  -2.008779
    24  H   -0.001563   0.000104   0.017165   0.704099  -2.008779   2.574325
    25  C   -0.000767  -0.001932  -0.032388   1.380083  -5.327420   0.916839
    26  H   -0.000019  -0.000219   0.001344  -0.148738   0.764142  -0.147466
    27  C   -0.000075  -0.003045   0.032189  -2.720043   1.194281  -0.113356
    28  O   -0.000001  -0.000092   0.000118   0.168947  -0.091300  -0.000924
    29  C    0.000026   0.006848  -0.053909   2.096210  -2.501378   0.089091
    30  H    0.000009   0.000049  -0.001820   0.028001   0.115644   0.003429
    31  C   -0.000945  -0.013751   0.240018 -10.421399  -1.523662  -0.124568
    32  H   -0.000192   0.000433   0.007005   1.184596  -0.112559  -0.017174
              25         26         27         28         29         30
     1  C   -0.430621  -0.001965   0.041745  -0.001145   0.463172   0.024213
     2  H    0.020094   0.000101  -0.000775  -0.000074  -0.058255   0.000023
     3  H   -0.036234   0.000262   0.001391   0.000290   0.131863   0.000101
     4  H   -0.031767  -0.000107   0.001170   0.000315   0.059153   0.002811
     5  C   -1.117725   0.021515  -0.144179  -0.001882  -0.930244   0.036349
     6  C    0.634344  -0.007446   0.017868   0.002566  -0.359026   0.002537
     7  H    0.032558  -0.000844  -0.002894   0.000269  -0.015916   0.000967
     8  H    0.008306  -0.000477  -0.007011   0.000422   0.002676   0.000840
     9  H    0.005919   0.001593   0.015670  -0.000277  -0.020904  -0.003002
    10  C    0.266422  -0.013850  -0.053977   0.004082  -0.034416  -0.014124
    11  C    0.054720   0.025655   0.033441  -0.000416   0.153216  -0.018501
    12  C   -0.237714   0.004296  -0.032719  -0.001159   0.213417   0.000527
    13  C   -0.020086  -0.000483   0.003279  -0.000002   0.008308  -0.000624
    14  O   -0.000461   0.000027  -0.000071  -0.000000   0.000203   0.000008
    15  H    0.000216  -0.000018   0.000108   0.000006  -0.000364  -0.000018
    16  C    0.098526   0.000740   0.004051  -0.000023  -0.029757   0.000339
    17  C    0.198517  -0.009852   0.035302  -0.000181  -0.167126   0.001044
    18  H    0.019921   0.001221   0.001438  -0.000076   0.000446  -0.000160
    19  H   -0.000767  -0.000019  -0.000075  -0.000001   0.000026   0.000009
    20  H   -0.001932  -0.000219  -0.003045  -0.000092   0.006848   0.000049
    21  H   -0.032388   0.001344   0.032189   0.000118  -0.053909  -0.001820
    22  C    1.380083  -0.148738  -2.720043   0.168947   2.096210   0.028001
    23  C   -5.327420   0.764142   1.194281  -0.091300  -2.501378   0.115644
    24  H    0.916839  -0.147466  -0.113356  -0.000924   0.089091   0.003429
    25  C   12.566486  -0.883904  -1.448933   0.122533   1.882625  -0.173156
    26  H   -0.883904   1.824652   0.181516  -0.034724  -0.171497  -0.010988
    27  C   -1.448933   0.181516   8.353263  -0.354943  -1.590705   0.137534
    28  O    0.122533  -0.034724  -0.354943   9.331044   0.126597  -0.021156
    29  C    1.882625  -0.171497  -1.590705   0.126597  12.386329  -0.963671
    30  H   -0.173156  -0.010988   0.137534  -0.021156  -0.963671   1.800012
    31  C   -2.746755   0.151727   2.055990  -0.096906  -5.549828   0.710570
    32  H    0.072541   0.006173  -0.062601  -0.003397   0.706235  -0.112608
              31         32
     1  C   -0.515295   0.084698
     2  H   -0.078354   0.048893
     3  H   -0.074968  -0.030898
     4  H   -0.038248  -0.045626
     5  C   -1.513773  -0.571979
     6  C   -0.130640  -0.025106
     7  H   -0.157351  -0.008278
     8  H   -0.044221  -0.001217
     9  H    0.298350   0.014482
    10  C    0.597372   0.133988
    11  C   -0.241099   0.113373
    12  C   -0.189318   0.037410
    13  C    0.074462   0.010045
    14  O   -0.000316  -0.000204
    15  H    0.001186   0.000162
    16  C   -0.173215  -0.012247
    17  C    0.415596  -0.029855
    18  H   -0.018471   0.000245
    19  H   -0.000945  -0.000192
    20  H   -0.013751   0.000433
    21  H    0.240018   0.007005
    22  C  -10.421399   1.184596
    23  C   -1.523662  -0.112559
    24  H   -0.124568  -0.017174
    25  C   -2.746755   0.072541
    26  H    0.151727   0.006173
    27  C    2.055990  -0.062601
    28  O   -0.096906  -0.003397
    29  C   -5.549828   0.706235
    30  H    0.710570  -0.112608
    31  C   26.557275  -2.127768
    32  H   -2.127768   2.642119
 Mulliken charges:
               1
     1  C    0.871366
     2  H   -0.211313
     3  H   -0.042387
     4  H   -0.012027
     5  C   -0.596439
     6  C    1.068020
     7  H   -0.075425
     8  H   -0.044613
     9  H   -0.208238
    10  C    0.977663
    11  C   -0.105263
    12  C    0.038530
    13  C    0.661091
    14  O   -0.946597
    15  H    0.171490
    16  C    0.232637
    17  C    1.258013
    18  H   -0.869944
    19  H   -0.525927
    20  H   -0.597086
    21  H   -0.707709
    22  C    1.015196
    23  C    0.187490
    24  H   -0.824970
    25  C    0.209215
    26  H   -0.552364
    27  C    0.425089
    28  O   -1.148511
    29  C    0.120579
    30  H   -0.545182
    31  C    0.678305
    32  H   -0.900688
 Sum of Mulliken charges =  -1.00000
 Mulliken charges with hydrogens summed into heavy atoms:
               1
     1  C    0.605638
     5  C   -0.596439
     6  C    0.739745
    10  C    0.977663
    11  C   -0.812971
    12  C   -0.558556
    13  C    0.661091
    14  O   -0.775106
    16  C   -0.293290
    17  C    0.388068
    22  C    1.015196
    23  C   -0.637480
    25  C   -0.343149
    27  C    0.425089
    28  O   -1.148511
    29  C   -0.424603
    31  C   -0.222383
 Electronic spatial extent (au):  <R**2>=           4861.3476
 Charge=             -1.0000 electrons
 Dipole moment (field-independent basis, Debye):
    X=            -14.5958    Y=              4.5689    Z=              1.6332  Tot=             15.3812
 Quadrupole moment (field-independent basis, Debye-Ang):
   XX=           -196.3478   YY=           -115.7822   ZZ=           -106.4504
   XY=             29.2302   XZ=              1.3373   YZ=             -5.9332
 Traceless Quadrupole moment (field-independent basis, Debye-Ang):
   XX=            -56.8210   YY=             23.7446   ZZ=             33.0764
   XY=             29.2302   XZ=              1.3373   YZ=             -5.9332
 Octapole moment (field-independent basis, Debye-Ang**2):
  XXX=           -329.6012  YYY=             -7.3350  ZZZ=              1.0764  XYY=            -83.4266
  XXY=            124.4117  XXZ=             32.3319  XZZ=            -16.3304  YZZ=             -7.5686
  YYZ=             13.1464  XYZ=             17.7054
 Hexadecapole moment (field-independent basis, Debye-Ang**3):
 XXXX=          -7012.6445 YYYY=          -1331.5886 ZZZZ=           -651.2990 XXXY=            689.8837
 XXXZ=             33.3823 YYYX=            222.9356 YYYZ=            -39.6820 ZZZX=              4.0631
 ZZZY=             -4.6162 XXYY=          -1228.0884 XXZZ=           -907.8933 YYZZ=           -321.2355
 XXYZ=           -112.3101 YYXZ=            -34.8779 ZZXY=             25.7177
 N-N= 1.129037163633D+03 E-N=-3.972133536204D+03  KE= 7.258373762640D+02
 Leave Link  601 at Mon Jul 12 14:43:55 2021, MaxMem=   262144000 cpu:               0.4 elap:               0.3
 (Enter /dades/curu/g16A03_MST/g16/l9999.exe)
 1\1\GINC-PIRINEUS13\SP\RMP2-FC\Aug-CC-pVDZ\C15H15O2(1-)\UBATOR02\12-Ju
 l-2021\0\\#p mp2/aug-cc-pVDZ scf=tight maxdisk=180GB geom=allcheck\\SE
 T_328_BBB212_conf1.geo_060_045 geometry\\-1,1\C,0,-1.3008673338,0.6002
 30782,1.979681186\H,0,-0.855699039,1.2561555688,2.7335480753\H,0,-1.93
 43476498,-0.1297054381,2.4931578377\H,0,-1.9414380637,1.2109147857,1.3
 358977562\C,0,-0.1883340518,-0.1059469606,1.1749818037\C,0,0.641420914
 ,-0.9393489739,2.1735293464\H,0,1.0438884666,-0.3273382338,2.987506163
 2\H,0,1.4744842284,-1.438805386,1.674463739\H,0,0.0062287555,-1.710842
 7768,2.6168657846\C,0,0.670001307,0.9892544038,0.5143427988\C,0,0.1819
 354648,1.6722378836,-0.6098837201\C,0,0.8923300542,2.7084342301,-1.209
 0171675\C,0,2.1367519307,3.0893887945,-0.696185122\O,0,2.8919956621,4.
 0937650445,-1.2412189616\H,0,2.4285066209,4.4586195238,-2.0119085796\C
 ,0,2.6477473105,2.4227935152,0.4175622695\C,0,1.9168626785,1.392236905
 6,1.0096183221\H,0,2.3396189028,0.8947529851,1.8747221754\H,0,3.615607
 8547,2.7162334122,0.8102066554\H,0,0.4849290545,3.2138139661,-2.079310
 0467\H,0,-0.770622495,1.3691333227,-1.0315976527\C,0,-0.7651453156,-1.
 0516867552,0.1129160579\C,0,0.099690531,-1.7602449843,-0.7437947768\H,
 0,1.1733093817,-1.5894140681,-0.6611996862\C,0,-0.3636074762,-2.661117
 8624,-1.6896877934\H,0,0.3402242358,-3.185657772,-2.331567961\C,0,-1.7
 6206308,-2.9475232081,-1.8711744127\O,0,-2.1948864729,-3.7855232544,-2
 .7431069324\C,0,-2.6213511501,-2.2101448258,-0.9886412798\H,0,-3.69352
 4802,-2.3784981586,-1.0744246488\C,0,-2.1363223152,-1.3084792531,-0.04
 45127284\H,0,-2.8513241084,-0.7926872128,0.5912314985\\Version=ES64L-G
 16RevA.03\State=1-A\HF=-726.5713842\MP2=-729.0727011\RMSD=6.660e-09\PG
 =C01 [X(C15H15O2)]\\@


 GOORD'S AXIOM:  A MEETING IS AN EVENT AT WHICH
 THE MINUTES ARE KEPT AND THE HOURS ARE LOST.
 Job cpu time:       0 days  2 hours 56 minutes 19.9 seconds.
 Elapsed time:       0 days  0 hours 51 minutes  2.5 seconds.
 File lengths (MBytes):  RWF=  69152 Int=      0 D2E=      0 Chk=     23 Scr=      1
 Normal termination of Gaussian 16 at Mon Jul 12 14:43:58 2021.
