 Entering Gaussian System, Link 0=g16
 Input=SET_328_BBB212_conf1.geo_225_225_OCTANOL.dat
 Output=SET_328_BBB212_conf1.geo_225_225_OCTANOL.log
 Initial command:
 /dades/curu/g16A03_MST/g16/l1.exe "/tmp/ubator02/1835278/Gau-95598.inp" -scrdir="/tmp/ubator02/1835278/"
 Entering Link 1 = /dades/curu/g16A03_MST/g16/l1.exe PID=     95599.
  
 Copyright (c) 1988,1990,1992,1993,1995,1998,2003,2009,2016,
            Gaussian, Inc.  All Rights Reserved.
  
 This is part of the Gaussian(R) 16 program.  It is based on
 the Gaussian(R) 09 system (copyright 2009, Gaussian, Inc.),
 the Gaussian(R) 03 system (copyright 2003, Gaussian, Inc.),
 the Gaussian(R) 98 system (copyright 1998, Gaussian, Inc.),
 the Gaussian(R) 94 system (copyright 1995, Gaussian, Inc.),
 the Gaussian 92(TM) system (copyright 1992, Gaussian, Inc.),
 the Gaussian 90(TM) system (copyright 1990, Gaussian, Inc.),
 the Gaussian 88(TM) system (copyright 1988, Gaussian, Inc.),
 the Gaussian 86(TM) system (copyright 1986, Carnegie Mellon
 University), and the Gaussian 82(TM) system (copyright 1983,
 Carnegie Mellon University). Gaussian is a federally registered
 trademark of Gaussian, Inc.
  
 This software contains proprietary and confidential information,
 including trade secrets, belonging to Gaussian, Inc.
  
 This software is provided under written license and may be
 used, copied, transmitted, or stored only in accord with that
 written license.
  
 The following legend is applicable only to US Government
 contracts under FAR:
  
                    RESTRICTED RIGHTS LEGEND
  
 Use, reproduction and disclosure by the US Government is
 subject to restrictions as set forth in subparagraphs (a)
 and (c) of the Commercial Computer Software - Restricted
 Rights clause in FAR 52.227-19.
  
 Gaussian, Inc.
 340 Quinnipiac St., Bldg. 40, Wallingford CT 06492
  
  
 ---------------------------------------------------------------
 Warning -- This program may not be used in any manner that
 competes with the business of Gaussian, Inc. or will provide
 assistance to any competitor of Gaussian, Inc.  The licensee
 of this program is prohibited from giving any competitor of
 Gaussian, Inc. access to this program.  By using this program,
 the user acknowledges that Gaussian, Inc. is engaged in the
 business of creating and licensing software in the field of
 computational chemistry and represents and warrants to the
 licensee that it is not a competitor of Gaussian, Inc. and that
 it will not use this program in any manner prohibited above.
 ---------------------------------------------------------------
  

 Cite this work as:
 Gaussian 16, Revision A.03,
 M. J. Frisch, G. W. Trucks, H. B. Schlegel, G. E. Scuseria, 
 M. A. Robb, J. R. Cheeseman, G. Scalmani, V. Barone, 
 G. A. Petersson, H. Nakatsuji, X. Li, M. Caricato, A. V. Marenich, 
 J. Bloino, B. G. Janesko, R. Gomperts, B. Mennucci, H. P. Hratchian, 
 J. V. Ortiz, A. F. Izmaylov, J. L. Sonnenberg, D. Williams-Young, 
 F. Ding, F. Lipparini, F. Egidi, J. Goings, B. Peng, A. Petrone, 
 T. Henderson, D. Ranasinghe, V. G. Zakrzewski, J. Gao, N. Rega, 
 G. Zheng, W. Liang, M. Hada, M. Ehara, K. Toyota, R. Fukuda, 
 J. Hasegawa, M. Ishida, T. Nakajima, Y. Honda, O. Kitao, H. Nakai, 
 T. Vreven, K. Throssell, J. A. Montgomery, Jr., J. E. Peralta, 
 F. Ogliaro, M. J. Bearpark, J. J. Heyd, E. N. Brothers, K. N. Kudin, 
 V. N. Staroverov, T. A. Keith, R. Kobayashi, J. Normand, 
 K. Raghavachari, A. P. Rendell, J. C. Burant, S. S. Iyengar, 
 J. Tomasi, M. Cossi, J. M. Millam, M. Klene, C. Adamo, R. Cammi, 
 J. W. Ochterski, R. L. Martin, K. Morokuma, O. Farkas, 
 J. B. Foresman, and D. J. Fox, Gaussian, Inc., Wallingford CT, 2016.
 
 ******************************************
 Gaussian 16:  ES64L-G16RevA.03 25-Dec-2016
                12-Jul-2021 
 ******************************************
 %mem=800MB
 %nproc=4
 Will use up to    4 processors via shared memory.
 %chk=SET_328_BBB212_conf1.geo_225_225.chk
 ---------------------------------------------------------------
 #p b3lyp/6-31G(d) opt freq scrf=(iefpcm,read,solvent=n-octanol)
 ---------------------------------------------------------------
 1/18=20,19=15,26=3,38=1,40=2/1,3;
 2/9=110,12=2,17=6,18=5,40=1/2;
 3/5=1,6=6,7=1,11=2,25=1,30=1,70=2203,71=1,72=25,74=-5/1,2,3;
 4//1;
 5/5=2,38=5,53=25/2;
 6/7=2,8=2,9=2,10=2,28=1/1;
 7//1,2,3,16;
 1/18=20,19=15,26=3/3(2);
 2/9=110/2;
 99//99;
 2/9=110/2;
 3/5=1,6=6,7=1,11=2,25=1,30=1,70=2205,71=1,72=25,74=-5/1,2,3;
 4/5=5,16=3,69=1/1;
 5/5=2,38=5,53=25/2;
 7//1,2,3,16;
 1/18=20,19=15,26=3/3(-5);
 2/9=110/2;
 6/7=2,8=2,9=2,10=2,19=2,28=1/1;
 99/9=1/99;
 Leave Link    1 at Mon Jul 12 12:15:40 2021, MaxMem=   104857600 cpu:               0.0 elap:               0.0
 (Enter /dades/curu/g16A03_MST/g16/l101.exe)
 -----------------------------------------
 SET_328_BBB212_conf1.geo_225_225 geometry
 -----------------------------------------
 Symbolic Z-matrix:
 Charge = -1 Multiplicity = 1
 C                     1.578     1.584    -0.843 
 H                     1.834     2.435    -0.208 
 H                     1.593     2.03     -1.84 
 H                     2.36      0.835    -0.706 
 C                     0.247     1.004    -0.456 
 C                    -0.827     2.075    -0.727 
 H                    -1.136     2.071    -1.774 
 H                    -0.481     3.04     -0.349 
 H                    -1.748     1.743    -0.244 
 C                     0.359     0.602     1.005 
 C                    -0.198     1.436     1.966 
 C                    -0.004     1.184     3.306 
 C                     0.739     0.063     3.713 
 O                     0.84     -0.15      5.078 
 H                     0.788     0.738     5.476 
 C                     1.273    -0.853     2.767 
 C                     1.124    -0.475     1.4 
 H                     1.671    -1.13      0.727 
 H                     1.87     -1.672     3.16 
 H                    -0.494     1.835     4.026 
 H                    -0.774     2.347     1.823 
 C                    -0.176    -0.29     -1.228 
 C                     0.415    -0.65     -2.389 
 H                     1.162     0.029    -2.793 
 C                     0.093    -1.806    -3.161 
 H                     0.601    -2.11     -4.073 
 C                    -1.059    -2.491    -2.761 
 O                    -1.512    -3.463    -3.593 
 C                    -1.778    -2.048    -1.631 
 H                    -2.704    -2.596    -1.475 
 C                    -1.375    -0.954    -0.928 
 H                    -1.952    -0.578    -0.087 
 
 ITRead=  0  0  0  0  0  0  0  0  0  0  0  0  0  0  0  0  0  0  0  0
 ITRead=  0  0  0  0  0  0  0  0  0  0  0  0
 MicOpt= -1 -1 -1 -1 -1 -1 -1 -1 -1 -1 -1 -1 -1 -1 -1 -1 -1 -1 -1 -1
 MicOpt= -1 -1 -1 -1 -1 -1 -1 -1 -1 -1 -1 -1
 NAtoms=     32 NQM=       32 NQMF=       0 NMMI=      0 NMMIF=      0
                NMic=       0 NMicF=      0.
                    Isotopes and Nuclear Properties:
 (Nuclear quadrupole moments (NQMom) in fm**2, nuclear magnetic moments (NMagM)
  in nuclear magnetons)

  Atom         1           2           3           4           5           6           7           8           9          10
 IAtWgt=          12           1           1           1          12          12           1           1           1          12
 AtmWgt=  12.0000000   1.0078250   1.0078250   1.0078250  12.0000000  12.0000000   1.0078250   1.0078250   1.0078250  12.0000000
 NucSpn=           0           1           1           1           0           0           1           1           1           0
 AtZEff=  -0.0000000  -0.0000000  -0.0000000  -0.0000000  -0.0000000  -0.0000000  -0.0000000  -0.0000000  -0.0000000  -0.0000000
 NQMom=    0.0000000   0.0000000   0.0000000   0.0000000   0.0000000   0.0000000   0.0000000   0.0000000   0.0000000   0.0000000
 NMagM=    0.0000000   2.7928460   2.7928460   2.7928460   0.0000000   0.0000000   2.7928460   2.7928460   2.7928460   0.0000000
 AtZNuc=   6.0000000   1.0000000   1.0000000   1.0000000   6.0000000   6.0000000   1.0000000   1.0000000   1.0000000   6.0000000

  Atom        11          12          13          14          15          16          17          18          19          20
 IAtWgt=          12          12          12          16           1          12          12           1           1           1
 AtmWgt=  12.0000000  12.0000000  12.0000000  15.9949146   1.0078250  12.0000000  12.0000000   1.0078250   1.0078250   1.0078250
 NucSpn=           0           0           0           0           1           0           0           1           1           1
 AtZEff=  -0.0000000  -0.0000000  -0.0000000  -0.0000000  -0.0000000  -0.0000000  -0.0000000  -0.0000000  -0.0000000  -0.0000000
 NQMom=    0.0000000   0.0000000   0.0000000   0.0000000   0.0000000   0.0000000   0.0000000   0.0000000   0.0000000   0.0000000
 NMagM=    0.0000000   0.0000000   0.0000000   0.0000000   2.7928460   0.0000000   0.0000000   2.7928460   2.7928460   2.7928460
 AtZNuc=   6.0000000   6.0000000   6.0000000   8.0000000   1.0000000   6.0000000   6.0000000   1.0000000   1.0000000   1.0000000

  Atom        21          22          23          24          25          26          27          28          29          30
 IAtWgt=           1          12          12           1          12           1          12          16          12           1
 AtmWgt=   1.0078250  12.0000000  12.0000000   1.0078250  12.0000000   1.0078250  12.0000000  15.9949146  12.0000000   1.0078250
 NucSpn=           1           0           0           1           0           1           0           0           0           1
 AtZEff=  -0.0000000  -0.0000000  -0.0000000  -0.0000000  -0.0000000  -0.0000000  -0.0000000  -0.0000000  -0.0000000  -0.0000000
 NQMom=    0.0000000   0.0000000   0.0000000   0.0000000   0.0000000   0.0000000   0.0000000   0.0000000   0.0000000   0.0000000
 NMagM=    2.7928460   0.0000000   0.0000000   2.7928460   0.0000000   2.7928460   0.0000000   0.0000000   0.0000000   2.7928460
 AtZNuc=   1.0000000   6.0000000   6.0000000   1.0000000   6.0000000   1.0000000   6.0000000   8.0000000   6.0000000   1.0000000

  Atom        31          32
 IAtWgt=          12           1
 AtmWgt=  12.0000000   1.0078250
 NucSpn=           0           1
 AtZEff=  -0.0000000  -0.0000000
 NQMom=    0.0000000   0.0000000
 NMagM=    0.0000000   2.7928460
 AtZNuc=   6.0000000   1.0000000
 Leave Link  101 at Mon Jul 12 12:15:40 2021, MaxMem=   104857600 cpu:               0.1 elap:               0.1
 (Enter /dades/curu/g16A03_MST/g16/l103.exe)

 GradGradGradGradGradGradGradGradGradGradGradGradGradGradGradGradGradGrad
 Berny optimization.
 Initialization pass.
                           ----------------------------
                           !    Initial Parameters    !
                           ! (Angstroms and Degrees)  !
 --------------------------                            --------------------------
 ! Name  Definition              Value          Derivative Info.                !
 --------------------------------------------------------------------------------
 ! R1    R(1,2)                  1.0922         estimate D2E/DX2                !
 ! R2    R(1,3)                  1.0923         estimate D2E/DX2                !
 ! R3    R(1,4)                  1.0915         estimate D2E/DX2                !
 ! R4    R(1,5)                  1.5026         estimate D2E/DX2                !
 ! R5    R(5,6)                  1.5408         estimate D2E/DX2                !
 ! R6    R(5,10)                 1.5194         estimate D2E/DX2                !
 ! R7    R(5,22)                 1.565          estimate D2E/DX2                !
 ! R8    R(6,7)                  1.0917         estimate D2E/DX2                !
 ! R9    R(6,8)                  1.0926         estimate D2E/DX2                !
 ! R10   R(6,9)                  1.0917         estimate D2E/DX2                !
 ! R11   R(10,11)                1.389          estimate D2E/DX2                !
 ! R12   R(10,17)                1.3788         estimate D2E/DX2                !
 ! R13   R(11,12)                1.3772         estimate D2E/DX2                !
 ! R14   R(11,21)                1.0873         estimate D2E/DX2                !
 ! R15   R(12,13)                1.4051         estimate D2E/DX2                !
 ! R16   R(12,20)                1.0873         estimate D2E/DX2                !
 ! R17   R(13,14)                1.3852         estimate D2E/DX2                !
 ! R18   R(13,16)                1.421          estimate D2E/DX2                !
 ! R19   R(14,15)                0.9745         estimate D2E/DX2                !
 ! R20   R(16,17)                1.4261         estimate D2E/DX2                !
 ! R21   R(16,19)                1.087          estimate D2E/DX2                !
 ! R22   R(17,18)                1.0868         estimate D2E/DX2                !
 ! R23   R(22,23)                1.3516         estimate D2E/DX2                !
 ! R24   R(22,31)                1.403          estimate D2E/DX2                !
 ! R25   R(23,24)                1.0873         estimate D2E/DX2                !
 ! R26   R(23,25)                1.4269         estimate D2E/DX2                !
 ! R27   R(25,26)                1.0873         estimate D2E/DX2                !
 ! R28   R(25,27)                1.3987         estimate D2E/DX2                !
 ! R29   R(27,28)                1.3573         estimate D2E/DX2                !
 ! R30   R(27,29)                1.4107         estimate D2E/DX2                !
 ! R31   R(29,30)                1.0873         estimate D2E/DX2                !
 ! R32   R(29,31)                1.3614         estimate D2E/DX2                !
 ! R33   R(31,32)                1.087          estimate D2E/DX2                !
 ! A1    A(2,1,3)              102.0815         estimate D2E/DX2                !
 ! A2    A(2,1,4)              107.0838         estimate D2E/DX2                !
 ! A3    A(2,1,5)              111.0162         estimate D2E/DX2                !
 ! A4    A(3,1,4)              112.6389         estimate D2E/DX2                !
 ! A5    A(3,1,5)              113.8821         estimate D2E/DX2                !
 ! A6    A(4,1,5)              109.721          estimate D2E/DX2                !
 ! A7    A(1,5,6)              107.6887         estimate D2E/DX2                !
 ! A8    A(1,5,10)             106.5281         estimate D2E/DX2                !
 ! A9    A(1,5,22)             115.5644         estimate D2E/DX2                !
 ! A10   A(6,5,10)             113.8542         estimate D2E/DX2                !
 ! A11   A(6,5,22)             107.4315         estimate D2E/DX2                !
 ! A12   A(10,5,22)            105.9905         estimate D2E/DX2                !
 ! A13   A(5,6,7)              111.3123         estimate D2E/DX2                !
 ! A14   A(5,6,8)              109.4104         estimate D2E/DX2                !
 ! A15   A(5,6,9)              107.3892         estimate D2E/DX2                !
 ! A16   A(7,6,8)              115.1302         estimate D2E/DX2                !
 ! A17   A(7,6,9)              100.6276         estimate D2E/DX2                !
 ! A18   A(8,6,9)              112.5006         estimate D2E/DX2                !
 ! A19   A(5,10,11)            118.4793         estimate D2E/DX2                !
 ! A20   A(5,10,17)            121.5344         estimate D2E/DX2                !
 ! A21   A(11,10,17)           119.5563         estimate D2E/DX2                !
 ! A22   A(10,11,12)           120.4517         estimate D2E/DX2                !
 ! A23   A(10,11,21)           128.6482         estimate D2E/DX2                !
 ! A24   A(12,11,21)           110.849          estimate D2E/DX2                !
 ! A25   A(11,12,13)           120.1519         estimate D2E/DX2                !
 ! A26   A(11,12,20)           118.115          estimate D2E/DX2                !
 ! A27   A(13,12,20)           121.6106         estimate D2E/DX2                !
 ! A28   A(12,13,14)           116.5298         estimate D2E/DX2                !
 ! A29   A(12,13,16)           121.3437         estimate D2E/DX2                !
 ! A30   A(14,13,16)           121.9724         estimate D2E/DX2                !
 ! A31   A(13,14,15)           104.978          estimate D2E/DX2                !
 ! A32   A(13,16,17)           115.3423         estimate D2E/DX2                !
 ! A33   A(13,16,19)           116.8329         estimate D2E/DX2                !
 ! A34   A(17,16,19)           127.131          estimate D2E/DX2                !
 ! A35   A(10,17,16)           122.6567         estimate D2E/DX2                !
 ! A36   A(10,17,18)           124.9315         estimate D2E/DX2                !
 ! A37   A(16,17,18)           112.4109         estimate D2E/DX2                !
 ! A38   A(5,22,23)            121.7195         estimate D2E/DX2                !
 ! A39   A(5,22,31)            121.118          estimate D2E/DX2                !
 ! A40   A(23,22,31)           115.5495         estimate D2E/DX2                !
 ! A41   A(22,23,24)           116.9514         estimate D2E/DX2                !
 ! A42   A(22,23,25)           125.5812         estimate D2E/DX2                !
 ! A43   A(24,23,25)           117.3824         estimate D2E/DX2                !
 ! A44   A(23,25,26)           125.0917         estimate D2E/DX2                !
 ! A45   A(23,25,27)           115.3348         estimate D2E/DX2                !
 ! A46   A(26,25,27)           119.1931         estimate D2E/DX2                !
 ! A47   A(25,27,28)           116.7636         estimate D2E/DX2                !
 ! A48   A(25,27,29)           119.6739         estimate D2E/DX2                !
 ! A49   A(28,27,29)           123.0789         estimate D2E/DX2                !
 ! A50   A(27,29,30)           113.0003         estimate D2E/DX2                !
 ! A51   A(27,29,31)           121.0038         estimate D2E/DX2                !
 ! A52   A(30,29,31)           125.6649         estimate D2E/DX2                !
 ! A53   A(22,31,29)           121.524          estimate D2E/DX2                !
 ! A54   A(22,31,32)           117.0875         estimate D2E/DX2                !
 ! A55   A(29,31,32)           121.3551         estimate D2E/DX2                !
 ! D1    D(2,1,5,6)             64.3537         estimate D2E/DX2                !
 ! D2    D(2,1,5,10)           -58.1541         estimate D2E/DX2                !
 ! D3    D(2,1,5,22)          -175.5726         estimate D2E/DX2                !
 ! D4    D(3,1,5,6)            -50.1857         estimate D2E/DX2                !
 ! D5    D(3,1,5,10)          -172.6935         estimate D2E/DX2                !
 ! D6    D(3,1,5,22)            69.888          estimate D2E/DX2                !
 ! D7    D(4,1,5,6)           -177.4801         estimate D2E/DX2                !
 ! D8    D(4,1,5,10)            60.0121         estimate D2E/DX2                !
 ! D9    D(4,1,5,22)           -57.4064         estimate D2E/DX2                !
 ! D10   D(1,5,6,7)             83.1861         estimate D2E/DX2                !
 ! D11   D(1,5,6,8)            -45.1877         estimate D2E/DX2                !
 ! D12   D(1,5,6,9)           -167.5681         estimate D2E/DX2                !
 ! D13   D(10,5,6,7)          -158.9408         estimate D2E/DX2                !
 ! D14   D(10,5,6,8)            72.6854         estimate D2E/DX2                !
 ! D15   D(10,5,6,9)           -49.695          estimate D2E/DX2                !
 ! D16   D(22,5,6,7)           -41.9051         estimate D2E/DX2                !
 ! D17   D(22,5,6,8)          -170.2788         estimate D2E/DX2                !
 ! D18   D(22,5,6,9)            67.3408         estimate D2E/DX2                !
 ! D19   D(1,5,10,11)          101.3604         estimate D2E/DX2                !
 ! D20   D(1,5,10,17)          -71.0787         estimate D2E/DX2                !
 ! D21   D(6,5,10,11)          -17.1788         estimate D2E/DX2                !
 ! D22   D(6,5,10,17)          170.3821         estimate D2E/DX2                !
 ! D23   D(22,5,10,11)        -135.0473         estimate D2E/DX2                !
 ! D24   D(22,5,10,17)          52.5136         estimate D2E/DX2                !
 ! D25   D(1,5,22,23)          -17.3013         estimate D2E/DX2                !
 ! D26   D(1,5,22,31)          177.8234         estimate D2E/DX2                !
 ! D27   D(6,5,22,23)          102.9126         estimate D2E/DX2                !
 ! D28   D(6,5,22,31)          -61.9627         estimate D2E/DX2                !
 ! D29   D(10,5,22,23)        -135.0201         estimate D2E/DX2                !
 ! D30   D(10,5,22,31)          60.1047         estimate D2E/DX2                !
 ! D31   D(5,10,11,12)        -173.3772         estimate D2E/DX2                !
 ! D32   D(5,10,11,21)           3.7717         estimate D2E/DX2                !
 ! D33   D(17,10,11,12)         -0.7847         estimate D2E/DX2                !
 ! D34   D(17,10,11,21)        176.3642         estimate D2E/DX2                !
 ! D35   D(5,10,17,16)         178.382          estimate D2E/DX2                !
 ! D36   D(5,10,17,18)          -1.9823         estimate D2E/DX2                !
 ! D37   D(11,10,17,16)          6.0226         estimate D2E/DX2                !
 ! D38   D(11,10,17,18)       -174.3418         estimate D2E/DX2                !
 ! D39   D(10,11,12,13)         -1.2619         estimate D2E/DX2                !
 ! D40   D(10,11,12,20)       -177.3023         estimate D2E/DX2                !
 ! D41   D(21,11,12,13)       -178.8795         estimate D2E/DX2                !
 ! D42   D(21,11,12,20)          5.0802         estimate D2E/DX2                !
 ! D43   D(11,12,13,14)       -177.3698         estimate D2E/DX2                !
 ! D44   D(11,12,13,16)         -1.7971         estimate D2E/DX2                !
 ! D45   D(20,12,13,14)         -1.4709         estimate D2E/DX2                !
 ! D46   D(20,12,13,16)        174.1018         estimate D2E/DX2                !
 ! D47   D(12,13,14,15)        -29.4882         estimate D2E/DX2                !
 ! D48   D(16,13,14,15)        154.9692         estimate D2E/DX2                !
 ! D49   D(12,13,16,17)          6.4355         estimate D2E/DX2                !
 ! D50   D(12,13,16,19)        177.5816         estimate D2E/DX2                !
 ! D51   D(14,13,16,17)       -178.2345         estimate D2E/DX2                !
 ! D52   D(14,13,16,19)         -7.0884         estimate D2E/DX2                !
 ! D53   D(13,16,17,10)         -8.6375         estimate D2E/DX2                !
 ! D54   D(13,16,17,18)        171.6856         estimate D2E/DX2                !
 ! D55   D(19,16,17,10)       -178.7177         estimate D2E/DX2                !
 ! D56   D(19,16,17,18)          1.6054         estimate D2E/DX2                !
 ! D57   D(5,22,23,24)          -3.2575         estimate D2E/DX2                !
 ! D58   D(5,22,23,25)        -179.806          estimate D2E/DX2                !
 ! D59   D(31,22,23,24)        162.4078         estimate D2E/DX2                !
 ! D60   D(31,22,23,25)        -14.1408         estimate D2E/DX2                !
 ! D61   D(5,22,31,29)         177.2461         estimate D2E/DX2                !
 ! D62   D(5,22,31,32)          -4.827          estimate D2E/DX2                !
 ! D63   D(23,22,31,29)         11.4872         estimate D2E/DX2                !
 ! D64   D(23,22,31,32)       -170.5859         estimate D2E/DX2                !
 ! D65   D(22,23,25,26)       -177.3644         estimate D2E/DX2                !
 ! D66   D(22,23,25,27)          9.8058         estimate D2E/DX2                !
 ! D67   D(24,23,25,26)          6.1004         estimate D2E/DX2                !
 ! D68   D(24,23,25,27)       -166.7294         estimate D2E/DX2                !
 ! D69   D(23,25,27,28)        169.8866         estimate D2E/DX2                !
 ! D70   D(23,25,27,29)         -2.3813         estimate D2E/DX2                !
 ! D71   D(26,25,27,28)         -3.395          estimate D2E/DX2                !
 ! D72   D(26,25,27,29)       -175.663          estimate D2E/DX2                !
 ! D73   D(25,27,29,30)        174.359          estimate D2E/DX2                !
 ! D74   D(25,27,29,31)          0.6053         estimate D2E/DX2                !
 ! D75   D(28,27,29,30)          2.6015         estimate D2E/DX2                !
 ! D76   D(28,27,29,31)       -171.1522         estimate D2E/DX2                !
 ! D77   D(27,29,31,22)         -5.2833         estimate D2E/DX2                !
 ! D78   D(27,29,31,32)        176.8781         estimate D2E/DX2                !
 ! D79   D(30,29,31,22)       -178.2022         estimate D2E/DX2                !
 ! D80   D(30,29,31,32)          3.9591         estimate D2E/DX2                !
 --------------------------------------------------------------------------------
 Trust Radius=3.00D-01 FncErr=1.00D-07 GrdErr=1.00D-06 EigMax=2.50D+02 EigMin=1.00D-04
 Number of steps in this run=    178 maximum allowed number of steps=    192.
 GradGradGradGradGradGradGradGradGradGradGradGradGradGradGradGradGradGrad

 Leave Link  103 at Mon Jul 12 12:15:40 2021, MaxMem=   104857600 cpu:               0.0 elap:               0.0
 (Enter /dades/curu/g16A03_MST/g16/l202.exe)
                          Input orientation:                          
 ---------------------------------------------------------------------
 Center     Atomic      Atomic             Coordinates (Angstroms)
 Number     Number       Type             X           Y           Z
 ---------------------------------------------------------------------
      1          6           0        1.578000    1.584000   -0.843000
      2          1           0        1.834000    2.435000   -0.208000
      3          1           0        1.593000    2.030000   -1.840000
      4          1           0        2.360000    0.835000   -0.706000
      5          6           0        0.247000    1.004000   -0.456000
      6          6           0       -0.827000    2.075000   -0.727000
      7          1           0       -1.136000    2.071000   -1.774000
      8          1           0       -0.481000    3.040000   -0.349000
      9          1           0       -1.748000    1.743000   -0.244000
     10          6           0        0.359000    0.602000    1.005000
     11          6           0       -0.198000    1.436000    1.966000
     12          6           0       -0.004000    1.184000    3.306000
     13          6           0        0.739000    0.063000    3.713000
     14          8           0        0.840000   -0.150000    5.078000
     15          1           0        0.788000    0.738000    5.476000
     16          6           0        1.273000   -0.853000    2.767000
     17          6           0        1.124000   -0.475000    1.400000
     18          1           0        1.671000   -1.130000    0.727000
     19          1           0        1.870000   -1.672000    3.160000
     20          1           0       -0.494000    1.835000    4.026000
     21          1           0       -0.774000    2.347000    1.823000
     22          6           0       -0.176000   -0.290000   -1.228000
     23          6           0        0.415000   -0.650000   -2.389000
     24          1           0        1.162000    0.029000   -2.793000
     25          6           0        0.093000   -1.806000   -3.161000
     26          1           0        0.601000   -2.110000   -4.073000
     27          6           0       -1.059000   -2.491000   -2.761000
     28          8           0       -1.512000   -3.463000   -3.593000
     29          6           0       -1.778000   -2.048000   -1.631000
     30          1           0       -2.704000   -2.596000   -1.475000
     31          6           0       -1.375000   -0.954000   -0.928000
     32          1           0       -1.952000   -0.578000   -0.087000
 ---------------------------------------------------------------------
                    Distance matrix (angstroms):
                    1          2          3          4          5
     1  C    0.000000
     2  H    1.092228   0.000000
     3  H    1.092314   1.698685   0.000000
     4  H    1.091464   1.756326   1.817215   0.000000
     5  C    1.502574   2.151240   2.186286   2.134439   0.000000
     6  C    2.457349   2.734937   2.664056   3.419797   1.540765
     7  H    2.910279   3.377240   2.730106   3.858800   2.188219
     8  H    2.569718   2.396900   2.746754   3.613967   2.164885
     9  H    3.383247   3.648408   3.713740   4.232443   2.138011
    10  C    2.421857   2.647052   3.414083   2.643068   1.519430
    11  C    3.326644   3.138997   4.248076   3.747552   2.500147
    12  C    4.458355   4.158298   5.454121   4.669737   3.774658
    13  C    4.875910   4.711650   5.952664   4.769820   4.302105
    14  O    6.213666   5.967584   7.292334   6.060964   5.684058
    15  H    6.424140   6.023436   7.472693   6.379476   5.962555
    16  C    4.366245   4.469484   5.444129   4.011564   3.858608
    17  C    3.078416   3.399686   4.122206   2.771107   2.530080
    18  H    3.136773   3.689176   4.071999   2.527733   2.825105
    19  H    5.168250   5.311513   6.227482   4.633692   4.782318
    20  H    5.297485   4.868916   6.229250   5.615794   4.618221
    21  H    3.636156   3.306716   4.372728   4.301621   2.835477
    22  C    2.595499   3.536400   2.980991   2.823013   1.565040
    23  C    2.955240   4.035783   2.978504   2.969973   2.549594
    24  H    2.528553   3.594808   2.257869   2.537796   2.692475
    25  C    4.366973   5.453198   4.325498   4.259248   3.903440
    26  H    5.003305   6.092252   4.807281   4.806641   4.785917
    27  C    5.219015   6.257215   5.321728   5.193733   4.385623
    28  O    6.525550   7.578941   6.548823   6.465289   5.734888
    29  C    5.007505   5.930326   5.295036   5.127412   3.846551
    30  H    6.017254   6.892728   6.324343   6.164999   4.765161
    31  C    3.894724   4.722436   4.306393   4.147292   2.586007
    32  H    4.207931   4.840104   4.737267   4.579637   2.733951
                    6          7          8          9         10
     6  C    0.000000
     7  H    1.091653   0.000000
     8  H    1.092623   1.843532   0.000000
     9  H    1.091675   1.680187   1.816184   0.000000
    10  C    2.564400   3.480780   2.912518   2.702098   0.000000
    11  C    2.838347   3.907770   2.830571   2.716772   1.389002
    12  C    4.211449   5.279639   4.126898   3.994561   2.401061
    13  C    5.119971   6.136355   5.181773   4.966429   2.787146
    14  O    6.436423   7.469091   6.432221   6.213282   4.169676
    15  H    6.547748   7.618475   6.390633   6.337170   4.493593
    16  C    5.019086   5.913860   5.285965   4.993173   2.461111
    17  C    3.851367   4.654459   4.241492   3.983798   1.378832
    18  H    4.315802   4.937677   4.814331   4.570178   2.190537
    19  H    6.035113   6.884072   6.327972   6.028214   3.478250
    20  H    4.770692   5.840193   4.537931   4.451278   3.372586
    21  H    2.565013   3.625690   2.298626   2.363468   2.235584
    22  C    2.503603   2.606537   3.457538   2.751823   2.463367
    23  C    3.424972   3.191812   4.310512   3.873763   3.617993
    24  H    3.522867   3.238662   4.211734   4.231229   3.924021
    25  C    4.672571   4.297131   5.632099   4.949098   4.819209
    26  H    5.545189   5.077729   6.446813   5.918163   5.761909
    27  C    5.003932   4.668184   6.061666   4.973607   5.075444
    28  O    6.273167   5.837405   7.339994   6.194670   6.416110
    29  C    4.326748   4.171184   5.404949   4.036874   4.305550
    30  H    5.089290   4.932435   6.162313   4.610447   5.075389
    31  C    3.084728   3.150153   4.133584   2.807275   3.027273
    32  H    2.951887   3.244846   3.914385   2.335231   2.815242
                   11         12         13         14         15
    11  C    0.000000
    12  C    1.377222   0.000000
    13  C    2.411453   1.405112   0.000000
    14  O    3.643814   2.373157   1.385206   0.000000
    15  H    3.712075   2.352675   1.888437   0.974501   0.000000
    16  C    2.836364   2.463863   1.420960   2.454062   3.178866
    17  C    2.391644   2.767219   2.405751   3.703237   4.265916
    18  H    3.407732   3.848566   3.347845   4.536757   5.179007
    19  H    3.919429   3.419054   2.143641   2.656334   3.513215
    20  H    2.119060   1.087337   2.181339   2.612754   2.224732
    21  H    1.087265   2.035868   3.328352   4.408518   4.286389
    22  C    3.630592   4.770683   5.037392   6.388857   6.850525
    23  C    4.867565   5.997678   6.152052   7.495780   7.995242
    24  H    5.145613   6.315962   6.519825   7.879617   8.307763
    25  C    6.073004   7.125419   7.152786   8.436911   9.030655
    26  H    7.048549   8.103462   8.084724   9.361598   9.966417
    27  C    6.205415   7.171272   7.188073   8.398595   9.038032
    28  O    7.525243   8.453690   8.418866   9.575704  10.255982
    29  C    5.251006   6.161726   6.272954   7.447618   8.053298
    30  H    5.863236   6.666060   6.770515   7.841216   8.463216
    31  C    3.933531   4.937352   5.200208   6.451719   6.967973
    32  H    3.368608   4.290897   4.700251   5.886907   6.339276
                   16         17         18         19         20
    16  C    0.000000
    17  C    1.426104   0.000000
    18  H    2.096839   1.086813   0.000000
    19  H    1.087023   2.255421   2.500571   0.000000
    20  H    3.454376   3.853557   4.935773   4.317117   0.000000
    21  H    3.914249   3.427100   4.389621   4.993062   2.278981
    22  C    4.286793   2.937790   2.817629   5.034936   5.676378
    23  C    5.230842   3.858734   3.393728   5.826913   6.939289
    24  H    5.630617   4.223353   3.740690   6.231603   7.245877
    25  C    6.118970   4.861815   4.250130   6.567399   8.078021
    26  H    6.986933   5.735894   5.014509   7.356527   9.075012
    27  C    6.219329   5.113088   4.633720   6.656429   8.068263
    28  O    7.417407   6.388011   5.851220   7.761998   9.335646
    29  C    5.484435   4.481394   4.277673   6.033487   6.980544
    30  H    6.070349   5.236206   5.112591   6.577118   7.401274
    31  C    4.546991   3.448772   3.471040   5.268519   5.752982
    32  H    4.315271   3.418121   3.754122   5.132984   4.986492
                   21         22         23         24         25
    21  H    0.000000
    22  C    4.076760   0.000000
    23  C    5.304401   1.351592   0.000000
    24  H    5.516219   2.083562   1.087321   0.000000
    25  C    6.545178   2.471256   1.426886   2.155321   0.000000
    26  H    7.517865   3.465567   2.236527   2.555082   1.087301
    27  C    6.670871   2.823859   2.387539   3.359206   1.398688
    28  O    7.977080   4.176847   3.616063   4.470385   2.346976
    29  C    5.679274   2.412338   2.708914   3.782562   2.429013
    30  H    6.247796   3.430660   3.788202   4.855276   3.360045
    31  C    4.338871   1.403031   2.330459   3.298618   2.804856
    32  H    3.686653   2.130493   3.302586   4.169878   3.890949
                   26         27         28         29         30
    26  H    0.000000
    27  C    2.149908   0.000000
    28  O    2.554560   1.357283   0.000000
    29  C    3.409817   1.410713   2.433603   0.000000
    30  H    4.231882   2.090657   2.580402   1.087252   0.000000
    31  C    3.889979   2.412906   3.662796   1.361416   2.182112
    32  H    4.975242   3.406948   4.561673   2.138951   2.562103
                   31         32
    31  C    0.000000
    32  H    1.087008   0.000000
 Stoichiometry    C15H15O2(1-)
 Framework group  C1[X(C15H15O2)]
 Deg. of freedom    90
 Full point group                 C1      NOp   1
 Largest Abelian subgroup         C1      NOp   1
 Largest concise Abelian subgroup C1      NOp   1
                         Standard orientation:                         
 ---------------------------------------------------------------------
 Center     Atomic      Atomic             Coordinates (Angstroms)
 Number     Number       Type             X           Y           Z
 ---------------------------------------------------------------------
      1          6           0       -0.123237    2.276631    1.248649
      2          1           0       -1.058440    2.839766    1.213487
      3          1           0        0.621581    3.073643    1.304918
      4          1           0       -0.151747    1.663752    2.151346
      5          6           0        0.020148    1.394177    0.040988
      6          6           0        0.119595    2.306715   -1.196487
      7          1           0        1.140101    2.665127   -1.344182
      8          1           0       -0.641989    3.087675   -1.133903
      9          1           0       -0.001482    1.674815   -2.078414
     10          6           0       -1.189766    0.475113    0.031095
     11          6           0       -2.238642    0.770200   -0.830362
     12          6           0       -3.409635    0.047190   -0.777704
     13          6           0       -3.543041   -1.014848    0.132580
     14          8           0       -4.730403   -1.726560    0.083260
     15          1           0       -5.396328   -1.084529   -0.223319
     16          6           0       -2.473682   -1.393745    0.988171
     17          6           0       -1.332668   -0.538922    0.954399
     18          1           0       -0.607038   -0.785797    1.724903
     19          1           0       -2.669881   -2.198750    1.691799
     20          1           0       -4.188965    0.280820   -1.499066
     21          1           0       -2.306980    1.564113   -1.570077
     22          6           0        1.273533    0.456983    0.034345
     23          6           0        2.328523    0.675453    0.850475
     24          1           0        2.292354    1.564527    1.475379
     25          6           0        3.510948   -0.120986    0.910148
     26          1           0        4.337698    0.038116    1.598185
     27          6           0        3.640902   -1.076255   -0.103214
     28          8           0        4.841002   -1.702426   -0.202642
     29          6           0        2.612438   -1.226982   -1.056971
     30          1           0        2.866466   -1.927718   -1.848524
     31          6           0        1.497163   -0.447343   -1.014788
     32          1           0        0.724391   -0.523957   -1.775407
 ---------------------------------------------------------------------
 Rotational constants (GHZ):           0.9238515           0.2593482           0.2316408
 Leave Link  202 at Mon Jul 12 12:15:40 2021, MaxMem=   104857600 cpu:               0.0 elap:               0.0
 (Enter /dades/curu/g16A03_MST/g16/l301.exe)
 Standard basis: 6-31G(d) (6D, 7F)
 Ernie: Thresh=  0.10000D-02 Tol=  0.10000D-05 Strict=F.
 There are   285 symmetry adapted cartesian basis functions of A   symmetry.
 There are   285 symmetry adapted basis functions of A   symmetry.
   285 basis functions,   536 primitive gaussians,   285 cartesian basis functions
    61 alpha electrons       61 beta electrons
       nuclear repulsion energy      1134.6319324512 Hartrees.
 IExCor=  402 DFT=T Ex+Corr=B3LYP ExCW=0 ScaHFX=  0.200000
 ScaDFX=  0.800000  0.720000  1.000000  0.810000 ScalE2=  1.000000  1.000000
 IRadAn=      5 IRanWt=     -1 IRanGd=            0 ICorTp=0 IEmpDi=  4
 NAtoms=   32 NActive=   32 NUniq=   32 SFac= 1.00D+00 NAtFMM=   60 NAOKFM=F Big=F
 Integral buffers will be    131072 words long.
 Raffenetti 2 integral format.
 Two-electron integral symmetry is turned on.
 Using the following non-standard input for PCM:
 MSTModel=DFT cav MSTCharged
 --- end of non-standard input.
 MST model for solvation energy: B3LYP parametrization.
 MST cavity parameters:
 ISph   IAn     Re0     Alpha   Atom Type   QCorr
 ------------------------------------------------
   1      6     1.50     1.50      CH3        F
   2      1     1.20     1.50      CH3        F
   3      1     1.20     1.50      CH3        F
   4      1     1.20     1.50      CH3        F
   5      6     1.50     1.50      C          F
   6      6     1.50     1.50      CH3        F
   7      1     1.20     1.50      CH3        F
   8      1     1.20     1.50      CH3        F
   9      1     1.20     1.50      CH3        F
  10      6     1.50     1.50      C          F
  11      6     1.50     1.50      CH         F
  12      6     1.50     1.50      CH         F
  13      6     1.50     1.50      C          F
  14      8     1.40     1.50      OH         F
  15      1     0.90     1.50      OH         F
  16      6     1.50     1.50      CH         F
  17      6     1.50     1.50      CH         F
  18      1     1.20     1.50      CH         F
  19      1     1.20     1.50      CH         F
  20      1     1.20     1.50      CH         F
  21      1     1.20     1.50      CH         F
  22      6     1.50     1.50      C          F
  23      6     1.50     1.50      CH         F
  24      1     1.20     1.50      CH         F
  25      6     1.50     1.50      CH         F
  26      1     1.20     1.50      CH         F
  27      6     1.50     1.50      C          F
  28      8     1.40     1.15      O          T
  29      6     1.50     1.50      CH         F
  30      1     1.20     1.50      CH         F
  31      6     1.50     1.50      CH         F
  32      1     1.20     1.50      CH         F
 ------------------------------------------------------------------------------
 Polarizable Continuum Model (PCM)
 =================================
 Model                : PCM.
 Atomic radii         : MST.
 Polarization charges : Total charges.
 Charge compensation  : None.
 Solution method      : On-the-fly selection.
 Cavity type          : Scaled VdW (van der Waals Surface) (Alpha=1.500).
 Cavity algorithm     : GePol (No added spheres)
                        Default sphere list used, NSphG=   32.
                        Lebedev-Laikov grids with approx.  5.0 points / Ang**2.
                        Smoothing algorithm: York/Karplus (Gamma=1.0000).
                        Polarization charges: spherical gaussians, with
                                              point-specific exponents (IZeta= 3).
                        Self-potential: point-specific (ISelfS= 7).
                        Self-field    : sphere-specific E.n sum rule (ISelfD= 2).
 1st derivatives      : Analytical E(r).r(x)/FMM algorithm (CHGder, D1EAlg=3).
                        Cavity 1st derivative terms included.
 Solvent              : n-Octanol, Eps=   9.862900 Eps(inf)=   2.043470
 ------------------------------------------------------------------------------
 GePol: Number of generator spheres                  =      32
 GePol: Total number of spheres                      =      32
 GePol: Number of exposed spheres                    =      31 ( 96.88%)
 GePol: Number of points                             =    2917
 GePol: Average weight of points                     =       0.11
 GePol: Minimum weight of points                     =   0.13D-11
 GePol: Maximum weight of points                     =    0.20790
 GePol: Number of points with low weight             =     189
 GePol: Fraction of low-weight points (<1% of avg)   =       6.48%
 GePol: Cavity surface area                          =    320.808 Ang**2
 GePol: Cavity volume                                =    376.144 Ang**3
 Surface areas from nonelectrostatic (unscaled) cavity and vdw tensions:
 Sphere =    1 Type =  CH3 Surf =        4.045 Tension =       -0.183
 Sphere =    2 Type =  CH3 Surf =        9.944 Tension =       -0.183
 Sphere =    3 Type =  CH3 Surf =        9.706 Tension =       -0.183
 Sphere =    4 Type =  CH3 Surf =       10.017 Tension =       -0.183
 Sphere =    5 Type =  C   Surf =        1.776 Tension =       -0.205
 Sphere =    6 Type =  CH3 Surf =        4.291 Tension =       -0.183
 Sphere =    7 Type =  CH3 Surf =       10.020 Tension =       -0.183
 Sphere =    8 Type =  CH3 Surf =        9.674 Tension =       -0.183
 Sphere =    9 Type =  CH3 Surf =        9.473 Tension =       -0.183
 Sphere =   10 Type =  C   Surf =        5.415 Tension =       -0.205
 Sphere =   11 Type =  CH  Surf =        7.342 Tension =       -0.195
 Sphere =   12 Type =  CH  Surf =        7.592 Tension =       -0.195
 Sphere =   13 Type =  C   Surf =        6.847 Tension =       -0.205
 Sphere =   14 Type =  OH  Surf =       14.549 Tension =       -0.238
 Sphere =   15 Type =  OH  Surf =        4.401 Tension =       -0.238
 Sphere =   16 Type =  CH  Surf =        8.105 Tension =       -0.195
 Sphere =   17 Type =  CH  Surf =        7.670 Tension =       -0.195
 Sphere =   18 Type =  CH  Surf =       10.199 Tension =       -0.195
 Sphere =   19 Type =  CH  Surf =       10.252 Tension =       -0.195
 Sphere =   20 Type =  CH  Surf =       10.190 Tension =       -0.195
 Sphere =   21 Type =  CH  Surf =        9.253 Tension =       -0.195
 Sphere =   22 Type =  C   Surf =        5.605 Tension =       -0.205
 Sphere =   23 Type =  CH  Surf =        7.451 Tension =       -0.195
 Sphere =   24 Type =  CH  Surf =        9.148 Tension =       -0.195
 Sphere =   25 Type =  CH  Surf =        7.983 Tension =       -0.195
 Sphere =   26 Type =  CH  Surf =       10.256 Tension =       -0.195
 Sphere =   27 Type =  C   Surf =        6.764 Tension =       -0.205
 Sphere =   28 Type =  O   Surf =       17.064 Tension =       -0.185
 Sphere =   29 Type =  CH  Surf =        7.722 Tension =       -0.195
 Sphere =   30 Type =  CH  Surf =       10.186 Tension =       -0.195
 Sphere =   31 Type =  CH  Surf =        7.585 Tension =       -0.195
 Sphere =   32 Type =  CH  Surf =        9.980 Tension =       -0.195
 PCM non-electrostatic energy =        -0.0136277776 Hartrees.
 Nuclear repulsion after PCM non-electrostatic terms =     1134.6183046735 Hartrees.
 Leave Link  301 at Mon Jul 12 12:15:40 2021, MaxMem=   104857600 cpu:               0.1 elap:               0.1
 (Enter /dades/curu/g16A03_MST/g16/l302.exe)
 NPDir=0 NMtPBC=     1 NCelOv=     1 NCel=       1 NClECP=     1 NCelD=      1
         NCelK=      1 NCelE2=     1 NClLst=     1 CellRange=     0.0.
 One-electron integrals computed using PRISM.
 One-electron integral symmetry used in STVInt
 NBasis=   285 RedAO= T EigKep=  5.04D-04  NBF=   285
 NBsUse=   285 1.00D-06 EigRej= -1.00D+00 NBFU=   285
 Precomputing XC quadrature grid using
 IXCGrd= 4 IRadAn=           5 IRanWt=          -1 IRanGd=           0 AccXCQ= 0.00D+00.
 Generated NRdTot=       0 NPtTot=           0 NUsed=           0 NTot=          32
 NSgBfM=   283   283   283   283   283 MxSgAt=    32 MxSgA2=    32.
 Leave Link  302 at Mon Jul 12 12:15:41 2021, MaxMem=   104857600 cpu:               3.6 elap:               1.0
 (Enter /dades/curu/g16A03_MST/g16/l303.exe)
 DipDrv:  MaxL=1.
 Leave Link  303 at Mon Jul 12 12:15:41 2021, MaxMem=   104857600 cpu:               0.1 elap:               0.0
 (Enter /dades/curu/g16A03_MST/g16/l401.exe)
 ExpMin= 1.61D-01 ExpMax= 5.48D+03 ExpMxC= 8.25D+02 IAcc=3 IRadAn=         5 AccDes= 0.00D+00
 Harris functional with IExCor=  402 and IRadAn=       5 diagonalized for initial guess.
 HarFok:  IExCor=  402 AccDes= 0.00D+00 IRadAn=         5 IDoV= 1 UseB2=F ITyADJ=14
 ICtDFT=  3500011 ScaDFX=  1.000000  1.000000  1.000000  1.000000
 FoFCou: FMM=F IPFlag=           0 FMFlag=      100000 FMFlg1=           0
         NFxFlg=           0 DoJE=T BraDBF=F KetDBF=T FulRan=T
         wScrn=  0.000000 ICntrl=       500 IOpCl=  0 I1Cent=   200000004 NGrid=           0
         NMat0=    1 NMatS0=      1 NMatT0=    0 NMatD0=    1 NMtDS0=    0 NMtDT0=    0
 Petite list used in FoFCou.
 Harris En= -731.327497438195    
 JPrj=0 DoOrth=F DoCkMO=F.
 Leave Link  401 at Mon Jul 12 12:15:48 2021, MaxMem=   104857600 cpu:              28.1 elap:               7.1
 (Enter /dades/curu/g16A03_MST/g16/l502.exe)
 Integral symmetry usage will be decided dynamically.
 Closed shell SCF:
 Using DIIS extrapolation, IDIIS=  1040.
 NGot=   104857600 LenX=   104690183 LenY=   104608517
 Requested convergence on RMS density matrix=1.00D-08 within 128 cycles.
 Requested convergence on MAX density matrix=1.00D-06.
 Requested convergence on             energy=1.00D-06.
 No special actions if energy rises.
 Fock matrices will be formed incrementally for  20 cycles.

 Cycle   1  Pass 1  IDiag  1:
 FoFJK:  IHMeth= 1 ICntrl=       0 DoSepK=F KAlg= 0 I1Cent=           0 FoldK=F
 IRaf= 840000000 NMat=       1 IRICut=       1 DoRegI=T DoRafI=F ISym2E= 0 IDoP0=0 IntGTp=1.
 FoFCou: FMM=F IPFlag=           0 FMFlag=      100000 FMFlg1=           0
         NFxFlg=           0 DoJE=F BraDBF=F KetDBF=F FulRan=T
         wScrn=  0.000000 ICntrl=         0 IOpCl=  0 I1Cent=           0 NGrid=           0
         NMat0=    1 NMatS0=      1 NMatT0=    0 NMatD0=    1 NMtDS0=    0 NMtDT0=    0
 Symmetry not used in FoFCou.
 Inv3:  Mode=1 IEnd=    25526667.
 Iteration    1 A*A^-1 deviation from unit magnitude is 6.11D-15 for   2915.
 Iteration    1 A*A^-1 deviation from orthogonality  is 4.40D-15 for   2908    724.
 Iteration    1 A^-1*A deviation from unit magnitude is 6.33D-15 for   2915.
 Iteration    1 A^-1*A deviation from orthogonality  is 5.54D-15 for   2907   1597.
 E= -730.632507714486    
 DIIS: error= 2.83D-02 at cycle   1 NSaved=   1.
 NSaved= 1 IEnMin= 1 EnMin= -730.632507714486     IErMin= 1 ErrMin= 2.83D-02
 ErrMax= 2.83D-02  0.00D+00 EMaxC= 1.00D-01 BMatC= 5.09D-01 BMatP= 5.09D-01
 IDIUse=3 WtCom= 7.17D-01 WtEn= 2.83D-01
 Coeff-Com:  0.100D+01
 Coeff-En:   0.100D+01
 Coeff:      0.100D+01
 Gap=     0.114 Goal=   None    Shift=    0.000
 GapD=    0.114 DampG=1.000 DampE=0.500 DampFc=0.5000 IDamp=-1.
 Damping current iteration by 5.00D-01
 RMSDP=6.46D-03 MaxDP=1.94D-01              OVMax= 2.35D-01

 Cycle   2  Pass 1  IDiag  1:
 RMSU=  3.20D-03    CP:  9.79D-01
 E= -730.866815186819     Delta-E=       -0.234307472333 Rises=F Damp=T
 DIIS: error= 8.39D-03 at cycle   2 NSaved=   2.
 NSaved= 2 IEnMin= 2 EnMin= -730.866815186819     IErMin= 2 ErrMin= 8.39D-03
 ErrMax= 8.39D-03  0.00D+00 EMaxC= 1.00D-01 BMatC= 2.82D-02 BMatP= 5.09D-01
 IDIUse=3 WtCom= 9.16D-01 WtEn= 8.39D-02
 Coeff-Com:  0.602D-01 0.940D+00
 Coeff-En:   0.736D-01 0.926D+00
 Coeff:      0.613D-01 0.939D+00
 Gap=     0.182 Goal=   None    Shift=    0.000
 RMSDP=1.70D-03 MaxDP=6.40D-02 DE=-2.34D-01 OVMax= 1.41D-01

 Cycle   3  Pass 1  IDiag  1:
 RMSU=  1.55D-03    CP:  9.67D-01  7.91D-01
 E= -731.121078329179     Delta-E=       -0.254263142361 Rises=F Damp=F
 DIIS: error= 9.63D-03 at cycle   3 NSaved=   3.
 NSaved= 3 IEnMin= 3 EnMin= -731.121078329179     IErMin= 2 ErrMin= 8.39D-03
 ErrMax= 9.63D-03  0.00D+00 EMaxC= 1.00D-01 BMatC= 2.99D-02 BMatP= 2.82D-02
 IDIUse=3 WtCom= 9.04D-01 WtEn= 9.63D-02
 Coeff-Com: -0.867D-02 0.511D+00 0.498D+00
 Coeff-En:   0.000D+00 0.000D+00 0.100D+01
 Coeff:     -0.783D-02 0.462D+00 0.546D+00
 Gap=     0.132 Goal=   None    Shift=    0.000
 RMSDP=9.64D-04 MaxDP=4.07D-02 DE=-2.54D-01 OVMax= 6.56D-02

 Cycle   4  Pass 1  IDiag  1:
 RMSU=  6.86D-04    CP:  9.71D-01  8.68D-01  5.94D-01
 E= -731.140377149961     Delta-E=       -0.019298820781 Rises=F Damp=F
 DIIS: error= 4.70D-03 at cycle   4 NSaved=   4.
 NSaved= 4 IEnMin= 4 EnMin= -731.140377149961     IErMin= 4 ErrMin= 4.70D-03
 ErrMax= 4.70D-03  0.00D+00 EMaxC= 1.00D-01 BMatC= 7.89D-03 BMatP= 2.82D-02
 IDIUse=3 WtCom= 9.53D-01 WtEn= 4.70D-02
 Coeff-Com: -0.927D-02 0.768D-01 0.347D+00 0.585D+00
 Coeff-En:   0.000D+00 0.000D+00 0.247D+00 0.753D+00
 Coeff:     -0.884D-02 0.732D-01 0.343D+00 0.593D+00
 Gap=     0.132 Goal=   None    Shift=    0.000
 RMSDP=3.70D-04 MaxDP=1.50D-02 DE=-1.93D-02 OVMax= 2.20D-02

 Cycle   5  Pass 1  IDiag  1:
 RMSU=  1.24D-04    CP:  9.69D-01  8.43D-01  7.29D-01  6.13D-01
 E= -731.147126783909     Delta-E=       -0.006749633948 Rises=F Damp=F
 DIIS: error= 4.10D-04 at cycle   5 NSaved=   5.
 NSaved= 5 IEnMin= 5 EnMin= -731.147126783909     IErMin= 5 ErrMin= 4.10D-04
 ErrMax= 4.10D-04  0.00D+00 EMaxC= 1.00D-01 BMatC= 1.70D-04 BMatP= 7.89D-03
 IDIUse=3 WtCom= 9.96D-01 WtEn= 4.10D-03
 Coeff-Com: -0.338D-02 0.130D-01 0.134D+00 0.275D+00 0.581D+00
 Coeff-En:   0.000D+00 0.000D+00 0.000D+00 0.000D+00 0.100D+01
 Coeff:     -0.337D-02 0.130D-01 0.134D+00 0.274D+00 0.583D+00
 Gap=     0.132 Goal=   None    Shift=    0.000
 RMSDP=6.66D-05 MaxDP=1.80D-03 DE=-6.75D-03 OVMax= 3.61D-03

 Cycle   6  Pass 1  IDiag  1:
 RMSU=  5.25D-05    CP:  9.69D-01  8.47D-01  7.21D-01  6.30D-01  7.24D-01
 E= -731.147259231094     Delta-E=       -0.000132447185 Rises=F Damp=F
 DIIS: error= 1.93D-04 at cycle   6 NSaved=   6.
 NSaved= 6 IEnMin= 6 EnMin= -731.147259231094     IErMin= 6 ErrMin= 1.93D-04
 ErrMax= 1.93D-04  0.00D+00 EMaxC= 1.00D-01 BMatC= 2.64D-05 BMatP= 1.70D-04
 IDIUse=3 WtCom= 9.98D-01 WtEn= 1.93D-03
 Coeff-Com: -0.109D-02 0.110D-02 0.413D-01 0.955D-01 0.334D+00 0.529D+00
 Coeff-En:   0.000D+00 0.000D+00 0.000D+00 0.000D+00 0.110D+00 0.890D+00
 Coeff:     -0.109D-02 0.110D-02 0.413D-01 0.954D-01 0.333D+00 0.530D+00
 Gap=     0.132 Goal=   None    Shift=    0.000
 RMSDP=2.64D-05 MaxDP=5.86D-04 DE=-1.32D-04 OVMax= 1.97D-03

 Cycle   7  Pass 1  IDiag  1:
 RMSU=  1.09D-05    CP:  9.69D-01  8.46D-01  7.25D-01  6.38D-01  7.38D-01
                    CP:  5.75D-01
 E= -731.147283195126     Delta-E=       -0.000023964032 Rises=F Damp=F
 DIIS: error= 6.00D-05 at cycle   7 NSaved=   7.
 NSaved= 7 IEnMin= 7 EnMin= -731.147283195126     IErMin= 7 ErrMin= 6.00D-05
 ErrMax= 6.00D-05  0.00D+00 EMaxC= 1.00D-01 BMatC= 2.05D-06 BMatP= 2.64D-05
 IDIUse=1 WtCom= 1.00D+00 WtEn= 0.00D+00
 Coeff-Com: -0.431D-03-0.186D-03 0.164D-01 0.399D-01 0.161D+00 0.306D+00
 Coeff-Com:  0.478D+00
 Coeff:     -0.431D-03-0.186D-03 0.164D-01 0.399D-01 0.161D+00 0.306D+00
 Coeff:      0.478D+00
 Gap=     0.132 Goal=   None    Shift=    0.000
 RMSDP=7.18D-06 MaxDP=2.00D-04 DE=-2.40D-05 OVMax= 6.83D-04

 Cycle   8  Pass 1  IDiag  1:
 RMSU=  3.81D-06    CP:  9.69D-01  8.46D-01  7.25D-01  6.38D-01  7.43D-01
                    CP:  6.26D-01  5.10D-01
 E= -731.147285135178     Delta-E=       -0.000001940052 Rises=F Damp=F
 DIIS: error= 1.51D-05 at cycle   8 NSaved=   8.
 NSaved= 8 IEnMin= 8 EnMin= -731.147285135178     IErMin= 8 ErrMin= 1.51D-05
 ErrMax= 1.51D-05  0.00D+00 EMaxC= 1.00D-01 BMatC= 1.73D-07 BMatP= 2.05D-06
 IDIUse=1 WtCom= 1.00D+00 WtEn= 0.00D+00
 Coeff-Com: -0.626D-04-0.272D-03 0.246D-02 0.685D-02 0.375D-01 0.871D-01
 Coeff-Com:  0.254D+00 0.613D+00
 Coeff:     -0.626D-04-0.272D-03 0.246D-02 0.685D-02 0.375D-01 0.871D-01
 Coeff:      0.254D+00 0.613D+00
 Gap=     0.132 Goal=   None    Shift=    0.000
 RMSDP=2.50D-06 MaxDP=5.68D-05 DE=-1.94D-06 OVMax= 2.16D-04

 Cycle   9  Pass 1  IDiag  1:
 RMSU=  1.40D-06    CP:  9.69D-01  8.46D-01  7.25D-01  6.38D-01  7.46D-01
                    CP:  6.11D-01  6.12D-01  6.26D-01
 E= -731.147285286733     Delta-E=       -0.000000151555 Rises=F Damp=F
 DIIS: error= 6.37D-06 at cycle   9 NSaved=   9.
 NSaved= 9 IEnMin= 9 EnMin= -731.147285286733     IErMin= 9 ErrMin= 6.37D-06
 ErrMax= 6.37D-06  0.00D+00 EMaxC= 1.00D-01 BMatC= 3.08D-08 BMatP= 1.73D-07
 IDIUse=1 WtCom= 1.00D+00 WtEn= 0.00D+00
 Coeff-Com:  0.714D-05-0.148D-03-0.202D-03-0.332D-04 0.528D-02 0.194D-01
 Coeff-Com:  0.945D-01 0.367D+00 0.514D+00
 Coeff:      0.714D-05-0.148D-03-0.202D-03-0.332D-04 0.528D-02 0.194D-01
 Coeff:      0.945D-01 0.367D+00 0.514D+00
 Gap=     0.132 Goal=   None    Shift=    0.000
 RMSDP=8.04D-07 MaxDP=1.94D-05 DE=-1.52D-07 OVMax= 4.59D-05

 Cycle  10  Pass 1  IDiag  1:
 RMSU=  3.85D-07    CP:  9.69D-01  8.46D-01  7.25D-01  6.38D-01  7.46D-01
                    CP:  6.17D-01  6.08D-01  7.10D-01  6.27D-01
 E= -731.147285315151     Delta-E=       -0.000000028418 Rises=F Damp=F
 DIIS: error= 1.41D-06 at cycle  10 NSaved=  10.
 NSaved=10 IEnMin=10 EnMin= -731.147285315151     IErMin=10 ErrMin= 1.41D-06
 ErrMax= 1.41D-06  0.00D+00 EMaxC= 1.00D-01 BMatC= 1.48D-09 BMatP= 3.08D-08
 IDIUse=1 WtCom= 1.00D+00 WtEn= 0.00D+00
 Coeff-Com:  0.814D-05-0.346D-04-0.344D-03-0.722D-03-0.127D-02 0.772D-03
 Coeff-Com:  0.175D-01 0.114D+00 0.236D+00 0.634D+00
 Coeff:      0.814D-05-0.346D-04-0.344D-03-0.722D-03-0.127D-02 0.772D-03
 Coeff:      0.175D-01 0.114D+00 0.236D+00 0.634D+00
 Gap=     0.132 Goal=   None    Shift=    0.000
 RMSDP=1.96D-07 MaxDP=5.21D-06 DE=-2.84D-08 OVMax= 1.48D-05

 Cycle  11  Pass 1  IDiag  1:
 RMSU=  1.21D-07    CP:  9.69D-01  8.46D-01  7.25D-01  6.38D-01  7.46D-01
                    CP:  6.17D-01  6.07D-01  7.23D-01  6.86D-01  7.27D-01
 E= -731.147285316377     Delta-E=       -0.000000001226 Rises=F Damp=F
 DIIS: error= 5.86D-07 at cycle  11 NSaved=  11.
 NSaved=11 IEnMin=11 EnMin= -731.147285316377     IErMin=11 ErrMin= 5.86D-07
 ErrMax= 5.86D-07  0.00D+00 EMaxC= 1.00D-01 BMatC= 2.76D-10 BMatP= 1.48D-09
 IDIUse=1 WtCom= 1.00D+00 WtEn= 0.00D+00
 Coeff-Com:  0.386D-05-0.583D-05-0.180D-03-0.415D-03-0.122D-02-0.132D-02
 Coeff-Com:  0.124D-02 0.326D-01 0.890D-01 0.368D+00 0.512D+00
 Coeff:      0.386D-05-0.583D-05-0.180D-03-0.415D-03-0.122D-02-0.132D-02
 Coeff:      0.124D-02 0.326D-01 0.890D-01 0.368D+00 0.512D+00
 Gap=     0.132 Goal=   None    Shift=    0.000
 RMSDP=6.96D-08 MaxDP=2.09D-06 DE=-1.23D-09 OVMax= 5.13D-06

 Cycle  12  Pass 1  IDiag  1:
 RMSU=  4.22D-08    CP:  9.69D-01  8.46D-01  7.25D-01  6.38D-01  7.46D-01
                    CP:  6.18D-01  6.07D-01  7.27D-01  6.73D-01  7.92D-01
                    CP:  6.44D-01
 E= -731.147285316661     Delta-E=       -0.000000000283 Rises=F Damp=F
 DIIS: error= 9.53D-08 at cycle  12 NSaved=  12.
 NSaved=12 IEnMin=12 EnMin= -731.147285316661     IErMin=12 ErrMin= 9.53D-08
 ErrMax= 9.53D-08  0.00D+00 EMaxC= 1.00D-01 BMatC= 8.19D-12 BMatP= 2.76D-10
 IDIUse=1 WtCom= 1.00D+00 WtEn= 0.00D+00
 Coeff-Com:  0.293D-06 0.167D-05-0.295D-04-0.748D-04-0.304D-03-0.546D-03
 Coeff-Com: -0.136D-02-0.803D-03 0.695D-02 0.617D-01 0.177D+00 0.757D+00
 Coeff:      0.293D-06 0.167D-05-0.295D-04-0.748D-04-0.304D-03-0.546D-03
 Coeff:     -0.136D-02-0.803D-03 0.695D-02 0.617D-01 0.177D+00 0.757D+00
 Gap=     0.132 Goal=   None    Shift=    0.000
 RMSDP=1.83D-08 MaxDP=4.73D-07 DE=-2.83D-10 OVMax= 1.24D-06

 Cycle  13  Pass 1  IDiag  1:
 RMSU=  1.29D-08    CP:  9.69D-01  8.46D-01  7.25D-01  6.38D-01  7.46D-01
                    CP:  6.18D-01  6.07D-01  7.27D-01  6.78D-01  8.00D-01
                    CP:  6.99D-01  8.62D-01
 E= -731.147285316678     Delta-E=       -0.000000000018 Rises=F Damp=F
 DIIS: error= 6.01D-08 at cycle  13 NSaved=  13.
 NSaved=13 IEnMin=13 EnMin= -731.147285316678     IErMin=13 ErrMin= 6.01D-08
 ErrMax= 6.01D-08  0.00D+00 EMaxC= 1.00D-01 BMatC= 2.79D-12 BMatP= 8.19D-12
 IDIUse=1 WtCom= 1.00D+00 WtEn= 0.00D+00
 Coeff-Com: -0.204D-06 0.146D-05 0.272D-06-0.276D-05-0.531D-04-0.173D-03
 Coeff-Com: -0.846D-03-0.339D-02-0.387D-02 0.130D-02 0.534D-01 0.441D+00
 Coeff-Com:  0.513D+00
 Coeff:     -0.204D-06 0.146D-05 0.272D-06-0.276D-05-0.531D-04-0.173D-03
 Coeff:     -0.846D-03-0.339D-02-0.387D-02 0.130D-02 0.534D-01 0.441D+00
 Coeff:      0.513D+00
 Gap=     0.132 Goal=   None    Shift=    0.000
 RMSDP=7.13D-09 MaxDP=2.53D-07 DE=-1.77D-11 OVMax= 6.77D-07

 Error on total polarization charges =  0.00399
 SCF Done:  E(RB3LYP) =  -731.147285317     A.U. after   13 cycles
            NFock= 13  Conv=0.71D-08     -V/T= 2.0090
 KE= 7.246146257721D+02 PE=-3.986110996675D+03 EE= 1.395730780913D+03
 Leave Link  502 at Mon Jul 12 12:19:17 2021, MaxMem=   104857600 cpu:             807.0 elap:             208.6
 (Enter /dades/curu/g16A03_MST/g16/l601.exe)
 Copying SCF densities to generalized density rwf, IOpCl= 0 IROHF=0.

 **********************************************************************

            Population analysis using the SCF density.

 **********************************************************************

 Orbital symmetries:
       Occupied  (A) (A) (A) (A) (A) (A) (A) (A) (A) (A) (A) (A)
                 (A) (A) (A) (A) (A) (A) (A) (A) (A) (A) (A) (A)
                 (A) (A) (A) (A) (A) (A) (A) (A) (A) (A) (A) (A)
                 (A) (A) (A) (A) (A) (A) (A) (A) (A) (A) (A) (A)
                 (A) (A) (A) (A) (A) (A) (A) (A) (A) (A) (A) (A)
                 (A)
       Virtual   (A) (A) (A) (A) (A) (A) (A) (A) (A) (A) (A) (A)
                 (A) (A) (A) (A) (A) (A) (A) (A) (A) (A) (A) (A)
                 (A) (A) (A) (A) (A) (A) (A) (A) (A) (A) (A) (A)
                 (A) (A) (A) (A) (A) (A) (A) (A) (A) (A) (A) (A)
                 (A) (A) (A) (A) (A) (A) (A) (A) (A) (A) (A) (A)
                 (A) (A) (A) (A) (A) (A) (A) (A) (A) (A) (A) (A)
                 (A) (A) (A) (A) (A) (A) (A) (A) (A) (A) (A) (A)
                 (A) (A) (A) (A) (A) (A) (A) (A) (A) (A) (A) (A)
                 (A) (A) (A) (A) (A) (A) (A) (A) (A) (A) (A) (A)
                 (A) (A) (A) (A) (A) (A) (A) (A) (A) (A) (A) (A)
                 (A) (A) (A) (A) (A) (A) (A) (A) (A) (A) (A) (A)
                 (A) (A) (A) (A) (A) (A) (A) (A) (A) (A) (A) (A)
                 (A) (A) (A) (A) (A) (A) (A) (A) (A) (A) (A) (A)
                 (A) (A) (A) (A) (A) (A) (A) (A) (A) (A) (A) (A)
                 (A) (A) (A) (A) (A) (A) (A) (A) (A) (A) (A) (A)
                 (A) (A) (A) (A) (A) (A) (A) (A) (A) (A) (A) (A)
                 (A) (A) (A) (A) (A) (A) (A) (A) (A) (A) (A) (A)
                 (A) (A) (A) (A) (A) (A) (A) (A) (A) (A) (A) (A)
                 (A) (A) (A) (A) (A) (A) (A) (A)
 The electronic state is 1-A.
 Alpha  occ. eigenvalues --  -19.16026 -19.00318 -10.23524 -10.18134 -10.17894
 Alpha  occ. eigenvalues --  -10.17882 -10.17283 -10.17217 -10.17149 -10.16589
 Alpha  occ. eigenvalues --  -10.15582 -10.15550 -10.14309 -10.13759 -10.13313
 Alpha  occ. eigenvalues --  -10.12486 -10.12135  -1.03739  -0.86932  -0.84743
 Alpha  occ. eigenvalues --   -0.80756  -0.77142  -0.73651  -0.70890  -0.69305
 Alpha  occ. eigenvalues --   -0.67178  -0.66302  -0.60436  -0.59741  -0.55932
 Alpha  occ. eigenvalues --   -0.55296  -0.52474  -0.51300  -0.47677  -0.45224
 Alpha  occ. eigenvalues --   -0.44652  -0.43320  -0.41744  -0.41057  -0.40292
 Alpha  occ. eigenvalues --   -0.40035  -0.39622  -0.38556  -0.37492  -0.36872
 Alpha  occ. eigenvalues --   -0.36042  -0.35588  -0.33605  -0.33186  -0.32601
 Alpha  occ. eigenvalues --   -0.31309  -0.30665  -0.30273  -0.28545  -0.27631
 Alpha  occ. eigenvalues --   -0.24390  -0.23763  -0.20604  -0.20028  -0.15361
 Alpha  occ. eigenvalues --   -0.12753
 Alpha virt. eigenvalues --    0.00469   0.02464   0.04558   0.07788   0.09511
 Alpha virt. eigenvalues --    0.10504   0.12036   0.14559   0.15093   0.15604
 Alpha virt. eigenvalues --    0.15853   0.16850   0.17449   0.18101   0.19170
 Alpha virt. eigenvalues --    0.20022   0.20577   0.20805   0.22391   0.23065
 Alpha virt. eigenvalues --    0.25290   0.25834   0.26101   0.26873   0.28731
 Alpha virt. eigenvalues --    0.29197   0.31804   0.33478   0.33644   0.36076
 Alpha virt. eigenvalues --    0.36593   0.38017   0.38421   0.40901   0.43913
 Alpha virt. eigenvalues --    0.51209   0.51559   0.51771   0.53166   0.53449
 Alpha virt. eigenvalues --    0.54107   0.55293   0.55707   0.56629   0.58684
 Alpha virt. eigenvalues --    0.59196   0.60282   0.60730   0.61247   0.61891
 Alpha virt. eigenvalues --    0.62476   0.63647   0.64252   0.64618   0.65276
 Alpha virt. eigenvalues --    0.66284   0.66904   0.68321   0.68935   0.69171
 Alpha virt. eigenvalues --    0.70222   0.72620   0.73527   0.74131   0.76408
 Alpha virt. eigenvalues --    0.77054   0.77516   0.79286   0.81043   0.82482
 Alpha virt. eigenvalues --    0.83197   0.83886   0.84818   0.85384   0.87016
 Alpha virt. eigenvalues --    0.87827   0.88739   0.89272   0.89808   0.89952
 Alpha virt. eigenvalues --    0.90705   0.91010   0.92587   0.93376   0.93981
 Alpha virt. eigenvalues --    0.95588   0.97060   0.97384   0.98261   0.99748
 Alpha virt. eigenvalues --    1.00169   1.01547   1.02508   1.04174   1.05533
 Alpha virt. eigenvalues --    1.06457   1.06713   1.08461   1.08823   1.12109
 Alpha virt. eigenvalues --    1.13667   1.16818   1.17829   1.18727   1.19554
 Alpha virt. eigenvalues --    1.20566   1.21986   1.23843   1.28036   1.30018
 Alpha virt. eigenvalues --    1.30029   1.32116   1.33576   1.34947   1.38616
 Alpha virt. eigenvalues --    1.41915   1.42548   1.44246   1.45146   1.47762
 Alpha virt. eigenvalues --    1.49969   1.50353   1.51454   1.53265   1.54510
 Alpha virt. eigenvalues --    1.58142   1.60085   1.64422   1.65942   1.66977
 Alpha virt. eigenvalues --    1.68532   1.71886   1.74858   1.76576   1.79585
 Alpha virt. eigenvalues --    1.80185   1.82687   1.84506   1.87279   1.88426
 Alpha virt. eigenvalues --    1.89585   1.91227   1.92224   1.92910   1.94097
 Alpha virt. eigenvalues --    1.95026   1.96456   1.97337   1.98784   1.99748
 Alpha virt. eigenvalues --    2.01047   2.02643   2.03176   2.06208   2.07956
 Alpha virt. eigenvalues --    2.09499   2.10893   2.12731   2.14459   2.15084
 Alpha virt. eigenvalues --    2.16390   2.17290   2.19246   2.20122   2.23061
 Alpha virt. eigenvalues --    2.24064   2.25779   2.28303   2.29974   2.30613
 Alpha virt. eigenvalues --    2.31329   2.32453   2.33102   2.35253   2.36965
 Alpha virt. eigenvalues --    2.40132   2.41633   2.43528   2.44990   2.45472
 Alpha virt. eigenvalues --    2.48748   2.51499   2.57524   2.59119   2.61278
 Alpha virt. eigenvalues --    2.63237   2.65805   2.66079   2.67898   2.69893
 Alpha virt. eigenvalues --    2.71041   2.72738   2.75376   2.79388   2.80097
 Alpha virt. eigenvalues --    2.84638   2.85772   2.91142   2.95427   2.95726
 Alpha virt. eigenvalues --    2.98568   3.03346   3.04818   3.15555   3.20803
 Alpha virt. eigenvalues --    3.40805   3.45615   3.90411   3.98831   4.11202
 Alpha virt. eigenvalues --    4.13513   4.16995   4.18340   4.25984   4.26850
 Alpha virt. eigenvalues --    4.31238   4.34218   4.35246   4.40747   4.48966
 Alpha virt. eigenvalues --    4.53788   4.70062   4.76397   4.82592
          Condensed to atoms (all electrons):
               1          2          3          4          5          6
     1  C    5.206000   0.360789   0.354777   0.361810   0.355637  -0.074913
     2  H    0.360789   0.599935  -0.041027  -0.030609  -0.027139  -0.006959
     3  H    0.354777  -0.041027   0.591491  -0.025211  -0.023405  -0.004867
     4  H    0.361810  -0.030609  -0.025211   0.574642  -0.028029   0.007779
     5  C    0.355637  -0.027139  -0.023405  -0.028029   4.990962   0.350923
     6  C   -0.074913  -0.006959  -0.004867   0.007779   0.350923   5.231289
     7  H   -0.003324  -0.000127   0.002599  -0.000124  -0.024716   0.362767
     8  H   -0.007354   0.005520   0.000334  -0.000058  -0.024585   0.345119
     9  H    0.007372  -0.000064  -0.000035  -0.000279  -0.026871   0.357903
    10  C   -0.060491  -0.005327   0.006773  -0.010580   0.367103  -0.042576
    11  C    0.000733   0.003415  -0.000026  -0.000372  -0.050818  -0.017636
    12  C   -0.000360  -0.000210   0.000006   0.000022   0.007778   0.000255
    13  C    0.000007  -0.000007  -0.000000  -0.000021   0.000339  -0.000011
    14  O   -0.000000   0.000000   0.000000  -0.000000   0.000000   0.000000
    15  H   -0.000000   0.000000   0.000000   0.000000  -0.000001   0.000000
    16  C    0.000193  -0.000096   0.000001   0.000014   0.005135  -0.000152
    17  C   -0.013285  -0.000032   0.000200   0.007356  -0.062176   0.008408
    18  H    0.000009   0.000152  -0.000107   0.002675  -0.008143   0.000180
    19  H    0.000003   0.000000  -0.000000   0.000004  -0.000097   0.000001
    20  H    0.000004   0.000006  -0.000000   0.000000  -0.000203   0.000009
    21  H    0.000414   0.000241  -0.000031  -0.000018  -0.013993   0.005483
    22  C   -0.028392   0.004393  -0.006440  -0.005194   0.366831  -0.057359
    23  C   -0.017036   0.000408   0.001128   0.002426  -0.042303   0.000036
    24  H    0.007913  -0.000092   0.002218   0.000894  -0.021669   0.000542
    25  C   -0.000124   0.000002   0.000080  -0.000073   0.005759  -0.000055
    26  H   -0.000003  -0.000000   0.000002   0.000003  -0.000101   0.000002
    27  C    0.000006   0.000000  -0.000004  -0.000008   0.000241  -0.000025
    28  O    0.000000  -0.000000   0.000000  -0.000000   0.000001  -0.000000
    29  C   -0.000133   0.000002  -0.000001   0.000007   0.004828   0.000535
    30  H    0.000001  -0.000000   0.000000   0.000000  -0.000147   0.000007
    31  C    0.006860  -0.000090  -0.000239  -0.000073  -0.061487  -0.011294
    32  H    0.000142  -0.000011  -0.000006  -0.000001  -0.009759  -0.000661
               7          8          9         10         11         12
     1  C   -0.003324  -0.007354   0.007372  -0.060491   0.000733  -0.000360
     2  H   -0.000127   0.005520  -0.000064  -0.005327   0.003415  -0.000210
     3  H    0.002599   0.000334  -0.000035   0.006773  -0.000026   0.000006
     4  H   -0.000124  -0.000058  -0.000279  -0.010580  -0.000372   0.000022
     5  C   -0.024716  -0.024585  -0.026871   0.367103  -0.050818   0.007778
     6  C    0.362767   0.345119   0.357903  -0.042576  -0.017636   0.000255
     7  H    0.569276  -0.023348  -0.038375   0.004587   0.000360  -0.000006
     8  H   -0.023348   0.595115  -0.026422  -0.007182   0.002895   0.000145
     9  H   -0.038375  -0.026422   0.587366  -0.008710   0.002804   0.000010
    10  C    0.004587  -0.007182  -0.008710   4.774556   0.501173  -0.023110
    11  C    0.000360   0.002895   0.002804   0.501173   5.088684   0.436883
    12  C   -0.000006   0.000145   0.000010  -0.023110   0.436883   5.145527
    13  C    0.000000   0.000001  -0.000018  -0.036023  -0.014355   0.504719
    14  O   -0.000000   0.000000   0.000000   0.000273   0.006538  -0.054532
    15  H   -0.000000   0.000000  -0.000000  -0.000029   0.000733  -0.002165
    16  C    0.000002  -0.000001  -0.000001  -0.020015  -0.038880  -0.058151
    17  C   -0.000110  -0.000488  -0.000099   0.522830  -0.058748  -0.045837
    18  H   -0.000009  -0.000008   0.000003  -0.039608   0.005719   0.000438
    19  H   -0.000000  -0.000000   0.000000   0.003062  -0.000013   0.006506
    20  H   -0.000000  -0.000002   0.000009   0.004218  -0.031254   0.346958
    21  H   -0.000029   0.001899   0.001553  -0.036933   0.356264  -0.047229
    22  C   -0.002144   0.005885  -0.007321  -0.062291   0.001425  -0.000156
    23  C    0.003061  -0.000041  -0.000264  -0.000509  -0.000549   0.000006
    24  H    0.000279  -0.000083  -0.000026   0.000550  -0.000005   0.000000
    25  C   -0.000131   0.000000   0.000005  -0.000144   0.000003  -0.000000
    26  H    0.000002  -0.000000   0.000000   0.000000  -0.000000   0.000000
    27  C   -0.000005   0.000000  -0.000003   0.000040   0.000000  -0.000000
    28  O    0.000000   0.000000  -0.000000   0.000000   0.000000   0.000000
    29  C   -0.000247  -0.000002   0.000042   0.000012   0.000035  -0.000000
    30  H    0.000002  -0.000000  -0.000004  -0.000004  -0.000000   0.000000
    31  C    0.000347   0.000280   0.005121  -0.005662   0.002026  -0.000066
    32  H    0.000278  -0.000113   0.003483   0.006143  -0.000049   0.000050
              13         14         15         16         17         18
     1  C    0.000007  -0.000000  -0.000000   0.000193  -0.013285   0.000009
     2  H   -0.000007   0.000000   0.000000  -0.000096  -0.000032   0.000152
     3  H   -0.000000   0.000000   0.000000   0.000001   0.000200  -0.000107
     4  H   -0.000021  -0.000000   0.000000   0.000014   0.007356   0.002675
     5  C    0.000339   0.000000  -0.000001   0.005135  -0.062176  -0.008143
     6  C   -0.000011   0.000000   0.000000  -0.000152   0.008408   0.000180
     7  H    0.000000  -0.000000  -0.000000   0.000002  -0.000110  -0.000009
     8  H    0.000001   0.000000   0.000000  -0.000001  -0.000488  -0.000008
     9  H   -0.000018   0.000000  -0.000000  -0.000001  -0.000099   0.000003
    10  C   -0.036023   0.000273  -0.000029  -0.020015   0.522830  -0.039608
    11  C   -0.014355   0.006538   0.000733  -0.038880  -0.058748   0.005719
    12  C    0.504719  -0.054532  -0.002165  -0.058151  -0.045837   0.000438
    13  C    4.540769   0.249398  -0.031539   0.545641  -0.017364   0.004125
    14  O    0.249398   8.271311   0.246452  -0.045101   0.002680  -0.000068
    15  H   -0.031539   0.246452   0.348012   0.004332  -0.000182   0.000007
    16  C    0.545641  -0.045101   0.004332   5.014574   0.475956  -0.047720
    17  C   -0.017364   0.002680  -0.000182   0.475956   5.060697   0.355500
    18  H    0.004125  -0.000068   0.000007  -0.047720   0.355500   0.581272
    19  H   -0.039324   0.000412  -0.000338   0.347104  -0.034666  -0.004603
    20  H   -0.047005  -0.005719   0.005937   0.004537   0.000590   0.000016
    21  H    0.004638  -0.000105  -0.000019   0.000448   0.004842  -0.000120
    22  C    0.000007   0.000000   0.000000   0.000275  -0.005021   0.007293
    23  C   -0.000001  -0.000000  -0.000000   0.000046   0.002676   0.000778
    24  H    0.000000   0.000000  -0.000000  -0.000000  -0.000077  -0.000008
    25  C    0.000000  -0.000000   0.000000   0.000000  -0.000079   0.000075
    26  H    0.000000   0.000000  -0.000000   0.000000   0.000001  -0.000001
    27  C   -0.000000   0.000000   0.000000   0.000000   0.000004  -0.000020
    28  O   -0.000000   0.000000  -0.000000   0.000000  -0.000000   0.000000
    29  C    0.000000   0.000000   0.000000  -0.000019  -0.000204  -0.000096
    30  H   -0.000000   0.000000  -0.000000  -0.000000   0.000001  -0.000000
    31  C    0.000008   0.000000   0.000000  -0.000103  -0.002756   0.000744
    32  H   -0.000040   0.000000  -0.000000  -0.000022   0.001275  -0.000023
              19         20         21         22         23         24
     1  C    0.000003   0.000004   0.000414  -0.028392  -0.017036   0.007913
     2  H    0.000000   0.000006   0.000241   0.004393   0.000408  -0.000092
     3  H   -0.000000  -0.000000  -0.000031  -0.006440   0.001128   0.002218
     4  H    0.000004   0.000000  -0.000018  -0.005194   0.002426   0.000894
     5  C   -0.000097  -0.000203  -0.013993   0.366831  -0.042303  -0.021669
     6  C    0.000001   0.000009   0.005483  -0.057359   0.000036   0.000542
     7  H   -0.000000  -0.000000  -0.000029  -0.002144   0.003061   0.000279
     8  H   -0.000000  -0.000002   0.001899   0.005885  -0.000041  -0.000083
     9  H    0.000000   0.000009   0.001553  -0.007321  -0.000264  -0.000026
    10  C    0.003062   0.004218  -0.036933  -0.062291  -0.000509   0.000550
    11  C   -0.000013  -0.031254   0.356264   0.001425  -0.000549  -0.000005
    12  C    0.006506   0.346958  -0.047229  -0.000156   0.000006   0.000000
    13  C   -0.039324  -0.047005   0.004638   0.000007  -0.000001   0.000000
    14  O    0.000412  -0.005719  -0.000105   0.000000  -0.000000   0.000000
    15  H   -0.000338   0.005937  -0.000019   0.000000  -0.000000  -0.000000
    16  C    0.347104   0.004537   0.000448   0.000275   0.000046  -0.000000
    17  C   -0.034666   0.000590   0.004842  -0.005021   0.002676  -0.000077
    18  H   -0.004603   0.000016  -0.000120   0.007293   0.000778  -0.000008
    19  H    0.580840  -0.000146   0.000016   0.000002  -0.000000   0.000000
    20  H   -0.000146   0.597245  -0.007578   0.000001  -0.000000  -0.000000
    21  H    0.000016  -0.007578   0.594677   0.000362  -0.000006  -0.000000
    22  C    0.000002   0.000001   0.000362   4.781918   0.534447  -0.047586
    23  C   -0.000000  -0.000000  -0.000006   0.534447   5.200875   0.331929
    24  H    0.000000  -0.000000  -0.000000  -0.047586   0.331929   0.675767
    25  C   -0.000000   0.000000   0.000000  -0.031106   0.364256  -0.042816
    26  H   -0.000000  -0.000000  -0.000000   0.003637  -0.045903  -0.005308
    27  C   -0.000000   0.000000   0.000000  -0.031301   0.006712   0.002954
    28  O    0.000000   0.000000   0.000000   0.000364   0.007456  -0.000120
    29  C   -0.000000   0.000000  -0.000000  -0.032050  -0.052484   0.000963
    30  H    0.000000  -0.000000  -0.000000   0.004805  -0.000394   0.000037
    31  C   -0.000000   0.000000  -0.000035   0.508055  -0.056368   0.008402
    32  H   -0.000000  -0.000000  -0.000127  -0.053097   0.008728  -0.000355
              25         26         27         28         29         30
     1  C   -0.000124  -0.000003   0.000006   0.000000  -0.000133   0.000001
     2  H    0.000002  -0.000000   0.000000  -0.000000   0.000002  -0.000000
     3  H    0.000080   0.000002  -0.000004   0.000000  -0.000001   0.000000
     4  H   -0.000073   0.000003  -0.000008  -0.000000   0.000007   0.000000
     5  C    0.005759  -0.000101   0.000241   0.000001   0.004828  -0.000147
     6  C   -0.000055   0.000002  -0.000025  -0.000000   0.000535   0.000007
     7  H   -0.000131   0.000002  -0.000005   0.000000  -0.000247   0.000002
     8  H    0.000000  -0.000000   0.000000   0.000000  -0.000002  -0.000000
     9  H    0.000005   0.000000  -0.000003  -0.000000   0.000042  -0.000004
    10  C   -0.000144   0.000000   0.000040   0.000000   0.000012  -0.000004
    11  C    0.000003  -0.000000   0.000000   0.000000   0.000035  -0.000000
    12  C   -0.000000   0.000000  -0.000000   0.000000  -0.000000   0.000000
    13  C    0.000000   0.000000  -0.000000  -0.000000   0.000000  -0.000000
    14  O   -0.000000   0.000000   0.000000   0.000000   0.000000   0.000000
    15  H    0.000000  -0.000000   0.000000  -0.000000   0.000000  -0.000000
    16  C    0.000000   0.000000   0.000000   0.000000  -0.000019  -0.000000
    17  C   -0.000079   0.000001   0.000004  -0.000000  -0.000204   0.000001
    18  H    0.000075  -0.000001  -0.000020   0.000000  -0.000096  -0.000000
    19  H   -0.000000  -0.000000  -0.000000   0.000000  -0.000000   0.000000
    20  H    0.000000  -0.000000   0.000000   0.000000   0.000000  -0.000000
    21  H    0.000000  -0.000000   0.000000   0.000000  -0.000000  -0.000000
    22  C   -0.031106   0.003637  -0.031301   0.000364  -0.032050   0.004805
    23  C    0.364256  -0.045903   0.006712   0.007456  -0.052484  -0.000394
    24  H   -0.042816  -0.005308   0.002954  -0.000120   0.000963   0.000037
    25  C    5.335401   0.332486   0.463264  -0.082304  -0.071573   0.011290
    26  H    0.332486   0.664917  -0.037353   0.001997   0.009184  -0.000257
    27  C    0.463264  -0.037353   4.382168   0.404727   0.451705  -0.040545
    28  O   -0.082304   0.001997   0.404727   8.598417  -0.066724   0.004635
    29  C   -0.071573   0.009184   0.451705  -0.066724   5.264839   0.318008
    30  H    0.011290  -0.000257  -0.040545   0.004635   0.318008   0.686278
    31  C   -0.050883  -0.000082   0.004620   0.006213   0.428172  -0.051334
    32  H    0.000344   0.000025   0.003286  -0.000074  -0.039047  -0.007289
              31         32
     1  C    0.006860   0.000142
     2  H   -0.000090  -0.000011
     3  H   -0.000239  -0.000006
     4  H   -0.000073  -0.000001
     5  C   -0.061487  -0.009759
     6  C   -0.011294  -0.000661
     7  H    0.000347   0.000278
     8  H    0.000280  -0.000113
     9  H    0.005121   0.003483
    10  C   -0.005662   0.006143
    11  C    0.002026  -0.000049
    12  C   -0.000066   0.000050
    13  C    0.000008  -0.000040
    14  O    0.000000   0.000000
    15  H    0.000000  -0.000000
    16  C   -0.000103  -0.000022
    17  C   -0.002756   0.001275
    18  H    0.000744  -0.000023
    19  H   -0.000000  -0.000000
    20  H    0.000000  -0.000000
    21  H   -0.000035  -0.000127
    22  C    0.508055  -0.053097
    23  C   -0.056368   0.008728
    24  H    0.008402  -0.000355
    25  C   -0.050883   0.000344
    26  H   -0.000082   0.000025
    27  C    0.004620   0.003286
    28  O    0.006213  -0.000074
    29  C    0.428172  -0.039047
    30  H   -0.051334  -0.007289
    31  C    5.146012   0.334086
    32  H    0.334086   0.657578
 Mulliken charges:
               1
     1  C   -0.457254
     2  H    0.136928
     3  H    0.141791
     4  H    0.143017
     5  C   -0.029896
     6  C   -0.454731
[...]
 Alpha virt. eigenvalues --    2.74213   2.75529   2.77578   2.78300   2.79998
 Alpha virt. eigenvalues --    2.82603   2.84638   2.86434   2.87963   2.88413
 Alpha virt. eigenvalues --    2.90359   2.91394   2.91861   2.95716   2.96555
 Alpha virt. eigenvalues --    2.98617   2.99220   3.01578   3.02005   3.04336
 Alpha virt. eigenvalues --    3.06671   3.08075   3.09084   3.12322   3.14006
 Alpha virt. eigenvalues --    3.15785   3.17460   3.20462   3.21419   3.22972
 Alpha virt. eigenvalues --    3.25717   3.26011   3.28032   3.29097   3.31419
 Alpha virt. eigenvalues --    3.34457   3.37143   3.37948   3.43884   3.49557
 Alpha virt. eigenvalues --    3.51050   3.53678   3.58815   3.59563   3.60896
 Alpha virt. eigenvalues --    3.78469   3.80799   3.83912   3.84581   3.85947
 Alpha virt. eigenvalues --    3.92863   3.96953   3.98920   4.01176   4.03825
 Alpha virt. eigenvalues --    4.04223   4.04455   4.16552   4.23844   4.28826
 Alpha virt. eigenvalues --    4.35979   4.49243   4.79890   5.06806   5.14850
          Condensed to atoms (all electrons):
               1          2          3          4          5          6
     1  C    7.965435  -0.338899   0.374083   0.309959  -1.899638  -1.679357
     2  H   -0.338899   1.974466  -0.390995  -0.414666  -0.314701  -0.054007
     3  H    0.374083  -0.390995   1.433840  -0.253866  -0.090886  -0.019184
     4  H    0.309959  -0.414666  -0.253866   1.460281   0.414161  -0.020752
     5  C   -1.899638  -0.314701  -0.090886   0.414161  33.247190  -1.964497
     6  C   -1.679357  -0.054007  -0.019184  -0.020752  -1.964497   7.992865
     7  H   -0.160340   0.032577  -0.026623  -0.005869  -0.297219  -0.262270
     8  H    0.054189  -0.045227   0.003110   0.016626  -0.001052   0.406746
     9  H   -0.027085   0.005439   0.010383  -0.008433   0.183566   0.432370
    10  C   -1.146017   0.060627   0.246706  -0.300078  -6.733398   2.001648
    11  C   -0.352069   0.342120  -0.179948  -0.056517  -1.601776  -0.320262
    12  C   -0.140622  -0.042213  -0.007567  -0.003990  -0.032578   0.464955
    13  C   -0.091698   0.034272  -0.005207  -0.005320  -0.819683   0.088480
    14  O    0.004211  -0.000399   0.000179   0.000582   0.014876  -0.000633
    15  H   -0.000840  -0.000021   0.000020  -0.000151  -0.008223   0.000578
    16  C    0.633157  -0.026184   0.027378   0.035535  -0.374527  -0.434020
    17  C   -0.036663   0.060252  -0.021277   0.078002  -1.199562  -0.329461
    18  H   -0.044395   0.024132  -0.010401  -0.057567  -0.002596   0.024948
    19  H    0.005123   0.000722   0.000003  -0.002462  -0.032280  -0.003520
    20  H    0.001220  -0.003673   0.000696   0.000419   0.051771   0.018085
    21  H    0.012673   0.000995  -0.008796   0.009417  -0.538794   0.097401
    22  C    2.274857   0.298692   0.057385  -0.141657  -7.414262  -1.444752
    23  C   -0.477552  -0.073588  -0.087545  -0.028996  -1.351446  -0.174817
    24  H    0.089648   0.049489  -0.029902  -0.045762  -0.620496  -0.027832
    25  C    0.453581  -0.056727   0.136869   0.054575  -1.007117  -0.380276
    26  H    0.024022   0.000070   0.000034   0.002890   0.040597   0.002593
    27  C    0.043568  -0.000382   0.000956   0.001347  -0.123041   0.015164
    28  O   -0.001234  -0.000084   0.000308   0.000319  -0.001720   0.002770
    29  C   -0.424390   0.018643  -0.035621  -0.030643  -1.079544   0.643864
    30  H   -0.002327   0.000112   0.000268  -0.000211   0.011168  -0.007303
    31  C   -0.299882   0.069563  -0.075425  -0.000314   0.218545  -0.163114
    32  H   -0.005616   0.001624  -0.004079  -0.000456  -0.170229   0.056585
               7          8          9         10         11         12
     1  C   -0.160340   0.054189  -0.027085  -1.146017  -0.352069  -0.140622
     2  H    0.032577  -0.045227   0.005439   0.060627   0.342120  -0.042213
     3  H   -0.026623   0.003110   0.010383   0.246706  -0.179948  -0.007567
     4  H   -0.005869   0.016626  -0.008433  -0.300078  -0.056517  -0.003990
     5  C   -0.297219  -0.001052   0.183566  -6.733398  -1.601776  -0.032578
     6  C   -0.262270   0.406746   0.432370   2.001648  -0.320262   0.464955
     7  H    1.914173  -0.441735  -0.373392   0.421399  -0.137804  -0.083747
     8  H   -0.441735   1.581811  -0.274365  -0.065884  -0.110870   0.205644
     9  H   -0.373392  -0.274365   1.439287   0.014517  -0.080284   0.046022
    10  C    0.421399  -0.065884   0.014517  30.572379 -13.319577   3.617310
    11  C   -0.137804  -0.110870  -0.080284 -13.319577  30.112968  -8.004409
    12  C   -0.083747   0.205644   0.046022   3.617310  -8.004409  16.743996
    13  C    0.008045  -0.020287  -0.002698  -5.827388   4.282915  -4.085740
    14  O   -0.000075   0.000433   0.000233   0.235996  -0.032414   0.374757
    15  H    0.000128  -0.000424  -0.000107  -0.040253   0.048264  -0.009090
    16  C    0.005807   0.009183  -0.024626   5.216734  -6.683247   3.983059
    17  C    0.112019  -0.155316   0.012153 -12.517984   2.325462  -6.158416
    18  H    0.003348  -0.005357   0.001989   1.320078  -0.006025   0.226741
    19  H   -0.000151   0.000417  -0.000506  -0.610247   0.248237  -0.003463
    20  H   -0.000540   0.002228   0.000540  -0.092037   0.623618  -1.212977
    21  H    0.052176  -0.050917  -0.039182   1.394342  -1.908506   0.238235
    22  C    0.077259   0.125430  -0.065688   0.434390  -0.568905  -0.161249
    23  C    0.297426  -0.161384  -0.048540   0.471546   0.413183  -0.141853
    24  H    0.014965  -0.008460  -0.000982   0.128772  -0.044500  -0.007632
    25  C   -0.018421  -0.016936   0.001377  -0.126903  -0.249807  -0.050405
    26  H   -0.003015   0.000973   0.000873  -0.013775   0.001184  -0.000336
    27  C    0.015158  -0.003205  -0.007295  -0.048499   0.054802   0.006985
    28  O   -0.000276   0.000289   0.000448   0.003138  -0.000272  -0.000021
    29  C    0.003164   0.034208   0.013129   0.290995   0.190525   0.127214
    30  H    0.001759  -0.000984  -0.000806  -0.011162  -0.012402  -0.000639
    31  C    0.044586   0.002387  -0.117279  -0.463255   0.131690   0.116074
    32  H    0.018327  -0.003217  -0.046268  -0.073589   0.225548  -0.002502
              13         14         15         16         17         18
     1  C   -0.091698   0.004211  -0.000840   0.633157  -0.036663  -0.044395
     2  H    0.034272  -0.000399  -0.000021  -0.026184   0.060252   0.024132
     3  H   -0.005207   0.000179   0.000020   0.027378  -0.021277  -0.010401
     4  H   -0.005320   0.000582  -0.000151   0.035535   0.078002  -0.057567
     5  C   -0.819683   0.014876  -0.008223  -0.374527  -1.199562  -0.002596
     6  C    0.088480  -0.000633   0.000578  -0.434020  -0.329461   0.024948
     7  H    0.008045  -0.000075   0.000128   0.005807   0.112019   0.003348
     8  H   -0.020287   0.000433  -0.000424   0.009183  -0.155316  -0.005357
     9  H   -0.002698   0.000233  -0.000107  -0.024626   0.012153   0.001989
    10  C   -5.827388   0.235996  -0.040253   5.216734 -12.517984   1.320078
    11  C    4.282915  -0.032414   0.048264  -6.683247   2.325462  -0.006025
    12  C   -4.085740   0.374757  -0.009090   3.983059  -6.158416   0.226741
    13  C   11.591033  -0.712263  -0.015899  -5.154614   5.270644  -0.566940
    14  O   -0.712263   9.087314   0.311334   0.035984  -0.242569  -0.004530
    15  H   -0.015899   0.311334   0.602245  -0.149891   0.089318  -0.000283
    16  C   -5.154614   0.035984  -0.149891  19.162453 -10.310663   0.747453
    17  C    5.270644  -0.242569   0.089318 -10.310663  30.605123  -2.355816
    18  H   -0.566940  -0.004530  -0.000283   0.747453  -2.355816   2.598979
    19  H    1.081369  -0.044924  -0.002507  -1.597367   0.725839  -0.124113
    20  H    0.493706  -0.091942   0.003724   0.015661  -0.049013   0.008014
    21  H   -0.246876   0.003508  -0.000140  -0.004989   0.146125  -0.029337
    22  C   -0.057219   0.002861   0.000044   0.649559  -0.441004  -0.229396
    23  C    0.057701  -0.000987   0.000474  -0.167767  -0.214003   0.203668
    24  H    0.005851  -0.000170   0.000018   0.044730   0.124663   0.010044
    25  C    0.030338   0.000185  -0.000019   0.247915   0.333652  -0.044781
    26  H    0.000008   0.000006  -0.000003   0.000574  -0.017950  -0.002441
    27  C   -0.001193  -0.000023   0.000041  -0.036339   0.008323   0.029032
    28  O    0.000095  -0.000001   0.000001  -0.000864   0.000194   0.000107
    29  C   -0.029895  -0.000274   0.000005  -0.255859   0.005372  -0.031458
    30  H    0.001043   0.000061   0.000020   0.002309   0.030766   0.002429
    31  C    0.012617  -0.000461  -0.000193   0.139599  -0.260506   0.045014
    32  H    0.016952  -0.000477   0.000006  -0.033283  -0.016350   0.016891
              19         20         21         22         23         24
     1  C    0.005123   0.001220   0.012673   2.274857  -0.477552   0.089648
     2  H    0.000722  -0.003673   0.000995   0.298692  -0.073588   0.049489
     3  H    0.000003   0.000696  -0.008796   0.057385  -0.087545  -0.029902
     4  H   -0.002462   0.000419   0.009417  -0.141657  -0.028996  -0.045762
     5  C   -0.032280   0.051771  -0.538794  -7.414262  -1.351446  -0.620496
     6  C   -0.003520   0.018085   0.097401  -1.444752  -0.174817  -0.027832
     7  H   -0.000151  -0.000540   0.052176   0.077259   0.297426   0.014965
     8  H    0.000417   0.002228  -0.050917   0.125430  -0.161384  -0.008460
     9  H   -0.000506   0.000540  -0.039182  -0.065688  -0.048540  -0.000982
    10  C   -0.610247  -0.092037   1.394342   0.434390   0.471546   0.128772
    11  C    0.248237   0.623618  -1.908506  -0.568905   0.413183  -0.044500
    12  C   -0.003463  -1.212977   0.238235  -0.161249  -0.141853  -0.007632
    13  C    1.081369   0.493706  -0.246876  -0.057219   0.057701   0.005851
    14  O   -0.044924  -0.091942   0.003508   0.002861  -0.000987  -0.000170
    15  H   -0.002507   0.003724  -0.000140   0.000044   0.000474   0.000018
    16  C   -1.597367   0.015661  -0.004989   0.649559  -0.167767   0.044730
    17  C    0.725839  -0.049013   0.146125  -0.441004  -0.214003   0.124663
    18  H   -0.124113   0.008014  -0.029337  -0.229396   0.203668   0.010044
    19  H    1.855027  -0.017938   0.011580   0.014047  -0.006484   0.000791
    20  H   -0.017938   1.971953  -0.093737  -0.010132  -0.001940  -0.000205
    21  H    0.011580  -0.093737   2.552811   0.218568  -0.008274   0.000669
    22  C    0.014047  -0.010132   0.218568  26.796107 -10.570067   1.230211
    23  C   -0.006484  -0.001940  -0.008274 -10.570067  26.644192  -2.151352
    24  H    0.000791  -0.000205   0.000669   1.230211  -2.151352   2.662324
    25  C    0.002680  -0.000085   0.001356   2.223864  -5.651016   0.724623
    26  H   -0.000026   0.000007  -0.000183   0.025275   0.726169  -0.112741
    27  C   -0.001975  -0.000234   0.001900  -2.754901   2.089460  -0.059638
    28  O   -0.000047  -0.000001  -0.000077   0.169788  -0.098775  -0.003670
    29  C   -0.000900  -0.000161   0.016526   1.373772  -2.742939   0.073621
    30  H   -0.000476  -0.000160   0.001767  -0.141086   0.150722   0.006343
    31  C    0.004401  -0.006823   0.006090  -7.679405  -1.436720  -0.125097
    32  H   -0.000164   0.000050  -0.003735   0.703058  -0.120682  -0.018620
              25         26         27         28         29         30
     1  C    0.453581   0.024022   0.043568  -0.001234  -0.424390  -0.002327
     2  H   -0.056727   0.000070  -0.000382  -0.000084   0.018643   0.000112
     3  H    0.136869   0.000034   0.000956   0.000308  -0.035621   0.000268
     4  H    0.054575   0.002890   0.001347   0.000319  -0.030643  -0.000211
     5  C   -1.007117   0.040597  -0.123041  -0.001720  -1.079544   0.011168
     6  C   -0.380276   0.002593   0.015164   0.002770   0.643864  -0.007303
     7  H   -0.018421  -0.003015   0.015158  -0.000276   0.003164   0.001759
     8  H   -0.016936   0.000973  -0.003205   0.000289   0.034208  -0.000984
     9  H    0.001377   0.000873  -0.007295   0.000448   0.013129  -0.000806
    10  C   -0.126903  -0.013775  -0.048499   0.003138   0.290995  -0.011162
    11  C   -0.249807   0.001184   0.054802  -0.000272   0.190525  -0.012402
    12  C   -0.050405  -0.000336   0.006985  -0.000021   0.127214  -0.000639
    13  C    0.030338   0.000008  -0.001193   0.000095  -0.029895   0.001043
    14  O    0.000185   0.000006  -0.000023  -0.000001  -0.000274   0.000061
    15  H   -0.000019  -0.000003   0.000041   0.000001   0.000005   0.000020
    16  C    0.247915   0.000574  -0.036339  -0.000864  -0.255859   0.002309
    17  C    0.333652  -0.017950   0.008323   0.000194   0.005372   0.030766
    18  H   -0.044781  -0.002441   0.029032   0.000107  -0.031458   0.002429
    19  H    0.002680  -0.000026  -0.001975  -0.000047  -0.000900  -0.000476
    20  H   -0.000085   0.000007  -0.000234  -0.000001  -0.000161  -0.000160
    21  H    0.001356  -0.000183   0.001900  -0.000077   0.016526   0.001767
    22  C    2.223864   0.025275  -2.754901   0.169788   1.373772  -0.141086
    23  C   -5.651016   0.726169   2.089460  -0.098775  -2.742939   0.150722
    24  H    0.724623  -0.112741  -0.059638  -0.003670   0.073621   0.006343
    25  C   12.469157  -0.977796  -1.612138   0.126771   1.897128  -0.169216
    26  H   -0.977796   1.803304   0.134062  -0.021003  -0.175911  -0.011113
    27  C   -1.612138   0.134062   8.327436  -0.351810  -1.442168   0.176873
    28  O    0.126771  -0.021003  -0.351810   9.329200   0.121544  -0.034126
    29  C    1.897128  -0.175911  -1.442168   0.121544  12.502853  -0.866621
    30  H   -0.169216  -0.011113   0.176873  -0.034126  -0.866621   1.818411
    31  C   -2.552039   0.116668   1.226855  -0.092148  -5.289496   0.751866
    32  H    0.088991   0.003713  -0.112643  -0.000963   0.903417  -0.147163
              31         32
     1  C   -0.299882  -0.005616
     2  H    0.069563   0.001624
     3  H   -0.075425  -0.004079
     4  H   -0.000314  -0.000456
     5  C    0.218545  -0.170229
     6  C   -0.163114   0.056585
     7  H    0.044586   0.018327
     8  H    0.002387  -0.003217
     9  H   -0.117279  -0.046268
    10  C   -0.463255  -0.073589
    11  C    0.131690   0.225548
    12  C    0.116074  -0.002502
    13  C    0.012617   0.016952
    14  O   -0.000461  -0.000477
    15  H   -0.000193   0.000006
    16  C    0.139599  -0.033283
    17  C   -0.260506  -0.016350
    18  H    0.045014   0.016891
    19  H    0.004401  -0.000164
    20  H   -0.006823   0.000050
    21  H    0.006090  -0.003735
    22  C   -7.679405   0.703058
    23  C   -1.436720  -0.120682
    24  H   -0.125097  -0.018620
    25  C   -2.552039   0.088991
    26  H    0.116668   0.003713
    27  C    1.226855  -0.112643
    28  O   -0.092148  -0.000963
    29  C   -5.289496   0.903417
    30  H    0.751866  -0.147163
    31  C   23.468715  -2.021271
    32  H   -2.021271   2.572809
 Mulliken charges:
               1
     1  C    0.882895
     2  H   -0.212027
     3  H   -0.044893
     4  H   -0.006402
     5  C   -0.502607
     6  C    1.037005
     7  H   -0.210839
     8  H   -0.078058
     9  H   -0.044790
    10  C    0.959469
    11  C    0.669076
    12  C   -0.001541
    13  C    0.667849
    14  O   -0.940380
    15  H    0.171822
    16  C    0.297147
    17  C    0.398643
    18  H   -0.747430
    19  H   -0.500687
    20  H   -0.610094
    21  H   -0.832596
    22  C    1.004554
    23  C    0.662186
    24  H   -0.909704
    25  C    0.120620
    26  H   -0.546730
    27  C    0.423522
    28  O   -1.147879
    29  C    0.189899
    30  H   -0.550121
    31  C    0.228759
    32  H   -0.826665
 Sum of Mulliken charges =  -1.00000
 Mulliken charges with hydrogens summed into heavy atoms:
               1
     1  C    0.619572
     5  C   -0.502607
     6  C    0.703318
    10  C    0.959469
    11  C   -0.163519
    12  C   -0.611635
    13  C    0.667849
    14  O   -0.768558
    16  C   -0.203541
    17  C   -0.348786
    22  C    1.004554
    23  C   -0.247518
    25  C   -0.426111
    27  C    0.423522
    28  O   -1.147879
    29  C   -0.360222
    31  C   -0.597906
 Electronic spatial extent (au):  <R**2>=           4865.1361
 Charge=             -1.0000 electrons
 Dipole moment (field-independent basis, Debye):
    X=            -15.7375    Y=              6.0568    Z=             -0.2038  Tot=             16.8640
 Quadrupole moment (field-independent basis, Debye-Ang):
   XX=           -184.1612   YY=           -123.0783   ZZ=           -107.1005
   XY=             23.1401   XZ=             11.4699   YZ=             -1.1338
 Traceless Quadrupole moment (field-independent basis, Debye-Ang):
   XX=            -46.0479   YY=             15.0350   ZZ=             31.0128
   XY=             23.1401   XZ=             11.4699   YZ=             -1.1338
 Octapole moment (field-independent basis, Debye-Ang**2):
  XXX=           -433.1461  YYY=             16.6414  ZZZ=              1.0425  XYY=            -49.5612
  XXY=            142.0850  XXZ=            -21.2649  XZZ=            -13.2301  YZZ=             -5.9146
  YYZ=              2.0341  XYZ=             -6.2709
 Hexadecapole moment (field-independent basis, Debye-Ang**3):
 XXXX=          -6337.8781 YYYY=          -1396.3642 ZZZZ=           -650.4368 XXXY=            664.3938
 XXXZ=            313.1869 YYYX=            106.3375 YYYZ=            -10.8978 ZZZX=              8.7955
 ZZZY=             -1.5004 XXYY=          -1368.5316 XXZZ=           -925.2039 YYZZ=           -324.7486
 XXYZ=             11.6313 YYXZ=             21.2138 ZZXY=             16.8896
 N-N= 1.128912232728D+03 E-N=-3.971900408656D+03  KE= 7.258364926644D+02
 Leave Link  601 at Mon Jul 12 15:25:59 2021, MaxMem=   262144000 cpu:               0.5 elap:               0.6
 (Enter /dades/curu/g16A03_MST/g16/l9999.exe)
 1\1\GINC-PIRINEUS26\SP\RMP2-FC\Aug-CC-pVDZ\C15H15O2(1-)\UBATOR02\12-Ju
 l-2021\0\\#p mp2/aug-cc-pVDZ scf=tight maxdisk=180GB geom=allcheck\\SE
 T_328_BBB212_conf1.geo_225_225 geometry\\-1,1\C,0,1.5369849627,1.61944
 68066,-0.9599513665\H,0,1.77826743,2.5163491528,-0.381936507\H,0,1.485
 6589741,1.897945446,-2.0170562055\H,0,2.358167696,0.9065728295,-0.8369
 757212\C,0,0.1922802201,1.0319099488,-0.4799038525\C,0,-0.884602683,2.
 1135961927,-0.7040339311\H,0,-0.963270644,2.3308875957,-1.7722145383\H
 ,0,-0.6399865678,3.0471819321,-0.1885004664\H,0,-1.8651659915,1.776865
 1421,-0.3573040257\C,0,0.3429918545,0.6976641993,1.015934879\C,0,-0.16
 41300747,1.5073686837,2.0379211656\C,0,0.0375544542,1.2031098572,3.387
 295705\C,0,0.7680613749,0.0710950987,3.7454036921\O,0,1.0054516336,-0.
 2856001903,5.0462122847\H,0,0.5905461038,0.3654011685,5.634452297\C,0,
 1.2867499103,-0.7546775791,2.7415171657\C,0,1.0684731494,-0.440623397,
 1.4058534811\H,0,1.4540576529,-1.0999076478,0.6352775654\H,0,1.8468986
 561,-1.638318095,3.0246376783\H,0,-0.3763955804,1.8487976488,4.1562630
 157\H,0,-0.7326214898,2.3967135239,1.7914198265\C,0,-0.1986097348,-0.2
 202895786,-1.2758777252\C,0,0.533542759,-0.7129975502,-2.3666699062\H,
 0,1.4528732757,-0.2136802541,-2.6607014323\C,0,0.1243730405,-1.8240416
 115,-3.0985320411\H,0,0.7255179053,-2.1691156059,-3.9376166391\C,0,-1.
 0772608047,-2.5518168973,-2.799788998\O,0,-1.4704938434,-3.5741490174,
 -3.4710624183\C,0,-1.8053692692,-2.0277135165,-1.6726834432\H,0,-2.724
 424542,-2.5377587475,-1.3899228582\C,0,-1.3795405107,-0.9188886562,-0.
 9570232244\H,0,-1.977579317,-0.5763268819,-0.1134334558\\Version=ES64L
 -G16RevA.03\State=1-A\HF=-726.5706883\MP2=-729.0720129\RMSD=5.552e-09\
 PG=C01 [X(C15H15O2)]\\@


 HIGGLEDY-PIGGLEDY
 NIC'LAUS COPERNICUS
 LOOKED AT THE UNIVERSE,
 SPOKE TO THE THRONG;
 GIVE UP YOUR PTOLOMY,
 RISE UP AND FOLLOW ME,
 HELIOCENTRICALLY
 PTOLEMY'S WRONG.
   -- NANCY L. STARK
 Job cpu time:       0 days  2 hours 53 minutes 18.0 seconds.
 Elapsed time:       0 days  0 hours 56 minutes 29.5 seconds.
 File lengths (MBytes):  RWF=  69085 Int=      0 D2E=      0 Chk=     24 Scr=      1
 Normal termination of Gaussian 16 at Mon Jul 12 15:26:01 2021.
