 Entering Gaussian System, Link 0=g16
 Input=SET_328_BBB87_conf1.geo_180_270_OCTANOL.dat
 Output=SET_328_BBB87_conf1.geo_180_270_OCTANOL.log
 Initial command:
 /dades/curu/g16A03_MST/g16/l1.exe "/tmp/ubator02/1835317/Gau-211887.inp" -scrdir="/tmp/ubator02/1835317/"
 Entering Link 1 = /dades/curu/g16A03_MST/g16/l1.exe PID=    211890.
  
 Copyright (c) 1988,1990,1992,1993,1995,1998,2003,2009,2016,
            Gaussian, Inc.  All Rights Reserved.
  
 This is part of the Gaussian(R) 16 program.  It is based on
 the Gaussian(R) 09 system (copyright 2009, Gaussian, Inc.),
 the Gaussian(R) 03 system (copyright 2003, Gaussian, Inc.),
 the Gaussian(R) 98 system (copyright 1998, Gaussian, Inc.),
 the Gaussian(R) 94 system (copyright 1995, Gaussian, Inc.),
 the Gaussian 92(TM) system (copyright 1992, Gaussian, Inc.),
 the Gaussian 90(TM) system (copyright 1990, Gaussian, Inc.),
 the Gaussian 88(TM) system (copyright 1988, Gaussian, Inc.),
 the Gaussian 86(TM) system (copyright 1986, Carnegie Mellon
 University), and the Gaussian 82(TM) system (copyright 1983,
 Carnegie Mellon University). Gaussian is a federally registered
 trademark of Gaussian, Inc.
  
 This software contains proprietary and confidential information,
 including trade secrets, belonging to Gaussian, Inc.
  
 This software is provided under written license and may be
 used, copied, transmitted, or stored only in accord with that
 written license.
  
 The following legend is applicable only to US Government
 contracts under FAR:
  
                    RESTRICTED RIGHTS LEGEND
  
 Use, reproduction and disclosure by the US Government is
 subject to restrictions as set forth in subparagraphs (a)
 and (c) of the Commercial Computer Software - Restricted
 Rights clause in FAR 52.227-19.
  
 Gaussian, Inc.
 340 Quinnipiac St., Bldg. 40, Wallingford CT 06492
  
  
 ---------------------------------------------------------------
 Warning -- This program may not be used in any manner that
 competes with the business of Gaussian, Inc. or will provide
 assistance to any competitor of Gaussian, Inc.  The licensee
 of this program is prohibited from giving any competitor of
 Gaussian, Inc. access to this program.  By using this program,
 the user acknowledges that Gaussian, Inc. is engaged in the
 business of creating and licensing software in the field of
 computational chemistry and represents and warrants to the
 licensee that it is not a competitor of Gaussian, Inc. and that
 it will not use this program in any manner prohibited above.
 ---------------------------------------------------------------
  

 Cite this work as:
 Gaussian 16, Revision A.03,
 M. J. Frisch, G. W. Trucks, H. B. Schlegel, G. E. Scuseria, 
 M. A. Robb, J. R. Cheeseman, G. Scalmani, V. Barone, 
 G. A. Petersson, H. Nakatsuji, X. Li, M. Caricato, A. V. Marenich, 
 J. Bloino, B. G. Janesko, R. Gomperts, B. Mennucci, H. P. Hratchian, 
 J. V. Ortiz, A. F. Izmaylov, J. L. Sonnenberg, D. Williams-Young, 
 F. Ding, F. Lipparini, F. Egidi, J. Goings, B. Peng, A. Petrone, 
 T. Henderson, D. Ranasinghe, V. G. Zakrzewski, J. Gao, N. Rega, 
 G. Zheng, W. Liang, M. Hada, M. Ehara, K. Toyota, R. Fukuda, 
 J. Hasegawa, M. Ishida, T. Nakajima, Y. Honda, O. Kitao, H. Nakai, 
 T. Vreven, K. Throssell, J. A. Montgomery, Jr., J. E. Peralta, 
 F. Ogliaro, M. J. Bearpark, J. J. Heyd, E. N. Brothers, K. N. Kudin, 
 V. N. Staroverov, T. A. Keith, R. Kobayashi, J. Normand, 
 K. Raghavachari, A. P. Rendell, J. C. Burant, S. S. Iyengar, 
 J. Tomasi, M. Cossi, J. M. Millam, M. Klene, C. Adamo, R. Cammi, 
 J. W. Ochterski, R. L. Martin, K. Morokuma, O. Farkas, 
 J. B. Foresman, and D. J. Fox, Gaussian, Inc., Wallingford CT, 2016.
 
 ******************************************
 Gaussian 16:  ES64L-G16RevA.03 25-Dec-2016
                12-Jul-2021 
 ******************************************
 %mem=800MB
 %nproc=4
 Will use up to    4 processors via shared memory.
 %chk=SET_328_BBB87_conf1.geo_180_270.chk
 ---------------------------------------------------------------
 #p b3lyp/6-31G(d) opt freq scrf=(iefpcm,read,solvent=n-octanol)
 ---------------------------------------------------------------
 1/18=20,19=15,26=3,38=1,40=2/1,3;
 2/9=110,12=2,17=6,18=5,40=1/2;
 3/5=1,6=6,7=1,11=2,25=1,30=1,70=2203,71=1,72=25,74=-5/1,2,3;
 4//1;
 5/5=2,38=5,53=25/2;
 6/7=2,8=2,9=2,10=2,28=1/1;
 7//1,2,3,16;
 1/18=20,19=15,26=3/3(2);
 2/9=110/2;
 99//99;
 2/9=110/2;
 3/5=1,6=6,7=1,11=2,25=1,30=1,70=2205,71=1,72=25,74=-5/1,2,3;
 4/5=5,16=3,69=1/1;
 5/5=2,38=5,53=25/2;
 7//1,2,3,16;
 1/18=20,19=15,26=3/3(-5);
 2/9=110/2;
 6/7=2,8=2,9=2,10=2,19=2,28=1/1;
 99/9=1/99;
 Leave Link    1 at Mon Jul 12 12:51:26 2021, MaxMem=   104857600 cpu:               0.1 elap:               0.0
 (Enter /dades/curu/g16A03_MST/g16/l101.exe)
 ----------------------------------------
 SET_328_BBB87_conf1.geo_180_270 geometry
 ----------------------------------------
 Symbolic Z-matrix:
 Charge =  1 Multiplicity = 1
 N                     0.957     2.645    -0.449 
 H                     0.079     3.075    -0.238 
 H                     1.308     3.01     -1.311 
 C                     0.777     1.214    -0.568 
 H                     1.753     0.729    -0.649 
 H                     0.14      1.027    -1.436 
 C                     0.045     0.912     0.682 
 H                    -0.934     1.388     0.774 
 H                     0.702     1.197     1.506 
 C                    -0.196    -0.531     0.672 
 N                    -1.376    -0.917     0.072 
 C                    -1.43     -2.292    -0.039 
 H                    -2.345    -2.726    -0.423 
 C                    -0.227    -2.891     0.264 
 H                    -0.015    -3.951     0.334 
 S                     0.918    -1.801     1.001 
 H                     1.608     2.839     0.285 
 
 ITRead=  0  0  0  0  0  0  0  0  0  0  0  0  0  0  0  0  0
 MicOpt= -1 -1 -1 -1 -1 -1 -1 -1 -1 -1 -1 -1 -1 -1 -1 -1 -1
 NAtoms=     17 NQM=       17 NQMF=       0 NMMI=      0 NMMIF=      0
                NMic=       0 NMicF=      0.
                    Isotopes and Nuclear Properties:
 (Nuclear quadrupole moments (NQMom) in fm**2, nuclear magnetic moments (NMagM)
  in nuclear magnetons)

  Atom         1           2           3           4           5           6           7           8           9          10
 IAtWgt=          14           1           1          12           1           1          12           1           1          12
 AtmWgt=  14.0030740   1.0078250   1.0078250  12.0000000   1.0078250   1.0078250  12.0000000   1.0078250   1.0078250  12.0000000
 NucSpn=           2           1           1           0           1           1           0           1           1           0
 AtZEff=  -0.0000000  -0.0000000  -0.0000000  -0.0000000  -0.0000000  -0.0000000  -0.0000000  -0.0000000  -0.0000000  -0.0000000
 NQMom=    2.0440000   0.0000000   0.0000000   0.0000000   0.0000000   0.0000000   0.0000000   0.0000000   0.0000000   0.0000000
 NMagM=    0.4037610   2.7928460   2.7928460   0.0000000   2.7928460   2.7928460   0.0000000   2.7928460   2.7928460   0.0000000
 AtZNuc=   7.0000000   1.0000000   1.0000000   6.0000000   1.0000000   1.0000000   6.0000000   1.0000000   1.0000000   6.0000000

  Atom        11          12          13          14          15          16          17
 IAtWgt=          14          12           1          12           1          32           1
 AtmWgt=  14.0030740  12.0000000   1.0078250  12.0000000   1.0078250  31.9720718   1.0078250
 NucSpn=           2           0           1           0           1           0           1
 AtZEff=  -0.0000000  -0.0000000  -0.0000000  -0.0000000  -0.0000000  -0.0000000  -0.0000000
 NQMom=    2.0440000   0.0000000   0.0000000   0.0000000   0.0000000   0.0000000   0.0000000
 NMagM=    0.4037610   0.0000000   2.7928460   0.0000000   2.7928460   0.0000000   2.7928460
 AtZNuc=   7.0000000   6.0000000   1.0000000   6.0000000   1.0000000  16.0000000   1.0000000
 Leave Link  101 at Mon Jul 12 12:51:26 2021, MaxMem=   104857600 cpu:               0.1 elap:               0.1
 (Enter /dades/curu/g16A03_MST/g16/l103.exe)

 GradGradGradGradGradGradGradGradGradGradGradGradGradGradGradGradGradGrad
 Berny optimization.
 Initialization pass.
                           ----------------------------
                           !    Initial Parameters    !
                           ! (Angstroms and Degrees)  !
 --------------------------                            --------------------------
 ! Name  Definition              Value          Derivative Info.                !
 --------------------------------------------------------------------------------
 ! R1    R(1,2)                  1.0002         estimate D2E/DX2                !
 ! R2    R(1,3)                  0.9997         estimate D2E/DX2                !
 ! R3    R(1,4)                  1.4472         estimate D2E/DX2                !
 ! R4    R(1,17)                 1.0001         estimate D2E/DX2                !
 ! R5    R(4,5)                  1.0929         estimate D2E/DX2                !
 ! R6    R(4,6)                  1.0928         estimate D2E/DX2                !
 ! R7    R(4,7)                  1.4797         estimate D2E/DX2                !
 ! R8    R(7,8)                  1.0925         estimate D2E/DX2                !
 ! R9    R(7,9)                  1.0917         estimate D2E/DX2                !
 ! R10   R(7,10)                 1.463          estimate D2E/DX2                !
 ! R11   R(10,11)                1.3789         estimate D2E/DX2                !
 ! R12   R(10,16)                1.7211         estimate D2E/DX2                !
 ! R13   R(11,12)                1.3805         estimate D2E/DX2                !
 ! R14   R(12,13)                1.0831         estimate D2E/DX2                !
 ! R15   R(12,14)                1.3776         estimate D2E/DX2                !
 ! R16   R(14,15)                1.0833         estimate D2E/DX2                !
 ! R17   R(14,16)                1.7442         estimate D2E/DX2                !
 ! A1    A(2,1,3)              109.4599         estimate D2E/DX2                !
 ! A2    A(2,1,4)              109.4684         estimate D2E/DX2                !
 ! A3    A(2,1,17)             109.4632         estimate D2E/DX2                !
 ! A4    A(3,1,4)              109.4986         estimate D2E/DX2                !
 ! A5    A(3,1,17)             109.4785         estimate D2E/DX2                !
 ! A6    A(4,1,17)             109.4587         estimate D2E/DX2                !
 ! A7    A(1,4,5)              109.5021         estimate D2E/DX2                !
 ! A8    A(1,4,6)              107.8803         estimate D2E/DX2                !
 ! A9    A(1,4,7)              101.1793         estimate D2E/DX2                !
 ! A10   A(5,4,6)              112.6915         estimate D2E/DX2                !
 ! A11   A(5,4,7)              114.4456         estimate D2E/DX2                !
 ! A12   A(6,4,7)              110.3473         estimate D2E/DX2                !
 ! A13   A(4,7,8)              115.184          estimate D2E/DX2                !
 ! A14   A(4,7,9)              106.6555         estimate D2E/DX2                !
 ! A15   A(4,7,10)             106.0823         estimate D2E/DX2                !
 ! A16   A(8,7,9)              111.2226         estimate D2E/DX2                !
 ! A17   A(8,7,10)             106.4218         estimate D2E/DX2                !
 ! A18   A(9,7,10)             111.2093         estimate D2E/DX2                !
 ! A19   A(7,10,11)            114.8371         estimate D2E/DX2                !
 ! A20   A(7,10,16)            128.3073         estimate D2E/DX2                !
 ! A21   A(11,10,16)           115.5            estimate D2E/DX2                !
 ! A22   A(10,11,12)           110.3203         estimate D2E/DX2                !
 ! A23   A(11,12,13)           117.4298         estimate D2E/DX2                !
 ! A24   A(11,12,14)           112.4097         estimate D2E/DX2                !
 ! A25   A(13,12,14)           129.9028         estimate D2E/DX2                !
 ! A26   A(12,14,15)           127.6321         estimate D2E/DX2                !
 ! A27   A(12,14,16)           113.2324         estimate D2E/DX2                !
 ! A28   A(15,14,16)           117.1119         estimate D2E/DX2                !
 ! A29   A(10,16,14)            87.4473         estimate D2E/DX2                !
 ! D1    D(2,1,4,5)           -171.5818         estimate D2E/DX2                !
 ! D2    D(2,1,4,6)             65.4432         estimate D2E/DX2                !
 ! D3    D(2,1,4,7)            -50.4172         estimate D2E/DX2                !
 ! D4    D(3,1,4,5)             68.417          estimate D2E/DX2                !
 ! D5    D(3,1,4,6)            -54.558          estimate D2E/DX2                !
 ! D6    D(3,1,4,7)           -170.4184         estimate D2E/DX2                !
 ! D7    D(17,1,4,5)           -51.6011         estimate D2E/DX2                !
 ! D8    D(17,1,4,6)          -174.5761         estimate D2E/DX2                !
 ! D9    D(17,1,4,7)            69.5635         estimate D2E/DX2                !
 ! D10   D(1,4,7,8)             62.5817         estimate D2E/DX2                !
 ! D11   D(1,4,7,9)            -61.3502         estimate D2E/DX2                !
 ! D12   D(1,4,7,10)          -179.9866         estimate D2E/DX2                !
 ! D13   D(5,4,7,8)           -179.7956         estimate D2E/DX2                !
 ! D14   D(5,4,7,9)             56.2724         estimate D2E/DX2                !
 ! D15   D(5,4,7,10)           -62.364          estimate D2E/DX2                !
 ! D16   D(6,4,7,8)            -51.4402         estimate D2E/DX2                !
 ! D17   D(6,4,7,9)           -175.3722         estimate D2E/DX2                !
 ! D18   D(6,4,7,10)            65.9915         estimate D2E/DX2                !
 ! D19   D(4,7,10,11)          -89.7719         estimate D2E/DX2                !
 ! D20   D(4,7,10,16)           76.2018         estimate D2E/DX2                !
 ! D21   D(8,7,10,11)           33.3665         estimate D2E/DX2                !
 ! D22   D(8,7,10,16)         -160.6599         estimate D2E/DX2                !
 ! D23   D(9,7,10,11)          154.6437         estimate D2E/DX2                !
 ! D24   D(9,7,10,16)          -39.3827         estimate D2E/DX2                !
 ! D25   D(7,10,11,12)         172.3691         estimate D2E/DX2                !
 ! D26   D(16,10,11,12)          4.5332         estimate D2E/DX2                !
 ! D27   D(7,10,16,14)        -164.3897         estimate D2E/DX2                !
 ! D28   D(11,10,16,14)          1.5059         estimate D2E/DX2                !
 ! D29   D(10,11,12,13)        175.206          estimate D2E/DX2                !
 ! D30   D(10,11,12,14)        -10.0457         estimate D2E/DX2                !
 ! D31   D(11,12,14,15)        174.6806         estimate D2E/DX2                !
 ! D32   D(11,12,14,16)         11.5046         estimate D2E/DX2                !
 ! D33   D(13,12,14,15)        -11.3985         estimate D2E/DX2                !
 ! D34   D(13,12,14,16)       -174.5745         estimate D2E/DX2                !
 ! D35   D(12,14,16,10)         -7.3052         estimate D2E/DX2                !
 ! D36   D(15,14,16,10)       -172.3828         estimate D2E/DX2                !
 --------------------------------------------------------------------------------
 Trust Radius=3.00D-01 FncErr=1.00D-07 GrdErr=1.00D-06 EigMax=2.50D+02 EigMin=1.00D-04
 Number of steps in this run=     92 maximum allowed number of steps=    102.
 GradGradGradGradGradGradGradGradGradGradGradGradGradGradGradGradGradGrad

 Leave Link  103 at Mon Jul 12 12:51:26 2021, MaxMem=   104857600 cpu:               0.0 elap:               0.0
 (Enter /dades/curu/g16A03_MST/g16/l202.exe)
                          Input orientation:                          
 ---------------------------------------------------------------------
 Center     Atomic      Atomic             Coordinates (Angstroms)
 Number     Number       Type             X           Y           Z
 ---------------------------------------------------------------------
      1          7           0        0.957000    2.645000   -0.449000
      2          1           0        0.079000    3.075000   -0.238000
      3          1           0        1.308000    3.010000   -1.311000
      4          6           0        0.777000    1.214000   -0.568000
      5          1           0        1.753000    0.729000   -0.649000
      6          1           0        0.140000    1.027000   -1.436000
      7          6           0        0.045000    0.912000    0.682000
      8          1           0       -0.934000    1.388000    0.774000
      9          1           0        0.702000    1.197000    1.506000
     10          6           0       -0.196000   -0.531000    0.672000
     11          7           0       -1.376000   -0.917000    0.072000
     12          6           0       -1.430000   -2.292000   -0.039000
     13          1           0       -2.345000   -2.726000   -0.423000
     14          6           0       -0.227000   -2.891000    0.264000
     15          1           0       -0.015000   -3.951000    0.334000
     16         16           0        0.918000   -1.801000    1.001000
     17          1           0        1.608000    2.839000    0.285000
 ---------------------------------------------------------------------
                    Distance matrix (angstroms):
                    1          2          3          4          5
     1  N    0.000000
     2  H    1.000152   0.000000
     3  H    0.999735   1.632787   0.000000
     4  C    1.447177   2.014801   2.014851   0.000000
     5  H    2.084388   2.911170   2.416450   1.092869   0.000000
     6  H    2.063875   2.373442   2.304808   1.092777   1.819325
     7  C    2.261458   2.350771   3.157344   1.479705   2.173089
     8  H    2.579081   2.212754   3.464776   2.181458   3.111138
     9  H    2.446171   2.637527   3.404364   2.075425   2.442877
    10  C    3.559919   3.729204   4.328162   2.351458   2.670439
    11  N    4.289776   4.260186   4.953572   3.096154   3.608296
    12  C    5.499076   5.578653   6.101298   4.176449   4.430579
    13  H    6.304881   6.289801   6.858181   5.029066   5.364858
    14  C    5.705920   5.994897   6.297511   4.307118   4.225916
    15  H    6.713054   7.049872   7.274055   5.302650   5.098481
    16  S    4.676637   5.100433   5.351931   3.401745   3.133788
    17  H    1.000096   1.633115   1.632929   2.014645   2.312030
                    6          7          8          9         10
     6  H    0.000000
     7  C    2.123246   0.000000
     8  H    2.483525   1.092466   0.000000
     9  H    3.000018   1.091719   1.802443   0.000000
    10  C    2.642711   1.463021   2.058545   2.118477   0.000000
    11  N    2.889889   2.395116   2.449733   3.292937   1.378911
    12  C    3.928393   3.600150   3.801235   4.370992   2.264817
    13  H    4.613719   4.490898   4.510956   5.328713   3.261173
    14  C    4.286655   3.835560   4.366897   4.372339   2.395209
    15  H    5.285585   4.875805   5.435355   5.328187   3.441425
    16  S    3.813376   2.867797   3.694747   3.047898   1.721086
    17  H    2.898311   2.512749   2.967539   2.237821   3.842016
                   11         12         13         14         15
    11  N    0.000000
    12  C    1.380530   0.000000
    13  H    2.111035   1.083068   0.000000
    14  C    2.292104   1.377614   2.232738   0.000000
    15  H    3.335584   2.212156   2.739083   1.083256   0.000000
    16  S    2.628104   2.614533   3.678392   1.744217   2.436776
    17  H    4.801787   5.971732   6.862703   6.016691   6.981449
                   16         17
    16  S    0.000000
    17  H    4.745351   0.000000
 Stoichiometry    C5H9N2S(1+)
 Framework group  C1[X(C5H9N2S)]
 Deg. of freedom    45
 Full point group                 C1      NOp   1
 Largest Abelian subgroup         C1      NOp   1
 Largest concise Abelian subgroup C1      NOp   1
                         Standard orientation:                         
 ---------------------------------------------------------------------
 Center     Atomic      Atomic             Coordinates (Angstroms)
 Number     Number       Type             X           Y           Z
 ---------------------------------------------------------------------
      1          7           0        3.287184    0.010021   -0.220486
      2          1           0        3.459015    0.802936    0.364378
      3          1           0        3.853798    0.072894   -1.041745
      4          6           0        1.890432   -0.017070   -0.598204
      5          1           0        1.668942   -0.957171   -1.109588
      6          1           0        1.694524    0.858495   -1.222037
      7          6           0        1.233965    0.132699    0.719426
      8          1           0        1.444410    1.069933    1.239798
      9          1           0        1.535415   -0.728473    1.318892
     10          6           0       -0.205612    0.118449    0.458956
     11          7           0       -0.762470    1.356229    0.215635
     12          6           0       -2.076905    1.220412   -0.183958
     13          1           0       -2.650463    2.127570   -0.329323
     14          6           0       -2.413397   -0.089463   -0.446297
     15          1           0       -3.390712   -0.483860   -0.696800
     16         16           0       -1.210793   -1.230580    0.095816
     17          1           0        3.513859   -0.826959    0.277786
 ---------------------------------------------------------------------
 Rotational constants (GHZ):           3.9682216           1.0475262           0.9040403
 Leave Link  202 at Mon Jul 12 12:51:26 2021, MaxMem=   104857600 cpu:               0.0 elap:               0.0
 (Enter /dades/curu/g16A03_MST/g16/l301.exe)
 Standard basis: 6-31G(d) (6D, 7F)
 Ernie: Thresh=  0.10000D-02 Tol=  0.10000D-05 Strict=F.
 There are   142 symmetry adapted cartesian basis functions of A   symmetry.
 There are   142 symmetry adapted basis functions of A   symmetry.
   142 basis functions,   284 primitive gaussians,   142 cartesian basis functions
    34 alpha electrons       34 beta electrons
       nuclear repulsion energy       445.3516581711 Hartrees.
 IExCor=  402 DFT=T Ex+Corr=B3LYP ExCW=0 ScaHFX=  0.200000
 ScaDFX=  0.800000  0.720000  1.000000  0.810000 ScalE2=  1.000000  1.000000
 IRadAn=      5 IRanWt=     -1 IRanGd=            0 ICorTp=0 IEmpDi=  4
 NAtoms=   17 NActive=   17 NUniq=   17 SFac= 1.00D+00 NAtFMM=   60 NAOKFM=F Big=F
 Integral buffers will be    131072 words long.
 Raffenetti 2 integral format.
 Two-electron integral symmetry is turned on.
 Using the following non-standard input for PCM:
 MSTModel=DFT cav MSTCharged
 --- end of non-standard input.
 MST model for solvation energy: B3LYP parametrization.
 MST cavity parameters:
 ISph   IAn     Re0     Alpha   Atom Type   QCorr
 ------------------------------------------------
   1      7     1.50     1.15      NH+        T
   2      1     0.90     1.15      NH+        T
   3      1     0.90     1.15      NH+        T
   4      6     1.50     1.50      CN+        F
   5      1     1.20     1.50      CN+        F
   6      1     1.20     1.50      CN+        F
   7      6     1.50     1.50      CH2        F
   8      1     1.20     1.50      CH2        F
   9      1     1.20     1.50      CH2        F
  10      6     1.50     1.50      C          F
  11      7     1.50     1.50      Nc         F
  12      6     1.50     1.50      CH         F
  13      1     1.20     1.50      CH         F
  14      6     1.50     1.50      CH         F
  15      1     1.20     1.50      CH         F
  16     16     1.75     1.50      S          F
  17      1     0.90     1.15      NH+        T
 ------------------------------------------------------------------------------
 Polarizable Continuum Model (PCM)
 =================================
 Model                : PCM.
 Atomic radii         : MST.
 Polarization charges : Total charges.
 Charge compensation  : None.
 Solution method      : On-the-fly selection.
 Cavity type          : Scaled VdW (van der Waals Surface) (Alpha=1.500).
 Cavity algorithm     : GePol (No added spheres)
                        Default sphere list used, NSphG=   17.
                        Lebedev-Laikov grids with approx.  5.0 points / Ang**2.
                        Smoothing algorithm: York/Karplus (Gamma=1.0000).
                        Polarization charges: spherical gaussians, with
                                              point-specific exponents (IZeta= 3).
                        Self-potential: point-specific (ISelfS= 7).
                        Self-field    : sphere-specific E.n sum rule (ISelfD= 2).
 1st derivatives      : Analytical E(r).r(x)/FMM algorithm (CHGder, D1EAlg=3).
                        Cavity 1st derivative terms included.
 Solvent              : n-Octanol, Eps=   9.862900 Eps(inf)=   2.043470
 ------------------------------------------------------------------------------
 Spheres list:
 ISph  on   Nord     Re0    Alpha      Xe            Ye            Ze
    1   N      1    1.5000  1.150      3.287184      0.010021     -0.220486
    2   H      2    0.9000  1.150      3.459015      0.802936      0.364378
    3   H      3    0.9000  1.150      3.853798      0.072894     -1.041745
    4   C      4    1.5000  1.500      1.890432     -0.017070     -0.598204
    5   H      5    1.2000  1.500      1.668942     -0.957171     -1.109588
    6   H      6    1.2000  1.500      1.694524      0.858495     -1.222037
    7   C      7    1.5000  1.500      1.233965      0.132699      0.719426
    8   H      8    1.2000  1.500      1.444410      1.069933      1.239798
    9   H      9    1.2000  1.500      1.535415     -0.728473      1.318892
   10   C     10    1.5000  1.500     -0.205612      0.118449      0.458956
   11   N     11    1.5000  1.500     -0.762470      1.356229      0.215635
   12   C     12    1.5000  1.500     -2.076905      1.220412     -0.183958
   13   H     13    1.2000  1.500     -2.650463      2.127570     -0.329323
   14   C     14    1.5000  1.500     -2.413397     -0.089463     -0.446297
   15   H     15    1.2000  1.500     -3.390712     -0.483860     -0.696800
   16   S     16    1.7500  1.500     -1.210793     -1.230580      0.095816
   17   H     17    0.9000  1.150      3.513859     -0.826959      0.277786
 ------------------------------------------------------------------------------
 GePol: Number of generator spheres                  =      17
 GePol: Total number of spheres                      =      17
 GePol: Number of exposed spheres                    =      17 (100.00%)
 GePol: Number of points                             =    1696
 GePol: Average weight of points                     =       0.12
 GePol: Minimum weight of points                     =   0.15D-08
 GePol: Maximum weight of points                     =    0.22065
 GePol: Number of points with low weight             =      94
 GePol: Fraction of low-weight points (<1% of avg)   =       5.54%
 GePol: Cavity surface area                          =    198.410 Ang**2
 GePol: Cavity volume                                =    211.743 Ang**3
 Surface areas from nonelectrostatic (unscaled) cavity and vdw tensions:
 Sphere =    1 Type =  NH+ Surf =       11.749 Tension =       -0.274
 Sphere =    2 Type =  NH+ Surf =        3.829 Tension =       -0.274
 Sphere =    3 Type =  NH+ Surf =        3.854 Tension =       -0.274
 Sphere =    4 Type =  CN+ Surf =        3.733 Tension =       -0.227
 Sphere =    5 Type =  CN+ Surf =       10.081 Tension =       -0.227
 Sphere =    6 Type =  CN+ Surf =        9.989 Tension =       -0.227
 Sphere =    7 Type =  CH2 Surf =        3.252 Tension =       -0.194
 Sphere =    8 Type =  CH2 Surf =        9.730 Tension =       -0.194
 Sphere =    9 Type =  CH2 Surf =        9.784 Tension =       -0.194
 Sphere =   10 Type =  C   Surf =        5.170 Tension =       -0.205
 Sphere =   11 Type =  Nc  Surf =       12.886 Tension =       -0.161
 Sphere =   12 Type =  CH  Surf =        7.965 Tension =       -0.195
 Sphere =   13 Type =  CH  Surf =       10.239 Tension =       -0.195
 Sphere =   14 Type =  CH  Surf =        7.632 Tension =       -0.195
 Sphere =   15 Type =  CH  Surf =       10.211 Tension =       -0.195
 Sphere =   16 Type =  S   Surf =       24.527 Tension =       -0.186
 Sphere =   17 Type =  NH+ Surf =        3.844 Tension =       -0.274
 PCM non-electrostatic energy =        -0.0107988184 Hartrees.
 Nuclear repulsion after PCM non-electrostatic terms =      445.3408593527 Hartrees.
 Leave Link  301 at Mon Jul 12 12:51:26 2021, MaxMem=   104857600 cpu:               0.1 elap:               0.1
 (Enter /dades/curu/g16A03_MST/g16/l302.exe)
 NPDir=0 NMtPBC=     1 NCelOv=     1 NCel=       1 NClECP=     1 NCelD=      1
         NCelK=      1 NCelE2=     1 NClLst=     1 CellRange=     0.0.
 One-electron integrals computed using PRISM.
 One-electron integral symmetry used in STVInt
 NBasis=   142 RedAO= T EigKep=  2.62D-03  NBF=   142
 NBsUse=   142 1.00D-06 EigRej= -1.00D+00 NBFU=   142
 Precomputing XC quadrature grid using
 IXCGrd= 4 IRadAn=           5 IRanWt=          -1 IRanGd=           0 AccXCQ= 0.00D+00.
 Generated NRdTot=       0 NPtTot=           0 NUsed=           0 NTot=          32
 NSgBfM=   142   142   142   142   142 MxSgAt=    17 MxSgA2=    17.
 Leave Link  302 at Mon Jul 12 12:51:27 2021, MaxMem=   104857600 cpu:               1.8 elap:               0.5
 (Enter /dades/curu/g16A03_MST/g16/l303.exe)
 DipDrv:  MaxL=1.
 Leave Link  303 at Mon Jul 12 12:51:27 2021, MaxMem=   104857600 cpu:               0.1 elap:               0.0
 (Enter /dades/curu/g16A03_MST/g16/l401.exe)
 ExpMin= 1.17D-01 ExpMax= 2.19D+04 ExpMxC= 3.30D+03 IAcc=3 IRadAn=         5 AccDes= 0.00D+00
 Harris functional with IExCor=  402 and IRadAn=       5 diagonalized for initial guess.
 HarFok:  IExCor=  402 AccDes= 0.00D+00 IRadAn=         5 IDoV= 1 UseB2=F ITyADJ=14
 ICtDFT=  3500011 ScaDFX=  1.000000  1.000000  1.000000  1.000000
 FoFCou: FMM=F IPFlag=           0 FMFlag=      100000 FMFlg1=           0
         NFxFlg=           0 DoJE=T BraDBF=F KetDBF=T FulRan=T
         wScrn=  0.000000 ICntrl=       500 IOpCl=  0 I1Cent=   200000004 NGrid=           0
         NMat0=    1 NMatS0=      1 NMatT0=    0 NMatD0=    1 NMtDS0=    0 NMtDT0=    0
 Petite list used in FoFCou.
 Harris En= -703.366663409352    
 JPrj=0 DoOrth=F DoCkMO=F.
 Leave Link  401 at Mon Jul 12 12:51:29 2021, MaxMem=   104857600 cpu:               7.9 elap:               2.0
 (Enter /dades/curu/g16A03_MST/g16/l502.exe)
 Keep R1 ints in memory in canonical form, NReq=55416097.
 FoFCou: FMM=F IPFlag=           0 FMFlag=           0 FMFlg1=           0
         NFxFlg=           0 DoJE=F BraDBF=F KetDBF=F FulRan=T
         wScrn=  0.000000 ICntrl=       600 IOpCl=  0 I1Cent=           0 NGrid=           0
         NMat0=    1 NMatS0=  10153 NMatT0=    0 NMatD0=    1 NMtDS0=    0 NMtDT0=    0
 Symmetry not used in FoFCou.
 Two-electron integral symmetry not used.
 Closed shell SCF:
 Using DIIS extrapolation, IDIIS=  1040.
 NGot=   104857600 LenX=    53267895 LenY=    53247290
 Requested convergence on RMS density matrix=1.00D-08 within 128 cycles.
 Requested convergence on MAX density matrix=1.00D-06.
 Requested convergence on             energy=1.00D-06.
 No special actions if energy rises.

 Cycle   1  Pass 1  IDiag  1:
 Inv3:  Mode=1 IEnd=     8629248.
 Iteration    1 A*A^-1 deviation from unit magnitude is 3.77D-15 for   1695.
 Iteration    1 A*A^-1 deviation from orthogonality  is 2.09D-15 for   1389    262.
 Iteration    1 A^-1*A deviation from unit magnitude is 3.89D-15 for   1686.
 Iteration    1 A^-1*A deviation from orthogonality  is 1.20D-15 for   1379    960.
 E= -703.261461512005    
 DIIS: error= 2.56D-02 at cycle   1 NSaved=   1.
 NSaved= 1 IEnMin= 1 EnMin= -703.261461512005     IErMin= 1 ErrMin= 2.56D-02
 ErrMax= 2.56D-02  0.00D+00 EMaxC= 1.00D-01 BMatC= 2.05D-01 BMatP= 2.05D-01
 IDIUse=3 WtCom= 7.44D-01 WtEn= 2.56D-01
 Coeff-Com:  0.100D+01
 Coeff-En:   0.100D+01
 Coeff:      0.100D+01
 Gap=     0.235 Goal=   None    Shift=    0.000
 GapD=    0.235 DampG=1.000 DampE=0.500 DampFc=0.5000 IDamp=-1.
 Damping current iteration by 5.00D-01
 RMSDP=9.08D-03 MaxDP=2.51D-01              OVMax= 2.94D-01

 Cycle   2  Pass 1  IDiag  1:
 E= -703.317025260208     Delta-E=       -0.055563748203 Rises=F Damp=T
 DIIS: error= 1.20D-02 at cycle   2 NSaved=   2.
 NSaved= 2 IEnMin= 2 EnMin= -703.317025260208     IErMin= 2 ErrMin= 1.20D-02
 ErrMax= 1.20D-02  0.00D+00 EMaxC= 1.00D-01 BMatC= 2.91D-02 BMatP= 2.05D-01
 IDIUse=3 WtCom= 8.80D-01 WtEn= 1.20D-01
 Coeff-Com:  0.201D+00 0.799D+00
 Coeff-En:   0.361D+00 0.639D+00
 Coeff:      0.220D+00 0.780D+00
 Gap=     0.241 Goal=   None    Shift=    0.000
 RMSDP=2.91D-03 MaxDP=7.58D-02 DE=-5.56D-02 OVMax= 2.76D-01

 Cycle   3  Pass 1  IDiag  1:
 E= -703.452657737972     Delta-E=       -0.135632477764 Rises=F Damp=F
 DIIS: error= 9.33D-03 at cycle   3 NSaved=   3.
 NSaved= 3 IEnMin= 3 EnMin= -703.452657737972     IErMin= 3 ErrMin= 9.33D-03
 ErrMax= 9.33D-03  0.00D+00 EMaxC= 1.00D-01 BMatC= 2.35D-02 BMatP= 2.91D-02
 IDIUse=3 WtCom= 9.07D-01 WtEn= 9.33D-02
 Coeff-Com:  0.705D-01 0.465D+00 0.464D+00
 Coeff-En:   0.000D+00 0.000D+00 0.100D+01
 Coeff:      0.639D-01 0.422D+00 0.514D+00
 Gap=     0.203 Goal=   None    Shift=    0.000
 RMSDP=1.37D-03 MaxDP=4.76D-02 DE=-1.36D-01 OVMax= 6.99D-02

 Cycle   4  Pass 1  IDiag  1:
 E= -703.470449724060     Delta-E=       -0.017791986088 Rises=F Damp=F
 DIIS: error= 5.10D-03 at cycle   4 NSaved=   4.
 NSaved= 4 IEnMin= 4 EnMin= -703.470449724060     IErMin= 4 ErrMin= 5.10D-03
 ErrMax= 5.10D-03  0.00D+00 EMaxC= 1.00D-01 BMatC= 5.29D-03 BMatP= 2.35D-02
 IDIUse=3 WtCom= 9.49D-01 WtEn= 5.10D-02
 Coeff-Com: -0.379D-02 0.720D-01 0.326D+00 0.606D+00
 Coeff-En:   0.000D+00 0.000D+00 0.212D+00 0.788D+00
 Coeff:     -0.360D-02 0.683D-01 0.320D+00 0.615D+00
 Gap=     0.203 Goal=   None    Shift=    0.000
 RMSDP=5.17D-04 MaxDP=1.50D-02 DE=-1.78D-02 OVMax= 2.52D-02

 Cycle   5  Pass 1  IDiag  1:
 E= -703.475091755043     Delta-E=       -0.004642030983 Rises=F Damp=F
 DIIS: error= 8.39D-04 at cycle   5 NSaved=   5.
 NSaved= 5 IEnMin= 5 EnMin= -703.475091755043     IErMin= 5 ErrMin= 8.39D-04
 ErrMax= 8.39D-04  0.00D+00 EMaxC= 1.00D-01 BMatC= 1.92D-04 BMatP= 5.29D-03
 IDIUse=3 WtCom= 9.92D-01 WtEn= 8.39D-03
 Coeff-Com: -0.306D-02 0.876D-02 0.130D+00 0.304D+00 0.560D+00
 Coeff-En:   0.000D+00 0.000D+00 0.000D+00 0.000D+00 0.100D+01
 Coeff:     -0.304D-02 0.868D-02 0.129D+00 0.302D+00 0.564D+00
 Gap=     0.204 Goal=   None    Shift=    0.000
 RMSDP=1.37D-04 MaxDP=5.01D-03 DE=-4.64D-03 OVMax= 5.84D-03

 Cycle   6  Pass 1  IDiag  1:
 E= -703.475270103716     Delta-E=       -0.000178348673 Rises=F Damp=F
 DIIS: error= 3.21D-04 at cycle   6 NSaved=   6.
 NSaved= 6 IEnMin= 6 EnMin= -703.475270103716     IErMin= 6 ErrMin= 3.21D-04
 ErrMax= 3.21D-04  0.00D+00 EMaxC= 1.00D-01 BMatC= 2.20D-05 BMatP= 1.92D-04
 IDIUse=3 WtCom= 9.97D-01 WtEn= 3.21D-03
 Coeff-Com: -0.103D-02-0.206D-02 0.436D-01 0.115D+00 0.308D+00 0.536D+00
 Coeff-En:   0.000D+00 0.000D+00 0.000D+00 0.000D+00 0.948D-02 0.991D+00
 Coeff:     -0.102D-02-0.205D-02 0.435D-01 0.115D+00 0.307D+00 0.538D+00
 Gap=     0.204 Goal=   None    Shift=    0.000
 RMSDP=4.22D-05 MaxDP=1.34D-03 DE=-1.78D-04 OVMax= 2.78D-03

 Cycle   7  Pass 1  IDiag  1:
 E= -703.475289372137     Delta-E=       -0.000019268421 Rises=F Damp=F
 DIIS: error= 1.15D-04 at cycle   7 NSaved=   7.
 NSaved= 7 IEnMin= 7 EnMin= -703.475289372137     IErMin= 7 ErrMin= 1.15D-04
 ErrMax= 1.15D-04  0.00D+00 EMaxC= 1.00D-01 BMatC= 2.83D-06 BMatP= 2.20D-05
 IDIUse=3 WtCom= 9.99D-01 WtEn= 1.15D-03
 Coeff-Com: -0.239D-03-0.199D-02 0.148D-01 0.411D-01 0.126D+00 0.319D+00
 Coeff-Com:  0.501D+00
 Coeff-En:   0.000D+00 0.000D+00 0.000D+00 0.000D+00 0.000D+00 0.895D-01
 Coeff-En:   0.910D+00
 Coeff:     -0.238D-03-0.198D-02 0.148D-01 0.410D-01 0.126D+00 0.319D+00
 Coeff:      0.502D+00
 Gap=     0.204 Goal=   None    Shift=    0.000
 RMSDP=1.56D-05 MaxDP=4.83D-04 DE=-1.93D-05 OVMax= 1.04D-03

 Cycle   8  Pass 1  IDiag  1:
 E= -703.475292280794     Delta-E=       -0.000002908657 Rises=F Damp=F
 DIIS: error= 3.14D-05 at cycle   8 NSaved=   8.
 NSaved= 8 IEnMin= 8 EnMin= -703.475292280794     IErMin= 8 ErrMin= 3.14D-05
 ErrMax= 3.14D-05  0.00D+00 EMaxC= 1.00D-01 BMatC= 2.43D-07 BMatP= 2.83D-06
 IDIUse=1 WtCom= 1.00D+00 WtEn= 0.00D+00
 Coeff-Com:  0.958D-04-0.864D-03 0.768D-03 0.226D-02 0.115D-01 0.741D-01
 Coeff-Com:  0.260D+00 0.652D+00
 Coeff:      0.958D-04-0.864D-03 0.768D-03 0.226D-02 0.115D-01 0.741D-01
 Coeff:      0.260D+00 0.652D+00
 Gap=     0.204 Goal=   None    Shift=    0.000
 RMSDP=4.19D-06 MaxDP=1.29D-04 DE=-2.91D-06 OVMax= 2.50D-04

 Cycle   9  Pass 1  IDiag  1:
 E= -703.475292531230     Delta-E=       -0.000000250436 Rises=F Damp=F
 DIIS: error= 5.57D-06 at cycle   9 NSaved=   9.
 NSaved= 9 IEnMin= 9 EnMin= -703.475292531230     IErMin= 9 ErrMin= 5.57D-06
 ErrMax= 5.57D-06  0.00D+00 EMaxC= 1.00D-01 BMatC= 1.31D-08 BMatP= 2.43D-07
 IDIUse=1 WtCom= 1.00D+00 WtEn= 0.00D+00
 Coeff-Com:  0.802D-04-0.272D-03-0.528D-03-0.171D-02-0.346D-02 0.111D-01
 Coeff-Com:  0.803D-01 0.283D+00 0.631D+00
 Coeff:      0.802D-04-0.272D-03-0.528D-03-0.171D-02-0.346D-02 0.111D-01
 Coeff:      0.803D-01 0.283D+00 0.631D+00
 Gap=     0.204 Goal=   None    Shift=    0.000
 RMSDP=1.25D-06 MaxDP=4.94D-05 DE=-2.50D-07 OVMax= 4.78D-05

 Cycle  10  Pass 1  IDiag  1:
 E= -703.475292545204     Delta-E=       -0.000000013973 Rises=F Damp=F
 DIIS: error= 1.91D-06 at cycle  10 NSaved=  10.
 NSaved=10 IEnMin=10 EnMin= -703.475292545204     IErMin=10 ErrMin= 1.91D-06
 ErrMax= 1.91D-06  0.00D+00 EMaxC= 1.00D-01 BMatC= 1.24D-09 BMatP= 1.31D-08
 IDIUse=1 WtCom= 1.00D+00 WtEn= 0.00D+00
 Coeff-Com:  0.313D-04-0.606D-04-0.279D-03-0.961D-03-0.258D-02-0.113D-02
 Coeff-Com:  0.155D-01 0.775D-01 0.294D+00 0.618D+00
 Coeff:      0.313D-04-0.606D-04-0.279D-03-0.961D-03-0.258D-02-0.113D-02
 Coeff:      0.155D-01 0.775D-01 0.294D+00 0.618D+00
 Gap=     0.204 Goal=   None    Shift=    0.000
 RMSDP=2.91D-07 MaxDP=1.03D-05 DE=-1.40D-08 OVMax= 1.22D-05

 Cycle  11  Pass 1  IDiag  1:
 E= -703.475292546274     Delta-E=       -0.000000001070 Rises=F Damp=F
 DIIS: error= 7.50D-07 at cycle  11 NSaved=  11.
 NSaved=11 IEnMin=11 EnMin= -703.475292546274     IErMin=11 ErrMin= 7.50D-07
 ErrMax= 7.50D-07  0.00D+00 EMaxC= 1.00D-01 BMatC= 1.51D-10 BMatP= 1.24D-09
 IDIUse=1 WtCom= 1.00D+00 WtEn= 0.00D+00
 Coeff-Com:  0.670D-05-0.292D-05-0.746D-04-0.289D-03-0.884D-03-0.183D-02
 Coeff-Com: -0.140D-02 0.652D-02 0.762D-01 0.308D+00 0.614D+00
 Coeff:      0.670D-05-0.292D-05-0.746D-04-0.289D-03-0.884D-03-0.183D-02
 Coeff:     -0.140D-02 0.652D-02 0.762D-01 0.308D+00 0.614D+00
 Gap=     0.204 Goal=   None    Shift=    0.000
 RMSDP=1.10D-07 MaxDP=3.39D-06 DE=-1.07D-09 OVMax= 4.98D-06

 Cycle  12  Pass 1  IDiag  1:
 E= -703.475292546419     Delta-E=       -0.000000000146 Rises=F Damp=F
 DIIS: error= 1.04D-07 at cycle  12 NSaved=  12.
 NSaved=12 IEnMin=12 EnMin= -703.475292546419     IErMin=12 ErrMin= 1.04D-07
 ErrMax= 1.04D-07  0.00D+00 EMaxC= 1.00D-01 BMatC= 5.13D-12 BMatP= 1.51D-10
 IDIUse=1 WtCom= 1.00D+00 WtEn= 0.00D+00
 Coeff-Com: -0.193D-06 0.377D-05 0.295D-05-0.909D-05-0.516D-04-0.435D-03
 Coeff-Com: -0.164D-02-0.427D-02-0.283D-03 0.460D-01 0.202D+00 0.758D+00
 Coeff:     -0.193D-06 0.377D-05 0.295D-05-0.909D-05-0.516D-04-0.435D-03
 Coeff:     -0.164D-02-0.427D-02-0.283D-03 0.460D-01 0.202D+00 0.758D+00
 Gap=     0.204 Goal=   None    Shift=    0.000
 RMSDP=2.18D-08 MaxDP=3.90D-07 DE=-1.46D-10 OVMax= 8.44D-07

 Cycle  13  Pass 1  IDiag  1:
 E= -703.475292546418     Delta-E=        0.000000000001 Rises=F Damp=F
 DIIS: error= 4.23D-08 at cycle  13 NSaved=  13.
 NSaved=13 IEnMin=12 EnMin= -703.475292546419     IErMin=13 ErrMin= 4.23D-08
 ErrMax= 4.23D-08  0.00D+00 EMaxC= 1.00D-01 BMatC= 4.61D-13 BMatP= 5.13D-12
 IDIUse=1 WtCom= 1.00D+00 WtEn= 0.00D+00
 Coeff-Com: -0.376D-06 0.165D-05 0.541D-05 0.106D-04 0.178D-04-0.111D-03
 Coeff-Com: -0.684D-03-0.232D-02-0.379D-02 0.678D-02 0.655D-01 0.330D+00
 Coeff-Com:  0.604D+00
 Coeff:     -0.376D-06 0.165D-05 0.541D-05 0.106D-04 0.178D-04-0.111D-03
 Coeff:     -0.684D-03-0.232D-02-0.379D-02 0.678D-02 0.655D-01 0.330D+00
 Coeff:      0.604D+00
 Gap=     0.204 Goal=   None    Shift=    0.000
 RMSDP=5.16D-09 MaxDP=1.67D-07 DE= 1.02D-12 OVMax= 2.01D-07

 Error on total polarization charges =  0.00675
 SCF Done:  E(RB3LYP) =  -703.475292546     A.U. after   13 cycles
            NFock= 13  Conv=0.52D-08     -V/T= 2.0058
 KE= 6.994312219537D+02 PE=-2.533275616988D+03 EE= 6.850282431350D+02
 Leave Link  502 at Mon Jul 12 12:52:13 2021, MaxMem=   104857600 cpu:             168.4 elap:              44.4
 (Enter /dades/curu/g16A03_MST/g16/l601.exe)
 Copying SCF densities to generalized density rwf, IOpCl= 0 IROHF=0.

 **********************************************************************

            Population analysis using the SCF density.

 **********************************************************************

 Orbital symmetries:
       Occupied  (A) (A) (A) (A) (A) (A) (A) (A) (A) (A) (A) (A)
                 (A) (A) (A) (A) (A) (A) (A) (A) (A) (A) (A) (A)
                 (A) (A) (A) (A) (A) (A) (A) (A) (A) (A)
       Virtual   (A) (A) (A) (A) (A) (A) (A) (A) (A) (A) (A) (A)
                 (A) (A) (A) (A) (A) (A) (A) (A) (A) (A) (A) (A)
                 (A) (A) (A) (A) (A) (A) (A) (A) (A) (A) (A) (A)
                 (A) (A) (A) (A) (A) (A) (A) (A) (A) (A) (A) (A)
                 (A) (A) (A) (A) (A) (A) (A) (A) (A) (A) (A) (A)
                 (A) (A) (A) (A) (A) (A) (A) (A) (A) (A) (A) (A)
                 (A) (A) (A) (A) (A) (A) (A) (A) (A) (A) (A) (A)
                 (A) (A) (A) (A) (A) (A) (A) (A) (A) (A) (A) (A)
                 (A) (A) (A) (A) (A) (A) (A) (A) (A) (A) (A) (A)
 The electronic state is 1-A.
 Alpha  occ. eigenvalues --  -88.94296 -14.46387 -14.35390 -10.27423 -10.27381
 Alpha  occ. eigenvalues --  -10.23760 -10.23595 -10.23268  -8.00410  -5.96783
 Alpha  occ. eigenvalues --   -5.96442  -5.96147  -1.04484  -0.96651  -0.84161
 Alpha  occ. eigenvalues --   -0.81508  -0.74654  -0.68824  -0.62507  -0.61967
 Alpha  occ. eigenvalues --   -0.59809  -0.55629  -0.53254  -0.50814  -0.49369
 Alpha  occ. eigenvalues --   -0.45393  -0.43402  -0.41192  -0.40265  -0.39559
 Alpha  occ. eigenvalues --   -0.39451  -0.30197  -0.29184  -0.25616
 Alpha virt. eigenvalues --   -0.05234  -0.00754   0.02538   0.03293   0.07443
 Alpha virt. eigenvalues --    0.08480   0.09867   0.10077   0.11510   0.13070
 Alpha virt. eigenvalues --    0.14189   0.15151   0.16490   0.17578   0.19780
 Alpha virt. eigenvalues --    0.22138   0.22618   0.28256   0.29467   0.34754
 Alpha virt. eigenvalues --    0.36529   0.39535   0.40380   0.46641   0.48772
 Alpha virt. eigenvalues --    0.51462   0.53008   0.53400   0.54122   0.57281
 Alpha virt. eigenvalues --    0.58765   0.61049   0.62114   0.63603   0.66441
 Alpha virt. eigenvalues --    0.69010   0.70421   0.73784   0.77180   0.77718
 Alpha virt. eigenvalues --    0.79722   0.81303   0.82429   0.82962   0.83866
 Alpha virt. eigenvalues --    0.84442   0.85591   0.86027   0.86752   0.89155
 Alpha virt. eigenvalues --    0.89687   0.92536   0.95382   0.96268   0.98510
 Alpha virt. eigenvalues --    1.00077   1.02994   1.05843   1.15137   1.15569
 Alpha virt. eigenvalues --    1.26760   1.28148   1.31211   1.39052   1.42636
 Alpha virt. eigenvalues --    1.47074   1.51050   1.53537   1.59871   1.61702
 Alpha virt. eigenvalues --    1.73482   1.74134   1.79357   1.81774   1.87034
 Alpha virt. eigenvalues --    1.93857   1.95108   1.97724   1.99732   2.02185
 Alpha virt. eigenvalues --    2.04351   2.14049   2.16475   2.17529   2.22511
 Alpha virt. eigenvalues --    2.25282   2.27128   2.28216   2.33429   2.37149
 Alpha virt. eigenvalues --    2.40600   2.46107   2.48109   2.49880   2.54330
 Alpha virt. eigenvalues --    2.65033   2.68330   2.79166   2.93642   2.96761
 Alpha virt. eigenvalues --    3.77930   3.90571   3.91359   4.08779   4.18469
 Alpha virt. eigenvalues --    4.31288   4.33420   4.47925
          Condensed to atoms (all electrons):
               1          2          3          4          5          6
     1  N    6.702407   0.306415   0.302612   0.221958  -0.032060  -0.034391
     2  H    0.306415   0.274785  -0.010265  -0.023940   0.003752  -0.002378
     3  H    0.302612  -0.010265   0.267602  -0.017614  -0.001481  -0.002796
     4  C    0.221958  -0.023940  -0.017614   5.073265   0.386283   0.382422
     5  H   -0.032060   0.003752  -0.001481   0.386283   0.473079  -0.022084
     6  H   -0.034391  -0.002378  -0.002796   0.382422  -0.022084   0.480483
     7  C   -0.083643  -0.001854   0.005879   0.364653  -0.034625  -0.041690
     8  H   -0.004696   0.005802   0.000006  -0.031303   0.003528  -0.003189
     9  H   -0.002611  -0.001005   0.000044  -0.051838  -0.004397   0.005552
    10  C    0.007319   0.000201  -0.000247  -0.070044   0.000257  -0.000014
    11  N    0.000143  -0.000023  -0.000001  -0.009355   0.000045   0.006999
    12  C   -0.000006   0.000000  -0.000000   0.000612  -0.000040  -0.000276
    13  H   -0.000000  -0.000000   0.000000   0.000003  -0.000001  -0.000000
    14  C    0.000000  -0.000000   0.000000  -0.000127  -0.000180  -0.000017
    15  H    0.000000   0.000000   0.000000   0.000001   0.000003  -0.000002
    16  S   -0.000190  -0.000008   0.000009  -0.004687   0.004831   0.000928
    17  H    0.304863  -0.011136  -0.009164  -0.020579  -0.003712   0.003726
               7          8          9         10         11         12
     1  N   -0.083643  -0.004696  -0.002611   0.007319   0.000143  -0.000006
     2  H   -0.001854   0.005802  -0.001005   0.000201  -0.000023   0.000000
     3  H    0.005879   0.000006   0.000044  -0.000247  -0.000001  -0.000000
     4  C    0.364653  -0.031303  -0.051838  -0.070044  -0.009355   0.000612
     5  H   -0.034625   0.003528  -0.004397   0.000257   0.000045  -0.000040
     6  H   -0.041690  -0.003189   0.005552  -0.000014   0.006999  -0.000276
     7  C    5.189654   0.365152   0.365333   0.343241  -0.067602   0.008263
     8  H    0.365152   0.488763  -0.022922  -0.025499   0.004359   0.000020
     9  H    0.365333  -0.022922   0.537730  -0.024456   0.003363  -0.000273
    10  C    0.343241  -0.025499  -0.024456   5.102100   0.453675  -0.082991
    11  N   -0.067602   0.004359   0.003363   0.453675   6.798799   0.414024
    12  C    0.008263   0.000020  -0.000273  -0.082991   0.414024   4.748231
    13  H   -0.000242  -0.000030   0.000003   0.007315  -0.043824   0.374226
    14  C    0.003567   0.000046   0.000076  -0.057434  -0.064795   0.566023
    15  H   -0.000126   0.000002  -0.000001   0.002943   0.004957  -0.017487
    16  S   -0.062726   0.004796   0.001689   0.294577  -0.078884  -0.074233
    17  H   -0.002159  -0.000347   0.005455  -0.000031  -0.000002  -0.000000
              13         14         15         16         17
     1  N   -0.000000   0.000000   0.000000  -0.000190   0.304863
     2  H   -0.000000  -0.000000   0.000000  -0.000008  -0.011136
     3  H    0.000000   0.000000   0.000000   0.000009  -0.009164
     4  C    0.000003  -0.000127   0.000001  -0.004687  -0.020579
     5  H   -0.000001  -0.000180   0.000003   0.004831  -0.003712
     6  H   -0.000000  -0.000017  -0.000002   0.000928   0.003726
     7  C   -0.000242   0.003567  -0.000126  -0.062726  -0.002159
     8  H   -0.000030   0.000046   0.000002   0.004796  -0.000347
     9  H    0.000003   0.000076  -0.000001   0.001689   0.005455
    10  C    0.007315  -0.057434   0.002943   0.294577  -0.000031
    11  N   -0.043824  -0.064795   0.004957  -0.078884  -0.000002
    12  C    0.374226   0.566023  -0.017487  -0.074233  -0.000000
    13  H    0.528540  -0.047786  -0.000492   0.003890   0.000000
    14  C   -0.047786   5.293667   0.344594   0.324933  -0.000000
    15  H   -0.000492   0.344594   0.505852  -0.035340   0.000000
    16  S    0.003890   0.324933  -0.035340  15.326427   0.000031
    17  H    0.000000  -0.000000   0.000000   0.000031   0.272504
 Mulliken charges:
               1
     1  N   -0.688119
     2  H    0.459653
     3  H    0.465414
     4  C   -0.199710
     5  H    0.226800
     6  H    0.226725
     7  C   -0.351076
     8  H    0.215511
     9  H    0.188257
    10  C    0.049086
    11  N   -0.421879
    12  C    0.063906
    13  H    0.178397
    14  C   -0.362567
    15  H    0.195095
    16  S    0.293959
    17  H    0.460549
 Sum of Mulliken charges =   1.00000
 Mulliken charges with hydrogens summed into heavy atoms:
               1
     1  N    0.697497
     4  C    0.253815
     7  C    0.052691
    10  C    0.049086
    11  N   -0.421879
    12  C    0.242303
    14  C   -0.167472
    16  S    0.293959
 Electronic spatial extent (au):  <R**2>=           1267.2148
 Charge=              1.0000 electrons
 Dipole moment (field-independent basis, Debye):
    X=             14.0950    Y=             -1.4265    Z=             -1.2382  Tot=             14.2210
 Quadrupole moment (field-independent basis, Debye-Ang):
   XX=              6.6895   YY=            -51.1331   ZZ=            -51.2498
   XY=             -0.4762   XZ=             -1.1009   YZ=             -0.6906
 Traceless Quadrupole moment (field-independent basis, Debye-Ang):
   XX=             38.5873   YY=            -19.2353   ZZ=            -19.3520
   XY=             -0.4762   XZ=             -1.1009   YZ=             -0.6906
 Octapole moment (field-independent basis, Debye-Ang**2):
  XXX=            182.1322  YYY=             -3.9201  ZZZ=             -2.4615  XYY=             11.0160
  XXY=              2.9499  XXZ=            -18.8707  XZZ=             20.6964  YZZ=             -0.5053
  YYZ=             -1.7878  XYZ=              0.1852
 Hexadecapole moment (field-independent basis, Debye-Ang**3):
 XXXX=           -429.2354 YYYY=           -308.3736 ZZZZ=           -128.4768 XXXY=             -0.1255
 XXXZ=            -33.9273 YYYX=            -10.6660 YYYZ=             -4.0240 ZZZX=            -15.1118
 ZZZY=              0.1425 XXYY=           -192.7049 XXZZ=           -185.7169 YYZZ=            -72.1015
 XXYZ=              0.4688 YYXZ=              6.3847 ZZXY=              2.9643
 N-N= 4.453408593527D+02 E-N=-2.533275611819D+03  KE= 6.994312219537D+02
 No NMR shielding tensors so no spin-rotation constants.
 Leave Link  601 at Mon Jul 12 12:52:13 2021, MaxMem=   104857600 cpu:               0.4 elap:               0.1
 (Enter /dades/curu/g16A03_MST/g16/l701.exe)
 ... and contract with generalized density number  0.
 Compute integral first derivatives.
 D1PCM: PCM CHGder 1st derivatives, ID1Alg=3 FixD1E=F DoIter=F DoCFld=F I1PDM=0.
 GePol: Maximum number of non-zero 1st derivatives   =     312
 Leave Link  701 at Mon Jul 12 12:52:14 2021, MaxMem=   104857600 cpu:               4.9 elap:               1.3
 (Enter /dades/curu/g16A03_MST/g16/l702.exe)
 L702 exits ... SP integral derivatives will be done elsewhere.
 Leave Link  702 at Mon Jul 12 12:52:14 2021, MaxMem=   104857600 cpu:               0.1 elap:               0.0
 (Enter /dades/curu/g16A03_MST/g16/l703.exe)
 Integral derivatives from FoFJK, PRISM(SPDF).
 Compute integral first derivatives, UseDBF=F ICtDFT=           0.
 Calling FoFJK, ICntrl=      2127 FMM=F ISym2X=0 I1Cent= 0 IOpClX= 0 NMat=1 NMatS=1 NMatT=0.
 FoFJK:  IHMeth= 1 ICntrl=    2127 DoSepK=F KAlg= 0 I1Cent=           0 FoldK=F
 IRaf=         0 NMat=       1 IRICut=       1 DoRegI=T DoRafI=F ISym2E= 0 IDoP0=0 IntGTp=1.
 FoFCou: FMM=F IPFlag=           0 FMFlag=      100000 FMFlg1=         800
         NFxFlg=           0 DoJE=F BraDBF=F KetDBF=F FulRan=T
         wScrn=  0.000000 ICntrl=      2127 IOpCl=  0 I1Cent=           0 NGrid=           0
         NMat0=    1 NMatS0=      1 NMatT0=    0 NMatD0=    1 NMtDS0=    0 NMtDT0=    0
 Symmetry not used in FoFCou.
 Leave Link  703 at Mon Jul 12 12:52:21 2021, MaxMem=   104857600 cpu:              25.0 elap:               6.3
 (Enter /dades/curu/g16A03_MST/g16/l716.exe)
 Dipole        = 5.54540322D+00-5.61233531D-01-4.87152861D-01
 ***** Axes restored to original set *****
 -------------------------------------------------------------------
 Center     Atomic                   Forces (Hartrees/Bohr)
 Number     Number              X              Y              Z
 -------------------------------------------------------------------
      1        7           0.014905511    0.002422509   -0.019829363
      2        1          -0.016802992    0.018387495    0.002857576
      3        1           0.010153922    0.020161817   -0.018468650
      4        6          -0.012102588    0.000845798   -0.011982074
      5        1          -0.005066142   -0.000013517   -0.001089731
      6        1           0.006225297   -0.003226491   -0.000756874
      7        6           0.009299744   -0.027198594    0.028047312
      8        1           0.004085796    0.004025257   -0.003021342
      9        1          -0.004850795    0.002194949    0.007353069
     10        6          -0.070614471   -0.022524025   -0.027784223
     11        7           0.039204398    0.004572757    0.034440587
     12        6           0.029342339    0.021142947   -0.003805420
     13        1           0.004428940   -0.005790663   -0.000356267
     14        6          -0.010192867   -0.024917285    0.014317649
     15        1          -0.000754713   -0.000131029   -0.003092394
     16       16          -0.012078198   -0.003608677   -0.011504313
     17        1           0.014816819    0.013656753    0.014674459
 -------------------------------------------------------------------
 Cartesian Forces:  Max     0.070614471 RMS     0.017955983
 Leave Link  716 at Mon Jul 12 12:52:21 2021, MaxMem=   104857600 cpu:               0.1 elap:               0.1
 (Enter /dades/curu/g16A03_MST/g16/l103.exe)

 GradGradGradGradGradGradGradGradGradGradGradGradGradGradGradGradGradGrad
 Berny optimization.
 FormGI is forming the generalized inverse of G from B-inverse, IUseBI=4.
 Internal  Forces:  Max     0.055182630 RMS     0.015618730
 Search for a local minimum.
 Step number   1 out of a maximum of   92
 All quantities printed in internal units (Hartrees-Bohrs-Radians)
 RMS Force = .15619D-01 SwitMx=.10000D-02 MixMth= 1
 Mixed Optimization -- RFO/linear search
 Second derivative matrix not updated -- first step.
 ITU=  0
     Eigenvalues ---    0.01034   0.01068   0.01255   0.01548   0.01628
     Eigenvalues ---    0.02102   0.02175   0.02305   0.05262   0.05315
     Eigenvalues ---    0.05793   0.06001   0.06259   0.06263   0.06937
     Eigenvalues ---    0.08749   0.10796   0.12173   0.15459   0.15934
     Eigenvalues ---    0.16000   0.16000   0.16000   0.21866   0.21930
     Eigenvalues ---    0.22387   0.24404   0.24606   0.30460   0.32529
     Eigenvalues ---    0.34483   0.34494   0.34529   0.34603   0.34615
     Eigenvalues ---    0.35604   0.35626   0.36589   0.38617   0.45886
     Eigenvalues ---    0.47268   0.47662   0.47671   0.47735   0.49294
 RFO step:  Lambda=-6.00779992D-02 EMin= 1.03440649D-02
 Linear search not attempted -- first point.
 Maximum step size (   0.300) exceeded in Quadratic search.
    -- Step size scaled by   0.745
 Iteration  1 RMS(Cart)=  0.11373938 RMS(Int)=  0.00266745
 Iteration  2 RMS(Cart)=  0.00288879 RMS(Int)=  0.00063841
 Iteration  3 RMS(Cart)=  0.00001536 RMS(Int)=  0.00063837
 Iteration  4 RMS(Cart)=  0.00000001 RMS(Int)=  0.00063837
 ITry= 1 IFail=0 DXMaxC= 4.20D-01 DCOld= 1.00D+10 DXMaxT= 3.00D-01 DXLimC= 3.00D+00 Rises=F
 Variable       Old X    -DE/DX   Delta X   Delta X   Delta X     New X
                                 (Linear)    (Quad)   (Total)
    R1        1.89001   0.02327   0.00000   0.03232   0.03232   1.92233
    R2        1.88923   0.02685   0.00000   0.03724   0.03724   1.92647
    R3        2.73477   0.05518   0.00000   0.09217   0.09217   2.82694
    R4        1.88991   0.02305   0.00000   0.03201   0.03201   1.92191
    R5        2.06522  -0.00444   0.00000  -0.00818  -0.00818   2.05704
    R6        2.06505  -0.00247   0.00000  -0.00454  -0.00454   2.06051
    R7        2.79624   0.04589   0.00000   0.08423   0.08423   2.88047
    R8        2.06446  -0.00216   0.00000  -0.00397  -0.00397   2.06049
    R9        2.06305   0.00320   0.00000   0.00588   0.00588   2.06893
   R10        2.76471   0.03422   0.00000   0.05989   0.05989   2.82460
   R11        2.60576  -0.05266   0.00000  -0.07315  -0.07318   2.53259
   R12        3.25238   0.01007   0.00000   0.01792   0.01789   3.27027
   R13        2.60882   0.00323   0.00000   0.00351   0.00353   2.61235
   R14        2.04670  -0.00131   0.00000  -0.00234  -0.00234   2.04437
   R15        2.60331  -0.01539   0.00000  -0.01928  -0.01926   2.58406
   R16        2.04706  -0.00021   0.00000  -0.00038  -0.00038   2.04667
   R17        3.29609  -0.01160   0.00000  -0.02019  -0.02017   3.27592
    A1        1.91044  -0.01007   0.00000  -0.03479  -0.03528   1.87516
    A2        1.91058   0.00819   0.00000   0.02797   0.02747   1.93806
    A3        1.91049  -0.00790   0.00000  -0.02560  -0.02605   1.88444
    A4        1.91111   0.01132   0.00000   0.03774   0.03720   1.94831
    A5        1.91076  -0.01025   0.00000  -0.03521  -0.03574   1.87502
    A6        1.91041   0.00872   0.00000   0.02987   0.02935   1.93976
    A7        1.91117  -0.01725   0.00000  -0.04006  -0.03933   1.87184
    A8        1.88287  -0.01386   0.00000  -0.02523  -0.02702   1.85585
    A9        1.76591   0.05487   0.00000   0.15754   0.15743   1.92334
   A10        1.96684   0.00673   0.00000  -0.01311  -0.01542   1.95141
   A11        1.99745  -0.01652   0.00000  -0.04688  -0.04705   1.95040
   A12        1.92592  -0.01004   0.00000  -0.01590  -0.01756   1.90837
   A13        2.01034  -0.01364   0.00000  -0.05075  -0.05058   1.95976
   A14        1.86149   0.00174   0.00000   0.02149   0.02083   1.88232
   A15        1.85148   0.02438   0.00000   0.07080   0.07055   1.92204
   A16        1.94120   0.00081   0.00000  -0.01505  -0.01530   1.92590
   A17        1.85741  -0.00451   0.00000  -0.00788  -0.00688   1.85053
   A18        1.94097  -0.00812   0.00000  -0.01553  -0.01727   1.92370
   A19        2.00429   0.01987   0.00000   0.05132   0.05142   2.05571
   A20        2.23938  -0.00887   0.00000  -0.01899  -0.01900   2.22039
   A21        2.01586  -0.01037   0.00000  -0.02708  -0.02753   1.98833
   A22        1.92545   0.00525   0.00000   0.00697   0.00655   1.93201
   A23        2.04954  -0.00130   0.00000   0.00134   0.00113   2.05067
   A24        1.96192   0.01754   0.00000   0.05017   0.04969   2.01160
   A25        2.26723  -0.01583   0.00000  -0.04747  -0.04766   2.21957
   A26        2.22760   0.01135   0.00000   0.02933   0.02901   2.25661
   A27        1.97628  -0.02505   0.00000  -0.05639  -0.05717   1.91911
   A28        2.04399   0.01495   0.00000   0.04102   0.04079   2.08478
   A29        1.52624   0.01408   0.00000   0.04053   0.03999   1.56624
    D1       -2.99467  -0.00529   0.00000  -0.02910  -0.02882  -3.02349
    D2        1.14220   0.00580   0.00000   0.02751   0.02734   1.16954
    D3       -0.87995  -0.00270   0.00000  -0.01683  -0.01690  -0.89685
    D4        1.19410  -0.00490   0.00000  -0.02674  -0.02647   1.16763
    D5       -0.95222   0.00619   0.00000   0.02987   0.02969  -0.92252
    D6       -2.97436  -0.00232   0.00000  -0.01448  -0.01455  -2.98891
    D7       -0.90061  -0.00462   0.00000  -0.02505  -0.02480  -0.92541
    D8       -3.04693   0.00647   0.00000   0.03156   0.03136  -3.01557
    D9        1.21411  -0.00204   0.00000  -0.01278  -0.01288   1.20123
   D10        1.09226  -0.00274   0.00000  -0.01072  -0.00971   1.08255
   D11       -1.07076   0.00411   0.00000   0.02664   0.02776  -1.04300
   D12       -3.14136   0.00047   0.00000  -0.00128  -0.00148   3.14034
   D13       -3.13803   0.00293   0.00000   0.01707   0.01677  -3.12125
   D14        0.98214   0.00977   0.00000   0.05443   0.05425   1.03638
   D15       -1.08846   0.00613   0.00000   0.02651   0.02500  -1.06346
   D16       -0.89780  -0.01031   0.00000  -0.05391  -0.05353  -0.95133
   D17       -3.06082  -0.00347   0.00000  -0.01655  -0.01605  -3.07687
   D18        1.15177  -0.00711   0.00000  -0.04448  -0.04530   1.10647
   D19       -1.56682   0.00504   0.00000   0.02102   0.02084  -1.54597
   D20        1.32997   0.00740   0.00000   0.04545   0.04502   1.37500
   D21        0.58235  -0.00020   0.00000  -0.00448  -0.00424   0.57812
   D22       -2.80404   0.00215   0.00000   0.01996   0.01994  -2.78410
   D23        2.69904  -0.00678   0.00000  -0.03684  -0.03652   2.66252
   D24       -0.68736  -0.00442   0.00000  -0.01241  -0.01234  -0.69970
   D25        3.00841  -0.00201   0.00000  -0.00293  -0.00228   3.00613
   D26        0.07912  -0.00360   0.00000  -0.02356  -0.02276   0.05636
   D27       -2.86914  -0.00669   0.00000  -0.04964  -0.04944  -2.91858
   D28        0.02628  -0.00077   0.00000  -0.01585  -0.01669   0.00959
   D29        3.05792   0.00086   0.00000   0.01764   0.01789   3.07581
   D30       -0.17533   0.00421   0.00000   0.05596   0.05791  -0.11742
   D31        3.04875  -0.00207   0.00000  -0.01644  -0.01653   3.03223
   D32        0.20079  -0.00874   0.00000  -0.07782  -0.07732   0.12347
   D33       -0.19894   0.00315   0.00000   0.03226   0.03208  -0.16686
   D34       -3.04690  -0.00353   0.00000  -0.02912  -0.02871  -3.07561
   D35       -0.12750   0.00621   0.00000   0.05535   0.05439  -0.07311
   D36       -3.00865   0.00004   0.00000   0.00083   0.00048  -3.00817
         Item               Value     Threshold  Converged?
 Maximum Force            0.055183     0.000450     NO 
 RMS     Force            0.015619     0.000300     NO 
 Maximum Displacement     0.419873     0.001800     NO 
 RMS     Displacement     0.113706     0.001200     NO 
 Predicted change in Energy=-3.189662D-02
 Lowest energy point so far.  Saving SCF results.
 GradGradGradGradGradGradGradGradGradGradGradGradGradGradGradGradGradGrad

 Leave Link  103 at Mon Jul 12 12:52:21 2021, MaxMem=   104857600 cpu:               0.1 elap:               0.1
 (Enter /dades/curu/g16A03_MST/g16/l202.exe)
                          Input orientation:                          
 ---------------------------------------------------------------------
 Center     Atomic      Atomic             Coordinates (Angstroms)
 Number     Number       Type             X           Y           Z
 ---------------------------------------------------------------------
      1          7           0        1.027116    2.774385   -0.501397
      2          1           0        0.179928    3.297187   -0.292214
      3          1           0        1.386639    3.118511   -1.391108
      4          6           0        0.753300    1.304468   -0.548750
      5          1           0        1.712484    0.800698   -0.654101
      6          1           0        0.111965    1.139790   -1.415056
      7          6           0        0.019975    0.864779    0.713127
      8          1           0       -0.951396    1.349099    0.816870
      9          1           0        0.657108    1.101816    1.571337
     10          6           0       -0.254282   -0.603710    0.663279
     11          7           0       -1.394687   -1.006999    0.086274
     12          6           0       -1.420164   -2.383755   -0.035837
     13          1           0       -2.320855   -2.833445   -0.431935
     14          6           0       -0.259978   -3.021418    0.306510
     15          1           0       -0.057890   -4.082566    0.384794
     16         16           0        0.857769   -1.888023    0.992973
     17          1           0        1.716967    2.996182    0.212234
 ---------------------------------------------------------------------
                    Distance matrix (angstroms):
                    1          2          3          4          5
     1  N    0.000000
     2  H    1.017255   0.000000
     3  H    1.019444   1.641842   0.000000
     4  C    1.495952   2.089377   2.097960   0.000000
     5  H    2.094872   2.951635   2.453897   1.088539   0.000000
     6  H    2.084269   2.433054   2.353870   1.090374   1.804355
     7  C    2.477094   2.636835   3.372667   1.524278   2.176696
     8  H    2.771963   2.510977   3.670476   2.184697   3.092048
     9  H    2.688981   2.918934   3.657233   2.131921   2.481343
    10  C    3.796048   4.039617   4.557199   2.474950   2.752457
    11  N    4.528725   4.598770   5.190208   3.218693   3.670209
    12  C    5.728205   5.907548   6.323751   4.311614   4.509598
    13  H    6.531577   6.622544   7.077521   5.156200   5.433616
    14  C    5.991716   6.362135   6.579665   4.524543   4.407034
    15  H    6.998596   7.414557   7.556190   5.527176   5.297150
    16  S    4.898966   5.384940   5.570362   3.546805   3.266896
    17  H    1.017033   1.645466   1.641581   2.090369   2.360234
                    6          7          8          9         10
     6  H    0.000000
     7  C    2.147848   0.000000
     8  H    2.481136   1.090363   0.000000
     9  H    3.035978   1.094829   1.793783   0.000000
    10  C    2.737408   1.494712   2.079189   2.136357   0.000000
    11  N    3.022034   2.428531   2.506287   3.295811   1.340186
    12  C    4.082282   3.631518   3.857596   4.364317   2.239777
    13  H    4.761484   4.524104   4.574779   5.326128   3.231398
    14  C    4.518604   3.917428   4.454206   4.409296   2.443896
    15  H    5.526419   4.958840   5.521597   5.366276   3.495506
    16  S    3.939858   2.891044   3.712554   3.051869   1.730553
    17  H    2.944536   2.770117   3.193529   2.561071   4.128981
                   11         12         13         14         15
    11  N    0.000000
    12  C    1.382395   0.000000
    13  H    2.112400   1.081831   0.000000
    14  C    2.322488   1.367424   2.197237   0.000000
    15  H    3.366787   2.217810   2.710786   1.083053   0.000000
    16  S    2.582995   2.548172   3.609410   1.733544   2.454452
    17  H    5.071854   6.232724   7.120639   6.334722   7.299902
                   16         17
    16  S    0.000000
    17  H    5.020282   0.000000
 Stoichiometry    C5H9N2S(1+)
 Framework group  C1[X(C5H9N2S)]
 Deg. of freedom    45
 Full point group                 C1      NOp   1
 RotChk:  IX=0 Diff= 8.79D-03
 Largest Abelian subgroup         C1      NOp   1
 Largest concise Abelian subgroup C1      NOp   1
                         Standard orientation:                         
 ---------------------------------------------------------------------
 Center     Atomic      Atomic             Coordinates (Angstroms)
 Number     Number       Type             X           Y           Z
 ---------------------------------------------------------------------
      1          7           0        3.474325   -0.016153   -0.241243
      2          1           0        3.737622    0.765448    0.354224
      3          1           0        4.032055    0.046701   -1.092273
      4          6           0        2.008601    0.005852   -0.539641
      5          1           0        1.773949   -0.913609   -1.072976
      6          1           0        1.834527    0.887783   -1.156742
      7          6           0        1.210118    0.128547    0.752951
      8          1           0        1.423470    1.056478    1.284285
      9          1           0        1.453748   -0.734435    1.381088
     10          6           0       -0.253949    0.152127    0.452756
     11          7           0       -0.822691    1.341005    0.209446
     12          6           0       -2.127532    1.180080   -0.217765
     13          1           0       -2.711811    2.074817   -0.386356
     14          6           0       -2.513299   -0.112766   -0.440437
     15          1           0       -3.493103   -0.503600   -0.685867
     16         16           0       -1.268413   -1.200062    0.082267
     17          1           0        3.739082   -0.875600    0.233741
 ---------------------------------------------------------------------
 Rotational constants (GHZ):           4.1030676           0.9604494           0.8442946
 Leave Link  202 at Mon Jul 12 12:52:21 2021, MaxMem=   104857600 cpu:               0.0 elap:               0.0
 (Enter /dades/curu/g16A03_MST/g16/l301.exe)
 Standard basis: 6-31G(d) (6D, 7F)
 Ernie: Thresh=  0.10000D-02 Tol=  0.10000D-05 Strict=F.
 There are   142 symmetry adapted cartesian basis functions of A   symmetry.
 There are   142 symmetry adapted basis functions of A   symmetry.
   142 basis functions,   284 primitive gaussians,   142 cartesian basis functions
    34 alpha electrons       34 beta electrons
       nuclear repulsion energy       438.4166214766 Hartrees.
 IExCor=  402 DFT=T Ex+Corr=B3LYP ExCW=0 ScaHFX=  0.200000
 ScaDFX=  0.800000  0.720000  1.000000  0.810000 ScalE2=  1.000000  1.000000
 IRadAn=      5 IRanWt=     -1 IRanGd=            0 ICorTp=0 IEmpDi=  4
 NAtoms=   17 NActive=   17 NUniq=   17 SFac= 1.00D+00 NAtFMM=   60 NAOKFM=F Big=F
 Integral buffers will be    131072 words long.
 Raffenetti 2 integral format.
 Two-electron integral symmetry is turned on.
 ------------------------------------------------------------------------------
 Polarizable Continuum Model (PCM)
 =================================
 Model                : PCM.
 Atomic radii         : MST.
 Polarization charges : Total charges.
 Charge compensation  : None.
 Solution method      : On-the-fly selection.
 Cavity type          : Scaled VdW (van der Waals Surface) (Alpha=1.500).
 Cavity algorithm     : GePol (No added spheres)
                        Default sphere list used, NSphG=   17.
                        Lebedev-Laikov grids with approx.  5.0 points / Ang**2.
                        Smoothing algorithm: York/Karplus (Gamma=1.0000).
                        Polarization charges: spherical gaussians, with
                                              point-specific exponents (IZeta= 3).
                        Self-potential: point-specific (ISelfS= 7).
                        Self-field    : sphere-specific E.n sum rule (ISelfD= 2).
 1st derivatives      : Analytical E(r).r(x)/FMM algorithm (CHGder, D1EAlg=3).
                        Cavity 1st derivative terms included.
 Solvent              : n-Octanol, Eps=   9.862900 Eps(inf)=   2.043470
 ------------------------------------------------------------------------------
 Spheres list:
 ISph  on   Nord     Re0    Alpha      Xe            Ye            Ze
    1   N      1    1.5000  1.150      3.474325     -0.016153     -0.241243
    2   H      2    0.9000  1.150      3.737622      0.765448      0.354224
    3   H      3    0.9000  1.150      4.032055      0.046701     -1.092273
    4   C      4    1.5000  1.500      2.008601      0.005852     -0.539641
    5   H      5    1.2000  1.500      1.773949     -0.913609     -1.072976
    6   H      6    1.2000  1.500      1.834527      0.887783     -1.156742
    7   C      7    1.5000  1.500      1.210118      0.128547      0.752951
    8   H      8    1.2000  1.500      1.423470      1.056478      1.284285
    9   H      9    1.2000  1.500      1.453748     -0.734435      1.381088
   10   C     10    1.5000  1.500     -0.253949      0.152127      0.452756
   11   N     11    1.5000  1.500     -0.822691      1.341005      0.209446
   12   C     12    1.5000  1.500     -2.127532      1.180080     -0.217765
   13   H     13    1.2000  1.500     -2.711811      2.074817     -0.386356
   14   C     14    1.5000  1.500     -2.513299     -0.112766     -0.440437
   15   H     15    1.2000  1.500     -3.493103     -0.503600     -0.685867
   16   S     16    1.7500  1.500     -1.268413     -1.200062      0.082267
   17   H     17    0.9000  1.150      3.739082     -0.875600      0.233741
 ------------------------------------------------------------------------------
 GePol: Number of generator spheres                  =      17
 GePol: Total number of spheres                      =      17
 GePol: Number of exposed spheres                    =      17 (100.00%)
 GePol: Number of points                             =    1742
 GePol: Average weight of points                     =       0.12
 GePol: Minimum weight of points                     =   0.34D-10
 GePol: Maximum weight of points                     =    0.22065
 GePol: Number of points with low weight             =      98
 GePol: Fraction of low-weight points (<1% of avg)   =       5.63%
 GePol: Cavity surface area                          =    202.726 Ang**2
 GePol: Cavity volume                                =    214.566 Ang**3
 Surface areas from nonelectrostatic (unscaled) cavity and vdw tensions:
 Sphere =    1 Type =  NH  Surf =       12.431 Tension =       -0.234
 Sphere =    2 Type =  NH  Surf =        3.978 Tension =       -0.234
 Sphere =    3 Type =  NH  Surf =        3.994 Tension =       -0.234
 Sphere =    4 Type =  CH2 Surf =        3.965 Tension =       -0.194
 Sphere =    5 Type =  CH2 Surf =       10.019 Tension =       -0.194
 Sphere =    6 Type =  CH2 Surf =        9.975 Tension =       -0.194
 Sphere =    7 Type =  CH2 Surf =        3.785 Tension =       -0.194
 Sphere =    8 Type =  CH2 Surf =        9.849 Tension =       -0.194
 Sphere =    9 Type =  CH2 Surf =       10.027 Tension =       -0.194
 Sphere =   10 Type =  C   Surf =        5.468 Tension =       -0.205
 Sphere =   11 Type =  Nc  Surf =       12.914 Tension =       -0.161
 Sphere =   12 Type =  CH  Surf =        7.793 Tension =       -0.195
 Sphere =   13 Type =  CH  Surf =       10.225 Tension =       -0.195
 Sphere =   14 Type =  CH  Surf =        7.698 Tension =       -0.195
 Sphere =   15 Type =  CH  Surf =       10.237 Tension =       -0.195
 Sphere =   16 Type =  S   Surf =       24.394 Tension =       -0.186
 Sphere =   17 Type =  NH  Surf =        3.977 Tension =       -0.234
 PCM non-electrostatic energy =        -0.0082371518 Hartrees.
 Nuclear repulsion after PCM non-electrostatic terms =      438.4083843248 Hartrees.
 Leave Link  301 at Mon Jul 12 12:52:22 2021, MaxMem=   104857600 cpu:               0.1 elap:               0.1
 (Enter /dades/curu/g16A03_MST/g16/l302.exe)
 NPDir=0 NMtPBC=     1 NCelOv=     1 NCel=       1 NClECP=     1 NCelD=      1
         NCelK=      1 NCelE2=     1 NClLst=     1 CellRange=     0.0.
 One-electron integrals computed using PRISM.
 One-electron integral symmetry used in STVInt
 NBasis=   142 RedAO= T EigKep=  2.57D-03  NBF=   142
 NBsUse=   142 1.00D-06 EigRej= -1.00D+00 NBFU=   142
 Precomputing XC quadrature grid using
 IXCGrd= 4 IRadAn=           5 IRanWt=          -1 IRanGd=           0 AccXCQ= 0.00D+00.
 Generated NRdTot=       0 NPtTot=           0 NUsed=           0 NTot=          32
 NSgBfM=   142   142   142   142   142 MxSgAt=    17 MxSgA2=    17.
 Leave Link  302 at Mon Jul 12 12:52:22 2021, MaxMem=   104857600 cpu:               2.3 elap:               0.6
 (Enter /dades/curu/g16A03_MST/g16/l303.exe)
 DipDrv:  MaxL=1.
 Leave Link  303 at Mon Jul 12 12:52:22 2021, MaxMem=   104857600 cpu:               0.1 elap:               0.0
 (Enter /dades/curu/g16A03_MST/g16/l401.exe)
 Initial guess from the checkpoint file:  "SET_328_BBB87_conf1.geo_180_270.chk"
 B after Tr=    -0.000000    0.000000   -0.000000
         Rot=    0.999991    0.001355    0.003931    0.000615 Ang=   0.48 deg.
 Guess basis will be translated and rotated to current coordinates.
 JPrj=2 DoOrth=T DoCkMO=T.
 Generating alternative initial guess.
 ExpMin= 1.17D-01 ExpMax= 2.19D+04 ExpMxC= 3.30D+03 IAcc=2 IRadAn=         4 AccDes= 0.00D+00
 Harris functional with IExCor=  402 and IRadAn=       4 diagonalized for initial guess.
 HarFok:  IExCor=  402 AccDes= 0.00D+00 IRadAn=         4 IDoV= 1 UseB2=F ITyADJ=14
 ICtDFT=  3500011 ScaDFX=  1.000000  1.000000  1.000000  1.000000
 FoFCou: FMM=F IPFlag=           0 FMFlag=      100000 FMFlg1=           0
         NFxFlg=           0 DoJE=T BraDBF=F KetDBF=T FulRan=T
         wScrn=  0.000000 ICntrl=       500 IOpCl=  0 I1Cent=   200000004 NGrid=           0
         NMat0=    1 NMatS0=      1 NMatT0=    0 NMatD0=    1 NMtDS0=    0 NMtDT0=    0
 Petite list used in FoFCou.
 Harris En= -703.384959289753    
 Leave Link  401 at Mon Jul 12 12:52:23 2021, MaxMem=   104857600 cpu:               3.8 elap:               1.0
 (Enter /dades/curu/g16A03_MST/g16/l502.exe)
 Keep R1 ints in memory in canonical form, NReq=55416097.
 FoFCou: FMM=F IPFlag=           0 FMFlag=           0 FMFlg1=           0
         NFxFlg=           0 DoJE=F BraDBF=F KetDBF=F FulRan=T
         wScrn=  0.000000 ICntrl=       600 IOpCl=  0 I1Cent=           0 NGrid=           0
         NMat0=    1 NMatS0=  10153 NMatT0=    0 NMatD0=    1 NMtDS0=    0 NMtDT0=    0
 Symmetry not used in FoFCou.
 Two-electron integral symmetry not used.
 Closed shell SCF:
 Using DIIS extrapolation, IDIIS=  1040.
 NGot=   104857600 LenX=    53267895 LenY=    53247290
 Requested convergence on RMS density matrix=1.00D-08 within 128 cycles.
 Requested convergence on MAX density matrix=1.00D-06.
 Requested convergence on             energy=1.00D-06.
 No special actions if energy rises.

 Cycle   1  Pass 1  IDiag  1:
 Inv3:  Mode=1 IEnd=     9103692.
 Iteration    1 A*A^-1 deviation from unit magnitude is 5.33D-15 for   1733.
 Iteration    1 A*A^-1 deviation from orthogonality  is 1.83D-15 for    145     91.
 Iteration    1 A^-1*A deviation from unit magnitude is 5.55D-15 for   1733.
 Iteration    1 A^-1*A deviation from orthogonality  is 1.66D-15 for    991    573.
 E= -703.491839306205    
 DIIS: error= 4.53D-03 at cycle   1 NSaved=   1.
 NSaved= 1 IEnMin= 1 EnMin= -703.491839306205     IErMin= 1 ErrMin= 4.53D-03
 ErrMax= 4.53D-03  0.00D+00 EMaxC= 1.00D-01 BMatC= 5.10D-03 BMatP= 5.10D-03
 IDIUse=3 WtCom= 9.55D-01 WtEn= 4.53D-02
 Coeff-Com:  0.100D+01
 Coeff-En:   0.100D+01
 Coeff:      0.100D+01
 Gap=     1.609 Goal=   None    Shift=    0.000
 GapD=    1.609 DampG=2.000 DampE=1.000 DampFc=2.0000 IDamp=-1.
 RMSDP=9.38D-04 MaxDP=1.37D-02              OVMax= 2.20D-02

 Cycle   2  Pass 1  IDiag  1:
 E= -703.499560986958     Delta-E=       -0.007721680753 Rises=F Damp=F
 DIIS: error= 2.16D-03 at cycle   2 NSaved=   2.
 NSaved= 2 IEnMin= 2 EnMin= -703.499560986958     IErMin= 2 ErrMin= 2.16D-03
 ErrMax= 2.16D-03  0.00D+00 EMaxC= 1.00D-01 BMatC= 7.56D-04 BMatP= 5.10D-03
 IDIUse=3 WtCom= 9.78D-01 WtEn= 2.16D-02
 Coeff-Com:  0.172D+00 0.828D+00
 Coeff-En:   0.000D+00 0.100D+01
 Coeff:      0.168D+00 0.832D+00
 Gap=     0.213 Goal=   None    Shift=    0.000
 RMSDP=3.47D-04 MaxDP=7.73D-03 DE=-7.72D-03 OVMax= 1.03D-02

 Cycle   3  Pass 1  IDiag  1:
 E= -703.499627860272     Delta-E=       -0.000066873314 Rises=F Damp=F
 DIIS: error= 2.07D-03 at cycle   3 NSaved=   3.
 NSaved= 3 IEnMin= 3 EnMin= -703.499627860272     IErMin= 3 ErrMin= 2.07D-03
 ErrMax= 2.07D-03  0.00D+00 EMaxC= 1.00D-01 BMatC= 7.20D-04 BMatP= 7.56D-04
 IDIUse=3 WtCom= 9.79D-01 WtEn= 2.07D-02
 Coeff-Com: -0.226D-01 0.497D+00 0.526D+00
 Coeff-En:   0.000D+00 0.478D+00 0.522D+00
 Coeff:     -0.221D-01 0.496D+00 0.526D+00
 Gap=     0.214 Goal=   None    Shift=    0.000
 RMSDP=1.99D-04 MaxDP=5.23D-03 DE=-6.69D-05 OVMax= 8.01D-03

 Cycle   4  Pass 1  IDiag  1:
 E= -703.500252079906     Delta-E=       -0.000624219634 Rises=F Damp=F
 DIIS: error= 4.78D-04 at cycle   4 NSaved=   4.
 NSaved= 4 IEnMin= 4 EnMin= -703.500252079906     IErMin= 4 ErrMin= 4.78D-04
 ErrMax= 4.78D-04  0.00D+00 EMaxC= 1.00D-01 BMatC= 4.80D-05 BMatP= 7.20D-04
 IDIUse=3 WtCom= 9.95D-01 WtEn= 4.78D-03
 Coeff-Com: -0.205D-01 0.275D+00 0.326D+00 0.419D+00
[...]
 ! A27   A(12,14,16)           109.6045         -DE/DX =   -0.0006              !
 ! A28   A(15,14,16)           121.6138         -DE/DX =    0.0003              !
 ! A29   A(10,16,14)            89.0386         -DE/DX =    0.0005              !
 ! D1    D(2,1,4,5)            174.9003         -DE/DX =    0.0001              !
 ! D2    D(2,1,4,6)             58.1344         -DE/DX =    0.0002              !
 ! D3    D(2,1,4,7)            -62.9092         -DE/DX =    0.0001              !
 ! D4    D(3,1,4,5)             55.3252         -DE/DX =    0.0001              !
 ! D5    D(3,1,4,6)            -61.4407         -DE/DX =    0.0003              !
 ! D6    D(3,1,4,7)            177.5157         -DE/DX =    0.0001              !
 ! D7    D(17,1,4,5)           -64.5133         -DE/DX =   -0.0002              !
 ! D8    D(17,1,4,6)           178.7208         -DE/DX =    0.0                 !
 ! D9    D(17,1,4,7)            57.6772         -DE/DX =   -0.0001              !
 ! D10   D(1,4,7,8)             53.4445         -DE/DX =   -0.0002              !
 ! D11   D(1,4,7,9)            -65.0801         -DE/DX =    0.0002              !
 ! D12   D(1,4,7,10)           172.5653         -DE/DX =    0.0                 !
 ! D13   D(5,4,7,8)            172.981          -DE/DX =   -0.0005              !
 ! D14   D(5,4,7,9)             54.4565         -DE/DX =    0.0                 !
 ! D15   D(5,4,7,10)           -67.8982         -DE/DX =   -0.0002              !
 ! D16   D(6,4,7,8)            -65.952          -DE/DX =   -0.0003              !
 ! D17   D(6,4,7,9)            175.5235         -DE/DX =    0.0002              !
 ! D18   D(6,4,7,10)            53.1689         -DE/DX =    0.0                 !
 ! D19   D(4,7,10,11)          -59.2455         -DE/DX =    0.0003              !
 ! D20   D(4,7,10,16)          119.589          -DE/DX =    0.0                 !
 ! D21   D(8,7,10,11)           60.7731         -DE/DX =    0.0004              !
 ! D22   D(8,7,10,16)         -120.3924         -DE/DX =    0.0001              !
 ! D23   D(9,7,10,11)          178.3714         -DE/DX =    0.0004              !
 ! D24   D(9,7,10,16)           -2.7941         -DE/DX =    0.0001              !
 ! D25   D(7,10,11,12)         179.2307         -DE/DX =   -0.0004              !
 ! D26   D(16,10,11,12)          0.309          -DE/DX =   -0.0001              !
 ! D27   D(7,10,16,14)        -179.2253         -DE/DX =    0.0003              !
 ! D28   D(11,10,16,14)         -0.2947         -DE/DX =    0.0                 !
 ! D29   D(10,11,12,13)        179.7871         -DE/DX =    0.0002              !
 ! D30   D(10,11,12,14)         -0.1591         -DE/DX =    0.0002              !
 ! D31   D(11,12,14,15)        179.7388         -DE/DX =   -0.0001              !
 ! D32   D(11,12,14,16)         -0.0624         -DE/DX =   -0.0002              !
 ! D33   D(13,12,14,15)         -0.2041         -DE/DX =    0.0                 !
 ! D34   D(13,12,14,16)        179.9948         -DE/DX =   -0.0002              !
 ! D35   D(12,14,16,10)          0.1884         -DE/DX =    0.0001              !
 ! D36   D(15,14,16,10)       -179.6296         -DE/DX =    0.0                 !
 --------------------------------------------------------------------------------
 Largest change from initial coordinates is atom    8       0.595 Angstoms.
 GradGradGradGradGradGradGradGradGradGradGradGradGradGradGradGradGradGrad

 Leave Link  103 at Mon Jul 12 13:59:58 2021, MaxMem=   104857600 cpu:               0.1 elap:               0.0
 (Enter /dades/curu/g16A03_MST/g16/l202.exe)
                          Input orientation:                          
 ---------------------------------------------------------------------
 Center     Atomic      Atomic             Coordinates (Angstroms)
 Number     Number       Type             X           Y           Z
 ---------------------------------------------------------------------
      1          7           0        0.880524    2.850631   -0.506919
      2          1           0        0.042654    3.367139   -0.195816
      3          1           0        1.151825    3.245281   -1.418980
      4          6           0        0.636367    1.370782   -0.603822
      5          1           0        1.532386    0.920685   -1.032965
      6          1           0       -0.194498    1.218836   -1.288229
      7          6           0        0.303220    0.763714    0.757042
      8          1           0       -0.520410    1.318891    1.222591
      9          1           0        1.156427    0.821168    1.436888
     10          6           0       -0.123764   -0.661923    0.556292
     11          7           0       -0.970946   -1.025097   -0.366846
     12          6           0       -1.210866   -2.379280   -0.313028
     13          1           0       -1.899805   -2.824548   -1.019530
     14          6           0       -0.539167   -3.064097    0.656660
     15          1           0       -0.569447   -4.120139    0.883204
     16         16           0        0.452602   -1.970964    1.563243
     17          1           0        1.636899    3.095921    0.147216
 ---------------------------------------------------------------------
                    Distance matrix (angstroms):
                    1          2          3          4          5
     1  N    0.000000
     2  H    1.032275   0.000000
     3  H    1.030149   1.655669   0.000000
     4  C    1.502982   2.122359   2.108062   0.000000
     5  H    2.103887   2.984168   2.386961   1.090688   0.000000
     6  H    2.104488   2.421738   2.436424   1.087123   1.770927
     7  C    2.507210   2.784539   3.407841   1.526916   2.177066
     8  H    2.701861   2.554260   3.672227   2.162548   3.075723
     9  H    2.823691   3.223070   3.745975   2.176473   2.500284
    10  C    3.804871   4.102036   4.560161   2.460803   2.788049
    11  N    4.297537   4.510918   4.883572   2.894797   3.239823
    12  C    5.635909   5.882719   6.200091   4.190441   4.351265
    13  H    6.340399   6.541303   6.805500   4.919936   5.080048
    14  C    6.193016   6.513527   6.853903   4.758029   4.798400
    15  H    7.254412   7.589353   7.906468   5.815105   5.787859
    16  S    5.264643   5.635396   6.049114   3.987130   4.033344
    17  H    1.029642   1.653132   1.646383   2.131015   2.476974
                    6          7          8          9         10
     6  H    0.000000
     7  C    2.153600   0.000000
     8  H    2.533861   1.096961   0.000000
     9  H    3.067475   1.092453   1.762225   0.000000
    10  C    2.635245   1.501684   2.127183   2.147999   0.000000
    11  N    2.546970   2.467077   2.867677   3.344827   1.304528
    12  C    3.863995   3.649098   4.063413   4.348465   2.210616
    13  H    4.396502   4.570027   4.908964   5.354044   3.211617
    14  C    4.716451   3.920692   4.419413   4.310345   2.439892
    15  H    5.775843   4.962810   5.449829   5.263242   3.502108
    16  S    4.327177   2.854950   3.447600   2.882245   1.749211
    17  H    2.989643   2.754955   2.994703   2.658685   4.169972
                   11         12         13         14         15
    11  N    0.000000
    12  C    1.376324   0.000000
    13  H    2.127628   1.082610   0.000000
    14  C    2.321964   1.363983   2.172172   0.000000
    15  H    3.362009   2.207483   2.658722   1.080492   0.000000
    16  S    2.578060   2.540520   3.596268   1.732177   2.475074
    17  H    4.903866   6.188651   6.994392   6.552908   7.581633
                   16         17
    16  S    0.000000
    17  H    5.392681   0.000000
 Stoichiometry    C5H9N2S(1+)
 Framework group  C1[X(C5H9N2S)]
 Deg. of freedom    45
 Full point group                 C1      NOp   1
 RotChk:  IX=0 Diff= 2.63D-16
 Largest Abelian subgroup         C1      NOp   1
 Largest concise Abelian subgroup C1      NOp   1
                         Standard orientation:                         
 ---------------------------------------------------------------------
 Center     Atomic      Atomic             Coordinates (Angstroms)
 Number     Number       Type             X           Y           Z
 ---------------------------------------------------------------------
      1          7           0        3.569922    0.027261   -0.066780
      2          1           0        3.803764    0.252571    0.913090
      3          1           0        4.208132    0.577677   -0.659180
      4          6           0        2.132652    0.321359   -0.393455
      5          1           0        2.001102    0.152818   -1.462982
      6          1           0        1.955426    1.372439   -0.179775
      7          6           0        1.179098   -0.541741    0.429506
      8          1           0        1.418417   -0.450562    1.496153
      9          1           0        1.272656   -1.597955    0.166612
     10          6           0       -0.224407   -0.058030    0.203112
     11          7           0       -0.552557    1.204242    0.231061
     12          6           0       -1.903195    1.368990    0.023926
     13          1           0       -2.322178    2.367237    0.024459
     14          6           0       -2.619109    0.224212   -0.169463
     15          1           0       -3.678491    0.111276   -0.349518
     16         16           0       -1.562279   -1.145945   -0.090617
     17          1           0        3.825845   -0.959628   -0.210713
 ---------------------------------------------------------------------
 Rotational constants (GHZ):           4.4448674           0.9239030           0.7934696
 Leave Link  202 at Mon Jul 12 13:59:58 2021, MaxMem=   104857600 cpu:               0.0 elap:               0.0
 (Enter /dades/curu/g16A03_MST/g16/l601.exe)
 Copying SCF densities to generalized density rwf, IOpCl= 0 IROHF=0.

 **********************************************************************

            Population analysis using the SCF density.

 **********************************************************************

 Orbital symmetries:
       Occupied  (A) (A) (A) (A) (A) (A) (A) (A) (A) (A) (A) (A)
                 (A) (A) (A) (A) (A) (A) (A) (A) (A) (A) (A) (A)
                 (A) (A) (A) (A) (A) (A) (A) (A) (A) (A)
       Virtual   (A) (A) (A) (A) (A) (A) (A) (A) (A) (A) (A) (A)
                 (A) (A) (A) (A) (A) (A) (A) (A) (A) (A) (A) (A)
                 (A) (A) (A) (A) (A) (A) (A) (A) (A) (A) (A) (A)
                 (A) (A) (A) (A) (A) (A) (A) (A) (A) (A) (A) (A)
                 (A) (A) (A) (A) (A) (A) (A) (A) (A) (A) (A) (A)
                 (A) (A) (A) (A) (A) (A) (A) (A) (A) (A) (A) (A)
                 (A) (A) (A) (A) (A) (A) (A) (A) (A) (A) (A) (A)
                 (A) (A) (A) (A) (A) (A) (A) (A) (A) (A) (A) (A)
                 (A) (A) (A) (A) (A) (A) (A) (A) (A) (A) (A) (A)
 The electronic state is 1-A.
 Alpha  occ. eigenvalues --  -88.93308 -14.46590 -14.35416 -10.27624 -10.27527
 Alpha  occ. eigenvalues --  -10.23897 -10.23491 -10.23420  -7.99470  -5.95843
 Alpha  occ. eigenvalues --   -5.95494  -5.95201  -1.01110  -0.98239  -0.82846
 Alpha  occ. eigenvalues --   -0.81492  -0.74757  -0.68332  -0.60960  -0.59258
 Alpha  occ. eigenvalues --   -0.58820  -0.54891  -0.52905  -0.50867  -0.48932
 Alpha  occ. eigenvalues --   -0.44612  -0.43353  -0.41976  -0.40657  -0.39607
 Alpha  occ. eigenvalues --   -0.38053  -0.30081  -0.29485  -0.26051
 Alpha virt. eigenvalues --   -0.04229   0.00119   0.02675   0.03574   0.08440
 Alpha virt. eigenvalues --    0.09000   0.09697   0.10189   0.11439   0.13015
 Alpha virt. eigenvalues --    0.14062   0.15034   0.15920   0.17295   0.19197
 Alpha virt. eigenvalues --    0.20090   0.23312   0.27780   0.29708   0.34110
 Alpha virt. eigenvalues --    0.36237   0.40738   0.42134   0.48717   0.48944
 Alpha virt. eigenvalues --    0.50411   0.51658   0.52963   0.53572   0.56673
 Alpha virt. eigenvalues --    0.57727   0.61785   0.63354   0.63988   0.64542
 Alpha virt. eigenvalues --    0.68181   0.72616   0.75410   0.76904   0.77711
 Alpha virt. eigenvalues --    0.78910   0.81000   0.81339   0.81775   0.83181
 Alpha virt. eigenvalues --    0.84253   0.85165   0.85881   0.88150   0.88711
 Alpha virt. eigenvalues --    0.91490   0.93161   0.94586   0.96117   0.99137
 Alpha virt. eigenvalues --    1.01156   1.01928   1.06078   1.12099   1.17263
 Alpha virt. eigenvalues --    1.26602   1.31899   1.33740   1.37070   1.42021
 Alpha virt. eigenvalues --    1.44728   1.46585   1.52121   1.57896   1.65857
 Alpha virt. eigenvalues --    1.68819   1.74906   1.78642   1.79683   1.85980
 Alpha virt. eigenvalues --    1.90019   1.92068   1.93928   1.95688   1.98089
 Alpha virt. eigenvalues --    2.00605   2.09682   2.19190   2.19979   2.23096
 Alpha virt. eigenvalues --    2.24652   2.26576   2.29187   2.31465   2.36224
 Alpha virt. eigenvalues --    2.41890   2.42576   2.48255   2.53064   2.53354
 Alpha virt. eigenvalues --    2.63177   2.68557   2.77737   2.96406   3.02780
 Alpha virt. eigenvalues --    3.72872   3.90938   3.98608   4.07564   4.16916
 Alpha virt. eigenvalues --    4.28167   4.32428   4.46407
          Condensed to atoms (all electrons):
               1          2          3          4          5          6
     1  N    6.723221   0.298862   0.300148   0.213570  -0.033224  -0.032516
     2  H    0.298862   0.277197  -0.010465  -0.018119   0.003163  -0.002766
     3  H    0.300148  -0.010465   0.270676  -0.015950  -0.001962  -0.001482
     4  C    0.213570  -0.018119  -0.015950   5.010865   0.382491   0.381429
     5  H   -0.033224   0.003163  -0.001962   0.382491   0.495849  -0.026305
     6  H   -0.032516  -0.002766  -0.001482   0.381429  -0.026305   0.476900
     7  C   -0.044521  -0.001344   0.002996   0.356723  -0.035284  -0.038804
     8  H   -0.001219   0.003385  -0.000016  -0.039414   0.004334  -0.003101
     9  H   -0.001060  -0.000292  -0.000080  -0.031680  -0.004840   0.004162
    10  C    0.002976  -0.000017  -0.000067  -0.037692   0.001147  -0.006959
    11  N    0.000270   0.000009   0.000002  -0.009421   0.000552   0.016636
    12  C   -0.000001  -0.000000  -0.000000   0.000379  -0.000080  -0.000163
    13  H   -0.000000  -0.000000   0.000000   0.000000  -0.000001  -0.000012
    14  C    0.000000  -0.000000   0.000000  -0.000068  -0.000042   0.000069
    15  H   -0.000000  -0.000000   0.000000   0.000001  -0.000000  -0.000001
    16  S   -0.000072   0.000004   0.000003   0.001544   0.000934   0.000707
    17  H    0.298009  -0.012153  -0.011396  -0.015819  -0.002293   0.002899
               7          8          9         10         11         12
     1  N   -0.044521  -0.001219  -0.001060   0.002976   0.000270  -0.000001
     2  H   -0.001344   0.003385  -0.000292  -0.000017   0.000009  -0.000000
     3  H    0.002996  -0.000016  -0.000080  -0.000067   0.000002  -0.000000
     4  C    0.356723  -0.039414  -0.031680  -0.037692  -0.009421   0.000379
     5  H   -0.035284   0.004334  -0.004840   0.001147   0.000552  -0.000080
     6  H   -0.038804  -0.003101   0.004162  -0.006959   0.016636  -0.000163
     7  C    5.116366   0.371578   0.367875   0.354402  -0.064109   0.007088
     8  H    0.371578   0.523413  -0.031057  -0.028689  -0.002929   0.000109
     9  H    0.367875  -0.031057   0.524512  -0.025224   0.003106  -0.000182
    10  C    0.354402  -0.028689  -0.025224   5.008388   0.467352  -0.081472
    11  N   -0.064109  -0.002929   0.003106   0.467352   6.762959   0.434565
    12  C    0.007088   0.000109  -0.000182  -0.081472   0.434565   4.747548
    13  H   -0.000207   0.000001   0.000002   0.007378  -0.044426   0.376582
    14  C    0.002591   0.000015   0.000082  -0.052207  -0.059179   0.571913
    15  H   -0.000050   0.000001  -0.000002   0.002421   0.003978  -0.015620
    16  S   -0.067467   0.001196   0.001308   0.304856  -0.085678  -0.090571
    17  H   -0.001938  -0.000347   0.002514  -0.000048  -0.000003   0.000000
              13         14         15         16         17
     1  N   -0.000000   0.000000  -0.000000  -0.000072   0.298009
     2  H   -0.000000  -0.000000  -0.000000   0.000004  -0.012153
     3  H    0.000000   0.000000   0.000000   0.000003  -0.011396
     4  C    0.000000  -0.000068   0.000001   0.001544  -0.015819
     5  H   -0.000001  -0.000042  -0.000000   0.000934  -0.002293
     6  H   -0.000012   0.000069  -0.000001   0.000707   0.002899
     7  C   -0.000207   0.002591  -0.000050  -0.067467  -0.001938
     8  H    0.000001   0.000015   0.000001   0.001196  -0.000347
     9  H    0.000002   0.000082  -0.000002   0.001308   0.002514
    10  C    0.007378  -0.052207   0.002421   0.304856  -0.000048
    11  N   -0.044426  -0.059179   0.003978  -0.085678  -0.000003
    12  C    0.376582   0.571913  -0.015620  -0.090571   0.000000
    13  H    0.540565  -0.054421  -0.001123   0.004967   0.000000
    14  C   -0.054421   5.267959   0.352034   0.324944   0.000000
    15  H   -0.001123   0.352034   0.482399  -0.029753   0.000000
    16  S    0.004967   0.324944  -0.029753  15.366763  -0.000007
    17  H    0.000000   0.000000   0.000000  -0.000007   0.278714
 Mulliken charges:
               1
     1  N   -0.724442
     2  H    0.462536
     3  H    0.467592
     4  C   -0.178839
     5  H    0.215562
     6  H    0.229307
     7  C   -0.325894
     8  H    0.202739
     9  H    0.190856
    10  C    0.083456
    11  N   -0.423684
    12  C    0.049906
    13  H    0.170694
    14  C   -0.353689
    15  H    0.205715
    16  S    0.266321
    17  H    0.461865
 Sum of Mulliken charges =   1.00000
 Mulliken charges with hydrogens summed into heavy atoms:
               1
     1  N    0.667551
     4  C    0.266029
     7  C    0.067701
    10  C    0.083456
    11  N   -0.423684
    12  C    0.220600
    14  C   -0.147974
    16  S    0.266321
 Electronic spatial extent (au):  <R**2>=           1391.3164
 Charge=              1.0000 electrons
 Dipole moment (field-independent basis, Debye):
    X=             15.2454    Y=             -0.9815    Z=             -0.4659  Tot=             15.2840
 Quadrupole moment (field-independent basis, Debye-Ang):
   XX=             18.0840   YY=            -50.7996   ZZ=            -51.8447
   XY=             -2.2061   XZ=              0.2543   YZ=             -0.6613
 Traceless Quadrupole moment (field-independent basis, Debye-Ang):
   XX=             46.2708   YY=            -22.6129   ZZ=            -23.6579
   XY=             -2.2061   XZ=              0.2543   YZ=             -0.6613
 Octapole moment (field-independent basis, Debye-Ang**2):
  XXX=            237.3940  YYY=             -0.2557  ZZZ=              0.8516  XYY=             12.8948
  XXY=              6.2113  XXZ=             -8.2860  XZZ=             22.0794  YZZ=             -0.1194
  YYZ=             -1.7510  XYZ=             -0.7139
 Hexadecapole moment (field-independent basis, Debye-Ang**3):
 XXXX=           -272.7661 YYYY=           -302.0349 ZZZZ=            -87.2840 XXXY=              6.5132
 XXXZ=             -7.2918 YYYX=            -21.1345 YYYZ=             -0.6638 ZZZX=              0.9301
 ZZZY=             -0.5177 XXYY=           -227.8436 XXZZ=           -211.2405 YYZZ=            -71.8934
 XXYZ=             -0.2644 YYXZ=             -3.0989 ZZXY=              4.9635
 N-N= 4.363563650871D+02 E-N=-2.515633416585D+03  KE= 6.991342753119D+02
 No NMR shielding tensors so no spin-rotation constants.
 Leave Link  601 at Mon Jul 12 13:59:58 2021, MaxMem=   104857600 cpu:               0.4 elap:               0.1
 (Enter /dades/curu/g16A03_MST/g16/l9999.exe)


 IBM COMPATIBILITY IS LIKE PREGNANCY. YOU ARE OR
 OR YOU ARE NOT. -- ADAM OSBORNE
 Error termination request processed by link 9999.
 Error termination via Lnk1e in /dades/curu/g16A03_MST/g16/l9999.exe at Mon Jul 12 13:59:58 2021.
 Job cpu time:       0 days  4 hours 17 minutes 43.3 seconds.
 Elapsed time:       0 days  1 hours  8 minutes 26.4 seconds.
 File lengths (MBytes):  RWF=    114 Int=      0 D2E=      0 Chk=      6 Scr=      1
