 Entering Gaussian System, Link 0=g16
 Input=SET_328_BBB87_conf1.geo_075_075_OCTANOL.dat
 Output=SET_328_BBB87_conf1.geo_075_075_OCTANOL.log
 Initial command:
 /dades/curu/g16A03_MST/g16/l1.exe "/tmp/ubator02/1835314/Gau-211721.inp" -scrdir="/tmp/ubator02/1835314/"
 Entering Link 1 = /dades/curu/g16A03_MST/g16/l1.exe PID=    211722.
  
 Copyright (c) 1988,1990,1992,1993,1995,1998,2003,2009,2016,
            Gaussian, Inc.  All Rights Reserved.
  
 This is part of the Gaussian(R) 16 program.  It is based on
 the Gaussian(R) 09 system (copyright 2009, Gaussian, Inc.),
 the Gaussian(R) 03 system (copyright 2003, Gaussian, Inc.),
 the Gaussian(R) 98 system (copyright 1998, Gaussian, Inc.),
 the Gaussian(R) 94 system (copyright 1995, Gaussian, Inc.),
 the Gaussian 92(TM) system (copyright 1992, Gaussian, Inc.),
 the Gaussian 90(TM) system (copyright 1990, Gaussian, Inc.),
 the Gaussian 88(TM) system (copyright 1988, Gaussian, Inc.),
 the Gaussian 86(TM) system (copyright 1986, Carnegie Mellon
 University), and the Gaussian 82(TM) system (copyright 1983,
 Carnegie Mellon University). Gaussian is a federally registered
 trademark of Gaussian, Inc.
  
 This software contains proprietary and confidential information,
 including trade secrets, belonging to Gaussian, Inc.
  
 This software is provided under written license and may be
 used, copied, transmitted, or stored only in accord with that
 written license.
  
 The following legend is applicable only to US Government
 contracts under FAR:
  
                    RESTRICTED RIGHTS LEGEND
  
 Use, reproduction and disclosure by the US Government is
 subject to restrictions as set forth in subparagraphs (a)
 and (c) of the Commercial Computer Software - Restricted
 Rights clause in FAR 52.227-19.
  
 Gaussian, Inc.
 340 Quinnipiac St., Bldg. 40, Wallingford CT 06492
  
  
 ---------------------------------------------------------------
 Warning -- This program may not be used in any manner that
 competes with the business of Gaussian, Inc. or will provide
 assistance to any competitor of Gaussian, Inc.  The licensee
 of this program is prohibited from giving any competitor of
 Gaussian, Inc. access to this program.  By using this program,
 the user acknowledges that Gaussian, Inc. is engaged in the
 business of creating and licensing software in the field of
 computational chemistry and represents and warrants to the
 licensee that it is not a competitor of Gaussian, Inc. and that
 it will not use this program in any manner prohibited above.
 ---------------------------------------------------------------
  

 Cite this work as:
 Gaussian 16, Revision A.03,
 M. J. Frisch, G. W. Trucks, H. B. Schlegel, G. E. Scuseria, 
 M. A. Robb, J. R. Cheeseman, G. Scalmani, V. Barone, 
 G. A. Petersson, H. Nakatsuji, X. Li, M. Caricato, A. V. Marenich, 
 J. Bloino, B. G. Janesko, R. Gomperts, B. Mennucci, H. P. Hratchian, 
 J. V. Ortiz, A. F. Izmaylov, J. L. Sonnenberg, D. Williams-Young, 
 F. Ding, F. Lipparini, F. Egidi, J. Goings, B. Peng, A. Petrone, 
 T. Henderson, D. Ranasinghe, V. G. Zakrzewski, J. Gao, N. Rega, 
 G. Zheng, W. Liang, M. Hada, M. Ehara, K. Toyota, R. Fukuda, 
 J. Hasegawa, M. Ishida, T. Nakajima, Y. Honda, O. Kitao, H. Nakai, 
 T. Vreven, K. Throssell, J. A. Montgomery, Jr., J. E. Peralta, 
 F. Ogliaro, M. J. Bearpark, J. J. Heyd, E. N. Brothers, K. N. Kudin, 
 V. N. Staroverov, T. A. Keith, R. Kobayashi, J. Normand, 
 K. Raghavachari, A. P. Rendell, J. C. Burant, S. S. Iyengar, 
 J. Tomasi, M. Cossi, J. M. Millam, M. Klene, C. Adamo, R. Cammi, 
 J. W. Ochterski, R. L. Martin, K. Morokuma, O. Farkas, 
 J. B. Foresman, and D. J. Fox, Gaussian, Inc., Wallingford CT, 2016.
 
 ******************************************
 Gaussian 16:  ES64L-G16RevA.03 25-Dec-2016
                12-Jul-2021 
 ******************************************
 %mem=800MB
 %nproc=4
 Will use up to    4 processors via shared memory.
 %chk=SET_328_BBB87_conf1.geo_075_075.chk
 ---------------------------------------------------------------
 #p b3lyp/6-31G(d) opt freq scrf=(iefpcm,read,solvent=n-octanol)
 ---------------------------------------------------------------
 1/18=20,19=15,26=3,38=1,40=2/1,3;
 2/9=110,12=2,17=6,18=5,40=1/2;
 3/5=1,6=6,7=1,11=2,25=1,30=1,70=2203,71=1,72=25,74=-5/1,2,3;
 4//1;
 5/5=2,38=5,53=25/2;
 6/7=2,8=2,9=2,10=2,28=1/1;
 7//1,2,3,16;
 1/18=20,19=15,26=3/3(2);
 2/9=110/2;
 99//99;
 2/9=110/2;
 3/5=1,6=6,7=1,11=2,25=1,30=1,70=2205,71=1,72=25,74=-5/1,2,3;
 4/5=5,16=3,69=1/1;
 5/5=2,38=5,53=25/2;
 7//1,2,3,16;
 1/18=20,19=15,26=3/3(-5);
 2/9=110/2;
 6/7=2,8=2,9=2,10=2,19=2,28=1/1;
 99/9=1/99;
 Leave Link    1 at Mon Jul 12 12:51:24 2021, MaxMem=   104857600 cpu:               0.0 elap:               0.0
 (Enter /dades/curu/g16A03_MST/g16/l101.exe)
 ----------------------------------------
 SET_328_BBB87_conf1.geo_075_075 geometry
 ----------------------------------------
 Symbolic Z-matrix:
 Charge =  1 Multiplicity = 1
 N                    -1.927    -1.438    -0.099 
 H                    -1.51     -1.206     0.78 
 H                    -2.18     -2.405    -0.103 
 C                    -0.986    -1.183    -1.159 
 H                    -1.431    -1.386    -2.137 
 H                    -0.055    -1.733    -1.004 
 C                    -0.642     0.254    -1.153 
 H                    -1.563     0.84     -1.126 
 H                    -0.13      0.386    -2.109 
 C                     0.288     0.784    -0.087 
 N                     1.637     0.546    -0.161 
 C                     2.243     0.998     1.012 
 H                     3.317     0.903     1.116 
 C                     1.375     1.496     1.882 
 H                     1.547     1.78      2.914 
 S                    -0.251     1.56      1.377 
 H                    -2.745    -0.879    -0.238 
 
 ITRead=  0  0  0  0  0  0  0  0  0  0  0  0  0  0  0  0  0
 MicOpt= -1 -1 -1 -1 -1 -1 -1 -1 -1 -1 -1 -1 -1 -1 -1 -1 -1
 NAtoms=     17 NQM=       17 NQMF=       0 NMMI=      0 NMMIF=      0
                NMic=       0 NMicF=      0.
                    Isotopes and Nuclear Properties:
 (Nuclear quadrupole moments (NQMom) in fm**2, nuclear magnetic moments (NMagM)
  in nuclear magnetons)

  Atom         1           2           3           4           5           6           7           8           9          10
 IAtWgt=          14           1           1          12           1           1          12           1           1          12
 AtmWgt=  14.0030740   1.0078250   1.0078250  12.0000000   1.0078250   1.0078250  12.0000000   1.0078250   1.0078250  12.0000000
 NucSpn=           2           1           1           0           1           1           0           1           1           0
 AtZEff=  -0.0000000  -0.0000000  -0.0000000  -0.0000000  -0.0000000  -0.0000000  -0.0000000  -0.0000000  -0.0000000  -0.0000000
 NQMom=    2.0440000   0.0000000   0.0000000   0.0000000   0.0000000   0.0000000   0.0000000   0.0000000   0.0000000   0.0000000
 NMagM=    0.4037610   2.7928460   2.7928460   0.0000000   2.7928460   2.7928460   0.0000000   2.7928460   2.7928460   0.0000000
 AtZNuc=   7.0000000   1.0000000   1.0000000   6.0000000   1.0000000   1.0000000   6.0000000   1.0000000   1.0000000   6.0000000

  Atom        11          12          13          14          15          16          17
 IAtWgt=          14          12           1          12           1          32           1
 AtmWgt=  14.0030740  12.0000000   1.0078250  12.0000000   1.0078250  31.9720718   1.0078250
 NucSpn=           2           0           1           0           1           0           1
 AtZEff=  -0.0000000  -0.0000000  -0.0000000  -0.0000000  -0.0000000  -0.0000000  -0.0000000
 NQMom=    2.0440000   0.0000000   0.0000000   0.0000000   0.0000000   0.0000000   0.0000000
 NMagM=    0.4037610   0.0000000   2.7928460   0.0000000   2.7928460   0.0000000   2.7928460
 AtZNuc=   7.0000000   6.0000000   1.0000000   6.0000000   1.0000000  16.0000000   1.0000000
 Leave Link  101 at Mon Jul 12 12:51:24 2021, MaxMem=   104857600 cpu:               0.1 elap:               0.1
 (Enter /dades/curu/g16A03_MST/g16/l103.exe)

 GradGradGradGradGradGradGradGradGradGradGradGradGradGradGradGradGradGrad
 Berny optimization.
 Initialization pass.
                           ----------------------------
                           !    Initial Parameters    !
                           ! (Angstroms and Degrees)  !
 --------------------------                            --------------------------
 ! Name  Definition              Value          Derivative Info.                !
 --------------------------------------------------------------------------------
 ! R1    R(1,2)                  1.0002         estimate D2E/DX2                !
 ! R2    R(1,3)                  0.9996         estimate D2E/DX2                !
 ! R3    R(1,4)                  1.4402         estimate D2E/DX2                !
 ! R4    R(1,17)                 1.0005         estimate D2E/DX2                !
 ! R5    R(4,5)                  1.0935         estimate D2E/DX2                !
 ! R6    R(4,6)                  1.0924         estimate D2E/DX2                !
 ! R7    R(4,7)                  1.4776         estimate D2E/DX2                !
 ! R8    R(7,8)                  1.092          estimate D2E/DX2                !
 ! R9    R(7,9)                  1.0925         estimate D2E/DX2                !
 ! R10   R(7,10)                 1.5107         estimate D2E/DX2                !
 ! R11   R(10,11)                1.3718         estimate D2E/DX2                !
 ! R12   R(10,16)                1.7424         estimate D2E/DX2                !
 ! R13   R(11,12)                1.3955         estimate D2E/DX2                !
 ! R14   R(12,13)                1.0832         estimate D2E/DX2                !
 ! R15   R(12,14)                1.326          estimate D2E/DX2                !
 ! R16   R(14,15)                1.0841         estimate D2E/DX2                !
 ! R17   R(14,16)                1.7038         estimate D2E/DX2                !
 ! A1    A(2,1,3)              109.4783         estimate D2E/DX2                !
 ! A2    A(2,1,4)              109.4729         estimate D2E/DX2                !
 ! A3    A(2,1,17)             109.4744         estimate D2E/DX2                !
 ! A4    A(3,1,4)              109.4954         estimate D2E/DX2                !
 ! A5    A(3,1,17)             109.4532         estimate D2E/DX2                !
 ! A6    A(4,1,17)             109.4532         estimate D2E/DX2                !
 ! A7    A(1,4,5)              111.0704         estimate D2E/DX2                !
 ! A8    A(1,4,6)              111.3019         estimate D2E/DX2                !
 ! A9    A(1,4,7)              108.7428         estimate D2E/DX2                !
 ! A10   A(5,4,6)              112.3505         estimate D2E/DX2                !
 ! A11   A(5,4,7)              106.1955         estimate D2E/DX2                !
 ! A12   A(6,4,7)              106.8974         estimate D2E/DX2                !
 ! A13   A(4,7,8)              109.0045         estimate D2E/DX2                !
 ! A14   A(4,7,9)              102.8888         estimate D2E/DX2                !
 ! A15   A(4,7,10)             119.1684         estimate D2E/DX2                !
 ! A16   A(8,7,9)              110.6148         estimate D2E/DX2                !
 ! A17   A(8,7,10)             108.271          estimate D2E/DX2                !
 ! A18   A(9,7,10)             106.6537         estimate D2E/DX2                !
 ! A19   A(7,10,11)            120.427          estimate D2E/DX2                !
 ! A20   A(7,10,16)            123.9662         estimate D2E/DX2                !
 ! A21   A(11,10,16)           115.2635         estimate D2E/DX2                !
 ! A22   A(10,11,12)           108.995          estimate D2E/DX2                !
 ! A23   A(11,12,13)           118.8721         estimate D2E/DX2                !
 ! A24   A(11,12,14)           112.8842         estimate D2E/DX2                !
 ! A25   A(13,12,14)           128.2415         estimate D2E/DX2                !
 ! A26   A(12,14,15)           128.2504         estimate D2E/DX2                !
 ! A27   A(12,14,16)           116.381          estimate D2E/DX2                !
 ! A28   A(15,14,16)           115.0697         estimate D2E/DX2                !
 ! A29   A(10,16,14)            86.3933         estimate D2E/DX2                !
 ! D1    D(2,1,4,5)           -177.4748         estimate D2E/DX2                !
 ! D2    D(2,1,4,6)             56.5362         estimate D2E/DX2                !
 ! D3    D(2,1,4,7)            -60.9639         estimate D2E/DX2                !
 ! D4    D(3,1,4,5)             62.5007         estimate D2E/DX2                !
 ! D5    D(3,1,4,6)            -63.4882         estimate D2E/DX2                !
 ! D6    D(3,1,4,7)            179.0116         estimate D2E/DX2                !
 ! D7    D(17,1,4,5)           -57.4809         estimate D2E/DX2                !
 ! D8    D(17,1,4,6)           176.5301         estimate D2E/DX2                !
 ! D9    D(17,1,4,7)            59.03           estimate D2E/DX2                !
 ! D10   D(1,4,7,8)            -49.7162         estimate D2E/DX2                !
 ! D11   D(1,4,7,9)           -167.156          estimate D2E/DX2                !
 ! D12   D(1,4,7,10)            75.1721         estimate D2E/DX2                !
 ! D13   D(5,4,7,8)             69.8802         estimate D2E/DX2                !
 ! D14   D(5,4,7,9)            -47.5595         estimate D2E/DX2                !
 ! D15   D(5,4,7,10)          -165.2315         estimate D2E/DX2                !
 ! D16   D(6,4,7,8)           -169.9819         estimate D2E/DX2                !
 ! D17   D(6,4,7,9)             72.5783         estimate D2E/DX2                !
 ! D18   D(6,4,7,10)           -45.0936         estimate D2E/DX2                !
 ! D19   D(4,7,10,11)           75.6323         estimate D2E/DX2                !
 ! D20   D(4,7,10,16)          -97.3155         estimate D2E/DX2                !
 ! D21   D(8,7,10,11)         -159.127          estimate D2E/DX2                !
 ! D22   D(8,7,10,16)           27.9253         estimate D2E/DX2                !
 ! D23   D(9,7,10,11)          -40.0641         estimate D2E/DX2                !
 ! D24   D(9,7,10,16)          146.9882         estimate D2E/DX2                !
 ! D25   D(7,10,11,12)        -173.0037         estimate D2E/DX2                !
 ! D26   D(16,10,11,12)          0.5314         estimate D2E/DX2                !
 ! D27   D(7,10,16,14)         171.492          estimate D2E/DX2                !
 ! D28   D(11,10,16,14)         -1.7855         estimate D2E/DX2                !
 ! D29   D(10,11,12,13)       -178.9685         estimate D2E/DX2                !
 ! D30   D(10,11,12,14)          1.5261         estimate D2E/DX2                !
 ! D31   D(11,12,14,15)        170.2976         estimate D2E/DX2                !
 ! D32   D(11,12,14,16)         -3.0622         estimate D2E/DX2                !
 ! D33   D(13,12,14,15)         -9.151          estimate D2E/DX2                !
 ! D34   D(13,12,14,16)        177.4892         estimate D2E/DX2                !
 ! D35   D(12,14,16,10)          2.739          estimate D2E/DX2                !
 ! D36   D(15,14,16,10)       -171.5072         estimate D2E/DX2                !
 --------------------------------------------------------------------------------
 Trust Radius=3.00D-01 FncErr=1.00D-07 GrdErr=1.00D-06 EigMax=2.50D+02 EigMin=1.00D-04
 Number of steps in this run=     92 maximum allowed number of steps=    102.
 GradGradGradGradGradGradGradGradGradGradGradGradGradGradGradGradGradGrad

 Leave Link  103 at Mon Jul 12 12:51:24 2021, MaxMem=   104857600 cpu:               0.1 elap:               0.0
 (Enter /dades/curu/g16A03_MST/g16/l202.exe)
                          Input orientation:                          
 ---------------------------------------------------------------------
 Center     Atomic      Atomic             Coordinates (Angstroms)
 Number     Number       Type             X           Y           Z
 ---------------------------------------------------------------------
      1          7           0       -1.927000   -1.438000   -0.099000
      2          1           0       -1.510000   -1.206000    0.780000
      3          1           0       -2.180000   -2.405000   -0.103000
      4          6           0       -0.986000   -1.183000   -1.159000
      5          1           0       -1.431000   -1.386000   -2.137000
      6          1           0       -0.055000   -1.733000   -1.004000
      7          6           0       -0.642000    0.254000   -1.153000
      8          1           0       -1.563000    0.840000   -1.126000
      9          1           0       -0.130000    0.386000   -2.109000
     10          6           0        0.288000    0.784000   -0.087000
     11          7           0        1.637000    0.546000   -0.161000
     12          6           0        2.243000    0.998000    1.012000
     13          1           0        3.317000    0.903000    1.116000
     14          6           0        1.375000    1.496000    1.882000
     15          1           0        1.547000    1.780000    2.914000
     16         16           0       -0.251000    1.560000    1.377000
     17          1           0       -2.745000   -0.879000   -0.238000
 ---------------------------------------------------------------------
                    Distance matrix (angstroms):
                    1          2          3          4          5
     1  N    0.000000
     2  H    1.000177   0.000000
     3  H    0.999557   1.632847   0.000000
     4  C    1.440176   2.008688   2.008496   0.000000
     5  H    2.098133   2.923616   2.395103   1.093489   0.000000
     6  H    2.100103   2.361654   2.403957   1.092376   1.815895
     7  C    2.371709   2.573230   3.246263   1.477613   2.068907
     8  H    2.525175   2.796741   3.457925   2.103936   2.448392
     9  H    3.255194   3.575638   4.002027   2.024104   2.198492
    10  C    3.137460   2.818615   4.032493   2.577081   3.444758
    11  N    4.079485   3.722713   4.825065   3.296297   4.129143
    12  C    4.955534   4.358492   5.690919   4.460543   5.394250
    13  H    5.869927   5.278324   6.530378   5.295548   6.193951
    14  C    4.841066   4.103466   5.638799   4.690314   5.686117
    15  H    5.612697   4.776547   6.364514   5.637800   6.663681
    16  S    3.738389   3.097135   4.651093   3.807305   4.734925
    17  H    1.000463   1.633548   1.632828   2.008666   2.364286
                    6          7          8          9         10
     6  H    0.000000
     7  C    2.077243   0.000000
     8  H    2.984841   1.091955   0.000000
     9  H    2.390985   1.092476   1.796077   0.000000
    10  C    2.700709   1.510681   2.123407   2.102763   0.000000
    11  N    2.960972   2.502632   3.355244   2.634880   1.371831
    12  C    4.099198   3.682932   4.368254   3.968163   2.252914
    13  H    4.776325   4.609039   5.370748   4.748655   3.261320
    14  C    4.560739   3.849945   4.255613   4.407404   2.359126
    15  H    5.500754   4.864246   5.184332   5.475956   3.403395
    16  S    4.068344   2.873920   2.916291   3.680369   1.742410
    17  H    2.924410   2.558031   2.267296   3.455299   3.462291
                   11         12         13         14         15
    11  N    0.000000
    12  C    1.395517   0.000000
    13  H    2.140228   1.083198   0.000000
    14  C    2.268258   1.326020   2.170200   0.000000
    15  H    3.314586   2.171070   2.671111   1.084096   0.000000
    16  S    2.637837   2.582461   3.637361   1.703818   2.375621
    17  H    4.608522   5.474100   6.461941   5.206671   5.952029
                   16         17
    16  S    0.000000
    17  H    3.844084   0.000000
 Stoichiometry    C5H9N2S(1+)
 Framework group  C1[X(C5H9N2S)]
 Deg. of freedom    45
 Full point group                 C1      NOp   1
 Largest Abelian subgroup         C1      NOp   1
 Largest concise Abelian subgroup C1      NOp   1
                         Standard orientation:                         
 ---------------------------------------------------------------------
 Center     Atomic      Atomic             Coordinates (Angstroms)
 Number     Number       Type             X           Y           Z
 ---------------------------------------------------------------------
      1          7           0       -2.551910   -0.673166   -0.731551
      2          1           0       -1.711010   -0.996584   -1.165879
      3          1           0       -3.274903   -0.600477   -1.417927
      4          6           0       -2.320005    0.618843   -0.139066
      5          1           0       -3.211558    0.977966    0.382358
      6          1           0       -1.954733    1.334851   -0.878791
      7          6           0       -1.266353    0.487723    0.888536
      8          1           0       -1.514045   -0.347184    1.547282
      9          1           0       -1.332351    1.435665    1.427567
     10          6           0        0.172241    0.336649    0.452900
     11          7           0        0.875001    1.419562   -0.011158
     12          6           0        2.111306    0.986494   -0.492272
     13          1           0        2.806077    1.719495   -0.883835
     14          6           0        2.265939   -0.327754   -0.407607
     15          1           0        3.053549   -0.939632   -0.832507
     16         16           0        0.995576   -1.193771    0.326688
     17          1           0       -2.830638   -1.320259   -0.021264
 ---------------------------------------------------------------------
 Rotational constants (GHZ):           3.3239493           1.1812147           1.0036150
 Leave Link  202 at Mon Jul 12 12:51:24 2021, MaxMem=   104857600 cpu:               0.0 elap:               0.0
 (Enter /dades/curu/g16A03_MST/g16/l301.exe)
 Standard basis: 6-31G(d) (6D, 7F)
 Ernie: Thresh=  0.10000D-02 Tol=  0.10000D-05 Strict=F.
 There are   142 symmetry adapted cartesian basis functions of A   symmetry.
 There are   142 symmetry adapted basis functions of A   symmetry.
   142 basis functions,   284 primitive gaussians,   142 cartesian basis functions
    34 alpha electrons       34 beta electrons
       nuclear repulsion energy       448.1444427646 Hartrees.
 IExCor=  402 DFT=T Ex+Corr=B3LYP ExCW=0 ScaHFX=  0.200000
 ScaDFX=  0.800000  0.720000  1.000000  0.810000 ScalE2=  1.000000  1.000000
 IRadAn=      5 IRanWt=     -1 IRanGd=            0 ICorTp=0 IEmpDi=  4
 NAtoms=   17 NActive=   17 NUniq=   17 SFac= 1.00D+00 NAtFMM=   60 NAOKFM=F Big=F
 Integral buffers will be    131072 words long.
 Raffenetti 2 integral format.
 Two-electron integral symmetry is turned on.
 Using the following non-standard input for PCM:
 MSTModel=DFT cav MSTCharged
 --- end of non-standard input.
 MST model for solvation energy: B3LYP parametrization.
 MST cavity parameters:
 ISph   IAn     Re0     Alpha   Atom Type   QCorr
 ------------------------------------------------
   1      7     1.50     1.15      NH+        T
   2      1     0.90     1.15      NH+        T
   3      1     0.90     1.15      NH+        T
   4      6     1.50     1.50      CN+        F
   5      1     1.20     1.50      CN+        F
   6      1     1.20     1.50      CN+        F
   7      6     1.50     1.50      CH2        F
   8      1     1.20     1.50      CH2        F
   9      1     1.20     1.50      CH2        F
  10      6     1.50     1.50      C          F
  11      7     1.50     1.50      Nc         F
  12      6     1.50     1.50      CH         F
  13      1     1.20     1.50      CH         F
  14      6     1.50     1.50      CH         F
  15      1     1.20     1.50      CH         F
  16     16     1.75     1.50      S          F
  17      1     0.90     1.15      NH+        T
 ------------------------------------------------------------------------------
 Polarizable Continuum Model (PCM)
 =================================
 Model                : PCM.
 Atomic radii         : MST.
 Polarization charges : Total charges.
 Charge compensation  : None.
 Solution method      : On-the-fly selection.
 Cavity type          : Scaled VdW (van der Waals Surface) (Alpha=1.500).
 Cavity algorithm     : GePol (No added spheres)
                        Default sphere list used, NSphG=   17.
                        Lebedev-Laikov grids with approx.  5.0 points / Ang**2.
                        Smoothing algorithm: York/Karplus (Gamma=1.0000).
                        Polarization charges: spherical gaussians, with
                                              point-specific exponents (IZeta= 3).
                        Self-potential: point-specific (ISelfS= 7).
                        Self-field    : sphere-specific E.n sum rule (ISelfD= 2).
 1st derivatives      : Analytical E(r).r(x)/FMM algorithm (CHGder, D1EAlg=3).
                        Cavity 1st derivative terms included.
 Solvent              : n-Octanol, Eps=   9.862900 Eps(inf)=   2.043470
 ------------------------------------------------------------------------------
 Spheres list:
 ISph  on   Nord     Re0    Alpha      Xe            Ye            Ze
    1   N      1    1.5000  1.150     -2.551910     -0.673166     -0.731551
    2   H      2    0.9000  1.150     -1.711010     -0.996584     -1.165879
    3   H      3    0.9000  1.150     -3.274903     -0.600477     -1.417927
    4   C      4    1.5000  1.500     -2.320005      0.618843     -0.139066
    5   H      5    1.2000  1.500     -3.211558      0.977966      0.382358
    6   H      6    1.2000  1.500     -1.954733      1.334851     -0.878791
    7   C      7    1.5000  1.500     -1.266353      0.487723      0.888536
    8   H      8    1.2000  1.500     -1.514045     -0.347184      1.547282
    9   H      9    1.2000  1.500     -1.332351      1.435665      1.427567
   10   C     10    1.5000  1.500      0.172241      0.336649      0.452900
   11   N     11    1.5000  1.500      0.875001      1.419562     -0.011158
   12   C     12    1.5000  1.500      2.111306      0.986494     -0.492272
   13   H     13    1.2000  1.500      2.806077      1.719495     -0.883835
   14   C     14    1.5000  1.500      2.265939     -0.327754     -0.407607
   15   H     15    1.2000  1.500      3.053549     -0.939632     -0.832507
   16   S     16    1.7500  1.500      0.995576     -1.193771      0.326688
   17   H     17    0.9000  1.150     -2.830638     -1.320259     -0.021264
 ------------------------------------------------------------------------------
 GePol: Number of generator spheres                  =      17
 GePol: Total number of spheres                      =      17
 GePol: Number of exposed spheres                    =      17 (100.00%)
 GePol: Number of points                             =    1713
 GePol: Average weight of points                     =       0.12
 GePol: Minimum weight of points                     =   0.14D-08
 GePol: Maximum weight of points                     =    0.22065
 GePol: Number of points with low weight             =      84
 GePol: Fraction of low-weight points (<1% of avg)   =       4.90%
 GePol: Cavity surface area                          =    201.404 Ang**2
 GePol: Cavity volume                                =    213.866 Ang**3
 Surface areas from nonelectrostatic (unscaled) cavity and vdw tensions:
 Sphere =    1 Type =  NH+ Surf =       12.190 Tension =       -0.274
 Sphere =    2 Type =  NH+ Surf =        3.855 Tension =       -0.274
 Sphere =    3 Type =  NH+ Surf =        3.853 Tension =       -0.274
 Sphere =    4 Type =  CN+ Surf =        3.778 Tension =       -0.227
 Sphere =    5 Type =  CN+ Surf =        9.923 Tension =       -0.227
 Sphere =    6 Type =  CN+ Surf =        9.981 Tension =       -0.227
 Sphere =    7 Type =  CH2 Surf =        3.481 Tension =       -0.194
 Sphere =    8 Type =  CH2 Surf =        9.826 Tension =       -0.194
 Sphere =    9 Type =  CH2 Surf =        9.720 Tension =       -0.194
 Sphere =   10 Type =  C   Surf =        5.773 Tension =       -0.205
 Sphere =   11 Type =  Nc  Surf =       13.372 Tension =       -0.161
 Sphere =   12 Type =  CH  Surf =        7.814 Tension =       -0.195
 Sphere =   13 Type =  CH  Surf =       10.251 Tension =       -0.195
 Sphere =   14 Type =  CH  Surf =        7.176 Tension =       -0.195
 Sphere =   15 Type =  CH  Surf =       10.161 Tension =       -0.195
 Sphere =   16 Type =  S   Surf =       24.423 Tension =       -0.186
 Sphere =   17 Type =  NH+ Surf =        3.849 Tension =       -0.274
 PCM non-electrostatic energy =        -0.0109064448 Hartrees.
 Nuclear repulsion after PCM non-electrostatic terms =      448.1335363198 Hartrees.
 Leave Link  301 at Mon Jul 12 12:51:24 2021, MaxMem=   104857600 cpu:               0.1 elap:               0.2
 (Enter /dades/curu/g16A03_MST/g16/l302.exe)
 NPDir=0 NMtPBC=     1 NCelOv=     1 NCel=       1 NClECP=     1 NCelD=      1
         NCelK=      1 NCelE2=     1 NClLst=     1 CellRange=     0.0.
 One-electron integrals computed using PRISM.
 One-electron integral symmetry used in STVInt
 NBasis=   142 RedAO= T EigKep=  2.28D-03  NBF=   142
 NBsUse=   142 1.00D-06 EigRej= -1.00D+00 NBFU=   142
 Precomputing XC quadrature grid using
 IXCGrd= 4 IRadAn=           5 IRanWt=          -1 IRanGd=           0 AccXCQ= 0.00D+00.
 Generated NRdTot=       0 NPtTot=           0 NUsed=           0 NTot=          32
 NSgBfM=   142   142   142   142   142 MxSgAt=    17 MxSgA2=    17.
 Leave Link  302 at Mon Jul 12 12:51:25 2021, MaxMem=   104857600 cpu:               2.8 elap:               0.8
 (Enter /dades/curu/g16A03_MST/g16/l303.exe)
 DipDrv:  MaxL=1.
 Leave Link  303 at Mon Jul 12 12:51:25 2021, MaxMem=   104857600 cpu:               0.1 elap:               0.0
 (Enter /dades/curu/g16A03_MST/g16/l401.exe)
 ExpMin= 1.17D-01 ExpMax= 2.19D+04 ExpMxC= 3.30D+03 IAcc=3 IRadAn=         5 AccDes= 0.00D+00
 Harris functional with IExCor=  402 and IRadAn=       5 diagonalized for initial guess.
 HarFok:  IExCor=  402 AccDes= 0.00D+00 IRadAn=         5 IDoV= 1 UseB2=F ITyADJ=14
 ICtDFT=  3500011 ScaDFX=  1.000000  1.000000  1.000000  1.000000
 FoFCou: FMM=F IPFlag=           0 FMFlag=      100000 FMFlg1=           0
         NFxFlg=           0 DoJE=T BraDBF=F KetDBF=T FulRan=T
         wScrn=  0.000000 ICntrl=       500 IOpCl=  0 I1Cent=   200000004 NGrid=           0
         NMat0=    1 NMatS0=      1 NMatT0=    0 NMatD0=    1 NMtDS0=    0 NMtDT0=    0
 Petite list used in FoFCou.
 Harris En= -703.381223474736    
 JPrj=0 DoOrth=F DoCkMO=F.
 Leave Link  401 at Mon Jul 12 12:51:27 2021, MaxMem=   104857600 cpu:               9.3 elap:               2.4
 (Enter /dades/curu/g16A03_MST/g16/l502.exe)
 Keep R1 ints in memory in canonical form, NReq=55416097.
 FoFCou: FMM=F IPFlag=           0 FMFlag=           0 FMFlg1=           0
         NFxFlg=           0 DoJE=F BraDBF=F KetDBF=F FulRan=T
         wScrn=  0.000000 ICntrl=       600 IOpCl=  0 I1Cent=           0 NGrid=           0
         NMat0=    1 NMatS0=  10153 NMatT0=    0 NMatD0=    1 NMtDS0=    0 NMtDT0=    0
 Symmetry not used in FoFCou.
 Two-electron integral symmetry not used.
 Closed shell SCF:
 Using DIIS extrapolation, IDIIS=  1040.
 NGot=   104857600 LenX=    53267895 LenY=    53247290
 Requested convergence on RMS density matrix=1.00D-08 within 128 cycles.
 Requested convergence on MAX density matrix=1.00D-06.
 Requested convergence on             energy=1.00D-06.
 No special actions if energy rises.

 Cycle   1  Pass 1  IDiag  1:
 Inv3:  Mode=1 IEnd=     8803107.
 Iteration    1 A*A^-1 deviation from unit magnitude is 5.33D-15 for    840.
 Iteration    1 A*A^-1 deviation from orthogonality  is 2.01D-15 for   1684    859.
 Iteration    1 A^-1*A deviation from unit magnitude is 4.66D-15 for    840.
 Iteration    1 A^-1*A deviation from orthogonality  is 3.42D-15 for   1706   1109.
 E= -703.258192725662    
 DIIS: error= 2.66D-02 at cycle   1 NSaved=   1.
 NSaved= 1 IEnMin= 1 EnMin= -703.258192725662     IErMin= 1 ErrMin= 2.66D-02
 ErrMax= 2.66D-02  0.00D+00 EMaxC= 1.00D-01 BMatC= 2.14D-01 BMatP= 2.14D-01
 IDIUse=3 WtCom= 7.34D-01 WtEn= 2.66D-01
 Coeff-Com:  0.100D+01
 Coeff-En:   0.100D+01
 Coeff:      0.100D+01
 Gap=     0.252 Goal=   None    Shift=    0.000
 GapD=    0.252 DampG=1.000 DampE=0.500 DampFc=0.5000 IDamp=-1.
 Damping current iteration by 5.00D-01
 RMSDP=9.27D-03 MaxDP=2.47D-01              OVMax= 3.07D-01

 Cycle   2  Pass 1  IDiag  1:
 E= -703.313579077990     Delta-E=       -0.055386352328 Rises=F Damp=T
 DIIS: error= 1.04D-02 at cycle   2 NSaved=   2.
 NSaved= 2 IEnMin= 2 EnMin= -703.313579077990     IErMin= 2 ErrMin= 1.04D-02
 ErrMax= 1.04D-02  0.00D+00 EMaxC= 1.00D-01 BMatC= 3.18D-02 BMatP= 2.14D-01
 IDIUse=3 WtCom= 8.96D-01 WtEn= 1.04D-01
 Coeff-Com:  0.206D+00 0.794D+00
 Coeff-En:   0.369D+00 0.631D+00
 Coeff:      0.223D+00 0.777D+00
 Gap=     0.247 Goal=   None    Shift=    0.000
 RMSDP=2.99D-03 MaxDP=7.77D-02 DE=-5.54D-02 OVMax= 2.92D-01

 Cycle   3  Pass 1  IDiag  1:
 E= -703.454273571876     Delta-E=       -0.140694493885 Rises=F Damp=F
 DIIS: error= 1.02D-02 at cycle   3 NSaved=   3.
 NSaved= 3 IEnMin= 3 EnMin= -703.454273571876     IErMin= 3 ErrMin= 1.02D-02
 ErrMax= 1.02D-02  0.00D+00 EMaxC= 1.00D-01 BMatC= 2.82D-02 BMatP= 3.18D-02
 IDIUse=3 WtCom= 8.98D-01 WtEn= 1.02D-01
 Coeff-Com:  0.714D-01 0.477D+00 0.451D+00
 Coeff-En:   0.000D+00 0.000D+00 0.100D+01
 Coeff:      0.641D-01 0.429D+00 0.507D+00
 Gap=     0.210 Goal=   None    Shift=    0.000
 RMSDP=1.45D-03 MaxDP=5.03D-02 DE=-1.41D-01 OVMax= 7.50D-02

 Cycle   4  Pass 1  IDiag  1:
 E= -703.476049540423     Delta-E=       -0.021775968547 Rises=F Damp=F
 DIIS: error= 3.98D-03 at cycle   4 NSaved=   4.
 NSaved= 4 IEnMin= 4 EnMin= -703.476049540423     IErMin= 4 ErrMin= 3.98D-03
 ErrMax= 3.98D-03  0.00D+00 EMaxC= 1.00D-01 BMatC= 5.83D-03 BMatP= 2.82D-02
 IDIUse=3 WtCom= 9.60D-01 WtEn= 3.98D-02
 Coeff-Com: -0.350D-02 0.765D-01 0.319D+00 0.608D+00
 Coeff-En:   0.000D+00 0.000D+00 0.199D+00 0.801D+00
 Coeff:     -0.336D-02 0.735D-01 0.314D+00 0.616D+00
 Gap=     0.209 Goal=   None    Shift=    0.000
 RMSDP=5.25D-04 MaxDP=1.50D-02 DE=-2.18D-02 OVMax= 2.48D-02

 Cycle   5  Pass 1  IDiag  1:
 E= -703.481161273188     Delta-E=       -0.005111732765 Rises=F Damp=F
 DIIS: error= 7.06D-04 at cycle   5 NSaved=   5.
 NSaved= 5 IEnMin= 5 EnMin= -703.481161273188     IErMin= 5 ErrMin= 7.06D-04
 ErrMax= 7.06D-04  0.00D+00 EMaxC= 1.00D-01 BMatC= 1.85D-04 BMatP= 5.83D-03
 IDIUse=3 WtCom= 9.93D-01 WtEn= 7.06D-03
 Coeff-Com: -0.324D-02 0.858D-02 0.121D+00 0.294D+00 0.580D+00
 Coeff-En:   0.000D+00 0.000D+00 0.000D+00 0.000D+00 0.100D+01
 Coeff:     -0.322D-02 0.852D-02 0.120D+00 0.292D+00 0.583D+00
 Gap=     0.210 Goal=   None    Shift=    0.000
 RMSDP=1.37D-04 MaxDP=5.27D-03 DE=-5.11D-03 OVMax= 4.93D-03

 Cycle   6  Pass 1  IDiag  1:
 E= -703.481333417046     Delta-E=       -0.000172143858 Rises=F Damp=F
 DIIS: error= 2.18D-04 at cycle   6 NSaved=   6.
 NSaved= 6 IEnMin= 6 EnMin= -703.481333417046     IErMin= 6 ErrMin= 2.18D-04
 ErrMax= 2.18D-04  0.00D+00 EMaxC= 1.00D-01 BMatC= 2.12D-05 BMatP= 1.85D-04
 IDIUse=3 WtCom= 9.98D-01 WtEn= 2.18D-03
 Coeff-Com: -0.111D-02-0.244D-02 0.381D-01 0.106D+00 0.310D+00 0.550D+00
 Coeff-En:   0.000D+00 0.000D+00 0.000D+00 0.000D+00 0.640D-02 0.994D+00
 Coeff:     -0.110D-02-0.243D-02 0.381D-01 0.105D+00 0.309D+00 0.551D+00
 Gap=     0.211 Goal=   None    Shift=    0.000
 RMSDP=3.95D-05 MaxDP=1.25D-03 DE=-1.72D-04 OVMax= 2.44D-03

 Cycle   7  Pass 1  IDiag  1:
 E= -703.481352619976     Delta-E=       -0.000019202931 Rises=F Damp=F
 DIIS: error= 8.82D-05 at cycle   7 NSaved=   7.
 NSaved= 7 IEnMin= 7 EnMin= -703.481352619976     IErMin= 7 ErrMin= 8.82D-05
 ErrMax= 8.82D-05  0.00D+00 EMaxC= 1.00D-01 BMatC= 2.26D-06 BMatP= 2.12D-05
 IDIUse=1 WtCom= 1.00D+00 WtEn= 0.00D+00
 Coeff-Com: -0.290D-03-0.205D-02 0.130D-01 0.377D-01 0.126D+00 0.310D+00
 Coeff-Com:  0.516D+00
 Coeff:     -0.290D-03-0.205D-02 0.130D-01 0.377D-01 0.126D+00 0.310D+00
 Coeff:      0.516D+00
 Gap=     0.211 Goal=   None    Shift=    0.000
 RMSDP=1.47D-05 MaxDP=3.73D-04 DE=-1.92D-05 OVMax= 8.91D-04

 Cycle   8  Pass 1  IDiag  1:
 E= -703.481354865208     Delta-E=       -0.000002245232 Rises=F Damp=F
 DIIS: error= 2.97D-05 at cycle   8 NSaved=   8.
 NSaved= 8 IEnMin= 8 EnMin= -703.481354865208     IErMin= 8 ErrMin= 2.97D-05
 ErrMax= 2.97D-05  0.00D+00 EMaxC= 1.00D-01 BMatC= 2.50D-07 BMatP= 2.26D-06
 IDIUse=1 WtCom= 1.00D+00 WtEn= 0.00D+00
 Coeff-Com:  0.995D-04-0.821D-03 0.421D-03 0.115D-02 0.895D-02 0.656D-01
 Coeff-Com:  0.276D+00 0.648D+00
 Coeff:      0.995D-04-0.821D-03 0.421D-03 0.115D-02 0.895D-02 0.656D-01
 Coeff:      0.276D+00 0.648D+00
 Gap=     0.211 Goal=   None    Shift=    0.000
 RMSDP=4.27D-06 MaxDP=1.10D-04 DE=-2.25D-06 OVMax= 2.45D-04

 Cycle   9  Pass 1  IDiag  1:
 E= -703.481355130273     Delta-E=       -0.000000265065 Rises=F Damp=F
 DIIS: error= 5.81D-06 at cycle   9 NSaved=   9.
 NSaved= 9 IEnMin= 9 EnMin= -703.481355130273     IErMin= 9 ErrMin= 5.81D-06
 ErrMax= 5.81D-06  0.00D+00 EMaxC= 1.00D-01 BMatC= 9.85D-09 BMatP= 2.50D-07
 IDIUse=1 WtCom= 1.00D+00 WtEn= 0.00D+00
 Coeff-Com:  0.771D-04-0.219D-03-0.524D-03-0.184D-02-0.428D-02 0.685D-02
 Coeff-Com:  0.776D-01 0.259D+00 0.663D+00
 Coeff:      0.771D-04-0.219D-03-0.524D-03-0.184D-02-0.428D-02 0.685D-02
 Coeff:      0.776D-01 0.259D+00 0.663D+00
 Gap=     0.211 Goal=   None    Shift=    0.000
 RMSDP=1.19D-06 MaxDP=4.99D-05 DE=-2.65D-07 OVMax= 3.58D-05

 Cycle  10  Pass 1  IDiag  1:
 E= -703.481355141376     Delta-E=       -0.000000011103 Rises=F Damp=F
 DIIS: error= 9.55D-07 at cycle  10 NSaved=  10.
 NSaved=10 IEnMin=10 EnMin= -703.481355141376     IErMin=10 ErrMin= 9.55D-07
 ErrMax= 9.55D-07  0.00D+00 EMaxC= 1.00D-01 BMatC= 4.69D-10 BMatP= 9.85D-09
 IDIUse=1 WtCom= 1.00D+00 WtEn= 0.00D+00
 Coeff-Com:  0.206D-04-0.293D-04-0.188D-03-0.704D-03-0.204D-02-0.211D-02
 Coeff-Com:  0.834D-02 0.461D-01 0.227D+00 0.724D+00
 Coeff:      0.206D-04-0.293D-04-0.188D-03-0.704D-03-0.204D-02-0.211D-02
 Coeff:      0.834D-02 0.461D-01 0.227D+00 0.724D+00
 Gap=     0.211 Goal=   None    Shift=    0.000
 RMSDP=2.44D-07 MaxDP=6.42D-06 DE=-1.11D-08 OVMax= 8.95D-06

 Cycle  11  Pass 1  IDiag  1:
 E= -703.481355141793     Delta-E=       -0.000000000418 Rises=F Damp=F
 DIIS: error= 5.86D-07 at cycle  11 NSaved=  11.
 NSaved=11 IEnMin=11 EnMin= -703.481355141793     IErMin=11 ErrMin= 5.86D-07
 ErrMax= 5.86D-07  0.00D+00 EMaxC= 1.00D-01 BMatC= 9.84D-11 BMatP= 4.69D-10
 IDIUse=1 WtCom= 1.00D+00 WtEn= 0.00D+00
 Coeff-Com:  0.440D-05 0.940D-06-0.474D-04-0.207D-03-0.665D-03-0.160D-02
 Coeff-Com: -0.206D-02 0.275D-02 0.628D-01 0.373D+00 0.565D+00
 Coeff:      0.440D-05 0.940D-06-0.474D-04-0.207D-03-0.665D-03-0.160D-02
 Coeff:     -0.206D-02 0.275D-02 0.628D-01 0.373D+00 0.565D+00
 Gap=     0.211 Goal=   None    Shift=    0.000
 RMSDP=7.85D-08 MaxDP=2.97D-06 DE=-4.18D-10 OVMax= 4.73D-06

 Cycle  12  Pass 1  IDiag  1:
 E= -703.481355141878     Delta-E=       -0.000000000084 Rises=F Damp=F
 DIIS: error= 1.27D-07 at cycle  12 NSaved=  12.
 NSaved=12 IEnMin=12 EnMin= -703.481355141878     IErMin=12 ErrMin= 1.27D-07
 ErrMax= 1.27D-07  0.00D+00 EMaxC= 1.00D-01 BMatC= 6.72D-12 BMatP= 9.84D-11
 IDIUse=1 WtCom= 1.00D+00 WtEn= 0.00D+00
 Coeff-Com: -0.502D-06 0.407D-05 0.458D-05-0.182D-05-0.329D-04-0.419D-03
 Coeff-Com: -0.196D-02-0.452D-02-0.157D-02 0.731D-01 0.252D+00 0.683D+00
 Coeff:     -0.502D-06 0.407D-05 0.458D-05-0.182D-05-0.329D-04-0.419D-03
 Coeff:     -0.196D-02-0.452D-02-0.157D-02 0.731D-01 0.252D+00 0.683D+00
 Gap=     0.211 Goal=   None    Shift=    0.000
 RMSDP=2.09D-08 MaxDP=5.65D-07 DE=-8.44D-11 OVMax= 8.64D-07

 Cycle  13  Pass 1  IDiag  1:
 E= -703.481355141887     Delta-E=       -0.000000000010 Rises=F Damp=F
 DIIS: error= 2.66D-08 at cycle  13 NSaved=  13.
 NSaved=13 IEnMin=13 EnMin= -703.481355141887     IErMin=13 ErrMin= 2.66D-08
 ErrMax= 2.66D-08  0.00D+00 EMaxC= 1.00D-01 BMatC= 1.12D-13 BMatP= 6.72D-12
 IDIUse=1 WtCom= 1.00D+00 WtEn= 0.00D+00
 Coeff-Com: -0.316D-06 0.836D-06 0.395D-05 0.104D-04 0.223D-04-0.307D-04
 Coeff-Com: -0.426D-03-0.135D-02-0.367D-02 0.234D-02 0.455D-01 0.175D+00
 Coeff-Com:  0.783D+00
 Coeff:     -0.316D-06 0.836D-06 0.395D-05 0.104D-04 0.223D-04-0.307D-04
 Coeff:     -0.426D-03-0.135D-02-0.367D-02 0.234D-02 0.455D-01 0.175D+00
 Coeff:      0.783D+00
 Gap=     0.211 Goal=   None    Shift=    0.000
 RMSDP=4.76D-09 MaxDP=1.60D-07 DE=-9.78D-12 OVMax= 1.58D-07

 Error on total polarization charges =  0.00725
 SCF Done:  E(RB3LYP) =  -703.481355142     A.U. after   13 cycles
            NFock= 13  Conv=0.48D-08     -V/T= 2.0057
 KE= 6.994600894635D+02 PE=-2.538331983892D+03 EE= 6.872570029671D+02
 Leave Link  502 at Mon Jul 12 12:52:11 2021, MaxMem=   104857600 cpu:             168.0 elap:              44.4
 (Enter /dades/curu/g16A03_MST/g16/l601.exe)
 Copying SCF densities to generalized density rwf, IOpCl= 0 IROHF=0.

 **********************************************************************

            Population analysis using the SCF density.

 **********************************************************************

 Orbital symmetries:
       Occupied  (A) (A) (A) (A) (A) (A) (A) (A) (A) (A) (A) (A)
                 (A) (A) (A) (A) (A) (A) (A) (A) (A) (A) (A) (A)
                 (A) (A) (A) (A) (A) (A) (A) (A) (A) (A)
       Virtual   (A) (A) (A) (A) (A) (A) (A) (A) (A) (A) (A) (A)
                 (A) (A) (A) (A) (A) (A) (A) (A) (A) (A) (A) (A)
                 (A) (A) (A) (A) (A) (A) (A) (A) (A) (A) (A) (A)
                 (A) (A) (A) (A) (A) (A) (A) (A) (A) (A) (A) (A)
                 (A) (A) (A) (A) (A) (A) (A) (A) (A) (A) (A) (A)
                 (A) (A) (A) (A) (A) (A) (A) (A) (A) (A) (A) (A)
                 (A) (A) (A) (A) (A) (A) (A) (A) (A) (A) (A) (A)
                 (A) (A) (A) (A) (A) (A) (A) (A) (A) (A) (A) (A)
                 (A) (A) (A) (A) (A) (A) (A) (A) (A) (A) (A) (A)
 The electronic state is 1-A.
 Alpha  occ. eigenvalues --  -88.94389 -14.46917 -14.36088 -10.28095 -10.27368
 Alpha  occ. eigenvalues --  -10.23570 -10.23438 -10.23226  -8.00587  -5.96944
 Alpha  occ. eigenvalues --   -5.96611  -5.96329  -1.04679  -0.97063  -0.83647
 Alpha  occ. eigenvalues --   -0.82252  -0.75810  -0.68520  -0.62621  -0.61729
 Alpha  occ. eigenvalues --   -0.59768  -0.57431  -0.53603  -0.52219  -0.47350
 Alpha  occ. eigenvalues --   -0.45660  -0.43809  -0.41273  -0.40595  -0.39808
 Alpha  occ. eigenvalues --   -0.39165  -0.30443  -0.29856  -0.26468
 Alpha virt. eigenvalues --   -0.05408  -0.01152   0.02043   0.04345   0.07597
 Alpha virt. eigenvalues --    0.08868   0.09877   0.10302   0.11078   0.12755
 Alpha virt. eigenvalues --    0.13285   0.15425   0.16049   0.17472   0.18907
 Alpha virt. eigenvalues --    0.21837   0.23049   0.28154   0.29394   0.35164
 Alpha virt. eigenvalues --    0.35996   0.40550   0.41964   0.47404   0.47812
 Alpha virt. eigenvalues --    0.49349   0.51715   0.52498   0.53840   0.55398
 Alpha virt. eigenvalues --    0.57449   0.60492   0.62323   0.63090   0.66391
 Alpha virt. eigenvalues --    0.69777   0.70397   0.73097   0.74051   0.78442
 Alpha virt. eigenvalues --    0.79853   0.81167   0.81849   0.82295   0.83619
 Alpha virt. eigenvalues --    0.84026   0.85068   0.86100   0.88036   0.89921
 Alpha virt. eigenvalues --    0.90505   0.92606   0.94032   0.96783   0.98921
 Alpha virt. eigenvalues --    1.01008   1.02858   1.05789   1.11677   1.15028
 Alpha virt. eigenvalues --    1.27231   1.29750   1.33034   1.37647   1.40331
 Alpha virt. eigenvalues --    1.46129   1.48615   1.50950   1.62275   1.64222
 Alpha virt. eigenvalues --    1.67975   1.72155   1.79275   1.83174   1.88216
 Alpha virt. eigenvalues --    1.91063   1.92104   1.94366   1.98086   2.00364
 Alpha virt. eigenvalues --    2.09809   2.11511   2.18317   2.22798   2.24234
 Alpha virt. eigenvalues --    2.24837   2.26785   2.28809   2.32477   2.37601
 Alpha virt. eigenvalues --    2.41559   2.43604   2.47939   2.52531   2.56185
 Alpha virt. eigenvalues --    2.66152   2.68635   2.72263   2.92100   2.99855
 Alpha virt. eigenvalues --    3.77694   3.90468   3.92502   4.08182   4.17217
 Alpha virt. eigenvalues --    4.31343   4.35078   4.46945
          Condensed to atoms (all electrons):
               1          2          3          4          5          6
     1  N    6.669426   0.298443   0.305268   0.250295  -0.035120  -0.033072
     2  H    0.298443   0.280689  -0.009415  -0.024643   0.003957  -0.002800
     3  H    0.305268  -0.009415   0.260563  -0.019180  -0.002354  -0.002129
     4  C    0.250295  -0.024643  -0.019180   5.033399   0.387023   0.377898
     5  H   -0.035120   0.003957  -0.002354   0.387023   0.487312  -0.020714
     6  H   -0.033072  -0.002800  -0.002129   0.377898  -0.020714   0.486979
     7  C   -0.071076  -0.005337   0.005088   0.361404  -0.037235  -0.043561
     8  H   -0.005437  -0.000389   0.000017  -0.047663  -0.002645   0.005905
     9  H    0.005360   0.000128  -0.000164  -0.042020  -0.005959   0.000245
    10  C   -0.002505   0.009438  -0.000085  -0.043436   0.004768  -0.005656
    11  N   -0.000015   0.000194  -0.000005  -0.005471   0.000022   0.007279
    12  C    0.000023  -0.000101  -0.000001   0.000201   0.000003  -0.000202
    13  H    0.000000  -0.000001  -0.000000   0.000004  -0.000000   0.000003
    14  C   -0.000015  -0.000385   0.000001   0.000108  -0.000001  -0.000004
    15  H   -0.000000   0.000002   0.000000   0.000002  -0.000000  -0.000001
    16  S    0.000447   0.006894   0.000030  -0.003250  -0.000203   0.000890
    17  H    0.303334  -0.010679  -0.009258  -0.022666  -0.002900   0.003737
               7          8          9         10         11         12
     1  N   -0.071076  -0.005437   0.005360  -0.002505  -0.000015   0.000023
     2  H   -0.005337  -0.000389   0.000128   0.009438   0.000194  -0.000101
     3  H    0.005088   0.000017  -0.000164  -0.000085  -0.000005  -0.000001
     4  C    0.361404  -0.047663  -0.042020  -0.043436  -0.005471   0.000201
     5  H   -0.037235  -0.002645  -0.005959   0.004768   0.000022   0.000003
     6  H   -0.043561   0.005905   0.000245  -0.005656   0.007279  -0.000202
     7  C    5.161829   0.368630   0.366812   0.347578  -0.054742   0.006439
     8  H    0.368630   0.538264  -0.015602  -0.036372   0.002993  -0.000212
     9  H    0.366812  -0.015602   0.501685  -0.028613   0.000774   0.000027
    10  C    0.347578  -0.036372  -0.028613   5.106892   0.452578  -0.085546
    11  N   -0.054742   0.002993   0.000774   0.452578   6.796924   0.407623
    12  C    0.006439  -0.000212   0.000027  -0.085546   0.407623   4.728736
    13  H   -0.000189   0.000003  -0.000008   0.006814  -0.041664   0.376367
    14  C    0.003798   0.000045  -0.000049  -0.055408  -0.064932   0.592367
    15  H   -0.000109  -0.000002   0.000002   0.003685   0.005182  -0.014873
    16  S   -0.060488   0.002674   0.004159   0.277227  -0.080468  -0.077963
    17  H   -0.001902   0.006732   0.000045  -0.000423   0.000012  -0.000001
              13         14         15         16         17
     1  N    0.000000  -0.000015  -0.000000   0.000447   0.303334
     2  H   -0.000001  -0.000385   0.000002   0.006894  -0.010679
     3  H   -0.000000   0.000001   0.000000   0.000030  -0.009258
     4  C    0.000004   0.000108   0.000002  -0.003250  -0.022666
     5  H   -0.000000  -0.000001  -0.000000  -0.000203  -0.002900
     6  H    0.000003  -0.000004  -0.000001   0.000890   0.003737
     7  C   -0.000189   0.003798  -0.000109  -0.060488  -0.001902
     8  H    0.000003   0.000045  -0.000002   0.002674   0.006732
     9  H   -0.000008  -0.000049   0.000002   0.004159   0.000045
    10  C    0.006814  -0.055408   0.003685   0.277227  -0.000423
    11  N   -0.041664  -0.064932   0.005182  -0.080468   0.000012
    12  C    0.376367   0.592367  -0.014873  -0.077963  -0.000001
    13  H    0.525850  -0.050926  -0.001134   0.004225   0.000000
    14  C   -0.050926   5.252619   0.345450   0.329594  -0.000001
    15  H   -0.001134   0.345450   0.504356  -0.040869   0.000000
    16  S    0.004225   0.329594  -0.040869  15.351194   0.000399
    17  H    0.000000  -0.000001   0.000000   0.000399   0.272494
 Mulliken charges:
               1
     1  N   -0.685356
     2  H    0.454005
     3  H    0.471625
     4  C   -0.202006
     5  H    0.224047
     6  H    0.225203
     7  C   -0.346939
     8  H    0.183059
     9  H    0.213178
    10  C    0.049062
    11  N   -0.426284
    12  C    0.067113
    13  H    0.180656
    14  C   -0.352259
    15  H    0.198310
    16  S    0.285508
    17  H    0.461077
 Sum of Mulliken charges =   1.00000
 Mulliken charges with hydrogens summed into heavy atoms:
               1
     1  N    0.701351
     4  C    0.247244
     7  C    0.049298
    10  C    0.049062
    11  N   -0.426284
    12  C    0.247770
    14  C   -0.153949
    16  S    0.285508
 Electronic spatial extent (au):  <R**2>=           1190.6025
 Charge=              1.0000 electrons
 Dipole moment (field-independent basis, Debye):
    X=            -11.1246    Y=             -4.3509    Z=             -3.2702  Tot=             12.3847
 Quadrupole moment (field-independent basis, Debye-Ang):
   XX=            -12.0435   YY=            -49.8632   ZZ=            -47.9774
   XY=              6.1729   XZ=              4.3974   YZ=              2.0613
 Traceless Quadrupole moment (field-independent basis, Debye-Ang):
   XX=             24.5846   YY=            -13.2352   ZZ=            -11.3494
   XY=              6.1729   XZ=              4.3974   YZ=              2.0613
 Octapole moment (field-independent basis, Debye-Ang**2):
  XXX=            -97.8314  YYY=            -15.3343  ZZZ=            -10.2399  XYY=            -14.5966
  XXY=            -21.0324  XXZ=            -33.2187  XZZ=            -20.5935  YZZ=             -3.9132
  YYZ=             -4.4038  XYZ=             -7.2732
 Hexadecapole moment (field-independent basis, Debye-Ang**3):
 XXXX=           -671.1707 YYYY=           -342.2453 ZZZZ=           -150.5192 XXXY=             71.2244
 XXXZ=             52.9229 YYYX=             16.3487 YYYZ=              2.4089 ZZZX=             28.7583
 ZZZY=              7.7622 XXYY=           -173.0101 XXZZ=           -154.6612 YYZZ=            -76.7131
 XXYZ=             15.1959 YYXZ=             -2.9440 ZZXY=             11.4515
 N-N= 4.481335363198D+02 E-N=-2.538331985417D+03  KE= 6.994600894635D+02
 No NMR shielding tensors so no spin-rotation constants.
 Leave Link  601 at Mon Jul 12 12:52:12 2021, MaxMem=   104857600 cpu:               0.5 elap:               0.2
 (Enter /dades/curu/g16A03_MST/g16/l701.exe)
 ... and contract with generalized density number  0.
 Compute integral first derivatives.
 D1PCM: PCM CHGder 1st derivatives, ID1Alg=3 FixD1E=F DoIter=F DoCFld=F I1PDM=0.
 GePol: Maximum number of non-zero 1st derivatives   =     317
 Leave Link  701 at Mon Jul 12 12:52:14 2021, MaxMem=   104857600 cpu:               5.8 elap:               1.5
 (Enter /dades/curu/g16A03_MST/g16/l702.exe)
 L702 exits ... SP integral derivatives will be done elsewhere.
 Leave Link  702 at Mon Jul 12 12:52:14 2021, MaxMem=   104857600 cpu:               0.1 elap:               0.0
 (Enter /dades/curu/g16A03_MST/g16/l703.exe)
 Integral derivatives from FoFJK, PRISM(SPDF).
 Compute integral first derivatives, UseDBF=F ICtDFT=           0.
 Calling FoFJK, ICntrl=      2127 FMM=F ISym2X=0 I1Cent= 0 IOpClX= 0 NMat=1 NMatS=1 NMatT=0.
 FoFJK:  IHMeth= 1 ICntrl=    2127 DoSepK=F KAlg= 0 I1Cent=           0 FoldK=F
 IRaf=         0 NMat=       1 IRICut=       1 DoRegI=T DoRafI=F ISym2E= 0 IDoP0=0 IntGTp=1.
 FoFCou: FMM=F IPFlag=           0 FMFlag=      100000 FMFlg1=         800
         NFxFlg=           0 DoJE=F BraDBF=F KetDBF=F FulRan=T
         wScrn=  0.000000 ICntrl=      2127 IOpCl=  0 I1Cent=           0 NGrid=           0
         NMat0=    1 NMatS0=      1 NMatT0=    0 NMatD0=    1 NMtDS0=    0 NMtDT0=    0
 Symmetry not used in FoFCou.
 Leave Link  703 at Mon Jul 12 12:52:21 2021, MaxMem=   104857600 cpu:              26.8 elap:               7.0
 (Enter /dades/curu/g16A03_MST/g16/l716.exe)
 Dipole        =-4.37676385D+00-1.71175980D+00-1.28657744D+00
 ***** Axes restored to original set *****
 -------------------------------------------------------------------
 Center     Atomic                   Forces (Hartrees/Bohr)
 Number     Number              X              Y              Z
 -------------------------------------------------------------------
      1        7           0.002732436   -0.011205481   -0.008513399
      2        1           0.003563097   -0.000174730    0.025993415
      3        1          -0.012843596   -0.024998018    0.008365379
      4        6           0.024837678    0.001486866   -0.017428006
      5        1          -0.000798893   -0.009762854    0.005888865
      6        1          -0.006849988   -0.009659116   -0.001541529
      7        6           0.014379251    0.040791473   -0.008750239
      8        1           0.000277117    0.004835557   -0.008026965
      9        1          -0.001909341    0.010361680   -0.001695911
     10        6           0.048671370   -0.026818959   -0.016934773
     11        7          -0.050925418    0.014201616    0.009868291
     12        6           0.000007319   -0.020150200   -0.042311749
     13        1          -0.001334396   -0.000151542    0.002822472
     14        6          -0.006013895    0.025026276    0.065159365
     15        1           0.006454967    0.005394597   -0.003390872
     16       16           0.003417183   -0.007594190   -0.012328285
     17        1          -0.023664891    0.008417026    0.002823940
 -------------------------------------------------------------------
 Cartesian Forces:  Max     0.065159365 RMS     0.019515221
 Leave Link  716 at Mon Jul 12 12:52:21 2021, MaxMem=   104857600 cpu:               0.1 elap:               0.1
 (Enter /dades/curu/g16A03_MST/g16/l103.exe)

 GradGradGradGradGradGradGradGradGradGradGradGradGradGradGradGradGradGrad
 Berny optimization.
 FormGI is forming the generalized inverse of G from B-inverse, IUseBI=4.
 Internal  Forces:  Max     0.053841692 RMS     0.013972951
 Search for a local minimum.
 Step number   1 out of a maximum of   92
 All quantities printed in internal units (Hartrees-Bohrs-Radians)
 RMS Force = .13973D-01 SwitMx=.10000D-02 MixMth= 1
 Mixed Optimization -- RFO/linear search
 Second derivative matrix not updated -- first step.
 ITU=  0
     Eigenvalues ---    0.00625   0.01062   0.01067   0.01160   0.01665
     Eigenvalues ---    0.02398   0.02536   0.02804   0.03917   0.04705
     Eigenvalues ---    0.05545   0.05820   0.06319   0.06324   0.07983
     Eigenvalues ---    0.10257   0.11758   0.13465   0.15926   0.15999
     Eigenvalues ---    0.16000   0.16000   0.16000   0.22056   0.22250
     Eigenvalues ---    0.22419   0.24684   0.24882   0.30501   0.31282
     Eigenvalues ---    0.34413   0.34528   0.34535   0.34539   0.34588
     Eigenvalues ---    0.34844   0.35504   0.35611   0.39561   0.45029
     Eigenvalues ---    0.47607   0.47657   0.47766   0.48310   0.57950
 RFO step:  Lambda=-4.66435366D-02 EMin= 6.24663117D-03
 Linear search not attempted -- first point.
 Maximum step size (   0.300) exceeded in Quadratic search.
    -- Step size scaled by   0.841
 Iteration  1 RMS(Cart)=  0.09557395 RMS(Int)=  0.00331019
 Iteration  2 RMS(Cart)=  0.00392401 RMS(Int)=  0.00100644
 Iteration  3 RMS(Cart)=  0.00001940 RMS(Int)=  0.00100640
 Iteration  4 RMS(Cart)=  0.00000006 RMS(Int)=  0.00100640
 ITry= 1 IFail=0 DXMaxC= 3.07D-01 DCOld= 1.00D+10 DXMaxT= 3.00D-01 DXLimC= 3.00D+00 Rises=F
 Variable       Old X    -DE/DX   Delta X   Delta X   Delta X     New X
                                 (Linear)    (Quad)   (Total)
    R1        1.89006   0.02431   0.00000   0.03907   0.03907   1.92913
    R2        1.88889   0.02743   0.00000   0.04400   0.04400   1.93289
    R3        2.72154   0.04579   0.00000   0.08706   0.08706   2.80860
    R4        1.89060   0.02361   0.00000   0.03798   0.03798   1.92858
    R5        2.06639  -0.00314   0.00000  -0.00675  -0.00675   2.05964
    R6        2.06429  -0.00117   0.00000  -0.00252  -0.00252   2.06177
    R7        2.79228   0.04777   0.00000   0.10167   0.10167   2.89395
    R8        2.06350   0.00218   0.00000   0.00466   0.00466   2.06816
    R9        2.06448   0.00182   0.00000   0.00391   0.00391   2.06840
   R10        2.85477  -0.00139   0.00000  -0.00325  -0.00325   2.85153
   R11        2.59239  -0.05384   0.00000  -0.08798  -0.08844   2.50394
   R12        3.29268   0.00961   0.00000   0.01613   0.01577   3.30844
   R13        2.63715  -0.00147   0.00000  -0.00283  -0.00281   2.63434
   R14        2.04695  -0.00106   0.00000  -0.00221  -0.00221   2.04474
   R15        2.50581   0.03238   0.00000   0.04664   0.04710   2.55292
   R16        2.04864  -0.00080   0.00000  -0.00167  -0.00167   2.04697
   R17        3.21975   0.00642   0.00000   0.02038   0.02073   3.24048
    A1        1.91076  -0.01035   0.00000  -0.04520  -0.04569   1.86506
    A2        1.91066   0.00878   0.00000   0.03630   0.03558   1.94624
    A3        1.91069  -0.00705   0.00000  -0.02448  -0.02532   1.88537
    A4        1.91105   0.00977   0.00000   0.03766   0.03709   1.94815
    A5        1.91032  -0.00939   0.00000  -0.03935  -0.03992   1.87039
    A6        1.91032   0.00824   0.00000   0.03506   0.03430   1.94462
    A7        1.93854  -0.01156   0.00000  -0.05188  -0.05499   1.88355
    A8        1.94258  -0.01234   0.00000  -0.05351  -0.05712   1.88547
    A9        1.89792   0.02979   0.00000   0.10476   0.10466   2.00258
   A10        1.96089   0.00215   0.00000  -0.02207  -0.02550   1.93539
   A11        1.85346  -0.00349   0.00000   0.01352   0.01518   1.86864
   A12        1.86571  -0.00229   0.00000   0.02153   0.02304   1.88875
   A13        1.90249   0.00663   0.00000   0.02888   0.02887   1.93136
   A14        1.79575   0.00913   0.00000   0.03884   0.03865   1.83440
   A15        2.07988  -0.01399   0.00000  -0.03893  -0.03862   2.04126
   A16        1.93059  -0.00713   0.00000  -0.04083  -0.04127   1.88932
   A17        1.88969   0.00487   0.00000   0.01604   0.01635   1.90604
   A18        1.86146  -0.00009   0.00000  -0.00853  -0.00807   1.85338
   A19        2.10185   0.00111   0.00000   0.01189   0.01205   2.11390
   A20        2.16362   0.00329   0.00000   0.01802   0.01825   2.18187
   A21        2.01173  -0.00410   0.00000  -0.02601  -0.02708   1.98465
   A22        1.90232   0.01384   0.00000   0.02423   0.02345   1.92577
   A23        2.07471  -0.00318   0.00000  -0.01352  -0.01385   2.06086
   A24        1.97020   0.01167   0.00000   0.04880   0.04901   2.01921
   A25        2.23824  -0.00847   0.00000  -0.03502  -0.03536   2.20288
   A26        2.23839   0.01369   0.00000   0.02792   0.02764   2.26603
   A27        2.03123  -0.03840   0.00000  -0.09930  -0.09859   1.93265
   A28        2.00835   0.02463   0.00000   0.07206   0.07172   2.08007
   A29        1.50785   0.01719   0.00000   0.05475   0.05461   1.56246
    D1       -3.09752  -0.00869   0.00000  -0.06369  -0.06187   3.12380
    D2        0.98674   0.00666   0.00000   0.04547   0.04341   1.03015
    D3       -1.06402  -0.00167   0.00000  -0.01408  -0.01410  -1.07812
    D4        1.09084  -0.00738   0.00000  -0.05366  -0.05173   1.03912
    D5       -1.10808   0.00797   0.00000   0.05551   0.05355  -1.05453
    D6        3.12434  -0.00036   0.00000  -0.00405  -0.00396   3.12038
    D7       -1.00323  -0.00690   0.00000  -0.04999  -0.04801  -1.05124
    D8        3.08103   0.00845   0.00000   0.05918   0.05727   3.13830
    D9        1.03027   0.00012   0.00000  -0.00038  -0.00024   1.03003
   D10       -0.86771  -0.00121   0.00000  -0.01710  -0.01672  -0.88443
   D11       -2.91742  -0.00057   0.00000  -0.00267  -0.00280  -2.92022
   D12        1.31200   0.00041   0.00000   0.00048   0.00074   1.31274
   D13        1.21964  -0.00109   0.00000  -0.01563  -0.01449   1.20515
   D14       -0.83007  -0.00045   0.00000  -0.00121  -0.00057  -0.83064
   D15       -2.88383   0.00052   0.00000   0.00195   0.00297  -2.88087
   D16       -2.96674  -0.00158   0.00000  -0.02326  -0.02415  -2.99089
   D17        1.26673  -0.00095   0.00000  -0.00883  -0.01023   1.25650
   D18       -0.78703   0.00003   0.00000  -0.00568  -0.00669  -0.79372
   D19        1.32003   0.00045   0.00000  -0.00112  -0.00106   1.31898
   D20       -1.69848  -0.00232   0.00000  -0.03934  -0.03917  -1.73764
   D21       -2.77729   0.00300   0.00000   0.02281   0.02277  -2.75452
   D22        0.48739   0.00023   0.00000  -0.01541  -0.01534   0.47205
   D23       -0.69925  -0.00288   0.00000  -0.02145  -0.02164  -0.72089
   D24        2.56543  -0.00565   0.00000  -0.05967  -0.05975   2.50568
   D25       -3.01948  -0.00390   0.00000  -0.05181  -0.05121  -3.07069
   D26        0.00928  -0.00089   0.00000  -0.01403  -0.01437  -0.00510
   D27        2.99310   0.00469   0.00000   0.06836   0.06910   3.06220
   D28       -0.03116   0.00174   0.00000   0.02966   0.03121   0.00005
   D29       -3.12359   0.00124   0.00000   0.01383   0.01332  -3.11027
   D30        0.02663  -0.00112   0.00000  -0.01607  -0.01717   0.00947
   D31        2.97225   0.00446   0.00000   0.05584   0.05604   3.02830
   D32       -0.05345   0.00415   0.00000   0.04468   0.04402  -0.00943
   D33       -0.15972   0.00177   0.00000   0.02231   0.02252  -0.13720
   D34        3.09777   0.00147   0.00000   0.01115   0.01049   3.10826
   D35        0.04780  -0.00411   0.00000  -0.04368  -0.04262   0.00518
   D36       -2.99337  -0.00430   0.00000  -0.05216  -0.05173  -3.04509
         Item               Value     Threshold  Converged?
 Maximum Force            0.053842     0.000450     NO 
 RMS     Force            0.013973     0.000300     NO 
 Maximum Displacement     0.306698     0.001800     NO 
 RMS     Displacement     0.096658     0.001200     NO 
 Predicted change in Energy=-2.574846D-02
 Lowest energy point so far.  Saving SCF results.
 GradGradGradGradGradGradGradGradGradGradGradGradGradGradGradGradGradGrad

 Leave Link  103 at Mon Jul 12 12:52:21 2021, MaxMem=   104857600 cpu:               0.1 elap:               0.1
 (Enter /dades/curu/g16A03_MST/g16/l202.exe)
                          Input orientation:                          
 ---------------------------------------------------------------------
 Center     Atomic      Atomic             Coordinates (Angstroms)
 Number     Number       Type             X           Y           Z
 ---------------------------------------------------------------------
      1          7           0       -1.984261   -1.539521   -0.118505
      2          1           0       -1.621117   -1.366706    0.819789
      3          1           0       -2.220466   -2.533542   -0.166775
      4          6           0       -0.997722   -1.159717   -1.163212
      5          1           0       -1.435841   -1.384188   -2.135623
      6          1           0       -0.091365   -1.744869   -1.000450
      7          6           0       -0.614782    0.323004   -1.174306
      8          1           0       -1.509748    0.952879   -1.181811
      9          1           0       -0.082168    0.472944   -2.118697
     10          6           0        0.316800    0.797030   -0.085995
     11          7           0        1.612458    0.522492   -0.126041
     12          6           0        2.241712    0.985312    1.028585
     13          1           0        3.312192    0.852378    1.113370
     14          6           0        1.438291    1.588440    1.931803
     15          1           0        1.660668    1.942298    2.931144
     16         16           0       -0.182384    1.626396    1.372807
     17          1           0       -2.855267   -1.017630   -0.221085
 ---------------------------------------------------------------------
                    Distance matrix (angstroms):
                    1          2          3          4          5
     1  N    0.000000
     2  H    1.020850   0.000000
     3  H    1.022840   1.641351   0.000000
     4  C    1.486245   2.088961   2.091742   0.000000
     5  H    2.096105   2.961265   2.411019   1.089917   0.000000
     6  H    2.098345   2.407576   2.418696   1.091044   1.796197
     7  C    2.541492   2.800758   3.428293   1.531413   2.124328
     8  H    2.750970   3.065825   3.700074   2.173840   2.525292
     9  H    3.415954   3.793070   4.173880   2.101612   2.298185
    10  C    3.279544   3.042651   4.187715   2.591761   3.468492
    11  N    4.145882   3.862599   4.902275   3.273926   4.118977
    12  C    5.054646   4.527365   5.807086   4.460836   5.399179
    13  H    5.940632   5.417385   6.611620   5.273207   6.172681
    14  C    5.069691   4.396526   5.897564   4.802670   5.800095
    15  H    5.891429   5.116390   6.685315   5.783881   6.806320
    16  S    3.936217   3.366667   4.881514   3.854685   4.789974
    17  H    1.020560   1.651786   1.644357   2.087646   2.411346
                    6          7          8          9         10
     6  H    0.000000
     7  C    2.140161   0.000000
     8  H    3.053284   1.094423   0.000000
     9  H    2.483798   1.094548   1.773718   0.000000
    10  C    2.732047   1.508963   2.135739   2.096684   0.000000
    11  N    2.967916   2.469667   3.323861   2.616274   1.325030
    12  C    4.124817   3.667552   4.354349   3.945671   2.232269
    13  H    4.774738   4.575459   5.341260   4.702330   3.227059
    14  C    4.695626   3.932474   4.334681   4.467961   2.440405
    15  H    5.667649   4.965330   5.286481   5.540521   3.495818
    16  S    4.123841   2.893715   2.956618   3.678464   1.750753
    17  H    2.962337   2.779515   2.572221   3.675979   3.656946
                   11         12         13         14         15
    11  N    0.000000
    12  C    1.394031   0.000000
    13  H    2.129333   1.082029   0.000000
    14  C    2.324070   1.350945   2.173275   0.000000
    15  H    3.371135   2.207525   2.686960   1.083212   0.000000
    16  S    2.585847   2.530952   3.588658   1.714790   2.434142
    17  H    4.726687   5.617174   6.581432   5.464537   6.252311
                   16         17
    16  S    0.000000
    17  H    4.083586   0.000000
 Stoichiometry    C5H9N2S(1+)
 Framework group  C1[X(C5H9N2S)]
 Deg. of freedom    45
 Full point group                 C1      NOp   1
 RotChk:  IX=0 Diff= 2.02D-02
 Largest Abelian subgroup         C1      NOp   1
 Largest concise Abelian subgroup C1      NOp   1
                         Standard orientation:                         
 ---------------------------------------------------------------------
 Center     Atomic      Atomic             Coordinates (Angstroms)
 Number     Number       Type             X           Y           Z
 ---------------------------------------------------------------------
      1          7           0       -2.687767   -0.687770   -0.754519
      2          1           0       -1.892548   -1.070642   -1.267521
      3          1           0       -3.447253   -0.569932   -1.429422
      4          6           0       -2.341033    0.595954   -0.090627
      5          1           0       -3.231607    0.959842    0.421606
      6          1           0       -2.020873    1.298919   -0.861155
      7          6           0       -1.229148    0.495510    0.957634
      8          1           0       -1.439632   -0.310206    1.667761
      9          1           0       -1.260696    1.446362    1.498854
     10          6           0        0.182692    0.349564    0.445407
     11          7           0        0.836685    1.383341   -0.063808
     12          6           0        2.079644    0.979220   -0.548639
     13          1           0        2.732864    1.733529   -0.967098
     14          6           0        2.358699   -0.336379   -0.420649
     15          1           0        3.199433   -0.907070   -0.795917
     16         16           0        1.062848   -1.160357    0.342458
     17          1           0       -2.992803   -1.387295   -0.076905
 ---------------------------------------------------------------------
 Rotational constants (GHZ):           3.3180026           1.1176075           0.9715093
 Leave Link  202 at Mon Jul 12 12:52:21 2021, MaxMem=   104857600 cpu:               0.0 elap:               0.0
 (Enter /dades/curu/g16A03_MST/g16/l301.exe)
 Standard basis: 6-31G(d) (6D, 7F)
 Ernie: Thresh=  0.10000D-02 Tol=  0.10000D-05 Strict=F.
 There are   142 symmetry adapted cartesian basis functions of A   symmetry.
 There are   142 symmetry adapted basis functions of A   symmetry.
   142 basis functions,   284 primitive gaussians,   142 cartesian basis functions
    34 alpha electrons       34 beta electrons
       nuclear repulsion energy       442.8800868706 Hartrees.
 IExCor=  402 DFT=T Ex+Corr=B3LYP ExCW=0 ScaHFX=  0.200000
 ScaDFX=  0.800000  0.720000  1.000000  0.810000 ScalE2=  1.000000  1.000000
 IRadAn=      5 IRanWt=     -1 IRanGd=            0 ICorTp=0 IEmpDi=  4
 NAtoms=   17 NActive=   17 NUniq=   17 SFac= 1.00D+00 NAtFMM=   60 NAOKFM=F Big=F
 Integral buffers will be    131072 words long.
 Raffenetti 2 integral format.
 Two-electron integral symmetry is turned on.
 ------------------------------------------------------------------------------
 Polarizable Continuum Model (PCM)
 =================================
 Model                : PCM.
 Atomic radii         : MST.
 Polarization charges : Total charges.
 Charge compensation  : None.
 Solution method      : On-the-fly selection.
 Cavity type          : Scaled VdW (van der Waals Surface) (Alpha=1.500).
 Cavity algorithm     : GePol (No added spheres)
                        Default sphere list used, NSphG=   17.
                        Lebedev-Laikov grids with approx.  5.0 points / Ang**2.
                        Smoothing algorithm: York/Karplus (Gamma=1.0000).
                        Polarization charges: spherical gaussians, with
                                              point-specific exponents (IZeta= 3).
                        Self-potential: point-specific (ISelfS= 7).
                        Self-field    : sphere-specific E.n sum rule (ISelfD= 2).
 1st derivatives      : Analytical E(r).r(x)/FMM algorithm (CHGder, D1EAlg=3).
                        Cavity 1st derivative terms included.
 Solvent              : n-Octanol, Eps=   9.862900 Eps(inf)=   2.043470
 ------------------------------------------------------------------------------
 Spheres list:
 ISph  on   Nord     Re0    Alpha      Xe            Ye            Ze
    1   N      1    1.5000  1.150     -2.687767     -0.687770     -0.754519
    2   H      2    0.9000  1.150     -1.892548     -1.070642     -1.267521
    3   H      3    0.9000  1.150     -3.447253     -0.569932     -1.429422
    4   C      4    1.5000  1.500     -2.341033      0.595954     -0.090627
    5   H      5    1.2000  1.500     -3.231607      0.959842      0.421606
    6   H      6    1.2000  1.500     -2.020873      1.298919     -0.861155
    7   C      7    1.5000  1.500     -1.229148      0.495510      0.957634
    8   H      8    1.2000  1.500     -1.439632     -0.310206      1.667761
    9   H      9    1.2000  1.500     -1.260696      1.446362      1.498854
   10   C     10    1.5000  1.500      0.182692      0.349564      0.445407
   11   N     11    1.5000  1.500      0.836685      1.383341     -0.063808
   12   C     12    1.5000  1.500      2.079644      0.979220     -0.548639
   13   H     13    1.2000  1.500      2.732864      1.733529     -0.967098
   14   C     14    1.5000  1.500      2.358699     -0.336379     -0.420649
   15   H     15    1.2000  1.500      3.199433     -0.907070     -0.795917
   16   S     16    1.7500  1.500      1.062848     -1.160357      0.342458
   17   H     17    0.9000  1.150     -2.992803     -1.387295     -0.076905
 ------------------------------------------------------------------------------
 GePol: Number of generator spheres                  =      17
 GePol: Total number of spheres                      =      17
 GePol: Number of exposed spheres                    =      17 (100.00%)
 GePol: Number of points                             =    1728
 GePol: Average weight of points                     =       0.12
 GePol: Minimum weight of points                     =   0.37D-08
 GePol: Maximum weight of points                     =    0.22065
 GePol: Number of points with low weight             =      94
 GePol: Fraction of low-weight points (<1% of avg)   =       5.44%
 GePol: Cavity surface area                          =    205.134 Ang**2
 GePol: Cavity volume                                =    216.073 Ang**3
 Surface areas from nonelectrostatic (unscaled) cavity and vdw tensions:
 Sphere =    1 Type =  NH  Surf =       12.563 Tension =       -0.234
 Sphere =    2 Type =  NH  Surf =        4.003 Tension =       -0.234
 Sphere =    3 Type =  NH  Surf =        4.016 Tension =       -0.234
 Sphere =    4 Type =  CH2 Surf =        4.033 Tension =       -0.194
 Sphere =    5 Type =  CH2 Surf =        9.941 Tension =       -0.194
 Sphere =    6 Type =  CH2 Surf =        9.986 Tension =       -0.194
 Sphere =    7 Type =  CH2 Surf =        3.904 Tension =       -0.194
 Sphere =    8 Type =  CH2 Surf =       10.038 Tension =       -0.194
 Sphere =    9 Type =  CH2 Surf =        9.838 Tension =       -0.194
 Sphere =   10 Type =  C   Surf =        5.723 Tension =       -0.205
 Sphere =   11 Type =  Nc  Surf =       13.116 Tension =       -0.161
 Sphere =   12 Type =  CH  Surf =        7.754 Tension =       -0.195
 Sphere =   13 Type =  CH  Surf =       10.230 Tension =       -0.195
 Sphere =   14 Type =  CH  Surf =        7.531 Tension =       -0.195
 Sphere =   15 Type =  CH  Surf =       10.228 Tension =       -0.195
 Sphere =   16 Type =  S   Surf =       24.366 Tension =       -0.186
 Sphere =   17 Type =  NH  Surf =        4.001 Tension =       -0.234
 PCM non-electrostatic energy =        -0.0082767677 Hartrees.
 Nuclear repulsion after PCM non-electrostatic terms =      442.8718101029 Hartrees.
 Leave Link  301 at Mon Jul 12 12:52:22 2021, MaxMem=   104857600 cpu:               0.1 elap:               0.1
 (Enter /dades/curu/g16A03_MST/g16/l302.exe)
 NPDir=0 NMtPBC=     1 NCelOv=     1 NCel=       1 NClECP=     1 NCelD=      1
         NCelK=      1 NCelE2=     1 NClLst=     1 CellRange=     0.0.
 One-electron integrals computed using PRISM.
 One-electron integral symmetry used in STVInt
 NBasis=   142 RedAO= T EigKep=  2.42D-03  NBF=   142
 NBsUse=   142 1.00D-06 EigRej= -1.00D+00 NBFU=   142
 Precomputing XC quadrature grid using
 IXCGrd= 4 IRadAn=           5 IRanWt=          -1 IRanGd=           0 AccXCQ= 0.00D+00.
 Generated NRdTot=       0 NPtTot=           0 NUsed=           0 NTot=          32
 NSgBfM=   142   142   142   142   142 MxSgAt=    17 MxSgA2=    17.
 Leave Link  302 at Mon Jul 12 12:52:22 2021, MaxMem=   104857600 cpu:               1.6 elap:               0.4
 (Enter /dades/curu/g16A03_MST/g16/l303.exe)
 DipDrv:  MaxL=1.
 Leave Link  303 at Mon Jul 12 12:52:22 2021, MaxMem=   104857600 cpu:               0.1 elap:               0.0
 (Enter /dades/curu/g16A03_MST/g16/l401.exe)
 Initial guess from the checkpoint file:  "SET_328_BBB87_conf1.geo_075_075.chk"
 B after Tr=    -0.000000    0.000000    0.000000
         Rot=    0.999948    0.005868   -0.007428   -0.003756 Ang=   1.17 deg.
 Guess basis will be translated and rotated to current coordinates.
 JPrj=2 DoOrth=T DoCkMO=T.
 Generating alternative initial guess.
 ExpMin= 1.17D-01 ExpMax= 2.19D+04 ExpMxC= 3.30D+03 IAcc=2 IRadAn=         4 AccDes= 0.00D+00
 Harris functional with IExCor=  402 and IRadAn=       4 diagonalized for initial guess.
 HarFok:  IExCor=  402 AccDes= 0.00D+00 IRadAn=         4 IDoV= 1 UseB2=F ITyADJ=14
 ICtDFT=  3500011 ScaDFX=  1.000000  1.000000  1.000000  1.000000
 FoFCou: FMM=F IPFlag=           0 FMFlag=      100000 FMFlg1=           0
         NFxFlg=           0 DoJE=T BraDBF=F KetDBF=T FulRan=T
         wScrn=  0.000000 ICntrl=       500 IOpCl=  0 I1Cent=   200000004 NGrid=           0
         NMat0=    1 NMatS0=      1 NMatT0=    0 NMatD0=    1 NMtDS0=    0 NMtDT0=    0
 Petite list used in FoFCou.
 Harris En= -703.388510507032    
 Leave Link  401 at Mon Jul 12 12:52:23 2021, MaxMem=   104857600 cpu:               3.9 elap:               1.0
 (Enter /dades/curu/g16A03_MST/g16/l502.exe)
 Keep R1 ints in memory in canonical form, NReq=55416097.
 FoFCou: FMM=F IPFlag=           0 FMFlag=           0 FMFlg1=           0
         NFxFlg=           0 DoJE=F BraDBF=F KetDBF=F FulRan=T
         wScrn=  0.000000 ICntrl=       600 IOpCl=  0 I1Cent=           0 NGrid=           0
         NMat0=    1 NMatS0=  10153 NMatT0=    0 NMatD0=    1 NMtDS0=    0 NMtDT0=    0
 Symmetry not used in FoFCou.
 Two-electron integral symmetry not used.
 Closed shell SCF:
 Using DIIS extrapolation, IDIIS=  1040.
 NGot=   104857600 LenX=    53267895 LenY=    53247290
 Requested convergence on RMS density matrix=1.00D-08 within 128 cycles.
 Requested convergence on MAX density matrix=1.00D-06.
 Requested convergence on             energy=1.00D-06.
 No special actions if energy rises.

 Cycle   1  Pass 1  IDiag  1:
 Inv3:  Mode=1 IEnd=     8957952.
 Iteration    1 A*A^-1 deviation from unit magnitude is 4.66D-15 for   1713.
 Iteration    1 A*A^-1 deviation from orthogonality  is 1.93D-15 for   1198   1029.
 Iteration    1 A^-1*A deviation from unit magnitude is 4.66D-15 for   1713.
 Iteration    1 A^-1*A deviation from orthogonality  is 1.18D-15 for    134     51.
 E= -703.490053251671    
 DIIS: error= 5.08D-03 at cycle   1 NSaved=   1.
 NSaved= 1 IEnMin= 1 EnMin= -703.490053251671     IErMin= 1 ErrMin= 5.08D-03
 ErrMax= 5.08D-03  0.00D+00 EMaxC= 1.00D-01 BMatC= 6.79D-03 BMatP= 6.79D-03
 IDIUse=3 WtCom= 9.49D-01 WtEn= 5.08D-02
 Coeff-Com:  0.100D+01
 Coeff-En:   0.100D+01
 Coeff:      0.100D+01
 Gap=     1.603 Goal=   None    Shift=    0.000
 GapD=    1.603 DampG=2.000 DampE=1.000 DampFc=2.0000 IDamp=-1.
 RMSDP=1.00D-03 MaxDP=1.35D-02              OVMax= 3.00D-02

 Cycle   2  Pass 1  IDiag  1:
 E= -703.500574550212     Delta-E=       -0.010521298541 Rises=F Damp=F
 DIIS: error= 2.66D-03 at cycle   2 NSaved=   2.
 NSaved= 2 IEnMin= 2 EnMin= -703.500574550212     IErMin= 2 ErrMin= 2.66D-03
 ErrMax= 2.66D-03  0.00D+00 EMaxC= 1.00D-01 BMatC= 1.16D-03 BMatP= 6.79D-03
 IDIUse=3 WtCom= 9.73D-01 WtEn= 2.66D-02
 Coeff-Com:  0.188D+00 0.812D+00
 Coeff-En:   0.000D+00 0.100D+01
 Coeff:      0.183D+00 0.817D+00
 Gap=     0.219 Goal=   None    Shift=    0.000
 RMSDP=4.02D-04 MaxDP=9.56D-03 DE=-1.05D-02 OVMax= 1.50D-02

 Cycle   3  Pass 1  IDiag  1:
 E= -703.500626178870     Delta-E=       -0.000051628657 Rises=F Damp=F
 DIIS: error= 2.45D-03 at cycle   3 NSaved=   3.
 NSaved= 3 IEnMin= 3 EnMin= -703.500626178870     IErMin= 3 ErrMin= 2.45D-03
 ErrMax= 2.45D-03  0.00D+00 EMaxC= 1.00D-01 BMatC= 1.14D-03 BMatP= 1.16D-03
 IDIUse=3 WtCom= 9.76D-01 WtEn= 2.45D-02
 Coeff-Com: -0.225D-01 0.501D+00 0.521D+00
 Coeff-En:   0.000D+00 0.489D+00 0.511D+00
 Coeff:     -0.220D-01 0.501D+00 0.521D+00
 Gap=     0.218 Goal=   None    Shift=    0.000
 RMSDP=2.48D-04 MaxDP=7.05D-03 DE=-5.16D-05 OVMax= 1.21D-02

 Cycle   4  Pass 1  IDiag  1:
 E= -703.501589386744     Delta-E=       -0.000963207874 Rises=F Damp=F
 DIIS: error= 6.01D-04 at cycle   4 NSaved=   4.
 NSaved= 4 IEnMin= 4 EnMin= -703.501589386744     IErMin= 4 ErrMin= 6.01D-04
 ErrMax= 6.01D-04  0.00D+00 EMaxC= 1.00D-01 BMatC= 7.88D-05 BMatP= 1.14D-03
 IDIUse=3 WtCom= 9.94D-01 WtEn= 6.01D-03
 Coeff-Com: -0.218D-01 0.266D+00 0.321D+00 0.435D+00
 Coeff-En:   0.000D+00 0.000D+00 0.000D+00 0.100D+01
 Coeff:     -0.217D-01 0.265D+00 0.319D+00 0.438D+00
[...]
 IDIUse=1 WtCom= 1.00D+00 WtEn= 0.00D+00
 Coeff-Com: -0.438D+00-0.142D+00 0.158D+01
 Coeff:     -0.438D+00-0.142D+00 0.158D+01
 Gap=     0.368 Goal=   None    Shift=    0.000
 RMSDP=4.14D-07 MaxDP=2.15D-05 DE=-2.79D-09 OVMax= 2.73D-05

 Cycle  13  Pass 1  IDiag  1:
 RMSU=  1.06D-07    CP:  1.00D+00  1.34D+00  1.67D+00
 E= -700.831972146355     Delta-E=       -0.000000001531 Rises=F Damp=F
 DIIS: error= 2.16D-07 at cycle   4 NSaved=   4.
 NSaved= 4 IEnMin= 4 EnMin= -700.831972146355     IErMin= 4 ErrMin= 2.16D-07
 ErrMax= 2.16D-07  0.00D+00 EMaxC= 1.00D-01 BMatC= 2.10D-11 BMatP= 4.01D-10
 IDIUse=1 WtCom= 1.00D+00 WtEn= 0.00D+00
 Coeff-Com: -0.799D-01-0.359D-01 0.170D+00 0.945D+00
 Coeff:     -0.799D-01-0.359D-01 0.170D+00 0.945D+00
 Gap=     0.368 Goal=   None    Shift=    0.000
 RMSDP=7.23D-08 MaxDP=3.35D-06 DE=-1.53D-09 OVMax= 6.35D-06

 Cycle  14  Pass 1  IDiag  1:
 RMSU=  3.70D-08    CP:  1.00D+00  1.38D+00  1.80D+00  1.30D+00
 E= -700.831972146411     Delta-E=       -0.000000000057 Rises=F Damp=F
 DIIS: error= 1.65D-07 at cycle   5 NSaved=   5.
 NSaved= 5 IEnMin= 5 EnMin= -700.831972146411     IErMin= 5 ErrMin= 1.65D-07
 ErrMax= 1.65D-07  0.00D+00 EMaxC= 1.00D-01 BMatC= 5.62D-12 BMatP= 2.10D-11
 IDIUse=1 WtCom= 1.00D+00 WtEn= 0.00D+00
 Coeff-Com:  0.130D+00 0.667D-01-0.484D+00-0.121D+00 0.141D+01
 Coeff:      0.130D+00 0.667D-01-0.484D+00-0.121D+00 0.141D+01
 Gap=     0.368 Goal=   None    Shift=    0.000
 RMSDP=5.40D-08 MaxDP=2.04D-06 DE=-5.66D-11 OVMax= 4.66D-06

 Cycle  15  Pass 1  IDiag  1:
 RMSU=  1.81D-08    CP:  1.00D+00  1.40D+00  1.85D+00  1.69D+00  1.51D+00
 E= -700.831972146441     Delta-E=       -0.000000000030 Rises=F Damp=F
 DIIS: error= 3.96D-08 at cycle   6 NSaved=   6.
 NSaved= 6 IEnMin= 6 EnMin= -700.831972146441     IErMin= 6 ErrMin= 3.96D-08
 ErrMax= 3.96D-08  0.00D+00 EMaxC= 1.00D-01 BMatC= 4.28D-13 BMatP= 5.62D-12
 IDIUse=1 WtCom= 1.00D+00 WtEn= 0.00D+00
 Coeff-Com:  0.827D-02 0.819D-02-0.252D-01-0.887D-01 0.160D-02 0.110D+01
 Coeff:      0.827D-02 0.819D-02-0.252D-01-0.887D-01 0.160D-02 0.110D+01
 Gap=     0.368 Goal=   None    Shift=    0.000
 RMSDP=1.23D-08 MaxDP=4.18D-07 DE=-3.00D-11 OVMax= 1.07D-06

 Cycle  16  Pass 1  IDiag  1:
 RMSU=  5.85D-09    CP:  1.00D+00  1.41D+00  1.86D+00  1.75D+00  1.68D+00
                    CP:  1.22D+00
 E= -700.831972146448     Delta-E=       -0.000000000007 Rises=F Damp=F
 DIIS: error= 1.69D-08 at cycle   7 NSaved=   7.
 NSaved= 7 IEnMin= 7 EnMin= -700.831972146448     IErMin= 7 ErrMin= 1.69D-08
 ErrMax= 1.69D-08  0.00D+00 EMaxC= 1.00D-01 BMatC= 6.31D-14 BMatP= 4.28D-13
 IDIUse=1 WtCom= 1.00D+00 WtEn= 0.00D+00
 Coeff-Com: -0.228D-01-0.103D-01 0.826D-01 0.214D-01-0.251D+00 0.316D-01
 Coeff-Com:  0.115D+01
 Coeff:     -0.228D-01-0.103D-01 0.826D-01 0.214D-01-0.251D+00 0.316D-01
 Coeff:      0.115D+01
 Gap=     0.368 Goal=   None    Shift=    0.000
 RMSDP=4.95D-09 MaxDP=1.88D-07 DE=-6.59D-12 OVMax= 4.40D-07

 SCF Done:  E(RHF) =  -700.831972146     A.U. after   16 cycles
            NFock= 16  Conv=0.50D-08     -V/T= 2.0007
 KE= 7.003350132638D+02 PE=-2.535419900975D+03 EE= 6.876157885957D+02
 Leave Link  502 at Mon Jul 12 13:25:08 2021, MaxMem=   262144000 cpu:             512.7 elap:             129.4
 (Enter /dades/curu/g16A03_MST/g16/l801.exe)
 ExpMin= 2.97D-02 ExpMax= 1.11D+05 ExpMxC= 1.07D+03 IAcc=3 IRadAn=         5 AccDes= 0.00D+00
 HarFok:  IExCor=  205 AccDes= 0.00D+00 IRadAn=         5 IDoV=-2 UseB2=F ITyADJ=14
 ICtDFT= 12500011 ScaDFX=  1.000000  1.000000  1.000000  1.000000
 Largest valence mixing into a core orbital is  3.20D-04
 Largest core mixing into a valence orbital is  8.84D-05
 Range of M.O.s used for correlation:    13   269
 NBasis=   269 NAE=    34 NBE=    34 NFC=    12 NFV=     0
 NROrb=    257 NOA=    22 NOB=    22 NVA=   235 NVB=   235

 **** Warning!!: The largest alpha MO coefficient is  0.54650748D+02

 Leave Link  801 at Mon Jul 12 13:25:08 2021, MaxMem=   262144000 cpu:               1.1 elap:               0.3
 (Enter /dades/curu/g16A03_MST/g16/l906.exe)
 FulOut=F Deriv=F AODrv=F NAtomX=    17
   MMem=          42  MDisk=          22 MDiskD=          22
  W3Min=     1473450 MinDsk=     1955505 NBas6D=         285
 NBas2D=       41124    NTT=       40755    LW2=     2000000
    MDV=   261532533 MDiskM=       12647 NBas2p=       40524
 Fully direct method using O(OVN) memory.
 IMap=   1   2   3   4   5   6   7   8   9  10  11  12  13  14  15  16  17  18  19  20
 IMap=  21  22
 JobTyp=1 Pass  1:  I=   1 to  22 NPSUse=  4 ParTrn=T ParDer=T DoDerP=F.
 Spin components of T(2) and E(2):
     alpha-alpha T2 =       0.5949774145D-01 E2=     -0.1551820517D+00
     alpha-beta  T2 =       0.3167920265D+00 E2=     -0.8826674058D+00
     beta-beta   T2 =       0.5949774145D-01 E2=     -0.1551820517D+00
 The integrals were generated   1 times.
 ANorm=    0.1198243510D+01
 E2 =    -0.1193031509D+01 EUMP2 =    -0.70202500365569D+03
 Leave Link  906 at Mon Jul 12 13:25:47 2021, MaxMem=   262144000 cpu:             156.7 elap:              39.3
 (Enter /dades/curu/g16A03_MST/g16/l601.exe)
 Copying SCF densities to generalized density rwf, IOpCl= 0 IROHF=0.

 **********************************************************************

            Population analysis using the SCF density.

 **********************************************************************

 Orbital symmetries:
       Occupied  (A) (A) (A) (A) (A) (A) (A) (A) (A) (A) (A) (A)
                 (A) (A) (A) (A) (A) (A) (A) (A) (A) (A) (A) (A)
                 (A) (A) (A) (A) (A) (A) (A) (A) (A) (A)
       Virtual   (A) (A) (A) (A) (A) (A) (A) (A) (A) (A) (A) (A)
                 (A) (A) (A) (A) (A) (A) (A) (A) (A) (A) (A) (A)
                 (A) (A) (A) (A) (A) (A) (A) (A) (A) (A) (A) (A)
                 (A) (A) (A) (A) (A) (A) (A) (A) (A) (A) (A) (A)
                 (A) (A) (A) (A) (A) (A) (A) (A) (A) (A) (A) (A)
                 (A) (A) (A) (A) (A) (A) (A) (A) (A) (A) (A) (A)
                 (A) (A) (A) (A) (A) (A) (A) (A) (A) (A) (A) (A)
                 (A) (A) (A) (A) (A) (A) (A) (A) (A) (A) (A) (A)
                 (A) (A) (A) (A) (A) (A) (A) (A) (A) (A) (A) (A)
                 (A) (A) (A) (A) (A) (A) (A) (A) (A) (A) (A) (A)
                 (A) (A) (A) (A) (A) (A) (A) (A) (A) (A) (A) (A)
                 (A) (A) (A) (A) (A) (A) (A) (A) (A) (A) (A) (A)
                 (A) (A) (A) (A) (A) (A) (A) (A) (A) (A) (A) (A)
                 (A) (A) (A) (A) (A) (A) (A) (A) (A) (A) (A) (A)
                 (A) (A) (A) (A) (A) (A) (A) (A) (A) (A) (A) (A)
                 (A) (A) (A) (A) (A) (A) (A) (A) (A) (A) (A) (A)
                 (A) (A) (A) (A) (A) (A) (A) (A) (A) (A) (A) (A)
                 (A) (A) (A) (A) (A) (A) (A) (A) (A) (A) (A) (A)
                 (A) (A) (A) (A) (A) (A) (A) (A) (A) (A) (A) (A)
                 (A) (A) (A) (A) (A) (A) (A)
 The electronic state is 1-A.
 Alpha  occ. eigenvalues --  -92.13079 -15.87217 -15.72841 -11.47940 -11.46870
 Alpha  occ. eigenvalues --  -11.42759 -11.40570 -11.40114  -9.13266  -6.81406
 Alpha  occ. eigenvalues --   -6.81316  -6.81142  -1.48966  -1.42825  -1.24081
 Alpha  occ. eigenvalues --   -1.20061  -1.13732  -1.05252  -0.95575  -0.94387
 Alpha  occ. eigenvalues --   -0.92896  -0.87847  -0.83773  -0.82060  -0.77690
 Alpha  occ. eigenvalues --   -0.74815  -0.73066  -0.70037  -0.68426  -0.67807
 Alpha  occ. eigenvalues --   -0.63406  -0.58002  -0.52639  -0.46803
 Alpha virt. eigenvalues --   -0.09990  -0.07210  -0.06855  -0.05751  -0.04011
 Alpha virt. eigenvalues --   -0.03768  -0.03605  -0.03380  -0.02608  -0.01551
 Alpha virt. eigenvalues --   -0.01401  -0.00051   0.00047   0.01118   0.01702
 Alpha virt. eigenvalues --    0.02301   0.03024   0.03290   0.03662   0.03969
 Alpha virt. eigenvalues --    0.04543   0.05060   0.05584   0.05897   0.06176
 Alpha virt. eigenvalues --    0.07064   0.07773   0.07877   0.08102   0.09498
 Alpha virt. eigenvalues --    0.09908   0.10495   0.10653   0.11217   0.11915
 Alpha virt. eigenvalues --    0.12162   0.13038   0.13920   0.14081   0.15797
 Alpha virt. eigenvalues --    0.16081   0.16520   0.18622   0.19397   0.20625
 Alpha virt. eigenvalues --    0.20744   0.21751   0.22375   0.22583   0.23735
 Alpha virt. eigenvalues --    0.23763   0.24378   0.25597   0.27580   0.28565
 Alpha virt. eigenvalues --    0.28807   0.30259   0.30931   0.31745   0.32620
 Alpha virt. eigenvalues --    0.32816   0.33656   0.33923   0.34282   0.34714
 Alpha virt. eigenvalues --    0.35222   0.36064   0.37250   0.37439   0.38892
 Alpha virt. eigenvalues --    0.40186   0.40715   0.41417   0.42285   0.42613
 Alpha virt. eigenvalues --    0.43553   0.44421   0.44945   0.46280   0.47073
 Alpha virt. eigenvalues --    0.47412   0.48298   0.50097   0.50855   0.51363
 Alpha virt. eigenvalues --    0.52350   0.53224   0.54482   0.54769   0.55279
 Alpha virt. eigenvalues --    0.56243   0.57181   0.57239   0.58247   0.59406
 Alpha virt. eigenvalues --    0.61223   0.61904   0.62267   0.63444   0.64396
 Alpha virt. eigenvalues --    0.64935   0.65147   0.66214   0.68125   0.68608
 Alpha virt. eigenvalues --    0.69116   0.69889   0.71129   0.71846   0.74704
 Alpha virt. eigenvalues --    0.74853   0.75394   0.76693   0.78166   0.79516
 Alpha virt. eigenvalues --    0.79602   0.80314   0.82304   0.83329   0.86501
 Alpha virt. eigenvalues --    0.86950   0.87435   0.88978   0.89630   0.92091
 Alpha virt. eigenvalues --    0.92338   0.96689   0.97127   0.98647   1.01060
 Alpha virt. eigenvalues --    1.01624   1.03340   1.03798   1.04287   1.08358
 Alpha virt. eigenvalues --    1.09913   1.10007   1.10596   1.12936   1.14700
 Alpha virt. eigenvalues --    1.16208   1.17039   1.19884   1.23729   1.24123
 Alpha virt. eigenvalues --    1.26259   1.28164   1.30414   1.31173   1.36928
 Alpha virt. eigenvalues --    1.40495   1.41849   1.43739   1.45006   1.46609
 Alpha virt. eigenvalues --    1.48776   1.52144   1.53844   1.55400   1.57196
 Alpha virt. eigenvalues --    1.59484   1.60326   1.62437   1.63394   1.66101
 Alpha virt. eigenvalues --    1.67632   1.68023   1.71106   1.71605   1.74995
 Alpha virt. eigenvalues --    1.76407   1.76448   1.77737   1.81013   1.83646
 Alpha virt. eigenvalues --    1.85971   1.87862   1.91472   1.92985   1.93338
 Alpha virt. eigenvalues --    1.94477   1.97574   1.99032   2.00553   2.03041
 Alpha virt. eigenvalues --    2.04112   2.04559   2.07496   2.09607   2.12616
 Alpha virt. eigenvalues --    2.13308   2.15283   2.18276   2.19129   2.20568
 Alpha virt. eigenvalues --    2.23992   2.26933   2.29694   2.30358   2.32811
 Alpha virt. eigenvalues --    2.33545   2.35308   2.36624   2.38508   2.42389
 Alpha virt. eigenvalues --    2.44631   2.46085   2.47997   2.52401   2.55091
 Alpha virt. eigenvalues --    2.56415   2.59704   2.62101   2.66610   2.69344
 Alpha virt. eigenvalues --    2.72269   2.73848   2.75497   2.79090   2.81221
 Alpha virt. eigenvalues --    2.82931   2.84635   2.87919   2.91884   2.95915
 Alpha virt. eigenvalues --    2.99332   3.04203   3.07345   3.16449   3.30497
 Alpha virt. eigenvalues --    3.35223   3.37002   3.38753   3.59164   3.71533
          Condensed to atoms (all electrons):
               1          2          3          4          5          6
     1  N    6.424761   0.391351   0.441805  -0.004974  -0.101392  -0.063556
     2  H    0.391351   0.475966  -0.068682  -0.047809   0.018800  -0.008822
     3  H    0.441805  -0.068682   0.607966  -0.061893  -0.005369  -0.035136
     4  C   -0.004974  -0.047809  -0.061893   4.596319   0.313068   0.214932
     5  H   -0.101392   0.018800  -0.005369   0.313068   1.161448  -0.207593
     6  H   -0.063556  -0.008822  -0.035136   0.214932  -0.207593   1.240945
     7  C   -0.121203  -0.010294   0.037267   0.594169   0.034429  -0.111199
     8  H    0.016614   0.003826  -0.003837  -0.186355  -0.055822   0.077988
     9  H    0.018070  -0.001784   0.000213   0.041215  -0.045225  -0.049564
    10  C    0.111234  -0.022295  -0.012615  -0.363288   0.016467   0.099510
    11  N   -0.087936   0.067209  -0.000095   0.046481   0.004106  -0.031125
    12  C   -0.002142  -0.002338  -0.001105  -0.081758   0.001325  -0.027342
    13  H    0.006730  -0.014141   0.000748  -0.004707  -0.000344  -0.000266
    14  C    0.000314   0.000553   0.000225   0.012962   0.001177   0.005008
    15  H   -0.000286   0.001832  -0.000067   0.002751   0.000290  -0.000113
    16  S   -0.023373   0.003364  -0.000465   0.022864  -0.002617   0.015147
    17  H    0.361379  -0.035478  -0.069067  -0.006611  -0.033900   0.021423
               7          8          9         10         11         12
     1  N   -0.121203   0.016614   0.018070   0.111234  -0.087936  -0.002142
     2  H   -0.010294   0.003826  -0.001784  -0.022295   0.067209  -0.002338
     3  H    0.037267  -0.003837   0.000213  -0.012615  -0.000095  -0.001105
     4  C    0.594169  -0.186355   0.041215  -0.363288   0.046481  -0.081758
     5  H    0.034429  -0.055822  -0.045225   0.016467   0.004106   0.001325
     6  H   -0.111199   0.077988  -0.049564   0.099510  -0.031125  -0.027342
     7  C    5.495518   0.241528   0.080224  -0.306602   0.084029  -0.231197
     8  H    0.241528   0.993817  -0.138690   0.050996  -0.049186  -0.034898
     9  H    0.080224  -0.138690   1.076216  -0.024145   0.035988   0.015259
    10  C   -0.306602   0.050996  -0.024145   6.308256   0.389994  -0.253139
    11  N    0.084029  -0.049186   0.035988   0.389994   7.504564   0.136993
    12  C   -0.231197  -0.034898   0.015259  -0.253139   0.136993   5.665258
    13  H   -0.010949  -0.000882   0.000615   0.085882  -0.195545   0.288976
    14  C   -0.003118   0.009698  -0.006115  -0.080311  -0.117870   0.192596
    15  H    0.025703   0.000889   0.001227   0.032994   0.013546  -0.017192
    16  S    0.078514   0.042597  -0.058181   0.089070  -0.127301  -0.316053
    17  H   -0.038321   0.004045   0.004597   0.013556  -0.013643  -0.001245
              13         14         15         16         17
     1  N    0.006730   0.000314  -0.000286  -0.023373   0.361379
     2  H   -0.014141   0.000553   0.001832   0.003364  -0.035478
     3  H    0.000748   0.000225  -0.000067  -0.000465  -0.069067
     4  C   -0.004707   0.012962   0.002751   0.022864  -0.006611
     5  H   -0.000344   0.001177   0.000290  -0.002617  -0.033900
     6  H   -0.000266   0.005008  -0.000113   0.015147   0.021423
     7  C   -0.010949  -0.003118   0.025703   0.078514  -0.038321
     8  H   -0.000882   0.009698   0.000889   0.042597   0.004045
     9  H    0.000615  -0.006115   0.001227  -0.058181   0.004597
    10  C    0.085882  -0.080311   0.032994   0.089070   0.013556
    11  N   -0.195545  -0.117870   0.013546  -0.127301  -0.013643
    12  C    0.288976   0.192596  -0.017192  -0.316053  -0.001245
    13  H    1.266377  -0.127024  -0.038597   0.000947   0.001246
    14  C   -0.127024   5.420963   0.272168   0.283573  -0.000506
    15  H   -0.038597   0.272168   1.161574  -0.126241  -0.000181
    16  S    0.000947   0.283573  -0.126241  15.735110  -0.000574
    17  H    0.001246  -0.000506  -0.000181  -0.000574   0.559729
 Mulliken charges:
               1
     1  N   -0.367397
     2  H    0.248740
     3  H    0.170108
     4  C    0.912635
     5  H   -0.098847
     6  H   -0.140236
     7  C    0.161500
     8  H    0.027673
     9  H    0.050080
    10  C   -0.135566
    11  N   -0.660210
    12  C    0.668002
    13  H   -0.259067
    14  C    0.135707
    15  H   -0.330297
    16  S    0.383619
    17  H    0.233553
 Sum of Mulliken charges =   1.00000
 Mulliken charges with hydrogens summed into heavy atoms:
               1
     1  N    0.285005
     4  C    0.673553
     7  C    0.239253
    10  C   -0.135566
    11  N   -0.660210
    12  C    0.408935
    14  C   -0.194590
    16  S    0.383619
 Electronic spatial extent (au):  <R**2>=           1223.4818
 Charge=              1.0000 electrons
 Dipole moment (field-independent basis, Debye):
    X=             -8.6441    Y=              1.4205    Z=             -0.3731  Tot=              8.7680
 Quadrupole moment (field-independent basis, Debye-Ang):
   XX=            -11.3971   YY=            -44.3744   ZZ=            -53.1694
   XY=             -3.0463   XZ=              1.9820   YZ=             -0.2217
 Traceless Quadrupole moment (field-independent basis, Debye-Ang):
   XX=             24.9165   YY=             -8.0607   ZZ=            -16.8558
   XY=             -3.0463   XZ=              1.9820   YZ=             -0.2217
 Octapole moment (field-independent basis, Debye-Ang**2):
  XXX=            -84.9056  YYY=             10.9050  ZZZ=             -2.7460  XYY=            -15.0466
  XXY=             29.7873  XXZ=             -2.1606  XZZ=            -19.2214  YZZ=             -0.1570
  YYZ=              0.8548  XYZ=              2.0316
 Hexadecapole moment (field-independent basis, Debye-Ang**3):
 XXXX=           -671.9886 YYYY=           -340.6275 ZZZZ=            -83.9955 XXXY=            -72.6209
 XXXZ=             19.8936 YYYX=             -3.3123 YYYZ=             -0.3267 ZZZX=              7.3966
 ZZZY=             -1.6063 XXYY=           -195.5815 XXZZ=           -185.7107 YYZZ=            -82.4012
 XXYZ=             -1.5617 YYXZ=              0.0068 ZZXY=             -9.4702
 N-N= 4.466371269690D+02 E-N=-2.535419899648D+03  KE= 7.003350132638D+02
 Leave Link  601 at Mon Jul 12 13:25:47 2021, MaxMem=   262144000 cpu:               0.2 elap:               0.1
 (Enter /dades/curu/g16A03_MST/g16/l9999.exe)
 1\1\GINC-PIRINEUS49\SP\RMP2-FC\Aug-CC-pVDZ\C5H9N2S1(1+)\UBATOR02\12-Ju
 l-2021\0\\#p mp2/aug-cc-pVDZ scf=tight maxdisk=180GB geom=allcheck\\SE
 T_328_BBB87_conf1.geo_075_075 geometry\\1,1\N,0,-1.3525100011,-1.79548
 01146,-0.2143478262\H,0,-0.6919638351,-1.5583961022,0.5526733252\H,0,-
 1.2735477551,-2.7981195537,-0.4256620216\C,0,-1.0087983995,-0.94346062
 75,-1.4016620947\H,0,-1.7559845572,-1.1290989753,-2.1711867771\H,0,-0.
 038970057,-1.2867451316,-1.7611218915\C,0,-0.9641747678,0.5403025573,-
 1.0330414386\H,0,-1.9444164448,0.8635353722,-0.6631558372\H,0,-0.78219
 174,1.1056066817,-1.9497397161\C,0,0.0961212904,0.8491502273,-0.009032
 3599\N,0,0.4594601243,0.0049181506,0.922807317\C,0,1.4295103066,0.5374
 03043,1.7423101741\H,0,1.8233472571,-0.059399484,2.5548701136\C,0,1.81
 55367023,1.808937057,1.4412360447\H,0,2.5499586109,2.4275898467,1.9341
 658126\S,0,0.9350578984,2.3788394577,0.0613440216\H,0,-2.3094346323,-1
 .6285824047,0.1245431541\\Version=ES64L-G16RevA.03\State=1-A\HF=-700.8
 319721\MP2=-702.0250037\RMSD=4.950e-09\PG=C01 [X(C5H9N2S1)]\\@


 EXPERIMENTALISTS THINK SILICON IS REALLY FUN TO USE
     ITS PLACE IN NOVEL COMPOUNDS IS CERTAIN TO AMUSE
 THEY SIT ALL DAY IN LABORATORIES MAKING ALL THIS SLUDGE
     "LOADED WITH THE SILICON THEY SAY", TO ME IT LOOKS LIKE FUDGE.
 FOR HAPPY THOUGH THEY BE WITH CRUD, I'D LIKE TO KNOW A LITTLE
      ABOUT THE PI BONDS ON THE EDGE AND SIGMAS IN THE MIDDLE.

 SO LETS DERIVE A WAVEFUNCTION.....6-31G*
     USE AN OPTIMAL GEOMETRY AND SEE WHERE ELECTRONS ARE.
 BUT WHAT OF CORRELATION?  ASKS THE WIRY LITTLE SKEPTIC.
     WE'LL THROW IN PERTURBATION AS AN ELECTRON ANTISEPTIC.
 AND WHEN THE PROGRAM GIVES US ANSWERS IN THEM WE CAN TRUST
     SINCE NOBODY CAN MAKE THE STUFF, WE HAVE NO CHOICE, WE MUST.

 SO THEORY GUYS HAVE GOT IT MADE, IN ROOMS FREE OF POLLUTION.
     INSTEAD OF PROBLEMS WITH THE REFLUX, THEY HAVE ONLY SOLUTIONS.
 AND WHEN THE FEDS ANNOUNCE THE LIST OF CARCINOGENIC TERRORS,
     THE THEORISTS SIT SAFELY AT THEIR TERMINALS FIXING ERRORS.
 IN OTHER WORDS, EXPERIMENTALISTS WILL LIKELY DIE OF CANCER
     FROM WORKING HARD YET FRUITLESSLY...TILL THEORY GIVES THE ANSWER.
          -- THOMAS A. HOLME, 1983
 Job cpu time:       0 days  0 hours 11 minutes 24.1 seconds.
 Elapsed time:       0 days  0 hours  2 minutes 52.8 seconds.
 File lengths (MBytes):  RWF=     44 Int=      0 D2E=      0 Chk=      9 Scr=      1
 Normal termination of Gaussian 16 at Mon Jul 12 13:25:47 2021.
