 Entering Gaussian System, Link 0=g16
 Input=SET_328_BBB87_conf1.geo_285_285_OCTANOL.dat
 Output=SET_328_BBB87_conf1.geo_285_285_OCTANOL.log
 Initial command:
 /dades/curu/g16A03_MST/g16/l1.exe "/tmp/ubator02/1835319/Gau-126563.inp" -scrdir="/tmp/ubator02/1835319/"
 Entering Link 1 = /dades/curu/g16A03_MST/g16/l1.exe PID=    126564.
  
 Copyright (c) 1988,1990,1992,1993,1995,1998,2003,2009,2016,
            Gaussian, Inc.  All Rights Reserved.
  
 This is part of the Gaussian(R) 16 program.  It is based on
 the Gaussian(R) 09 system (copyright 2009, Gaussian, Inc.),
 the Gaussian(R) 03 system (copyright 2003, Gaussian, Inc.),
 the Gaussian(R) 98 system (copyright 1998, Gaussian, Inc.),
 the Gaussian(R) 94 system (copyright 1995, Gaussian, Inc.),
 the Gaussian 92(TM) system (copyright 1992, Gaussian, Inc.),
 the Gaussian 90(TM) system (copyright 1990, Gaussian, Inc.),
 the Gaussian 88(TM) system (copyright 1988, Gaussian, Inc.),
 the Gaussian 86(TM) system (copyright 1986, Carnegie Mellon
 University), and the Gaussian 82(TM) system (copyright 1983,
 Carnegie Mellon University). Gaussian is a federally registered
 trademark of Gaussian, Inc.
  
 This software contains proprietary and confidential information,
 including trade secrets, belonging to Gaussian, Inc.
  
 This software is provided under written license and may be
 used, copied, transmitted, or stored only in accord with that
 written license.
  
 The following legend is applicable only to US Government
 contracts under FAR:
  
                    RESTRICTED RIGHTS LEGEND
  
 Use, reproduction and disclosure by the US Government is
 subject to restrictions as set forth in subparagraphs (a)
 and (c) of the Commercial Computer Software - Restricted
 Rights clause in FAR 52.227-19.
  
 Gaussian, Inc.
 340 Quinnipiac St., Bldg. 40, Wallingford CT 06492
  
  
 ---------------------------------------------------------------
 Warning -- This program may not be used in any manner that
 competes with the business of Gaussian, Inc. or will provide
 assistance to any competitor of Gaussian, Inc.  The licensee
 of this program is prohibited from giving any competitor of
 Gaussian, Inc. access to this program.  By using this program,
 the user acknowledges that Gaussian, Inc. is engaged in the
 business of creating and licensing software in the field of
 computational chemistry and represents and warrants to the
 licensee that it is not a competitor of Gaussian, Inc. and that
 it will not use this program in any manner prohibited above.
 ---------------------------------------------------------------
  

 Cite this work as:
 Gaussian 16, Revision A.03,
 M. J. Frisch, G. W. Trucks, H. B. Schlegel, G. E. Scuseria, 
 M. A. Robb, J. R. Cheeseman, G. Scalmani, V. Barone, 
 G. A. Petersson, H. Nakatsuji, X. Li, M. Caricato, A. V. Marenich, 
 J. Bloino, B. G. Janesko, R. Gomperts, B. Mennucci, H. P. Hratchian, 
 J. V. Ortiz, A. F. Izmaylov, J. L. Sonnenberg, D. Williams-Young, 
 F. Ding, F. Lipparini, F. Egidi, J. Goings, B. Peng, A. Petrone, 
 T. Henderson, D. Ranasinghe, V. G. Zakrzewski, J. Gao, N. Rega, 
 G. Zheng, W. Liang, M. Hada, M. Ehara, K. Toyota, R. Fukuda, 
 J. Hasegawa, M. Ishida, T. Nakajima, Y. Honda, O. Kitao, H. Nakai, 
 T. Vreven, K. Throssell, J. A. Montgomery, Jr., J. E. Peralta, 
 F. Ogliaro, M. J. Bearpark, J. J. Heyd, E. N. Brothers, K. N. Kudin, 
 V. N. Staroverov, T. A. Keith, R. Kobayashi, J. Normand, 
 K. Raghavachari, A. P. Rendell, J. C. Burant, S. S. Iyengar, 
 J. Tomasi, M. Cossi, J. M. Millam, M. Klene, C. Adamo, R. Cammi, 
 J. W. Ochterski, R. L. Martin, K. Morokuma, O. Farkas, 
 J. B. Foresman, and D. J. Fox, Gaussian, Inc., Wallingford CT, 2016.
 
 ******************************************
 Gaussian 16:  ES64L-G16RevA.03 25-Dec-2016
                12-Jul-2021 
 ******************************************
 %mem=800MB
 %nproc=4
 Will use up to    4 processors via shared memory.
 %chk=SET_328_BBB87_conf1.geo_285_285.chk
 ---------------------------------------------------------------
 #p b3lyp/6-31G(d) opt freq scrf=(iefpcm,read,solvent=n-octanol)
 ---------------------------------------------------------------
 1/18=20,19=15,26=3,38=1,40=2/1,3;
 2/9=110,12=2,17=6,18=5,40=1/2;
 3/5=1,6=6,7=1,11=2,25=1,30=1,70=2203,71=1,72=25,74=-5/1,2,3;
 4//1;
 5/5=2,38=5,53=25/2;
 6/7=2,8=2,9=2,10=2,28=1/1;
 7//1,2,3,16;
 1/18=20,19=15,26=3/3(2);
 2/9=110/2;
 99//99;
 2/9=110/2;
 3/5=1,6=6,7=1,11=2,25=1,30=1,70=2205,71=1,72=25,74=-5/1,2,3;
 4/5=5,16=3,69=1/1;
 5/5=2,38=5,53=25/2;
 7//1,2,3,16;
 1/18=20,19=15,26=3/3(-5);
 2/9=110/2;
 6/7=2,8=2,9=2,10=2,19=2,28=1/1;
 99/9=1/99;
 Leave Link    1 at Mon Jul 12 12:51:27 2021, MaxMem=   104857600 cpu:               0.0 elap:               0.0
 (Enter /dades/curu/g16A03_MST/g16/l101.exe)
 ----------------------------------------
 SET_328_BBB87_conf1.geo_285_285 geometry
 ----------------------------------------
 Symbolic Z-matrix:
 Charge =  1 Multiplicity = 1
 N                    -0.353     2.034     1.243 
 H                    -1.09      2.705     1.324 
 H                     0.054     2.093     0.331 
 C                    -0.892     0.693     1.449 
 H                    -1.703     0.464     0.752 
 H                    -1.298     0.643     2.463 
 C                     0.115    -0.417     1.329 
 H                    -0.352    -1.258     1.846 
 H                     1.01     -0.154     1.898 
 C                     0.435    -0.657    -0.091 
 N                    -0.422    -1.297    -0.88 
 C                     0.066    -1.349    -2.219 
 H                    -0.441    -1.913    -2.991 
 C                     1.289    -0.703    -2.346 
 H                     2.053    -0.747    -3.112 
 S                     1.716     0.147    -0.957 
 H                     0.346     2.222     1.933 
 
 ITRead=  0  0  0  0  0  0  0  0  0  0  0  0  0  0  0  0  0
 MicOpt= -1 -1 -1 -1 -1 -1 -1 -1 -1 -1 -1 -1 -1 -1 -1 -1 -1
 NAtoms=     17 NQM=       17 NQMF=       0 NMMI=      0 NMMIF=      0
                NMic=       0 NMicF=      0.
                    Isotopes and Nuclear Properties:
 (Nuclear quadrupole moments (NQMom) in fm**2, nuclear magnetic moments (NMagM)
  in nuclear magnetons)

  Atom         1           2           3           4           5           6           7           8           9          10
 IAtWgt=          14           1           1          12           1           1          12           1           1          12
 AtmWgt=  14.0030740   1.0078250   1.0078250  12.0000000   1.0078250   1.0078250  12.0000000   1.0078250   1.0078250  12.0000000
 NucSpn=           2           1           1           0           1           1           0           1           1           0
 AtZEff=  -0.0000000  -0.0000000  -0.0000000  -0.0000000  -0.0000000  -0.0000000  -0.0000000  -0.0000000  -0.0000000  -0.0000000
 NQMom=    2.0440000   0.0000000   0.0000000   0.0000000   0.0000000   0.0000000   0.0000000   0.0000000   0.0000000   0.0000000
 NMagM=    0.4037610   2.7928460   2.7928460   0.0000000   2.7928460   2.7928460   0.0000000   2.7928460   2.7928460   0.0000000
 AtZNuc=   7.0000000   1.0000000   1.0000000   6.0000000   1.0000000   1.0000000   6.0000000   1.0000000   1.0000000   6.0000000

  Atom        11          12          13          14          15          16          17
 IAtWgt=          14          12           1          12           1          32           1
 AtmWgt=  14.0030740  12.0000000   1.0078250  12.0000000   1.0078250  31.9720718   1.0078250
 NucSpn=           2           0           1           0           1           0           1
 AtZEff=  -0.0000000  -0.0000000  -0.0000000  -0.0000000  -0.0000000  -0.0000000  -0.0000000
 NQMom=    2.0440000   0.0000000   0.0000000   0.0000000   0.0000000   0.0000000   0.0000000
 NMagM=    0.4037610   0.0000000   2.7928460   0.0000000   2.7928460   0.0000000   2.7928460
 AtZNuc=   7.0000000   6.0000000   1.0000000   6.0000000   1.0000000  16.0000000   1.0000000
 Leave Link  101 at Mon Jul 12 12:51:27 2021, MaxMem=   104857600 cpu:               0.1 elap:               0.2
 (Enter /dades/curu/g16A03_MST/g16/l103.exe)

 GradGradGradGradGradGradGradGradGradGradGradGradGradGradGradGradGradGrad
 Berny optimization.
 Initialization pass.
                           ----------------------------
                           !    Initial Parameters    !
                           ! (Angstroms and Degrees)  !
 --------------------------                            --------------------------
 ! Name  Definition              Value          Derivative Info.                !
 --------------------------------------------------------------------------------
 ! R1    R(1,2)                  1.0            estimate D2E/DX2                !
 ! R2    R(1,3)                  1.0004         estimate D2E/DX2                !
 ! R3    R(1,4)                  1.4599         estimate D2E/DX2                !
 ! R4    R(1,17)                 1.0            estimate D2E/DX2                !
 ! R5    R(4,5)                  1.0936         estimate D2E/DX2                !
 ! R6    R(4,6)                  1.0934         estimate D2E/DX2                !
 ! R7    R(4,7)                  1.5035         estimate D2E/DX2                !
 ! R8    R(7,8)                  1.0921         estimate D2E/DX2                !
 ! R9    R(7,9)                  1.0927         estimate D2E/DX2                !
 ! R10   R(7,10)                 1.4753         estimate D2E/DX2                !
 ! R11   R(10,11)                1.3291         estimate D2E/DX2                !
 ! R12   R(10,16)                1.7428         estimate D2E/DX2                !
 ! R13   R(11,12)                1.4261         estimate D2E/DX2                !
 ! R14   R(12,13)                1.0822         estimate D2E/DX2                !
 ! R15   R(12,14)                1.3889         estimate D2E/DX2                !
 ! R16   R(14,15)                1.0828         estimate D2E/DX2                !
 ! R17   R(14,16)                1.6835         estimate D2E/DX2                !
 ! A1    A(2,1,3)              109.5179         estimate D2E/DX2                !
 ! A2    A(2,1,4)              109.4406         estimate D2E/DX2                !
 ! A3    A(2,1,17)             109.4584         estimate D2E/DX2                !
 ! A4    A(3,1,4)              109.4515         estimate D2E/DX2                !
 ! A5    A(3,1,17)             109.4839         estimate D2E/DX2                !
 ! A6    A(4,1,17)             109.4751         estimate D2E/DX2                !
 ! A7    A(1,4,5)              112.0994         estimate D2E/DX2                !
 ! A8    A(1,4,6)              108.0568         estimate D2E/DX2                !
 ! A9    A(1,4,7)              114.8099         estimate D2E/DX2                !
 ! A10   A(5,4,6)              107.8255         estimate D2E/DX2                !
 ! A11   A(5,4,7)              106.9313         estimate D2E/DX2                !
 ! A12   A(6,4,7)              106.7952         estimate D2E/DX2                !
 ! A13   A(4,7,8)              104.1429         estimate D2E/DX2                !
 ! A14   A(4,7,9)              109.2285         estimate D2E/DX2                !
 ! A15   A(4,7,10)             110.0114         estimate D2E/DX2                !
 ! A16   A(8,7,9)              106.8036         estimate D2E/DX2                !
 ! A17   A(8,7,10)             115.0334         estimate D2E/DX2                !
 ! A18   A(9,7,10)             111.2672         estimate D2E/DX2                !
 ! A19   A(7,10,11)            120.6546         estimate D2E/DX2                !
 ! A20   A(7,10,16)            124.2409         estimate D2E/DX2                !
 ! A21   A(11,10,16)           113.6469         estimate D2E/DX2                !
 ! A22   A(10,11,12)           110.7496         estimate D2E/DX2                !
 ! A23   A(11,12,13)           121.9033         estimate D2E/DX2                !
 ! A24   A(11,12,14)           111.7279         estimate D2E/DX2                !
 ! A25   A(13,12,14)           126.1349         estimate D2E/DX2                !
 ! A26   A(12,14,15)           131.8422         estimate D2E/DX2                !
 ! A27   A(12,14,16)           112.5025         estimate D2E/DX2                !
 ! A28   A(15,14,16)           115.166          estimate D2E/DX2                !
 ! A29   A(10,16,14)            89.4627         estimate D2E/DX2                !
 ! D1    D(2,1,4,5)             56.7039         estimate D2E/DX2                !
 ! D2    D(2,1,4,6)            -61.9739         estimate D2E/DX2                !
 ! D3    D(2,1,4,7)            178.9788         estimate D2E/DX2                !
 ! D4    D(3,1,4,5)            -63.3224         estimate D2E/DX2                !
 ! D5    D(3,1,4,6)            177.9998         estimate D2E/DX2                !
 ! D6    D(3,1,4,7)             58.9525         estimate D2E/DX2                !
 ! D7    D(17,1,4,5)           176.6718         estimate D2E/DX2                !
 ! D8    D(17,1,4,6)            57.994          estimate D2E/DX2                !
 ! D9    D(17,1,4,7)           -61.0533         estimate D2E/DX2                !
 ! D10   D(1,4,7,8)            160.4661         estimate D2E/DX2                !
 ! D11   D(1,4,7,9)             46.6607         estimate D2E/DX2                !
 ! D12   D(1,4,7,10)           -75.7417         estimate D2E/DX2                !
 ! D13   D(5,4,7,8)            -74.5062         estimate D2E/DX2                !
 ! D14   D(5,4,7,9)            171.6884         estimate D2E/DX2                !
 ! D15   D(5,4,7,10)            49.286          estimate D2E/DX2                !
 ! D16   D(6,4,7,8)             40.716          estimate D2E/DX2                !
 ! D17   D(6,4,7,9)            -73.0894         estimate D2E/DX2                !
 ! D18   D(6,4,7,10)           164.5082         estimate D2E/DX2                !
 ! D19   D(4,7,10,11)          -75.4213         estimate D2E/DX2                !
 ! D20   D(4,7,10,16)           89.9128         estimate D2E/DX2                !
 ! D21   D(8,7,10,11)           41.778          estimate D2E/DX2                !
 ! D22   D(8,7,10,16)         -152.8878         estimate D2E/DX2                !
 ! D23   D(9,7,10,11)          163.3895         estimate D2E/DX2                !
 ! D24   D(9,7,10,16)          -31.2764         estimate D2E/DX2                !
 ! D25   D(7,10,11,12)         176.8876         estimate D2E/DX2                !
 ! D26   D(16,10,11,12)         10.0955         estimate D2E/DX2                !
 ! D27   D(7,10,16,14)        -179.1989         estimate D2E/DX2                !
 ! D28   D(11,10,16,14)        -12.9536         estimate D2E/DX2                !
 ! D29   D(10,11,12,13)        173.8248         estimate D2E/DX2                !
 ! D30   D(10,11,12,14)         -0.9388         estimate D2E/DX2                !
 ! D31   D(11,12,14,15)        162.5524         estimate D2E/DX2                !
 ! D32   D(11,12,14,16)         -8.8621         estimate D2E/DX2                !
 ! D33   D(13,12,14,15)        -11.9425         estimate D2E/DX2                !
 ! D34   D(13,12,14,16)        176.6429         estimate D2E/DX2                !
 ! D35   D(12,14,16,10)         12.005          estimate D2E/DX2                !
 ! D36   D(15,14,16,10)       -160.9368         estimate D2E/DX2                !
 --------------------------------------------------------------------------------
 Trust Radius=3.00D-01 FncErr=1.00D-07 GrdErr=1.00D-06 EigMax=2.50D+02 EigMin=1.00D-04
 Number of steps in this run=     92 maximum allowed number of steps=    102.
 GradGradGradGradGradGradGradGradGradGradGradGradGradGradGradGradGradGrad

 Leave Link  103 at Mon Jul 12 12:51:27 2021, MaxMem=   104857600 cpu:               0.0 elap:               0.0
 (Enter /dades/curu/g16A03_MST/g16/l202.exe)
                          Input orientation:                          
 ---------------------------------------------------------------------
 Center     Atomic      Atomic             Coordinates (Angstroms)
 Number     Number       Type             X           Y           Z
 ---------------------------------------------------------------------
      1          7           0       -0.353000    2.034000    1.243000
      2          1           0       -1.090000    2.705000    1.324000
      3          1           0        0.054000    2.093000    0.331000
      4          6           0       -0.892000    0.693000    1.449000
      5          1           0       -1.703000    0.464000    0.752000
      6          1           0       -1.298000    0.643000    2.463000
      7          6           0        0.115000   -0.417000    1.329000
      8          1           0       -0.352000   -1.258000    1.846000
      9          1           0        1.010000   -0.154000    1.898000
     10          6           0        0.435000   -0.657000   -0.091000
     11          7           0       -0.422000   -1.297000   -0.880000
     12          6           0        0.066000   -1.349000   -2.219000
     13          1           0       -0.441000   -1.913000   -2.991000
     14          6           0        1.289000   -0.703000   -2.346000
     15          1           0        2.053000   -0.747000   -3.112000
     16         16           0        1.716000    0.147000   -0.957000
     17          1           0        0.346000    2.222000    1.933000
 ---------------------------------------------------------------------
                    Distance matrix (angstroms):
                    1          2          3          4          5
     1  N    0.000000
     2  H    0.999985   0.000000
     3  H    1.000437   1.633808   0.000000
     4  C    1.459876   2.025580   2.026040   0.000000
     5  H    2.128023   2.392704   2.432680   1.093605   0.000000
     6  H    2.077572   2.364832   2.911328   1.093404   1.767367
     7  C    2.496762   3.346481   2.701819   1.503512   2.101003
     8  H    3.346771   4.064787   3.699900   2.062913   2.446900
     9  H    2.659725   3.593516   2.901454   2.129933   3.009254
    10  C    3.105154   3.953593   2.808157   2.440293   2.557017
    11  N    3.950627   4.617342   3.631143   3.099232   2.721306
    12  C    4.858569   5.506732   4.283691   4.306013   3.904250
    13  H    5.789068   6.353452   5.227690   5.168001   4.610078
    14  C    4.802942   5.544637   4.063148   4.594301   4.462237
    15  H    5.699897   6.439942   4.890383   5.616880   5.523093
    16  S    3.561114   4.429443   2.864979   3.590072   3.835457
    17  H    1.000022   1.632870   1.633496   2.026016   2.946816
                    6          7          8          9         10
     6  H    0.000000
     7  C    2.099077   0.000000
     8  H    2.211200   1.092089   0.000000
     9  H    2.506252   1.092682   1.754014   0.000000
    10  C    3.349060   1.475263   2.175440   2.130670   0.000000
    11  N    3.963158   2.437714   2.727177   3.327816   1.329124
    12  C    5.267797   3.668696   4.087448   4.389630   2.267909
    13  H    6.083889   4.605383   4.881958   5.394609   3.279468
    14  C    5.624124   3.868552   4.535832   4.288447   2.411733
    15  H    6.651460   4.856668   5.534158   5.151660   3.428187
    16  S    4.585478   2.847296   3.755990   2.956360   1.742795
    17  H    2.340273   2.717075   3.550376   2.467285   3.520389
                   11         12         13         14         15
    11  N    0.000000
    12  C    1.426103   0.000000
    13  H    2.199122   1.082187   0.000000
    14  C    2.330132   1.388947   2.207493   0.000000
    15  H    3.377862   2.260093   2.755764   1.082769   0.000000
    16  S    2.581106   2.559914   3.610181   1.683493   2.357293
    17  H    4.570137   5.483570   6.477914   5.268274   6.097609
                   16         17
    16  S    0.000000
    17  H    3.812430   0.000000
 Stoichiometry    C5H9N2S(1+)
 Framework group  C1[X(C5H9N2S)]
 Deg. of freedom    45
 Full point group                 C1      NOp   1
 Largest Abelian subgroup         C1      NOp   1
 Largest concise Abelian subgroup C1      NOp   1
                         Standard orientation:                         
 ---------------------------------------------------------------------
 Center     Atomic      Atomic             Coordinates (Angstroms)
 Number     Number       Type             X           Y           Z
 ---------------------------------------------------------------------
      1          7           0        2.475554   -0.741738   -0.719903
      2          1           0        3.109812   -0.660312   -1.488706
      3          1           0        1.623741   -1.163119   -1.032517
      4          6           0        2.192361    0.585147   -0.181002
      5          1           0        1.794012    1.261910   -0.942107
      6          1           0        3.130971    1.009348    0.185874
      7          6           0        1.226804    0.605187    0.971320
      8          1           0        1.408257    1.567467    1.454797
      9          1           0        1.508607   -0.167748    1.690426
     10          6           0       -0.149557    0.402983    0.480256
     11          7           0       -0.801369    1.385484   -0.133262
     12          6           0       -2.080237    0.940878   -0.581136
     13          1           0       -2.801537    1.619938   -1.016721
     14          6           0       -2.294586   -0.397474   -0.277753
     15          1           0       -3.198108   -0.992605   -0.234683
     16         16           0       -0.909421   -1.155706    0.305817
     17          1           0        2.886983   -1.310135   -0.007375
 ---------------------------------------------------------------------
 Rotational constants (GHZ):           3.3067009           1.2375079           1.0512846
 Leave Link  202 at Mon Jul 12 12:51:28 2021, MaxMem=   104857600 cpu:               0.1 elap:               0.1
 (Enter /dades/curu/g16A03_MST/g16/l301.exe)
 Standard basis: 6-31G(d) (6D, 7F)
 Ernie: Thresh=  0.10000D-02 Tol=  0.10000D-05 Strict=F.
 There are   142 symmetry adapted cartesian basis functions of A   symmetry.
 There are   142 symmetry adapted basis functions of A   symmetry.
   142 basis functions,   284 primitive gaussians,   142 cartesian basis functions
    34 alpha electrons       34 beta electrons
       nuclear repulsion energy       451.2497446138 Hartrees.
 IExCor=  402 DFT=T Ex+Corr=B3LYP ExCW=0 ScaHFX=  0.200000
 ScaDFX=  0.800000  0.720000  1.000000  0.810000 ScalE2=  1.000000  1.000000
 IRadAn=      5 IRanWt=     -1 IRanGd=            0 ICorTp=0 IEmpDi=  4
 NAtoms=   17 NActive=   17 NUniq=   17 SFac= 1.00D+00 NAtFMM=   60 NAOKFM=F Big=F
 Integral buffers will be    131072 words long.
 Raffenetti 2 integral format.
 Two-electron integral symmetry is turned on.
 Using the following non-standard input for PCM:
 MSTModel=DFT cav MSTCharged
 --- end of non-standard input.
 MST model for solvation energy: B3LYP parametrization.
 MST cavity parameters:
 ISph   IAn     Re0     Alpha   Atom Type   QCorr
 ------------------------------------------------
   1      7     1.50     1.15      NH+        T
   2      1     0.90     1.15      NH+        T
   3      1     0.90     1.15      NH+        T
   4      6     1.50     1.50      CN+        F
   5      1     1.20     1.50      CN+        F
   6      1     1.20     1.50      CN+        F
   7      6     1.50     1.50      CH2        F
   8      1     1.20     1.50      CH2        F
   9      1     1.20     1.50      CH2        F
  10      6     1.50     1.50      C          F
  11      7     1.50     1.50      Nc         F
  12      6     1.50     1.50      CH         F
  13      1     1.20     1.50      CH         F
  14      6     1.50     1.50      CH         F
  15      1     1.20     1.50      CH         F
  16     16     1.75     1.50      S          F
  17      1     0.90     1.15      NH+        T
 ------------------------------------------------------------------------------
 Polarizable Continuum Model (PCM)
 =================================
 Model                : PCM.
 Atomic radii         : MST.
 Polarization charges : Total charges.
 Charge compensation  : None.
 Solution method      : On-the-fly selection.
 Cavity type          : Scaled VdW (van der Waals Surface) (Alpha=1.500).
 Cavity algorithm     : GePol (No added spheres)
                        Default sphere list used, NSphG=   17.
                        Lebedev-Laikov grids with approx.  5.0 points / Ang**2.
                        Smoothing algorithm: York/Karplus (Gamma=1.0000).
                        Polarization charges: spherical gaussians, with
                                              point-specific exponents (IZeta= 3).
                        Self-potential: point-specific (ISelfS= 7).
                        Self-field    : sphere-specific E.n sum rule (ISelfD= 2).
 1st derivatives      : Analytical E(r).r(x)/FMM algorithm (CHGder, D1EAlg=3).
                        Cavity 1st derivative terms included.
 Solvent              : n-Octanol, Eps=   9.862900 Eps(inf)=   2.043470
 ------------------------------------------------------------------------------
 Spheres list:
 ISph  on   Nord     Re0    Alpha      Xe            Ye            Ze
    1   N      1    1.5000  1.150      2.475554     -0.741738     -0.719903
    2   H      2    0.9000  1.150      3.109812     -0.660312     -1.488706
    3   H      3    0.9000  1.150      1.623741     -1.163119     -1.032517
    4   C      4    1.5000  1.500      2.192361      0.585147     -0.181002
    5   H      5    1.2000  1.500      1.794012      1.261910     -0.942107
    6   H      6    1.2000  1.500      3.130971      1.009348      0.185874
    7   C      7    1.5000  1.500      1.226804      0.605187      0.971320
    8   H      8    1.2000  1.500      1.408257      1.567467      1.454797
    9   H      9    1.2000  1.500      1.508607     -0.167748      1.690426
   10   C     10    1.5000  1.500     -0.149557      0.402983      0.480256
   11   N     11    1.5000  1.500     -0.801369      1.385484     -0.133262
   12   C     12    1.5000  1.500     -2.080237      0.940878     -0.581136
   13   H     13    1.2000  1.500     -2.801537      1.619938     -1.016721
   14   C     14    1.5000  1.500     -2.294586     -0.397474     -0.277753
   15   H     15    1.2000  1.500     -3.198108     -0.992605     -0.234683
   16   S     16    1.7500  1.500     -0.909421     -1.155706      0.305817
   17   H     17    0.9000  1.150      2.886983     -1.310135     -0.007375
 ------------------------------------------------------------------------------
 GePol: Number of generator spheres                  =      17
 GePol: Total number of spheres                      =      17
 GePol: Number of exposed spheres                    =      17 (100.00%)
 GePol: Number of points                             =    1715
 GePol: Average weight of points                     =       0.12
 GePol: Minimum weight of points                     =   0.96D-11
 GePol: Maximum weight of points                     =    0.22065
 GePol: Number of points with low weight             =     103
 GePol: Fraction of low-weight points (<1% of avg)   =       6.01%
 GePol: Cavity surface area                          =    199.181 Ang**2
 GePol: Cavity volume                                =    212.261 Ang**3
 Surface areas from nonelectrostatic (unscaled) cavity and vdw tensions:
 Sphere =    1 Type =  NH+ Surf =       12.561 Tension =       -0.274
 Sphere =    2 Type =  NH+ Surf =        3.856 Tension =       -0.274
 Sphere =    3 Type =  NH+ Surf =        3.861 Tension =       -0.274
 Sphere =    4 Type =  CN+ Surf =        3.623 Tension =       -0.227
 Sphere =    5 Type =  CN+ Surf =        9.815 Tension =       -0.227
 Sphere =    6 Type =  CN+ Surf =        9.865 Tension =       -0.227
 Sphere =    7 Type =  CH2 Surf =        3.693 Tension =       -0.194
 Sphere =    8 Type =  CH2 Surf =        9.875 Tension =       -0.194
 Sphere =    9 Type =  CH2 Surf =        9.988 Tension =       -0.194
 Sphere =   10 Type =  C   Surf =        5.371 Tension =       -0.205
 Sphere =   11 Type =  Nc  Surf =       13.179 Tension =       -0.161
 Sphere =   12 Type =  CH  Surf =        8.142 Tension =       -0.195
 Sphere =   13 Type =  CH  Surf =       10.272 Tension =       -0.195
 Sphere =   14 Type =  CH  Surf =        7.487 Tension =       -0.195
 Sphere =   15 Type =  CH  Surf =       10.153 Tension =       -0.195
 Sphere =   16 Type =  S   Surf =       24.136 Tension =       -0.186
 Sphere =   17 Type =  NH+ Surf =        3.856 Tension =       -0.274
 PCM non-electrostatic energy =        -0.0109538797 Hartrees.
 Nuclear repulsion after PCM non-electrostatic terms =      451.2387907341 Hartrees.
 Leave Link  301 at Mon Jul 12 12:51:28 2021, MaxMem=   104857600 cpu:               0.1 elap:               0.2
 (Enter /dades/curu/g16A03_MST/g16/l302.exe)
 NPDir=0 NMtPBC=     1 NCelOv=     1 NCel=       1 NClECP=     1 NCelD=      1
         NCelK=      1 NCelE2=     1 NClLst=     1 CellRange=     0.0.
 One-electron integrals computed using PRISM.
 One-electron integral symmetry used in STVInt
 NBasis=   142 RedAO= T EigKep=  2.45D-03  NBF=   142
 NBsUse=   142 1.00D-06 EigRej= -1.00D+00 NBFU=   142
 Precomputing XC quadrature grid using
 IXCGrd= 4 IRadAn=           5 IRanWt=          -1 IRanGd=           0 AccXCQ= 0.00D+00.
 Generated NRdTot=       0 NPtTot=           0 NUsed=           0 NTot=          32
 NSgBfM=   142   142   142   142   142 MxSgAt=    17 MxSgA2=    17.
 Leave Link  302 at Mon Jul 12 12:51:29 2021, MaxMem=   104857600 cpu:               1.4 elap:               0.7
 (Enter /dades/curu/g16A03_MST/g16/l303.exe)
 DipDrv:  MaxL=1.
 Leave Link  303 at Mon Jul 12 12:51:29 2021, MaxMem=   104857600 cpu:               0.1 elap:               0.3
 (Enter /dades/curu/g16A03_MST/g16/l401.exe)
 ExpMin= 1.17D-01 ExpMax= 2.19D+04 ExpMxC= 3.30D+03 IAcc=3 IRadAn=         5 AccDes= 0.00D+00
 Harris functional with IExCor=  402 and IRadAn=       5 diagonalized for initial guess.
 HarFok:  IExCor=  402 AccDes= 0.00D+00 IRadAn=         5 IDoV= 1 UseB2=F ITyADJ=14
 ICtDFT=  3500011 ScaDFX=  1.000000  1.000000  1.000000  1.000000
 FoFCou: FMM=F IPFlag=           0 FMFlag=      100000 FMFlg1=           0
         NFxFlg=           0 DoJE=T BraDBF=F KetDBF=T FulRan=T
         wScrn=  0.000000 ICntrl=       500 IOpCl=  0 I1Cent=   200000004 NGrid=           0
         NMat0=    1 NMatS0=      1 NMatT0=    0 NMatD0=    1 NMtDS0=    0 NMtDT0=    0
 Petite list used in FoFCou.
 Harris En= -703.372567156643    
 JPrj=0 DoOrth=F DoCkMO=F.
 Leave Link  401 at Mon Jul 12 12:51:31 2021, MaxMem=   104857600 cpu:               7.3 elap:               2.0
 (Enter /dades/curu/g16A03_MST/g16/l502.exe)
 Keep R1 ints in memory in canonical form, NReq=55416097.
 FoFCou: FMM=F IPFlag=           0 FMFlag=           0 FMFlg1=           0
         NFxFlg=           0 DoJE=F BraDBF=F KetDBF=F FulRan=T
         wScrn=  0.000000 ICntrl=       600 IOpCl=  0 I1Cent=           0 NGrid=           0
         NMat0=    1 NMatS0=  10153 NMatT0=    0 NMatD0=    1 NMtDS0=    0 NMtDT0=    0
 Symmetry not used in FoFCou.
 Two-electron integral symmetry not used.
 Closed shell SCF:
 Using DIIS extrapolation, IDIIS=  1040.
 NGot=   104857600 LenX=    53267895 LenY=    53247290
 Requested convergence on RMS density matrix=1.00D-08 within 128 cycles.
 Requested convergence on MAX density matrix=1.00D-06.
 Requested convergence on             energy=1.00D-06.
 No special actions if energy rises.

 Cycle   1  Pass 1  IDiag  1:
 Inv3:  Mode=1 IEnd=     8823675.
 Iteration    1 A*A^-1 deviation from unit magnitude is 6.22D-15 for    428.
 Iteration    1 A*A^-1 deviation from orthogonality  is 2.73D-15 for   1475    136.
 Iteration    1 A^-1*A deviation from unit magnitude is 6.44D-15 for    428.
 Iteration    1 A^-1*A deviation from orthogonality  is 2.31D-15 for   1183    856.
 E= -703.282445909053    
 DIIS: error= 2.11D-02 at cycle   1 NSaved=   1.
 NSaved= 1 IEnMin= 1 EnMin= -703.282445909053     IErMin= 1 ErrMin= 2.11D-02
 ErrMax= 2.11D-02  0.00D+00 EMaxC= 1.00D-01 BMatC= 1.92D-01 BMatP= 1.92D-01
 IDIUse=3 WtCom= 7.89D-01 WtEn= 2.11D-01
 Coeff-Com:  0.100D+01
 Coeff-En:   0.100D+01
 Coeff:      0.100D+01
 Gap=     0.239 Goal=   None    Shift=    0.000
 GapD=    0.239 DampG=1.000 DampE=0.500 DampFc=0.5000 IDamp=-1.
 Damping current iteration by 5.00D-01
 RMSDP=8.54D-03 MaxDP=2.27D-01              OVMax= 2.81D-01

 Cycle   2  Pass 1  IDiag  1:
 E= -703.341163345404     Delta-E=       -0.058717436351 Rises=F Damp=T
 DIIS: error= 9.27D-03 at cycle   2 NSaved=   2.
 NSaved= 2 IEnMin= 2 EnMin= -703.341163345404     IErMin= 2 ErrMin= 9.27D-03
 ErrMax= 9.27D-03  0.00D+00 EMaxC= 1.00D-01 BMatC= 2.46D-02 BMatP= 1.92D-01
 IDIUse=3 WtCom= 9.07D-01 WtEn= 9.27D-02
 Coeff-Com:  0.180D+00 0.820D+00
 Coeff-En:   0.331D+00 0.669D+00
 Coeff:      0.194D+00 0.806D+00
 Gap=     0.248 Goal=   None    Shift=    0.000
 RMSDP=2.68D-03 MaxDP=7.61D-02 DE=-5.87D-02 OVMax= 2.45D-01

 Cycle   3  Pass 1  IDiag  1:
 E= -703.461893495233     Delta-E=       -0.120730149829 Rises=F Damp=F
 DIIS: error= 9.31D-03 at cycle   3 NSaved=   3.
 NSaved= 3 IEnMin= 3 EnMin= -703.461893495233     IErMin= 2 ErrMin= 9.27D-03
 ErrMax= 9.31D-03  0.00D+00 EMaxC= 1.00D-01 BMatC= 2.10D-02 BMatP= 2.46D-02
 IDIUse=3 WtCom= 9.07D-01 WtEn= 9.31D-02
 Coeff-Com:  0.509D-01 0.473D+00 0.476D+00
 Coeff-En:   0.000D+00 0.000D+00 0.100D+01
 Coeff:      0.462D-01 0.429D+00 0.525D+00
 Gap=     0.208 Goal=   None    Shift=    0.000
 RMSDP=1.31D-03 MaxDP=4.25D-02 DE=-1.21D-01 OVMax= 7.18D-02

 Cycle   4  Pass 1  IDiag  1:
 E= -703.477829527699     Delta-E=       -0.015936032466 Rises=F Damp=F
 DIIS: error= 3.77D-03 at cycle   4 NSaved=   4.
 NSaved= 4 IEnMin= 4 EnMin= -703.477829527699     IErMin= 4 ErrMin= 3.77D-03
 ErrMax= 3.77D-03  0.00D+00 EMaxC= 1.00D-01 BMatC= 4.86D-03 BMatP= 2.10D-02
 IDIUse=3 WtCom= 9.62D-01 WtEn= 3.77D-02
 Coeff-Com: -0.716D-02 0.798D-01 0.332D+00 0.596D+00
 Coeff-En:   0.000D+00 0.000D+00 0.214D+00 0.786D+00
 Coeff:     -0.689D-02 0.768D-01 0.327D+00 0.603D+00
 Gap=     0.208 Goal=   None    Shift=    0.000
 RMSDP=4.67D-04 MaxDP=1.33D-02 DE=-1.59D-02 OVMax= 1.93D-02

 Cycle   5  Pass 1  IDiag  1:
 E= -703.482152554522     Delta-E=       -0.004323026823 Rises=F Damp=F
 DIIS: error= 5.15D-04 at cycle   5 NSaved=   5.
 NSaved= 5 IEnMin= 5 EnMin= -703.482152554522     IErMin= 5 ErrMin= 5.15D-04
 ErrMax= 5.15D-04  0.00D+00 EMaxC= 1.00D-01 BMatC= 1.25D-04 BMatP= 4.86D-03
 IDIUse=3 WtCom= 9.95D-01 WtEn= 5.15D-03
 Coeff-Com: -0.352D-02 0.854D-02 0.117D+00 0.270D+00 0.608D+00
 Coeff-En:   0.000D+00 0.000D+00 0.000D+00 0.000D+00 0.100D+01
 Coeff:     -0.351D-02 0.849D-02 0.117D+00 0.269D+00 0.610D+00
 Gap=     0.209 Goal=   None    Shift=    0.000
 RMSDP=1.09D-04 MaxDP=4.48D-03 DE=-4.32D-03 OVMax= 2.52D-03

 Cycle   6  Pass 1  IDiag  1:
 E= -703.482269065990     Delta-E=       -0.000116511468 Rises=F Damp=F
 DIIS: error= 1.33D-04 at cycle   6 NSaved=   6.
 NSaved= 6 IEnMin= 6 EnMin= -703.482269065990     IErMin= 6 ErrMin= 1.33D-04
 ErrMax= 1.33D-04  0.00D+00 EMaxC= 1.00D-01 BMatC= 1.04D-05 BMatP= 1.25D-04
 IDIUse=3 WtCom= 9.99D-01 WtEn= 1.33D-03
 Coeff-Com: -0.899D-03-0.201D-02 0.323D-01 0.857D-01 0.288D+00 0.597D+00
 Coeff-En:   0.000D+00 0.000D+00 0.000D+00 0.000D+00 0.000D+00 0.100D+01
 Coeff:     -0.898D-03-0.201D-02 0.323D-01 0.856D-01 0.288D+00 0.597D+00
 Gap=     0.209 Goal=   None    Shift=    0.000
 RMSDP=2.37D-05 MaxDP=6.55D-04 DE=-1.17D-04 OVMax= 8.49D-04

 Cycle   7  Pass 1  IDiag  1:
 E= -703.482278645262     Delta-E=       -0.000009579272 Rises=F Damp=F
 DIIS: error= 4.05D-05 at cycle   7 NSaved=   7.
 NSaved= 7 IEnMin= 7 EnMin= -703.482278645262     IErMin= 7 ErrMin= 4.05D-05
 ErrMax= 4.05D-05  0.00D+00 EMaxC= 1.00D-01 BMatC= 4.59D-07 BMatP= 1.04D-05
 IDIUse=1 WtCom= 1.00D+00 WtEn= 0.00D+00
 Coeff-Com: -0.627D-04-0.141D-02 0.577D-02 0.167D-01 0.666D-01 0.225D+00
 Coeff-Com:  0.687D+00
 Coeff:     -0.627D-04-0.141D-02 0.577D-02 0.167D-01 0.666D-01 0.225D+00
 Coeff:      0.687D+00
 Gap=     0.209 Goal=   None    Shift=    0.000
 RMSDP=8.51D-06 MaxDP=1.64D-04 DE=-9.58D-06 OVMax= 3.06D-04

 Cycle   8  Pass 1  IDiag  1:
 E= -703.482278966597     Delta-E=       -0.000000321335 Rises=F Damp=F
 DIIS: error= 2.65D-05 at cycle   8 NSaved=   8.
 NSaved= 8 IEnMin= 8 EnMin= -703.482278966597     IErMin= 8 ErrMin= 2.65D-05
 ErrMax= 2.65D-05  0.00D+00 EMaxC= 1.00D-01 BMatC= 1.67D-07 BMatP= 4.59D-07
 IDIUse=1 WtCom= 1.00D+00 WtEn= 0.00D+00
 Coeff-Com:  0.875D-04-0.679D-03-0.699D-04 0.229D-03 0.568D-02 0.657D-01
 Coeff-Com:  0.420D+00 0.509D+00
 Coeff:      0.875D-04-0.679D-03-0.699D-04 0.229D-03 0.568D-02 0.657D-01
 Coeff:      0.420D+00 0.509D+00
 Gap=     0.209 Goal=   None    Shift=    0.000
 RMSDP=3.73D-06 MaxDP=7.80D-05 DE=-3.21D-07 OVMax= 2.31D-04

 Cycle   9  Pass 1  IDiag  1:
 E= -703.482279138882     Delta-E=       -0.000000172286 Rises=F Damp=F
 DIIS: error= 8.11D-06 at cycle   9 NSaved=   9.
 NSaved= 9 IEnMin= 9 EnMin= -703.482279138882     IErMin= 9 ErrMin= 8.11D-06
 ErrMax= 8.11D-06  0.00D+00 EMaxC= 1.00D-01 BMatC= 1.28D-08 BMatP= 1.67D-07
 IDIUse=1 WtCom= 1.00D+00 WtEn= 0.00D+00
 Coeff-Com:  0.686D-04-0.214D-03-0.725D-03-0.201D-02-0.533D-02 0.844D-02
 Coeff-Com:  0.146D+00 0.274D+00 0.579D+00
 Coeff:      0.686D-04-0.214D-03-0.725D-03-0.201D-02-0.533D-02 0.844D-02
 Coeff:      0.146D+00 0.274D+00 0.579D+00
 Gap=     0.209 Goal=   None    Shift=    0.000
 RMSDP=1.18D-06 MaxDP=3.67D-05 DE=-1.72D-07 OVMax= 6.10D-05

 Cycle  10  Pass 1  IDiag  1:
 E= -703.482279152497     Delta-E=       -0.000000013614 Rises=F Damp=F
 DIIS: error= 1.51D-06 at cycle  10 NSaved=  10.
 NSaved=10 IEnMin=10 EnMin= -703.482279152497     IErMin=10 ErrMin= 1.51D-06
 ErrMax= 1.51D-06  0.00D+00 EMaxC= 1.00D-01 BMatC= 1.14D-09 BMatP= 1.28D-08
 IDIUse=1 WtCom= 1.00D+00 WtEn= 0.00D+00
 Coeff-Com:  0.276D-04-0.521D-04-0.324D-03-0.987D-03-0.310D-02-0.124D-02
 Coeff-Com:  0.389D-01 0.974D-01 0.301D+00 0.568D+00
 Coeff:      0.276D-04-0.521D-04-0.324D-03-0.987D-03-0.310D-02-0.124D-02
 Coeff:      0.389D-01 0.974D-01 0.301D+00 0.568D+00
 Gap=     0.209 Goal=   None    Shift=    0.000
 RMSDP=2.87D-07 MaxDP=9.51D-06 DE=-1.36D-08 OVMax= 2.24D-05

 Cycle  11  Pass 1  IDiag  1:
 E= -703.482279153561     Delta-E=       -0.000000001064 Rises=F Damp=F
 DIIS: error= 6.37D-07 at cycle  11 NSaved=  11.
 NSaved=11 IEnMin=11 EnMin= -703.482279153561     IErMin=11 ErrMin= 6.37D-07
 ErrMax= 6.37D-07  0.00D+00 EMaxC= 1.00D-01 BMatC= 1.52D-10 BMatP= 1.14D-09
 IDIUse=1 WtCom= 1.00D+00 WtEn= 0.00D+00
 Coeff-Com:  0.487D-05 0.578D-06-0.722D-04-0.257D-03-0.934D-03-0.210D-02
 Coeff-Com: -0.131D-02 0.119D-01 0.782D-01 0.308D+00 0.607D+00
 Coeff:      0.487D-05 0.578D-06-0.722D-04-0.257D-03-0.934D-03-0.210D-02
 Coeff:     -0.131D-02 0.119D-01 0.782D-01 0.308D+00 0.607D+00
 Gap=     0.209 Goal=   None    Shift=    0.000
 RMSDP=1.02D-07 MaxDP=3.32D-06 DE=-1.06D-09 OVMax= 6.01D-06

 Cycle  12  Pass 1  IDiag  1:
 E= -703.482279153698     Delta-E=       -0.000000000138 Rises=F Damp=F
 DIIS: error= 9.64D-08 at cycle  12 NSaved=  12.
 NSaved=12 IEnMin=12 EnMin= -703.482279153698     IErMin=12 ErrMin= 9.64D-08
 ErrMax= 9.64D-08  0.00D+00 EMaxC= 1.00D-01 BMatC= 5.09D-12 BMatP= 1.52D-10
 IDIUse=1 WtCom= 1.00D+00 WtEn= 0.00D+00
 Coeff-Com: -0.466D-06 0.460D-05 0.460D-05-0.466D-05-0.583D-04-0.617D-03
 Coeff-Com: -0.381D-02-0.378D-02 0.191D-02 0.637D-01 0.219D+00 0.723D+00
 Coeff:     -0.466D-06 0.460D-05 0.460D-05-0.466D-05-0.583D-04-0.617D-03
 Coeff:     -0.381D-02-0.378D-02 0.191D-02 0.637D-01 0.219D+00 0.723D+00
 Gap=     0.209 Goal=   None    Shift=    0.000
 RMSDP=2.24D-08 MaxDP=4.06D-07 DE=-1.38D-10 OVMax= 7.54D-07

 Cycle  13  Pass 1  IDiag  1:
 E= -703.482279153711     Delta-E=       -0.000000000013 Rises=F Damp=F
 DIIS: error= 1.96D-08 at cycle  13 NSaved=  13.
 NSaved=13 IEnMin=13 EnMin= -703.482279153711     IErMin=13 ErrMin= 1.96D-08
 ErrMax= 1.96D-08  0.00D+00 EMaxC= 1.00D-01 BMatC= 2.68D-13 BMatP= 5.09D-12
 IDIUse=1 WtCom= 1.00D+00 WtEn= 0.00D+00
 Coeff-Com: -0.398D-06 0.140D-05 0.608D-05 0.136D-04 0.296D-04-0.915D-04
 Coeff-Com: -0.125D-02-0.184D-02-0.370D-02 0.700D-02 0.468D-01 0.251D+00
 Coeff-Com:  0.702D+00
 Coeff:     -0.398D-06 0.140D-05 0.608D-05 0.136D-04 0.296D-04-0.915D-04
 Coeff:     -0.125D-02-0.184D-02-0.370D-02 0.700D-02 0.468D-01 0.251D+00
 Coeff:      0.702D+00
 Gap=     0.209 Goal=   None    Shift=    0.000
 RMSDP=5.26D-09 MaxDP=1.48D-07 DE=-1.32D-11 OVMax= 1.95D-07

 Error on total polarization charges =  0.00699
 SCF Done:  E(RB3LYP) =  -703.482279154     A.U. after   13 cycles
            NFock= 13  Conv=0.53D-08     -V/T= 2.0059
 KE= 6.993445841183D+02 PE=-2.544435473325D+03 EE= 6.903698193188D+02
 Leave Link  502 at Mon Jul 12 12:52:15 2021, MaxMem=   104857600 cpu:             164.2 elap:              43.4
 (Enter /dades/curu/g16A03_MST/g16/l601.exe)
 Copying SCF densities to generalized density rwf, IOpCl= 0 IROHF=0.

 **********************************************************************

            Population analysis using the SCF density.

 **********************************************************************

 Orbital symmetries:
       Occupied  (A) (A) (A) (A) (A) (A) (A) (A) (A) (A) (A) (A)
                 (A) (A) (A) (A) (A) (A) (A) (A) (A) (A) (A) (A)
                 (A) (A) (A) (A) (A) (A) (A) (A) (A) (A)
       Virtual   (A) (A) (A) (A) (A) (A) (A) (A) (A) (A) (A) (A)
                 (A) (A) (A) (A) (A) (A) (A) (A) (A) (A) (A) (A)
                 (A) (A) (A) (A) (A) (A) (A) (A) (A) (A) (A) (A)
                 (A) (A) (A) (A) (A) (A) (A) (A) (A) (A) (A) (A)
                 (A) (A) (A) (A) (A) (A) (A) (A) (A) (A) (A) (A)
                 (A) (A) (A) (A) (A) (A) (A) (A) (A) (A) (A) (A)
                 (A) (A) (A) (A) (A) (A) (A) (A) (A) (A) (A) (A)
                 (A) (A) (A) (A) (A) (A) (A) (A) (A) (A) (A) (A)
                 (A) (A) (A) (A) (A) (A) (A) (A) (A) (A) (A) (A)
 The electronic state is 1-A.
 Alpha  occ. eigenvalues --  -88.94031 -14.47062 -14.36263 -10.27814 -10.27366
 Alpha  occ. eigenvalues --  -10.24701 -10.23997 -10.23644  -8.00314  -5.96680
 Alpha  occ. eigenvalues --   -5.96323  -5.96044  -1.04111  -0.97524  -0.83862
 Alpha  occ. eigenvalues --   -0.82497  -0.75178  -0.68466  -0.62204  -0.61661
 Alpha  occ. eigenvalues --   -0.60301  -0.57361  -0.53370  -0.52282  -0.47434
 Alpha  occ. eigenvalues --   -0.46065  -0.44355  -0.40947  -0.40403  -0.40279
 Alpha  occ. eigenvalues --   -0.39292  -0.30627  -0.29545  -0.26227
 Alpha virt. eigenvalues --   -0.05359  -0.01579   0.02047   0.03915   0.07967
 Alpha virt. eigenvalues --    0.08820   0.10069   0.10745   0.11095   0.12106
 Alpha virt. eigenvalues --    0.13618   0.14693   0.15837   0.16656   0.19831
 Alpha virt. eigenvalues --    0.21715   0.22586   0.27777   0.29661   0.35079
 Alpha virt. eigenvalues --    0.37215   0.38782   0.40702   0.47305   0.47759
 Alpha virt. eigenvalues --    0.50226   0.51628   0.52776   0.53595   0.56277
 Alpha virt. eigenvalues --    0.57332   0.60768   0.62454   0.63740   0.66135
 Alpha virt. eigenvalues --    0.68306   0.69989   0.72577   0.73250   0.77440
 Alpha virt. eigenvalues --    0.79078   0.80893   0.82236   0.82455   0.83079
 Alpha virt. eigenvalues --    0.84115   0.85695   0.86330   0.86937   0.89223
 Alpha virt. eigenvalues --    0.92077   0.92815   0.93947   0.97529   0.98438
 Alpha virt. eigenvalues --    1.01811   1.02421   1.04614   1.10848   1.15679
 Alpha virt. eigenvalues --    1.25610   1.25741   1.31165   1.40683   1.42309
 Alpha virt. eigenvalues --    1.45552   1.49350   1.52719   1.59316   1.65185
 Alpha virt. eigenvalues --    1.66143   1.70661   1.79667   1.85654   1.86850
 Alpha virt. eigenvalues --    1.89695   1.92183   1.92220   1.97366   1.99405
 Alpha virt. eigenvalues --    2.07197   2.12469   2.13950   2.19928   2.24254
 Alpha virt. eigenvalues --    2.25017   2.25671   2.26655   2.31369   2.37980
 Alpha virt. eigenvalues --    2.41165   2.43256   2.47565   2.51715   2.59119
 Alpha virt. eigenvalues --    2.61201   2.65613   2.75113   2.91728   2.96840
 Alpha virt. eigenvalues --    3.76354   3.91006   3.94632   4.07299   4.17594
 Alpha virt. eigenvalues --    4.31409   4.36337   4.46230
          Condensed to atoms (all electrons):
               1          2          3          4          5          6
     1  N    6.663533   0.305638   0.292106   0.251342  -0.031489  -0.036452
     2  H    0.305638   0.257194  -0.009555  -0.017442  -0.002175  -0.002458
     3  H    0.292106  -0.009555   0.289555  -0.026136  -0.002755   0.004576
     4  C    0.251342  -0.017442  -0.026136   5.056466   0.378096   0.378179
     5  H   -0.031489  -0.002175  -0.002755   0.378096   0.487097  -0.024862
     6  H   -0.036452  -0.002458   0.004576   0.378179  -0.024862   0.507261
     7  C   -0.053237   0.003678  -0.004147   0.359795  -0.042947  -0.036144
     8  H    0.003980  -0.000104   0.000070  -0.033674  -0.000032  -0.005336
     9  H   -0.004369   0.000004  -0.000281  -0.041690   0.005327  -0.001753
    10  C   -0.003300  -0.000098   0.009277  -0.057169  -0.009369   0.006282
    11  N    0.000041  -0.000015   0.000039  -0.009754   0.011415   0.000125
    12  C    0.000040  -0.000001  -0.000160   0.000274  -0.000315   0.000003
    13  H    0.000000  -0.000000  -0.000000   0.000003   0.000001  -0.000000
    14  C   -0.000005   0.000000  -0.000431  -0.000035   0.000038   0.000002
    15  H   -0.000000   0.000000   0.000003   0.000002  -0.000001  -0.000000
    16  S   -0.000808   0.000106   0.013094  -0.005465   0.001545  -0.000191
    17  H    0.302722  -0.009002  -0.010940  -0.020023   0.003340  -0.003395
               7          8          9         10         11         12
     1  N   -0.053237   0.003980  -0.004369  -0.003300   0.000041   0.000040
     2  H    0.003678  -0.000104   0.000004  -0.000098  -0.000015  -0.000001
     3  H   -0.004147   0.000070  -0.000281   0.009277   0.000039  -0.000160
     4  C    0.359795  -0.033674  -0.041690  -0.057169  -0.009754   0.000274
     5  H   -0.042947  -0.000032   0.005327  -0.009369   0.011415  -0.000315
     6  H   -0.036144  -0.005336  -0.001753   0.006282   0.000125   0.000003
     7  C    5.137692   0.370476   0.370071   0.346264  -0.056054   0.006395
     8  H    0.370476   0.483436  -0.022644  -0.019996  -0.001147   0.000069
     9  H    0.370071  -0.022644   0.529876  -0.035276   0.003279  -0.000200
    10  C    0.346264  -0.019996  -0.035276   5.080997   0.450765  -0.079415
    11  N   -0.056054  -0.001147   0.003279   0.450765   6.808657   0.401720
    12  C    0.006395   0.000069  -0.000200  -0.079415   0.401720   4.790401
    13  H   -0.000198  -0.000003   0.000002   0.006096  -0.037625   0.374728
    14  C    0.003688  -0.000038   0.000085  -0.054135  -0.058445   0.567204
    15  H   -0.000086   0.000002  -0.000004   0.003115   0.003995  -0.012438
    16  S   -0.063563   0.003743   0.002727   0.280067  -0.091312  -0.087074
    17  H   -0.001127  -0.000022   0.004232  -0.000406   0.000007  -0.000001
              13         14         15         16         17
     1  N    0.000000  -0.000005  -0.000000  -0.000808   0.302722
     2  H   -0.000000   0.000000   0.000000   0.000106  -0.009002
     3  H   -0.000000  -0.000431   0.000003   0.013094  -0.010940
     4  C    0.000003  -0.000035   0.000002  -0.005465  -0.020023
     5  H    0.000001   0.000038  -0.000001   0.001545   0.003340
     6  H   -0.000000   0.000002  -0.000000  -0.000191  -0.003395
     7  C   -0.000198   0.003688  -0.000086  -0.063563  -0.001127
     8  H   -0.000003  -0.000038   0.000002   0.003743  -0.000022
     9  H    0.000002   0.000085  -0.000004   0.002727   0.004232
    10  C    0.006096  -0.054135   0.003115   0.280067  -0.000406
    11  N   -0.037625  -0.058445   0.003995  -0.091312   0.000007
    12  C    0.374728   0.567204  -0.012438  -0.087074  -0.000001
    13  H    0.517311  -0.048659  -0.000828   0.004594   0.000000
    14  C   -0.048659   5.261793   0.350344   0.327346  -0.000000
    15  H   -0.000828   0.350344   0.481206  -0.039095   0.000000
    16  S    0.004594   0.327346  -0.039095  15.388943   0.000279
    17  H    0.000000  -0.000000   0.000000   0.000279   0.268324
 Mulliken charges:
               1
     1  N   -0.689743
     2  H    0.474229
     3  H    0.445685
     4  C   -0.212769
     5  H    0.227087
     6  H    0.214162
     7  C   -0.340554
     8  H    0.221221
     9  H    0.190614
    10  C    0.076302
    11  N   -0.425691
    12  C    0.038771
    13  H    0.184576
    14  C   -0.348752
    15  H    0.213788
    16  S    0.265063
    17  H    0.466012
 Sum of Mulliken charges =   1.00000
 Mulliken charges with hydrogens summed into heavy atoms:
               1
     1  N    0.696184
     4  C    0.228480
     7  C    0.071280
    10  C    0.076302
    11  N   -0.425691
    12  C    0.223347
    14  C   -0.134964
    16  S    0.265063
 Electronic spatial extent (au):  <R**2>=           1152.6593
 Charge=              1.0000 electrons
 Dipole moment (field-independent basis, Debye):
    X=             10.5926    Y=             -4.3355    Z=             -2.6875  Tot=             11.7568
 Quadrupole moment (field-independent basis, Debye-Ang):
   XX=            -12.5650   YY=            -49.6543   ZZ=            -48.2146
   XY=             -6.3961   XZ=             -4.9870   YZ=              2.4944
 Traceless Quadrupole moment (field-independent basis, Debye-Ang):
   XX=             24.2463   YY=            -12.8430   ZZ=            -11.4033
   XY=             -6.3961   XZ=             -4.9870   YZ=              2.4944
 Octapole moment (field-independent basis, Debye-Ang**2):
  XXX=             83.5733  YYY=            -15.5607  ZZZ=             -8.8570  XYY=             15.9495
  XXY=            -23.9489  XXZ=            -27.8471  XZZ=             22.3086  YZZ=             -2.4254
  YYZ=             -3.8776  XYZ=              9.5472
 Hexadecapole moment (field-independent basis, Debye-Ang**3):
 XXXX=           -629.2775 YYYY=           -339.4917 ZZZZ=           -153.7618 XXXY=            -68.2974
 XXXZ=            -58.0074 YYYX=            -15.9600 YYYZ=              6.6274 ZZZX=            -28.4964
 ZZZY=              8.5235 XXYY=           -162.8865 XXZZ=           -152.2212 YYZZ=            -76.9779
 XXYZ=              9.1885 YYXZ=              1.4872 ZZXY=            -14.9839
 N-N= 4.512387907341D+02 E-N=-2.544435472199D+03  KE= 6.993445841183D+02
 No NMR shielding tensors so no spin-rotation constants.
 Leave Link  601 at Mon Jul 12 12:52:15 2021, MaxMem=   104857600 cpu:               0.5 elap:               0.2
 (Enter /dades/curu/g16A03_MST/g16/l701.exe)
 ... and contract with generalized density number  0.
 Compute integral first derivatives.
 D1PCM: PCM CHGder 1st derivatives, ID1Alg=3 FixD1E=F DoIter=F DoCFld=F I1PDM=0.
 GePol: Maximum number of non-zero 1st derivatives   =     310
 Leave Link  701 at Mon Jul 12 12:52:17 2021, MaxMem=   104857600 cpu:               5.7 elap:               1.5
 (Enter /dades/curu/g16A03_MST/g16/l702.exe)
 L702 exits ... SP integral derivatives will be done elsewhere.
 Leave Link  702 at Mon Jul 12 12:52:17 2021, MaxMem=   104857600 cpu:               0.1 elap:               0.0
 (Enter /dades/curu/g16A03_MST/g16/l703.exe)
 Integral derivatives from FoFJK, PRISM(SPDF).
 Compute integral first derivatives, UseDBF=F ICtDFT=           0.
 Calling FoFJK, ICntrl=      2127 FMM=F ISym2X=0 I1Cent= 0 IOpClX= 0 NMat=1 NMatS=1 NMatT=0.
 FoFJK:  IHMeth= 1 ICntrl=    2127 DoSepK=F KAlg= 0 I1Cent=           0 FoldK=F
 IRaf=         0 NMat=       1 IRICut=       1 DoRegI=T DoRafI=F ISym2E= 0 IDoP0=0 IntGTp=1.
 FoFCou: FMM=F IPFlag=           0 FMFlag=      100000 FMFlg1=         800
         NFxFlg=           0 DoJE=F BraDBF=F KetDBF=F FulRan=T
         wScrn=  0.000000 ICntrl=      2127 IOpCl=  0 I1Cent=           0 NGrid=           0
         NMat0=    1 NMatS0=      1 NMatT0=    0 NMatD0=    1 NMtDS0=    0 NMtDT0=    0
 Symmetry not used in FoFCou.
 Leave Link  703 at Mon Jul 12 12:52:23 2021, MaxMem=   104857600 cpu:              24.5 elap:               6.2
 (Enter /dades/curu/g16A03_MST/g16/l716.exe)
 Dipole        = 4.16745567D+00-1.70569893D+00-1.05734693D+00
 ***** Axes restored to original set *****
 -------------------------------------------------------------------
 Center     Atomic                   Forces (Hartrees/Bohr)
 Number     Number              X              Y              Z
 -------------------------------------------------------------------
      1        7          -0.008095827   -0.022281487   -0.001261130
      2        1          -0.014828015    0.023250967    0.000210621
      3        1           0.010512814    0.011488625   -0.021061149
      4        6          -0.027363210   -0.024358242    0.019712671
      5        1           0.000655302    0.010090505    0.000020743
      6        1          -0.002510082    0.007069887   -0.001150510
      7        6           0.012026508    0.010265620    0.012727873
      8        1           0.004020068   -0.007152062   -0.008841195
      9        1           0.003101121   -0.002608482    0.001682522
     10        6          -0.031524112   -0.011105047   -0.026770929
     11        7           0.023831961   -0.001413497   -0.019678636
     12        6           0.022471454    0.012206390    0.038290982
     13        1          -0.000627638   -0.000813878    0.003763575
     14        6          -0.017526146   -0.011533343   -0.026641434
     15        1          -0.009951748    0.002889052   -0.009829285
     16       16           0.017889543   -0.007543988    0.024109644
     17        1           0.017918006    0.011548982    0.014715638
 -------------------------------------------------------------------
 Cartesian Forces:  Max     0.038290982 RMS     0.015584673
 Leave Link  716 at Mon Jul 12 12:52:23 2021, MaxMem=   104857600 cpu:               0.1 elap:               0.0
 (Enter /dades/curu/g16A03_MST/g16/l103.exe)

 GradGradGradGradGradGradGradGradGradGradGradGradGradGradGradGradGradGrad
 Berny optimization.
 FormGI is forming the generalized inverse of G from B-inverse, IUseBI=4.
 GSVD:  received Info=                   1 from GESDD.
 Internal  Forces:  Max     0.029372149 RMS     0.010652086
 Search for a local minimum.
 Step number   1 out of a maximum of   92
 All quantities printed in internal units (Hartrees-Bohrs-Radians)
 RMS Force = .10652D-01 SwitMx=.10000D-02 MixMth= 1
 Mixed Optimization -- RFO/linear search
 Second derivative matrix not updated -- first step.
 ITU=  0
     Eigenvalues ---    0.00719   0.00900   0.01093   0.01496   0.01835
     Eigenvalues ---    0.01992   0.02110   0.02201   0.03736   0.04686
     Eigenvalues ---    0.05148   0.05882   0.06154   0.06156   0.08853
     Eigenvalues ---    0.08938   0.12524   0.12600   0.15858   0.15939
     Eigenvalues ---    0.16000   0.16000   0.16000   0.21868   0.22005
     Eigenvalues ---    0.22347   0.24492   0.24560   0.30398   0.32012
     Eigenvalues ---    0.34399   0.34422   0.34504   0.34572   0.35118
     Eigenvalues ---    0.35662   0.35731   0.36763   0.36980   0.40504
     Eigenvalues ---    0.45414   0.47612   0.47684   0.47691   0.57400
 RFO step:  Lambda=-3.90513148D-02 EMin= 7.19487570D-03
 Linear search not attempted -- first point.
 Iteration  1 RMS(Cart)=  0.10517449 RMS(Int)=  0.00546321
 Iteration  2 RMS(Cart)=  0.00692666 RMS(Int)=  0.00210266
 Iteration  3 RMS(Cart)=  0.00003889 RMS(Int)=  0.00210243
 Iteration  4 RMS(Cart)=  0.00000011 RMS(Int)=  0.00210243
 ITry= 1 IFail=0 DXMaxC= 3.63D-01 DCOld= 1.00D+10 DXMaxT= 3.00D-01 DXLimC= 3.00D+00 Rises=F
 Variable       Old X    -DE/DX   Delta X   Delta X   Delta X     New X
                                 (Linear)    (Quad)   (Total)
    R1        1.88970   0.02654   0.00000   0.05144   0.05144   1.94114
    R2        1.89055   0.02420   0.00000   0.04697   0.04697   1.93752
    R3        2.75877   0.02529   0.00000   0.06185   0.06185   2.82062
    R4        1.88977   0.02485   0.00000   0.04817   0.04817   1.93794
    R5        2.06661  -0.00256   0.00000  -0.00668  -0.00668   2.05993
    R6        2.06623  -0.00049   0.00000  -0.00128  -0.00128   2.06495
    R7        2.84123   0.02937   0.00000   0.08178   0.08178   2.92300
    R8        2.06375  -0.00036   0.00000  -0.00094  -0.00094   2.06281
    R9        2.06487   0.00272   0.00000   0.00709   0.00709   2.07196
   R10        2.78784   0.01978   0.00000   0.05070   0.05070   2.83854
   R11        2.51168  -0.02153   0.00000  -0.03620  -0.03546   2.47622
   R12        3.29340   0.00633   0.00000   0.02095   0.02031   3.31372
   R13        2.69494  -0.02859   0.00000  -0.06791  -0.06667   2.62827
   R14        2.04504  -0.00199   0.00000  -0.00502  -0.00502   2.04002
   R15        2.62473  -0.02305   0.00000  -0.04514  -0.04492   2.57981
   R16        2.04614  -0.00017   0.00000  -0.00044  -0.00044   2.04570
   R17        3.18134   0.02125   0.00000   0.05599   0.05489   3.23623
    A1        1.91145  -0.00895   0.00000  -0.04699  -0.04767   1.86377
    A2        1.91010   0.00628   0.00000   0.02944   0.02888   1.93898
    A3        1.91041  -0.00697   0.00000  -0.03725  -0.03760   1.87281
    A4        1.91029   0.01059   0.00000   0.05433   0.05332   1.96361
    A5        1.91085  -0.00748   0.00000  -0.03333  -0.03451   1.87634
    A6        1.91070   0.00654   0.00000   0.03386   0.03302   1.94372
    A7        1.95650  -0.00748   0.00000  -0.05846  -0.05867   1.89783
    A8        1.88595  -0.00347   0.00000  -0.02545  -0.02598   1.85996
    A9        2.00381   0.00069   0.00000   0.00408   0.00444   2.00825
   A10        1.88191   0.00049   0.00000   0.00166  -0.00093   1.88098
   A11        1.86630   0.00574   0.00000   0.03985   0.03956   1.90586
   A12        1.86393   0.00461   0.00000   0.04307   0.04285   1.90678
   A13        1.81764   0.00011   0.00000   0.01454   0.01688   1.83452
   A14        1.90640  -0.00277   0.00000   0.01625   0.01524   1.92164
   A15        1.92006   0.01880   0.00000   0.07931   0.07907   1.99913
   A16        1.86407   0.00248   0.00000  -0.00289  -0.00484   1.85924
   A17        2.00771  -0.01418   0.00000  -0.09501  -0.09576   1.91195
   A18        1.94198  -0.00434   0.00000  -0.00889  -0.01201   1.92997
   A19        2.10582   0.00431   0.00000   0.01812   0.01867   2.12449
   A20        2.16841  -0.00017   0.00000   0.00339   0.00393   2.17234
   A21        1.98351  -0.00286   0.00000   0.00157  -0.00466   1.97885
   A22        1.93295   0.00557   0.00000   0.01161   0.00749   1.94044
   A23        2.12761  -0.01144   0.00000  -0.04457  -0.04441   2.08321
   A24        1.95002   0.01782   0.00000   0.06973   0.06477   2.01479
   A25        2.20147  -0.00588   0.00000  -0.01645  -0.01630   2.18517
   A26        2.30108  -0.00315   0.00000  -0.03304  -0.03026   2.27082
   A27        1.96354  -0.01353   0.00000  -0.03809  -0.04424   1.91929
   A28        2.01003   0.01611   0.00000   0.06340   0.06499   2.07501
   A29        1.56142  -0.00335   0.00000   0.01965   0.00938   1.57080
    D1        0.98967  -0.00264   0.00000  -0.01709  -0.01659   0.97308
    D2       -1.08165   0.00343   0.00000   0.03188   0.03146  -1.05019
    D3        3.12377  -0.00040   0.00000  -0.00728  -0.00710   3.11667
    D4       -1.10518  -0.00200   0.00000  -0.01081  -0.01026  -1.11545
    D5        3.10668   0.00406   0.00000   0.03816   0.03778  -3.13872
    D6        1.02891   0.00024   0.00000  -0.00100  -0.00078   1.02813
    D7        3.08350  -0.00333   0.00000  -0.02399  -0.02379   3.05972
    D8        1.01219   0.00273   0.00000   0.02498   0.02426   1.03644
    D9       -1.06558  -0.00109   0.00000  -0.01418  -0.01430  -1.07988
   D10        2.80066   0.00436   0.00000   0.04313   0.04284   2.84350
   D11        0.81438   0.00265   0.00000   0.03230   0.03304   0.84742
   D12       -1.32194  -0.00226   0.00000  -0.01835  -0.01842  -1.34036
   D13       -1.30038  -0.00045   0.00000   0.00080  -0.00003  -1.30041
   D14        2.99653  -0.00215   0.00000  -0.01003  -0.00983   2.98670
   D15        0.86020  -0.00706   0.00000  -0.06068  -0.06129   0.79892
   D16        0.71063   0.00506   0.00000   0.04234   0.04221   0.75283
   D17       -1.27565   0.00335   0.00000   0.03150   0.03241  -1.24324
   D18        2.87121  -0.00156   0.00000  -0.01914  -0.01905   2.85216
   D19       -1.31635  -0.00091   0.00000  -0.01108  -0.01068  -1.32703
   D20        1.56928   0.00505   0.00000   0.10343   0.10517   1.67444
   D21        0.72916   0.00341   0.00000   0.00232  -0.00040   0.72876
   D22       -2.66840   0.00938   0.00000   0.11684   0.11544  -2.55295
   D23        2.85168  -0.00726   0.00000  -0.07925  -0.07893   2.77275
   D24       -0.54588  -0.00129   0.00000   0.03526   0.03691  -0.50896
   D25        3.08727  -0.00189   0.00000  -0.03971  -0.04070   3.04657
   D26        0.17620  -0.00751   0.00000  -0.14279  -0.14545   0.03075
   D27       -3.12761   0.00584   0.00000   0.09947   0.10073  -3.02688
   D28       -0.22608   0.01235   0.00000   0.20904   0.21101  -0.01507
   D29        3.03382   0.00459   0.00000   0.07953   0.07819   3.11201
   D30       -0.01638  -0.00082   0.00000  -0.01745  -0.01979  -0.03617
   D31        2.83707   0.00648   0.00000   0.11607   0.11931   2.95639
   D32       -0.15467   0.01026   0.00000   0.17826   0.17904   0.02436
   D33       -0.20844   0.00107   0.00000   0.01560   0.01620  -0.19223
   D34        3.08300   0.00484   0.00000   0.07779   0.07593  -3.12426
   D35        0.20953  -0.01387   0.00000  -0.21865  -0.21501  -0.00548
   D36       -2.80888  -0.00949   0.00000  -0.16030  -0.15546  -2.96433
         Item               Value     Threshold  Converged?
 Maximum Force            0.029372     0.000450     NO 
 RMS     Force            0.010652     0.000300     NO 
 Maximum Displacement     0.362967     0.001800     NO 
 RMS     Displacement     0.103665     0.001200     NO 
 Predicted change in Energy=-2.609182D-02
 Lowest energy point so far.  Saving SCF results.
 GradGradGradGradGradGradGradGradGradGradGradGradGradGradGradGradGradGrad

 Leave Link  103 at Mon Jul 12 12:52:23 2021, MaxMem=   104857600 cpu:               0.1 elap:               0.0
 (Enter /dades/curu/g16A03_MST/g16/l202.exe)
                          Input orientation:                          
 ---------------------------------------------------------------------
 Center     Atomic      Atomic             Coordinates (Angstroms)
 Number     Number       Type             X           Y           Z
 ---------------------------------------------------------------------
      1          7           0       -0.398088    2.100096    1.314837
      2          1           0       -1.141811    2.799944    1.425471
      3          1           0        0.013528    2.249459    0.387750
      4          6           0       -0.932088    0.716929    1.486780
      5          1           0       -1.751430    0.567942    0.783410
      6          1           0       -1.346116    0.666074    2.496752
      7          6           0        0.107110   -0.414106    1.304084
      8          1           0       -0.349922   -1.296236    1.756349
      9          1           0        1.008632   -0.195553    1.888606
     10          6           0        0.463147   -0.709370   -0.125019
     11          7           0       -0.342695   -1.379455   -0.911557
     12          6           0        0.145566   -1.421401   -2.213183
     13          1           0       -0.403071   -1.965611   -2.966989
     14          6           0        1.309530   -0.740235   -2.425110
     15          1           0        1.970102   -0.738096   -3.282740
     16         16           0        1.855672   -0.045074   -0.958387
     17          1           0        0.324934    2.310694    2.010944
 ---------------------------------------------------------------------
                    Distance matrix (angstroms):
                    1          2          3          4          5
     1  N    0.000000
     2  H    1.027206   0.000000
     3  H    1.025293   1.647637   0.000000
     4  C    1.492606   2.094444   2.109670   0.000000
     5  H    2.112213   2.401190   2.469640   1.090068   0.000000
     6  H    2.086169   2.396411   2.967091   1.092725   1.763363
     7  C    2.564479   3.450313   2.818334   1.546787   2.165569
     8  H    3.425247   4.185123   3.817998   2.112916   2.527052
     9  H    2.752830   3.716436   3.036591   2.181852   3.069580
    10  C    3.272310   4.158750   3.036406   2.564938   2.713138
    11  N    4.131244   4.854655   3.870932   3.239480   2.941055
    12  C    5.014322   5.719869   4.500834   4.407212   4.066405
    13  H    5.904577   6.523034   5.403207   5.226083   4.722547
    14  C    4.997063   5.776584   4.304658   4.738255   4.623354
    15  H    5.899268   6.661005   5.121149   5.769586   5.664725
    16  S    3.853405   4.770934   3.235810   3.785643   4.052262
    17  H    1.025513   1.653325   1.653929   2.096411   2.975787
                    6          7          8          9         10
     6  H    0.000000
     7  C    2.168205   0.000000
     8  H    2.321908   1.091593   0.000000
     9  H    2.580131   1.096436   1.753472   0.000000
    10  C    3.469721   1.502091   2.131910   2.148545   0.000000
    11  N    4.099709   2.458310   2.669214   3.326954   1.310358
    12  C    5.363409   3.658864   4.002294   4.367180   2.228963
    13  H    6.137391   4.572692   4.770829   5.357500   3.225720
    14  C    5.766705   3.931801   4.532937   4.358367   2.451068
    15  H    6.809664   4.961316   5.575522   5.287872   3.498991
    16  S    4.763944   2.883127   3.714814   2.974136   1.753544
    17  H    2.394408   2.823408   3.678340   2.600708   3.701652
                   11         12         13         14         15
    11  N    0.000000
    12  C    1.390823   0.000000
    13  H    2.138229   1.079532   0.000000
    14  C    2.330084   1.365179   2.174438   0.000000
    15  H    3.373852   2.222564   2.690435   1.082538   0.000000
    16  S    2.572078   2.528488   3.581182   1.712541   2.428166
    17  H    4.754360   5.639500   6.602771   5.473223   6.326515
                   16         17
    16  S    0.000000
    17  H    4.087753   0.000000
 Stoichiometry    C5H9N2S(1+)
 Framework group  C1[X(C5H9N2S)]
 Deg. of freedom    45
 Full point group                 C1      NOp   1
 RotChk:  IX=0 Diff= 7.81D-02
 Largest Abelian subgroup         C1      NOp   1
 Largest concise Abelian subgroup C1      NOp   1
                         Standard orientation:                         
 ---------------------------------------------------------------------
 Center     Atomic      Atomic             Coordinates (Angstroms)
 Number     Number       Type             X           Y           Z
 ---------------------------------------------------------------------
      1          7           0        2.647799   -0.726260   -0.731766
      2          1           0        3.348913   -0.625614   -1.475716
      3          1           0        1.838118   -1.196442   -1.149584
      4          6           0        2.297043    0.598945   -0.141278
      5          1           0        1.963514    1.261122   -0.940357
      6          1           0        3.221677    1.011521    0.269674
      7          6           0        1.219808    0.557614    0.967958
      8          1           0        1.309569    1.513412    1.487543
      9          1           0        1.463687   -0.220145    1.701298
     10          6           0       -0.185934    0.388285    0.466465
     11          7           0       -0.846494    1.379128   -0.080278
     12          6           0       -2.074588    0.952334   -0.574260
     13          1           0       -2.740458    1.670050   -1.029112
     14          6           0       -2.328869   -0.382229   -0.440107
     15          1           0       -3.246110   -0.936304   -0.593594
     16         16           0       -1.023348   -1.148729    0.360449
     17          1           0        3.040758   -1.357702   -0.025691
 ---------------------------------------------------------------------
 Rotational constants (GHZ):           3.2775049           1.1413761           0.9893938
 Leave Link  202 at Mon Jul 12 12:52:23 2021, MaxMem=   104857600 cpu:               0.0 elap:               0.0
 (Enter /dades/curu/g16A03_MST/g16/l301.exe)
 Standard basis: 6-31G(d) (6D, 7F)
 Ernie: Thresh=  0.10000D-02 Tol=  0.10000D-05 Strict=F.
 There are   142 symmetry adapted cartesian basis functions of A   symmetry.
 There are   142 symmetry adapted basis functions of A   symmetry.
   142 basis functions,   284 primitive gaussians,   142 cartesian basis functions
    34 alpha electrons       34 beta electrons
       nuclear repulsion energy       443.8836807229 Hartrees.
 IExCor=  402 DFT=T Ex+Corr=B3LYP ExCW=0 ScaHFX=  0.200000
 ScaDFX=  0.800000  0.720000  1.000000  0.810000 ScalE2=  1.000000  1.000000
 IRadAn=      5 IRanWt=     -1 IRanGd=            0 ICorTp=0 IEmpDi=  4
 NAtoms=   17 NActive=   17 NUniq=   17 SFac= 1.00D+00 NAtFMM=   60 NAOKFM=F Big=F
 Integral buffers will be    131072 words long.
 Raffenetti 2 integral format.
 Two-electron integral symmetry is turned on.
 ------------------------------------------------------------------------------
 Polarizable Continuum Model (PCM)
 =================================
 Model                : PCM.
 Atomic radii         : MST.
 Polarization charges : Total charges.
 Charge compensation  : None.
 Solution method      : On-the-fly selection.
 Cavity type          : Scaled VdW (van der Waals Surface) (Alpha=1.500).
 Cavity algorithm     : GePol (No added spheres)
                        Default sphere list used, NSphG=   17.
                        Lebedev-Laikov grids with approx.  5.0 points / Ang**2.
                        Smoothing algorithm: York/Karplus (Gamma=1.0000).
                        Polarization charges: spherical gaussians, with
                                              point-specific exponents (IZeta= 3).
                        Self-potential: point-specific (ISelfS= 7).
                        Self-field    : sphere-specific E.n sum rule (ISelfD= 2).
 1st derivatives      : Analytical E(r).r(x)/FMM algorithm (CHGder, D1EAlg=3).
                        Cavity 1st derivative terms included.
 Solvent              : n-Octanol, Eps=   9.862900 Eps(inf)=   2.043470
 ------------------------------------------------------------------------------
 Spheres list:
 ISph  on   Nord     Re0    Alpha      Xe            Ye            Ze
    1   N      1    1.5000  1.150      2.647799     -0.726260     -0.731766
    2   H      2    0.9000  1.150      3.348913     -0.625614     -1.475716
    3   H      3    0.9000  1.150      1.838118     -1.196442     -1.149584
    4   C      4    1.5000  1.500      2.297043      0.598945     -0.141278
    5   H      5    1.2000  1.500      1.963514      1.261122     -0.940357
    6   H      6    1.2000  1.500      3.221677      1.011521      0.269674
    7   C      7    1.5000  1.500      1.219808      0.557614      0.967958
    8   H      8    1.2000  1.500      1.309569      1.513412      1.487543
    9   H      9    1.2000  1.500      1.463687     -0.220145      1.701298
   10   C     10    1.5000  1.500     -0.185934      0.388285      0.466465
   11   N     11    1.5000  1.500     -0.846494      1.379128     -0.080278
   12   C     12    1.5000  1.500     -2.074588      0.952334     -0.574260
   13   H     13    1.2000  1.500     -2.740458      1.670050     -1.029112
   14   C     14    1.5000  1.500     -2.328869     -0.382229     -0.440107
   15   H     15    1.2000  1.500     -3.246110     -0.936304     -0.593594
   16   S     16    1.7500  1.500     -1.023348     -1.148729      0.360449
   17   H     17    0.9000  1.150      3.040758     -1.357702     -0.025691
 ------------------------------------------------------------------------------
 GePol: Number of generator spheres                  =      17
 GePol: Total number of spheres                      =      17
 GePol: Number of exposed spheres                    =      17 (100.00%)
 GePol: Number of points                             =    1730
 GePol: Average weight of points                     =       0.12
 GePol: Minimum weight of points                     =   0.57D-10
 GePol: Maximum weight of points                     =    0.22065
 GePol: Number of points with low weight             =      79
 GePol: Fraction of low-weight points (<1% of avg)   =       4.57%
 GePol: Cavity surface area                          =    204.300 Ang**2
 GePol: Cavity volume                                =    215.486 Ang**3
 Surface areas from nonelectrostatic (unscaled) cavity and vdw tensions:
 Sphere =    1 Type =  NH  Surf =       12.577 Tension =       -0.234
 Sphere =    2 Type =  NH  Surf =        4.045 Tension =       -0.234
 Sphere =    3 Type =  NH  Surf =        4.034 Tension =       -0.234
 Sphere =    4 Type =  CH2 Surf =        4.057 Tension =       -0.194
 Sphere =    5 Type =  CH2 Surf =        9.991 Tension =       -0.194
 Sphere =    6 Type =  CH2 Surf =        9.961 Tension =       -0.194
 Sphere =    7 Type =  CH2 Surf =        3.977 Tension =       -0.194
 Sphere =    8 Type =  CH2 Surf =        9.898 Tension =       -0.194
 Sphere =    9 Type =  CH2 Surf =       10.061 Tension =       -0.194
 Sphere =   10 Type =  C   Surf =        5.683 Tension =       -0.205
 Sphere =   11 Type =  Nc  Surf =       13.036 Tension =       -0.161
 Sphere =   12 Type =  CH  Surf =        7.791 Tension =       -0.195
 Sphere =   13 Type =  CH  Surf =       10.222 Tension =       -0.195
 Sphere =   14 Type =  CH  Surf =        7.611 Tension =       -0.195
 Sphere =   15 Type =  CH  Surf =       10.221 Tension =       -0.195
 Sphere =   16 Type =  S   Surf =       24.328 Tension =       -0.186
 Sphere =   17 Type =  NH  Surf =        4.034 Tension =       -0.234
 PCM non-electrostatic energy =        -0.0082912070 Hartrees.
 Nuclear repulsion after PCM non-electrostatic terms =      443.8753895159 Hartrees.
 Leave Link  301 at Mon Jul 12 12:52:23 2021, MaxMem=   104857600 cpu:               0.1 elap:               0.1
 (Enter /dades/curu/g16A03_MST/g16/l302.exe)
 NPDir=0 NMtPBC=     1 NCelOv=     1 NCel=       1 NClECP=     1 NCelD=      1
         NCelK=      1 NCelE2=     1 NClLst=     1 CellRange=     0.0.
 One-electron integrals computed using PRISM.
 One-electron integral symmetry used in STVInt
 NBasis=   142 RedAO= T EigKep=  2.44D-03  NBF=   142
 NBsUse=   142 1.00D-06 EigRej= -1.00D+00 NBFU=   142
 Precomputing XC quadrature grid using
 IXCGrd= 4 IRadAn=           5 IRanWt=          -1 IRanGd=           0 AccXCQ= 0.00D+00.
 Generated NRdTot=       0 NPtTot=           0 NUsed=           0 NTot=          32
 NSgBfM=   142   142   142   142   142 MxSgAt=    17 MxSgA2=    17.
 Leave Link  302 at Mon Jul 12 12:52:24 2021, MaxMem=   104857600 cpu:               2.2 elap:               0.6
 (Enter /dades/curu/g16A03_MST/g16/l303.exe)
 DipDrv:  MaxL=1.
 Leave Link  303 at Mon Jul 12 12:52:24 2021, MaxMem=   104857600 cpu:               0.1 elap:               0.0
 (Enter /dades/curu/g16A03_MST/g16/l401.exe)
 Initial guess from the checkpoint file:  "SET_328_BBB87_conf1.geo_285_285.chk"
 B after Tr=    -0.000000    0.000000   -0.000000
         Rot=    0.999907   -0.007924    0.010673    0.003003 Ang=  -1.56 deg.
 Guess basis will be translated and rotated to current coordinates.
 JPrj=2 DoOrth=T DoCkMO=T.
 Generating alternative initial guess.
 ExpMin= 1.17D-01 ExpMax= 2.19D+04 ExpMxC= 3.30D+03 IAcc=2 IRadAn=         4 AccDes= 0.00D+00
 Harris functional with IExCor=  402 and IRadAn=       4 diagonalized for initial guess.
 HarFok:  IExCor=  402 AccDes= 0.00D+00 IRadAn=         4 IDoV= 1 UseB2=F ITyADJ=14
 ICtDFT=  3500011 ScaDFX=  1.000000  1.000000  1.000000  1.000000
 FoFCou: FMM=F IPFlag=           0 FMFlag=      100000 FMFlg1=           0
         NFxFlg=           0 DoJE=T BraDBF=F KetDBF=T FulRan=T
         wScrn=  0.000000 ICntrl=       500 IOpCl=  0 I1Cent=   200000004 NGrid=           0
         NMat0=    1 NMatS0=      1 NMatT0=    0 NMatD0=    1 NMtDS0=    0 NMtDT0=    0
 Petite list used in FoFCou.
 Harris En= -703.387285287789    
 Leave Link  401 at Mon Jul 12 12:52:25 2021, MaxMem=   104857600 cpu:               4.1 elap:               1.1
 (Enter /dades/curu/g16A03_MST/g16/l502.exe)
 Keep R1 ints in memory in canonical form, NReq=55416097.
 FoFCou: FMM=F IPFlag=           0 FMFlag=           0 FMFlg1=           0
         NFxFlg=           0 DoJE=F BraDBF=F KetDBF=F FulRan=T
         wScrn=  0.000000 ICntrl=       600 IOpCl=  0 I1Cent=           0 NGrid=           0
         NMat0=    1 NMatS0=  10153 NMatT0=    0 NMatD0=    1 NMtDS0=    0 NMtDT0=    0
 Symmetry not used in FoFCou.
 Two-electron integral symmetry not used.
 Closed shell SCF:
 Using DIIS extrapolation, IDIIS=  1040.
 NGot=   104857600 LenX=    53267895 LenY=    53247290
 Requested convergence on RMS density matrix=1.00D-08 within 128 cycles.
 Requested convergence on MAX density matrix=1.00D-06.
 Requested convergence on             energy=1.00D-06.
 No special actions if energy rises.

 Cycle   1  Pass 1  IDiag  1:
 Inv3:  Mode=1 IEnd=     8978700.
 Iteration    1 A*A^-1 deviation from unit magnitude is 6.00D-15 for    862.
 Iteration    1 A*A^-1 deviation from orthogonality  is 1.63D-15 for   1477    464.
 Iteration    1 A^-1*A deviation from unit magnitude is 4.66D-15 for    862.
 Iteration    1 A^-1*A deviation from orthogonality  is 1.77D-15 for   1724   1142.
 E= -703.481216832013    
 DIIS: error= 6.18D-03 at cycle   1 NSaved=   1.
 NSaved= 1 IEnMin= 1 EnMin= -703.481216832013     IErMin= 1 ErrMin= 6.18D-03
 ErrMax= 6.18D-03  0.00D+00 EMaxC= 1.00D-01 BMatC= 1.07D-02 BMatP= 1.07D-02
 IDIUse=3 WtCom= 9.38D-01 WtEn= 6.18D-02
 Coeff-Com:  0.100D+01
 Coeff-En:   0.100D+01
 Coeff:      0.100D+01
 Gap=     1.598 Goal=   None    Shift=    0.000
 GapD=    1.598 DampG=2.000 DampE=1.000 DampFc=2.0000 IDamp=-1.
 RMSDP=1.56D-03 MaxDP=2.79D-02              OVMax= 4.82D-02

 Cycle   2  Pass 1  IDiag  1:
 E= -703.500561021087     Delta-E=       -0.019344189074 Rises=F Damp=F
 DIIS: error= 3.04D-03 at cycle   2 NSaved=   2.
 NSaved= 2 IEnMin= 2 EnMin= -703.500561021087     IErMin= 2 ErrMin= 3.04D-03
 ErrMax= 3.04D-03  0.00D+00 EMaxC= 1.00D-01 BMatC= 1.47D-03 BMatP= 1.07D-02
 IDIUse=3 WtCom= 9.70D-01 WtEn= 3.04D-02
 Coeff-Com:  0.139D+00 0.861D+00
 Coeff-En:   0.000D+00 0.100D+01
 Coeff:      0.135D+00 0.865D+00
 Gap=     0.216 Goal=   None    Shift=    0.000
 RMSDP=5.23D-04 MaxDP=1.19D-02 DE=-1.93D-02 OVMax= 2.17D-02

 Cycle   3  Pass 1  IDiag  1:
 E= -703.500073665159     Delta-E=        0.000487355928 Rises=F Damp=F
 DIIS: error= 3.25D-03 at cycle   3 NSaved=   3.
 NSaved= 3 IEnMin= 2 EnMin= -703.500561021087     IErMin= 2 ErrMin= 3.04D-03
 ErrMax= 3.25D-03  0.00D+00 EMaxC= 1.00D-01 BMatC= 2.08D-03 BMatP= 1.47D-03
 IDIUse=3 WtCom= 1.49D-01 WtEn= 8.51D-01
 Coeff-Com: -0.355D-01 0.556D+00 0.479D+00
 Coeff-En:   0.000D+00 0.564D+00 0.436D+00
 Coeff:     -0.529D-02 0.563D+00 0.442D+00
 Gap=     0.218 Goal=   None    Shift=    0.000
 RMSDP=3.21D-04 MaxDP=7.93D-03 DE= 4.87D-04 OVMax= 1.63D-02

 Cycle   4  Pass 1  IDiag  1:
 E= -703.501960316564     Delta-E=       -0.001886651406 Rises=F Damp=F
 DIIS: error= 4.84D-04 at cycle   4 NSaved=   4.
 NSaved= 4 IEnMin= 4 EnMin= -703.501960316564     IErMin= 4 ErrMin= 4.84D-04
 ErrMax= 4.84D-04  0.00D+00 EMaxC= 1.00D-01 BMatC= 8.26D-05 BMatP= 1.47D-03
 IDIUse=3 WtCom= 9.95D-01 WtEn= 4.84D-03
 Coeff-Com: -0.270D-01 0.293D+00 0.270D+00 0.464D+00
 Coeff-En:   0.000D+00 0.000D+00 0.000D+00 0.100D+01
 Coeff:     -0.268D-01 0.292D+00 0.269D+00 0.467D+00
 Gap=     0.218 Goal=   None    Shift=    0.000
[...]
 IDIUse=1 WtCom= 1.00D+00 WtEn= 0.00D+00
 Coeff-Com:  0.306D+00 0.694D+00
 Coeff:      0.306D+00 0.694D+00
 Gap=     0.368 Goal=   None    Shift=    0.000
 RMSDP=2.97D-07 MaxDP=1.49D-05 DE=-7.03D-09 OVMax= 2.93D-05

 Cycle  12  Pass 1  IDiag  1:
 RMSU=  2.91D-07    CP:  1.00D+00  9.35D-01
 E= -700.831903740853     Delta-E=       -0.000000002739 Rises=F Damp=F
 DIIS: error= 7.50D-07 at cycle   3 NSaved=   3.
 NSaved= 3 IEnMin= 3 EnMin= -700.831903740853     IErMin= 3 ErrMin= 7.50D-07
 ErrMax= 7.50D-07  0.00D+00 EMaxC= 1.00D-01 BMatC= 3.95D-10 BMatP= 1.62D-09
 IDIUse=1 WtCom= 1.00D+00 WtEn= 0.00D+00
 Coeff-Com: -0.437D+00-0.143D+00 0.158D+01
 Coeff:     -0.437D+00-0.143D+00 0.158D+01
 Gap=     0.368 Goal=   None    Shift=    0.000
 RMSDP=4.12D-07 MaxDP=2.14D-05 DE=-2.74D-09 OVMax= 2.70D-05

 Cycle  13  Pass 1  IDiag  1:
 RMSU=  1.05D-07    CP:  1.00D+00  1.33D+00  1.67D+00
 E= -700.831903742347     Delta-E=       -0.000000001494 Rises=F Damp=F
 DIIS: error= 2.14D-07 at cycle   4 NSaved=   4.
 NSaved= 4 IEnMin= 4 EnMin= -700.831903742347     IErMin= 4 ErrMin= 2.14D-07
 ErrMax= 2.14D-07  0.00D+00 EMaxC= 1.00D-01 BMatC= 2.06D-11 BMatP= 3.95D-10
 IDIUse=1 WtCom= 1.00D+00 WtEn= 0.00D+00
 Coeff-Com: -0.784D-01-0.354D-01 0.166D+00 0.948D+00
 Coeff:     -0.784D-01-0.354D-01 0.166D+00 0.948D+00
 Gap=     0.368 Goal=   None    Shift=    0.000
 RMSDP=7.17D-08 MaxDP=3.34D-06 DE=-1.49D-09 OVMax= 6.28D-06

 Cycle  14  Pass 1  IDiag  1:
 RMSU=  3.66D-08    CP:  1.00D+00  1.38D+00  1.79D+00  1.30D+00
 E= -700.831903742428     Delta-E=       -0.000000000081 Rises=F Damp=F
 DIIS: error= 1.64D-07 at cycle   5 NSaved=   5.
 NSaved= 5 IEnMin= 5 EnMin= -700.831903742428     IErMin= 5 ErrMin= 1.64D-07
 ErrMax= 1.64D-07  0.00D+00 EMaxC= 1.00D-01 BMatC= 5.50D-12 BMatP= 2.06D-11
 IDIUse=1 WtCom= 1.00D+00 WtEn= 0.00D+00
 Coeff-Com:  0.129D+00 0.667D-01-0.483D+00-0.119D+00 0.141D+01
 Coeff:      0.129D+00 0.667D-01-0.483D+00-0.119D+00 0.141D+01
 Gap=     0.368 Goal=   None    Shift=    0.000
 RMSDP=5.34D-08 MaxDP=2.03D-06 DE=-8.12D-11 OVMax= 4.61D-06

 Cycle  15  Pass 1  IDiag  1:
 RMSU=  1.79D-08    CP:  1.00D+00  1.40D+00  1.85D+00  1.69D+00  1.51D+00
 E= -700.831903742423     Delta-E=        0.000000000005 Rises=F Damp=F
 DIIS: error= 3.92D-08 at cycle   6 NSaved=   6.
 NSaved= 6 IEnMin= 5 EnMin= -700.831903742428     IErMin= 6 ErrMin= 3.92D-08
 ErrMax= 3.92D-08  0.00D+00 EMaxC= 1.00D-01 BMatC= 4.21D-13 BMatP= 5.50D-12
 IDIUse=1 WtCom= 1.00D+00 WtEn= 0.00D+00
 Coeff-Com:  0.835D-02 0.824D-02-0.254D-01-0.897D-01 0.455D-02 0.109D+01
 Coeff:      0.835D-02 0.824D-02-0.254D-01-0.897D-01 0.455D-02 0.109D+01
 Gap=     0.368 Goal=   None    Shift=    0.000
 RMSDP=1.22D-08 MaxDP=4.14D-07 DE= 5.23D-12 OVMax= 1.06D-06

 Cycle  16  Pass 1  IDiag  1:
 RMSU=  5.81D-09    CP:  1.00D+00  1.40D+00  1.86D+00  1.75D+00  1.68D+00
                    CP:  1.22D+00
 E= -700.831903742443     Delta-E=       -0.000000000020 Rises=F Damp=F
 DIIS: error= 1.70D-08 at cycle   7 NSaved=   7.
 NSaved= 7 IEnMin= 7 EnMin= -700.831903742443     IErMin= 7 ErrMin= 1.70D-08
 ErrMax= 1.70D-08  0.00D+00 EMaxC= 1.00D-01 BMatC= 6.22D-14 BMatP= 4.21D-13
 IDIUse=1 WtCom= 1.00D+00 WtEn= 0.00D+00
 Coeff-Com: -0.227D-01-0.103D-01 0.824D-01 0.206D-01-0.250D+00 0.334D-01
 Coeff-Com:  0.115D+01
 Coeff:     -0.227D-01-0.103D-01 0.824D-01 0.206D-01-0.250D+00 0.334D-01
 Coeff:      0.115D+01
 Gap=     0.368 Goal=   None    Shift=    0.000
 RMSDP=4.91D-09 MaxDP=1.84D-07 DE=-2.02D-11 OVMax= 4.40D-07

 SCF Done:  E(RHF) =  -700.831903742     A.U. after   16 cycles
            NFock= 16  Conv=0.49D-08     -V/T= 2.0007
 KE= 7.003536300514D+02 PE=-2.535847090787D+03 EE= 6.878201495152D+02
 Leave Link  502 at Mon Jul 12 13:16:54 2021, MaxMem=   262144000 cpu:             499.5 elap:             126.1
 (Enter /dades/curu/g16A03_MST/g16/l801.exe)
 ExpMin= 2.97D-02 ExpMax= 1.11D+05 ExpMxC= 1.07D+03 IAcc=3 IRadAn=         5 AccDes= 0.00D+00
 HarFok:  IExCor=  205 AccDes= 0.00D+00 IRadAn=         5 IDoV=-2 UseB2=F ITyADJ=14
 ICtDFT= 12500011 ScaDFX=  1.000000  1.000000  1.000000  1.000000
 Largest valence mixing into a core orbital is  3.20D-04
 Largest core mixing into a valence orbital is  8.84D-05
 Range of M.O.s used for correlation:    13   269
 NBasis=   269 NAE=    34 NBE=    34 NFC=    12 NFV=     0
 NROrb=    257 NOA=    22 NOB=    22 NVA=   235 NVB=   235

 **** Warning!!: The largest alpha MO coefficient is  0.55653667D+02

 Leave Link  801 at Mon Jul 12 13:16:55 2021, MaxMem=   262144000 cpu:               0.9 elap:               0.8
 (Enter /dades/curu/g16A03_MST/g16/l906.exe)
 FulOut=F Deriv=F AODrv=F NAtomX=    17
   MMem=          42  MDisk=          22 MDiskD=          22
  W3Min=     1473450 MinDsk=     1955505 NBas6D=         285
 NBas2D=       41124    NTT=       40755    LW2=     2000000
    MDV=   261532505 MDiskM=       12647 NBas2p=       40524
 Fully direct method using O(OVN) memory.
 IMap=   1   2   3   4   5   6   7   8   9  10  11  12  13  14  15  16  17  18  19  20
 IMap=  21  22
 JobTyp=1 Pass  1:  I=   1 to  22 NPSUse=  4 ParTrn=T ParDer=T DoDerP=F.
 Spin components of T(2) and E(2):
     alpha-alpha T2 =       0.5946722894D-01 E2=     -0.1551757553D+00
     alpha-beta  T2 =       0.3165743917D+00 E2=     -0.8824962877D+00
     beta-beta   T2 =       0.5946722894D-01 E2=     -0.1551757553D+00
 The integrals were generated   1 times.
 ANorm=    0.1198127226D+01
 E2 =    -0.1192847798D+01 EUMP2 =    -0.70202475154085D+03
 Leave Link  906 at Mon Jul 12 13:17:35 2021, MaxMem=   262144000 cpu:             156.6 elap:              39.3
 (Enter /dades/curu/g16A03_MST/g16/l601.exe)
 Copying SCF densities to generalized density rwf, IOpCl= 0 IROHF=0.

 **********************************************************************

            Population analysis using the SCF density.

 **********************************************************************

 Orbital symmetries:
       Occupied  (A) (A) (A) (A) (A) (A) (A) (A) (A) (A) (A) (A)
                 (A) (A) (A) (A) (A) (A) (A) (A) (A) (A) (A) (A)
                 (A) (A) (A) (A) (A) (A) (A) (A) (A) (A)
       Virtual   (A) (A) (A) (A) (A) (A) (A) (A) (A) (A) (A) (A)
                 (A) (A) (A) (A) (A) (A) (A) (A) (A) (A) (A) (A)
                 (A) (A) (A) (A) (A) (A) (A) (A) (A) (A) (A) (A)
                 (A) (A) (A) (A) (A) (A) (A) (A) (A) (A) (A) (A)
                 (A) (A) (A) (A) (A) (A) (A) (A) (A) (A) (A) (A)
                 (A) (A) (A) (A) (A) (A) (A) (A) (A) (A) (A) (A)
                 (A) (A) (A) (A) (A) (A) (A) (A) (A) (A) (A) (A)
                 (A) (A) (A) (A) (A) (A) (A) (A) (A) (A) (A) (A)
                 (A) (A) (A) (A) (A) (A) (A) (A) (A) (A) (A) (A)
                 (A) (A) (A) (A) (A) (A) (A) (A) (A) (A) (A) (A)
                 (A) (A) (A) (A) (A) (A) (A) (A) (A) (A) (A) (A)
                 (A) (A) (A) (A) (A) (A) (A) (A) (A) (A) (A) (A)
                 (A) (A) (A) (A) (A) (A) (A) (A) (A) (A) (A) (A)
                 (A) (A) (A) (A) (A) (A) (A) (A) (A) (A) (A) (A)
                 (A) (A) (A) (A) (A) (A) (A) (A) (A) (A) (A) (A)
                 (A) (A) (A) (A) (A) (A) (A) (A) (A) (A) (A) (A)
                 (A) (A) (A) (A) (A) (A) (A) (A) (A) (A) (A) (A)
                 (A) (A) (A) (A) (A) (A) (A) (A) (A) (A) (A) (A)
                 (A) (A) (A) (A) (A) (A) (A) (A) (A) (A) (A) (A)
                 (A) (A) (A) (A) (A) (A) (A)
 The electronic state is 1-A.
 Alpha  occ. eigenvalues --  -92.13050 -15.87297 -15.72804 -11.47898 -11.46807
 Alpha  occ. eigenvalues --  -11.42705 -11.40531 -11.40062  -9.13244  -6.81383
 Alpha  occ. eigenvalues --   -6.81293  -6.81119  -1.49034  -1.42821  -1.24163
 Alpha  occ. eigenvalues --   -1.20076  -1.13748  -1.05267  -0.95575  -0.94423
 Alpha  occ. eigenvalues --   -0.92896  -0.87879  -0.83858  -0.82082  -0.77680
 Alpha  occ. eigenvalues --   -0.74859  -0.73073  -0.70016  -0.68416  -0.67794
 Alpha  occ. eigenvalues --   -0.63412  -0.57986  -0.52623  -0.46784
 Alpha virt. eigenvalues --   -0.10011  -0.07220  -0.06863  -0.05753  -0.04004
 Alpha virt. eigenvalues --   -0.03761  -0.03607  -0.03380  -0.02591  -0.01559
 Alpha virt. eigenvalues --   -0.01406  -0.00049   0.00043   0.01121   0.01709
 Alpha virt. eigenvalues --    0.02312   0.03023   0.03292   0.03657   0.03963
 Alpha virt. eigenvalues --    0.04546   0.05062   0.05579   0.05908   0.06178
 Alpha virt. eigenvalues --    0.07066   0.07773   0.07876   0.08089   0.09501
 Alpha virt. eigenvalues --    0.09913   0.10495   0.10657   0.11218   0.11909
 Alpha virt. eigenvalues --    0.12155   0.13050   0.13940   0.14108   0.15849
 Alpha virt. eigenvalues --    0.16077   0.16530   0.18637   0.19402   0.20631
 Alpha virt. eigenvalues --    0.20736   0.21768   0.22373   0.22613   0.23719
 Alpha virt. eigenvalues --    0.23746   0.24372   0.25624   0.27618   0.28595
 Alpha virt. eigenvalues --    0.28841   0.30254   0.30965   0.31759   0.32610
 Alpha virt. eigenvalues --    0.32822   0.33668   0.33942   0.34310   0.34706
 Alpha virt. eigenvalues --    0.35264   0.36090   0.37263   0.37442   0.38942
 Alpha virt. eigenvalues --    0.40189   0.40715   0.41400   0.42323   0.42617
 Alpha virt. eigenvalues --    0.43576   0.44446   0.44910   0.46301   0.47093
 Alpha virt. eigenvalues --    0.47448   0.48296   0.50117   0.50911   0.51383
 Alpha virt. eigenvalues --    0.52329   0.53244   0.54501   0.54773   0.55309
 Alpha virt. eigenvalues --    0.56258   0.57222   0.57253   0.58263   0.59461
 Alpha virt. eigenvalues --    0.61266   0.61955   0.62200   0.63460   0.64437
 Alpha virt. eigenvalues --    0.64932   0.65198   0.66219   0.68099   0.68655
 Alpha virt. eigenvalues --    0.69150   0.69923   0.71119   0.71876   0.74666
 Alpha virt. eigenvalues --    0.74895   0.75413   0.76756   0.78161   0.79525
 Alpha virt. eigenvalues --    0.79575   0.80405   0.82290   0.83330   0.86495
 Alpha virt. eigenvalues --    0.86925   0.87457   0.88957   0.89648   0.92123
 Alpha virt. eigenvalues --    0.92354   0.96673   0.97134   0.98687   1.01082
 Alpha virt. eigenvalues --    1.01602   1.03356   1.03790   1.04372   1.08401
 Alpha virt. eigenvalues --    1.09925   1.10011   1.10614   1.12979   1.14730
 Alpha virt. eigenvalues --    1.16192   1.17014   1.19897   1.23646   1.24190
 Alpha virt. eigenvalues --    1.26302   1.28177   1.30447   1.31181   1.36844
 Alpha virt. eigenvalues --    1.40536   1.41894   1.43774   1.44953   1.46645
 Alpha virt. eigenvalues --    1.48816   1.52159   1.53847   1.55346   1.57180
 Alpha virt. eigenvalues --    1.59507   1.60327   1.62436   1.63384   1.66169
 Alpha virt. eigenvalues --    1.67685   1.68052   1.71145   1.71603   1.75064
 Alpha virt. eigenvalues --    1.76381   1.76554   1.77772   1.81048   1.83727
 Alpha virt. eigenvalues --    1.85995   1.87947   1.91582   1.93058   1.93477
 Alpha virt. eigenvalues --    1.94534   1.97624   1.99070   2.00566   2.03134
 Alpha virt. eigenvalues --    2.04175   2.04711   2.07548   2.09650   2.12786
 Alpha virt. eigenvalues --    2.13322   2.15273   2.18393   2.19104   2.20549
 Alpha virt. eigenvalues --    2.24105   2.26856   2.29727   2.30386   2.32800
 Alpha virt. eigenvalues --    2.33565   2.35304   2.36788   2.38507   2.42440
 Alpha virt. eigenvalues --    2.44688   2.46129   2.47917   2.52530   2.55113
 Alpha virt. eigenvalues --    2.56396   2.59868   2.62196   2.66567   2.69333
 Alpha virt. eigenvalues --    2.72210   2.73872   2.75670   2.79301   2.81339
 Alpha virt. eigenvalues --    2.83007   2.84783   2.88174   2.91761   2.95939
 Alpha virt. eigenvalues --    2.99332   3.04115   3.07539   3.16609   3.30581
 Alpha virt. eigenvalues --    3.35132   3.37325   3.38830   3.59362   3.71609
          Condensed to atoms (all electrons):
               1          2          3          4          5          6
     1  N    6.430446   0.443201   0.389118  -0.007165  -0.063306  -0.102809
     2  H    0.443201   0.608418  -0.068000  -0.062617  -0.035268  -0.005694
     3  H    0.389118  -0.068000   0.474385  -0.046841  -0.009017   0.018983
     4  C   -0.007165  -0.062617  -0.046841   4.602649   0.212561   0.311775
     5  H   -0.063306  -0.035268  -0.009017   0.212561   1.244495  -0.207839
     6  H   -0.102809  -0.005694   0.018983   0.311775  -0.207839   1.163991
     7  C   -0.121965   0.037447  -0.009918   0.594616  -0.111424   0.033805
     8  H    0.018624   0.000184  -0.001807   0.042374  -0.049272  -0.046128
     9  H    0.016765  -0.003833   0.003690  -0.187758   0.078353  -0.055002
    10  C    0.111593  -0.012473  -0.021848  -0.365346   0.098774   0.018536
    11  N   -0.086200  -0.000066   0.067654   0.046616  -0.031268   0.003732
    12  C   -0.001549  -0.001160  -0.001972  -0.083264  -0.027797   0.001345
    13  H    0.006586   0.000743  -0.013812  -0.004727  -0.000326  -0.000337
    14  C    0.000110   0.000235   0.000466   0.013275   0.005186   0.001185
    15  H   -0.000283  -0.000067   0.001803   0.002778  -0.000115   0.000295
    16  S   -0.023355  -0.000477   0.003396   0.022901   0.015458  -0.002631
    17  H    0.361318  -0.068993  -0.035358  -0.007146   0.021519  -0.033530
               7          8          9         10         11         12
     1  N   -0.121965   0.018624   0.016765   0.111593  -0.086200  -0.001549
     2  H    0.037447   0.000184  -0.003833  -0.012473  -0.000066  -0.001160
     3  H   -0.009918  -0.001807   0.003690  -0.021848   0.067654  -0.001972
     4  C    0.594616   0.042374  -0.187758  -0.365346   0.046616  -0.083264
     5  H   -0.111424  -0.049272   0.078353   0.098774  -0.031268  -0.027797
     6  H    0.033805  -0.046128  -0.055002   0.018536   0.003732   0.001345
     7  C    5.500163   0.079296   0.240752  -0.308743   0.083169  -0.231201
     8  H    0.079296   1.078093  -0.139371  -0.026144   0.036796   0.015469
     9  H    0.240752  -0.139371   0.995120   0.051064  -0.049165  -0.035039
    10  C   -0.308743  -0.026144   0.051064   6.312784   0.392110  -0.249599
    11  N    0.083169   0.036796  -0.049165   0.392110   7.500386   0.135187
    12  C   -0.231201   0.015469  -0.035039  -0.249599   0.135187   5.664926
    13  H   -0.010894   0.000628  -0.000898   0.086258  -0.195211   0.286757
    14  C   -0.003750  -0.006218   0.009857  -0.081603  -0.117862   0.193706
    15  H    0.026084   0.001235   0.000911   0.033137   0.013627  -0.016547
    16  S    0.077587  -0.058996   0.042970   0.089247  -0.126764  -0.318173
    17  H   -0.038310   0.004669   0.004085   0.012945  -0.013380  -0.001165
              13         14         15         16         17
     1  N    0.006586   0.000110  -0.000283  -0.023355   0.361318
     2  H    0.000743   0.000235  -0.000067  -0.000477  -0.068993
     3  H   -0.013812   0.000466   0.001803   0.003396  -0.035358
     4  C   -0.004727   0.013275   0.002778   0.022901  -0.007146
     5  H   -0.000326   0.005186  -0.000115   0.015458   0.021519
     6  H   -0.000337   0.001185   0.000295  -0.002631  -0.033530
     7  C   -0.010894  -0.003750   0.026084   0.077587  -0.038310
     8  H    0.000628  -0.006218   0.001235  -0.058996   0.004669
     9  H   -0.000898   0.009857   0.000911   0.042970   0.004085
    10  C    0.086258  -0.081603   0.033137   0.089247   0.012945
    11  N   -0.195211  -0.117862   0.013627  -0.126764  -0.013380
    12  C    0.286757   0.193706  -0.016547  -0.318173  -0.001165
    13  H    1.268438  -0.126187  -0.038800   0.000794   0.001231
    14  C   -0.126187   5.418972   0.268134   0.283776  -0.000508
    15  H   -0.038800   0.268134   1.168592  -0.126890  -0.000180
    16  S    0.000794   0.283776  -0.126890  15.738580  -0.000575
    17  H    0.001231  -0.000508  -0.000180  -0.000575   0.556470
 Mulliken charges:
               1
     1  N   -0.371130
     2  H    0.168420
     3  H    0.249079
     4  C    0.915317
     5  H   -0.140712
     6  H   -0.099678
     7  C    0.163286
     8  H    0.050567
     9  H    0.027498
    10  C   -0.140691
    11  N   -0.659360
    12  C    0.670076
    13  H   -0.260244
    14  C    0.141227
    15  H   -0.333713
    16  S    0.383151
    17  H    0.236907
 Sum of Mulliken charges =   1.00000
 Mulliken charges with hydrogens summed into heavy atoms:
               1
     1  N    0.283276
     4  C    0.674927
     7  C    0.241351
    10  C   -0.140691
    11  N   -0.659360
    12  C    0.409832
    14  C   -0.192486
    16  S    0.383151
 Electronic spatial extent (au):  <R**2>=           1222.7532
 Charge=              1.0000 electrons
 Dipole moment (field-independent basis, Debye):
    X=              8.6777    Y=              1.4150    Z=             -0.3800  Tot=              8.8005
 Quadrupole moment (field-independent basis, Debye-Ang):
   XX=            -11.2904   YY=            -44.4167   ZZ=            -53.1534
   XY=              3.0648   XZ=             -2.0135   YZ=             -0.2322
 Traceless Quadrupole moment (field-independent basis, Debye-Ang):
   XX=             24.9965   YY=             -8.1299   ZZ=            -16.8666
   XY=              3.0648   XZ=             -2.0135   YZ=             -0.2322
 Octapole moment (field-independent basis, Debye-Ang**2):
  XXX=             85.5496  YYY=             10.8788  ZZZ=             -2.7666  XYY=             14.9862
  XXY=             29.8037  XXZ=             -2.2682  XZZ=             19.2419  YZZ=             -0.1746
  YYZ=              0.8486  XYZ=             -2.0575
 Hexadecapole moment (field-independent basis, Debye-Ang**3):
 XXXX=           -669.7093 YYYY=           -340.1172 ZZZZ=            -84.0597 XXXY=             73.0098
 XXXZ=            -20.1703 YYYX=              3.2016 YYYZ=             -0.3905 ZZZX=             -7.5205
 ZZZY=             -1.5935 XXYY=           -195.6398 XXZZ=           -185.5296 YYZZ=            -82.3153
 XXYZ=             -1.6246 YYXZ=             -0.0400 ZZXY=              9.4138
 N-N= 4.468414074780D+02 E-N=-2.535847089446D+03  KE= 7.003536300514D+02
 Leave Link  601 at Mon Jul 12 13:17:35 2021, MaxMem=   262144000 cpu:               0.2 elap:               0.1
 (Enter /dades/curu/g16A03_MST/g16/l9999.exe)
 1\1\GINC-PIRINEUS47\SP\RMP2-FC\Aug-CC-pVDZ\C5H9N2S1(1+)\UBATOR02\12-Ju
 l-2021\0\\#p mp2/aug-cc-pVDZ scf=tight maxdisk=180GB geom=allcheck\\SE
 T_328_BBB87_conf1.geo_285_285 geometry\\1,1\N,0,-0.9456609205,1.815778
 136,0.996486188\H,0,-1.8726286865,2.2463322199,1.0993795387\H,0,-0.755
 8948469,1.6638866973,-0.0146734408\C,0,-0.8639695867,0.4906311839,1.69
 268431\H,0,-1.7072675436,-0.1002858472,1.3381906952\H,0,-0.9832827579,
 0.6689215863,2.7597785112\C,0,0.4585036839,-0.2156611855,1.405475887\H
 ,0,0.4826177613,-1.1298969407,2.0022192581\H,0,1.2962071709,0.40023832
 02,1.7547075098\C,0,0.6338241102,-0.5402076862,-0.0525332633\N,0,0.147
 1179626,0.2009879696,-1.014817554\C,0,0.4650750526,-0.3043316617,-2.25
 58710717\H,0,0.1205516763,0.2110844702,-3.1423086791\C,0,1.208648842,-
 1.4456245778,-2.2483951972\H,0,1.5740157365,-2.0188581768,-3.085308576
 4\S,0,1.5288320367,-1.9282936873,-0.6161657211\H,0,-0.2536896909,2.491
 2991799,1.3531516055\\Version=ES64L-G16RevA.03\State=1-A\HF=-700.83190
 37\MP2=-702.0247515\RMSD=4.908e-09\PG=C01 [X(C5H9N2S1)]\\@


 THESE ARE THE TIMES THAT TRY MENS SOULS.
 THE SUMMER SOLDIER AND THE SUNSHINE PATRIOT WILL IN THIS CRISIS,
 SHRINK FROM THE SERVICE OF HIS COUNTRY.  BUT HE THAT STANDS NOW,
 DESERVES THE LOVE AND THANKS OF MAN AND WOMAN.
 TYRANNY, LIKE HELL, IS NOT EASILY CONQUERED,
 YET WE HAVE THIS CONSOLATION WITH US,
 THAT THE HARDER THE CONFLICT, THE MORE GLORIOUS THE TRIUMPH.
 WHAT WE OBTAIN TOO CHEAP, WE ESTEEM TOO LIGHTLY, 
 'TIS DEARNESS ONLY THAT GIVES EVERYTHING ITS VALUE.

                                              -- TOM PAINE
 Job cpu time:       0 days  0 hours 11 minutes 11.0 seconds.
 Elapsed time:       0 days  0 hours  2 minutes 50.1 seconds.
 File lengths (MBytes):  RWF=     44 Int=      0 D2E=      0 Chk=      9 Scr=      1
 Normal termination of Gaussian 16 at Mon Jul 12 13:17:35 2021.
