 Entering Gaussian System, Link 0=g16
 Input=SET_328_BBB304_conf1.geo_210_285_OCTANOL.dat
 Output=SET_328_BBB304_conf1.geo_210_285_OCTANOL.log
 Initial command:
 /dades/curu/g16A03_MST/g16/l1.exe "/tmp/ubator02/1835311/Gau-3427.inp" -scrdir="/tmp/ubator02/1835311/"
 Entering Link 1 = /dades/curu/g16A03_MST/g16/l1.exe PID=      3428.
  
 Copyright (c) 1988,1990,1992,1993,1995,1998,2003,2009,2016,
            Gaussian, Inc.  All Rights Reserved.
  
 This is part of the Gaussian(R) 16 program.  It is based on
 the Gaussian(R) 09 system (copyright 2009, Gaussian, Inc.),
 the Gaussian(R) 03 system (copyright 2003, Gaussian, Inc.),
 the Gaussian(R) 98 system (copyright 1998, Gaussian, Inc.),
 the Gaussian(R) 94 system (copyright 1995, Gaussian, Inc.),
 the Gaussian 92(TM) system (copyright 1992, Gaussian, Inc.),
 the Gaussian 90(TM) system (copyright 1990, Gaussian, Inc.),
 the Gaussian 88(TM) system (copyright 1988, Gaussian, Inc.),
 the Gaussian 86(TM) system (copyright 1986, Carnegie Mellon
 University), and the Gaussian 82(TM) system (copyright 1983,
 Carnegie Mellon University). Gaussian is a federally registered
 trademark of Gaussian, Inc.
  
 This software contains proprietary and confidential information,
 including trade secrets, belonging to Gaussian, Inc.
  
 This software is provided under written license and may be
 used, copied, transmitted, or stored only in accord with that
 written license.
  
 The following legend is applicable only to US Government
 contracts under FAR:
  
                    RESTRICTED RIGHTS LEGEND
  
 Use, reproduction and disclosure by the US Government is
 subject to restrictions as set forth in subparagraphs (a)
 and (c) of the Commercial Computer Software - Restricted
 Rights clause in FAR 52.227-19.
  
 Gaussian, Inc.
 340 Quinnipiac St., Bldg. 40, Wallingford CT 06492
  
  
 ---------------------------------------------------------------
 Warning -- This program may not be used in any manner that
 competes with the business of Gaussian, Inc. or will provide
 assistance to any competitor of Gaussian, Inc.  The licensee
 of this program is prohibited from giving any competitor of
 Gaussian, Inc. access to this program.  By using this program,
 the user acknowledges that Gaussian, Inc. is engaged in the
 business of creating and licensing software in the field of
 computational chemistry and represents and warrants to the
 licensee that it is not a competitor of Gaussian, Inc. and that
 it will not use this program in any manner prohibited above.
 ---------------------------------------------------------------
  

 Cite this work as:
 Gaussian 16, Revision A.03,
 M. J. Frisch, G. W. Trucks, H. B. Schlegel, G. E. Scuseria, 
 M. A. Robb, J. R. Cheeseman, G. Scalmani, V. Barone, 
 G. A. Petersson, H. Nakatsuji, X. Li, M. Caricato, A. V. Marenich, 
 J. Bloino, B. G. Janesko, R. Gomperts, B. Mennucci, H. P. Hratchian, 
 J. V. Ortiz, A. F. Izmaylov, J. L. Sonnenberg, D. Williams-Young, 
 F. Ding, F. Lipparini, F. Egidi, J. Goings, B. Peng, A. Petrone, 
 T. Henderson, D. Ranasinghe, V. G. Zakrzewski, J. Gao, N. Rega, 
 G. Zheng, W. Liang, M. Hada, M. Ehara, K. Toyota, R. Fukuda, 
 J. Hasegawa, M. Ishida, T. Nakajima, Y. Honda, O. Kitao, H. Nakai, 
 T. Vreven, K. Throssell, J. A. Montgomery, Jr., J. E. Peralta, 
 F. Ogliaro, M. J. Bearpark, J. J. Heyd, E. N. Brothers, K. N. Kudin, 
 V. N. Staroverov, T. A. Keith, R. Kobayashi, J. Normand, 
 K. Raghavachari, A. P. Rendell, J. C. Burant, S. S. Iyengar, 
 J. Tomasi, M. Cossi, J. M. Millam, M. Klene, C. Adamo, R. Cammi, 
 J. W. Ochterski, R. L. Martin, K. Morokuma, O. Farkas, 
 J. B. Foresman, and D. J. Fox, Gaussian, Inc., Wallingford CT, 2016.
 
 ******************************************
 Gaussian 16:  ES64L-G16RevA.03 25-Dec-2016
                12-Jul-2021 
 ******************************************
 %mem=800MB
 %nproc=4
 Will use up to    4 processors via shared memory.
 %chk=SET_328_BBB304_conf1.geo_210_285.chk
 ---------------------------------------------------------------
 #p b3lyp/6-31G(d) opt freq scrf=(iefpcm,read,solvent=n-octanol)
 ---------------------------------------------------------------
 1/18=20,19=15,26=3,38=1,40=2/1,3;
 2/9=110,12=2,17=6,18=5,40=1/2;
 3/5=1,6=6,7=1,11=2,25=1,30=1,70=2203,71=1,72=25,74=-5/1,2,3;
 4//1;
 5/5=2,38=5,53=25/2;
 6/7=2,8=2,9=2,10=2,28=1/1;
 7//1,2,3,16;
 1/18=20,19=15,26=3/3(2);
 2/9=110/2;
 99//99;
 2/9=110/2;
 3/5=1,6=6,7=1,11=2,25=1,30=1,70=2205,71=1,72=25,74=-5/1,2,3;
 4/5=5,16=3,69=1/1;
 5/5=2,38=5,53=25/2;
 7//1,2,3,16;
 1/18=20,19=15,26=3/3(-5);
 2/9=110/2;
 6/7=2,8=2,9=2,10=2,19=2,28=1/1;
 99/9=1/99;
 Leave Link    1 at Mon Jul 12 12:47:11 2021, MaxMem=   104857600 cpu:               0.0 elap:               0.0
 (Enter /dades/curu/g16A03_MST/g16/l101.exe)
 -----------------------------------------
 SET_328_BBB304_conf1.geo_210_285 geometry
 -----------------------------------------
 Symbolic Z-matrix:
 Charge =  1 Multiplicity = 1
 N                    -0.254    -0.565     4.945 
 H                    -0.364    -1.448     5.431 
 H                    -0.341     0.38      5.302 
 C                    -0.278    -0.56      3.624 
 C                    -0.343     0.579     2.822 
 C                    -0.245     0.459     1.473 
 H                    -0.31      1.342     0.849 
 H                    -0.398     1.586     3.222 
 N                    -0.192    -1.725     3.087 
 C                    -0.138    -1.819     1.712 
 O                    -0.12     -2.93      1.209 
 N                    -0.072    -0.755     0.94 
 C                     0.166    -0.842    -0.511 
 O                     0.849     0.295    -1.002 
 H                     0.896    -1.649    -0.669 
 C                    -1.117    -0.965    -1.396 
 H                    -1.959    -0.472    -0.905 
 H                    -1.387    -1.969    -1.729 
 C                    -0.649    -0.251    -2.652 
 H                    -1.445     0.155    -3.28 
 H                     0.018    -0.91     -3.212 
 C                     0.087     0.946    -2.073 
 H                    -0.57      1.749    -1.728 
 C                     1.126     1.566    -3.11 
 H                     0.644     1.674    -4.085 
 H                     1.864     0.766    -3.201 
 O                     1.812     2.812    -2.649 
 H                     2.721     2.551    -2.413 
 H                    -0.165    -2.547     3.655 
 
 ITRead=  0  0  0  0  0  0  0  0  0  0  0  0  0  0  0  0  0  0  0  0
 ITRead=  0  0  0  0  0  0  0  0  0
 MicOpt= -1 -1 -1 -1 -1 -1 -1 -1 -1 -1 -1 -1 -1 -1 -1 -1 -1 -1 -1 -1
 MicOpt= -1 -1 -1 -1 -1 -1 -1 -1 -1
 NAtoms=     29 NQM=       29 NQMF=       0 NMMI=      0 NMMIF=      0
                NMic=       0 NMicF=      0.
                    Isotopes and Nuclear Properties:
 (Nuclear quadrupole moments (NQMom) in fm**2, nuclear magnetic moments (NMagM)
  in nuclear magnetons)

  Atom         1           2           3           4           5           6           7           8           9          10
 IAtWgt=          14           1           1          12          12          12           1           1          14          12
 AtmWgt=  14.0030740   1.0078250   1.0078250  12.0000000  12.0000000  12.0000000   1.0078250   1.0078250  14.0030740  12.0000000
 NucSpn=           2           1           1           0           0           0           1           1           2           0
 AtZEff=  -0.0000000  -0.0000000  -0.0000000  -0.0000000  -0.0000000  -0.0000000  -0.0000000  -0.0000000  -0.0000000  -0.0000000
 NQMom=    2.0440000   0.0000000   0.0000000   0.0000000   0.0000000   0.0000000   0.0000000   0.0000000   2.0440000   0.0000000
 NMagM=    0.4037610   2.7928460   2.7928460   0.0000000   0.0000000   0.0000000   2.7928460   2.7928460   0.4037610   0.0000000
 AtZNuc=   7.0000000   1.0000000   1.0000000   6.0000000   6.0000000   6.0000000   1.0000000   1.0000000   7.0000000   6.0000000

  Atom        11          12          13          14          15          16          17          18          19          20
 IAtWgt=          16          14          12          16           1          12           1           1          12           1
 AtmWgt=  15.9949146  14.0030740  12.0000000  15.9949146   1.0078250  12.0000000   1.0078250   1.0078250  12.0000000   1.0078250
 NucSpn=           0           2           0           0           1           0           1           1           0           1
 AtZEff=  -0.0000000  -0.0000000  -0.0000000  -0.0000000  -0.0000000  -0.0000000  -0.0000000  -0.0000000  -0.0000000  -0.0000000
 NQMom=    0.0000000   2.0440000   0.0000000   0.0000000   0.0000000   0.0000000   0.0000000   0.0000000   0.0000000   0.0000000
 NMagM=    0.0000000   0.4037610   0.0000000   0.0000000   2.7928460   0.0000000   2.7928460   2.7928460   0.0000000   2.7928460
 AtZNuc=   8.0000000   7.0000000   6.0000000   8.0000000   1.0000000   6.0000000   1.0000000   1.0000000   6.0000000   1.0000000

  Atom        21          22          23          24          25          26          27          28          29
 IAtWgt=           1          12           1          12           1           1          16           1           1
 AtmWgt=   1.0078250  12.0000000   1.0078250  12.0000000   1.0078250   1.0078250  15.9949146   1.0078250   1.0078250
 NucSpn=           1           0           1           0           1           1           0           1           1
 AtZEff=  -0.0000000  -0.0000000  -0.0000000  -0.0000000  -0.0000000  -0.0000000  -0.0000000  -0.0000000  -0.0000000
 NQMom=    0.0000000   0.0000000   0.0000000   0.0000000   0.0000000   0.0000000   0.0000000   0.0000000   0.0000000
 NMagM=    2.7928460   0.0000000   2.7928460   0.0000000   2.7928460   2.7928460   0.0000000   2.7928460   2.7928460
 AtZNuc=   1.0000000   6.0000000   1.0000000   6.0000000   1.0000000   1.0000000   8.0000000   1.0000000   1.0000000
 Leave Link  101 at Mon Jul 12 12:47:11 2021, MaxMem=   104857600 cpu:               0.1 elap:               0.1
 (Enter /dades/curu/g16A03_MST/g16/l103.exe)

 GradGradGradGradGradGradGradGradGradGradGradGradGradGradGradGradGradGrad
 Berny optimization.
 Initialization pass.
                           ----------------------------
                           !    Initial Parameters    !
                           ! (Angstroms and Degrees)  !
 --------------------------                            --------------------------
 ! Name  Definition              Value          Derivative Info.                !
 --------------------------------------------------------------------------------
 ! R1    R(1,2)                  1.0139         estimate D2E/DX2                !
 ! R2    R(1,3)                  1.0139         estimate D2E/DX2                !
 ! R3    R(1,4)                  1.3212         estimate D2E/DX2                !
 ! R4    R(4,5)                  1.3945         estimate D2E/DX2                !
 ! R5    R(4,9)                  1.2857         estimate D2E/DX2                !
 ! R6    R(5,6)                  1.3579         estimate D2E/DX2                !
 ! R7    R(5,8)                  1.0849         estimate D2E/DX2                !
 ! R8    R(6,7)                  1.0832         estimate D2E/DX2                !
 ! R9    R(6,12)                 1.3371         estimate D2E/DX2                !
 ! R10   R(9,10)                 1.3793         estimate D2E/DX2                !
 ! R11   R(9,29)                 0.9995         estimate D2E/DX2                !
 ! R12   R(10,11)                1.2197         estimate D2E/DX2                !
 ! R13   R(10,12)                1.3162         estimate D2E/DX2                !
 ! R14   R(12,13)                1.473          estimate D2E/DX2                !
 ! R15   R(13,14)                1.4143         estimate D2E/DX2                !
 ! R16   R(13,15)                1.0996         estimate D2E/DX2                !
 ! R17   R(13,16)                1.5635         estimate D2E/DX2                !
 ! R18   R(14,22)                1.4668         estimate D2E/DX2                !
 ! R19   R(16,17)                1.0923         estimate D2E/DX2                !
 ! R20   R(16,18)                1.0917         estimate D2E/DX2                !
 ! R21   R(16,19)                1.5187         estimate D2E/DX2                !
 ! R22   R(19,20)                1.0922         estimate D2E/DX2                !
 ! R23   R(19,21)                1.0921         estimate D2E/DX2                !
 ! R24   R(19,22)                1.5198         estimate D2E/DX2                !
 ! R25   R(22,23)                1.0934         estimate D2E/DX2                !
 ! R26   R(22,24)                1.5935         estimate D2E/DX2                !
 ! R27   R(24,25)                1.093          estimate D2E/DX2                !
 ! R28   R(24,26)                1.0922         estimate D2E/DX2                !
 ! R29   R(24,27)                1.4952         estimate D2E/DX2                !
 ! R30   R(27,28)                0.9747         estimate D2E/DX2                !
 ! A1    A(2,1,3)              129.3172         estimate D2E/DX2                !
 ! A2    A(2,1,4)              118.7234         estimate D2E/DX2                !
 ! A3    A(3,1,4)              110.3009         estimate D2E/DX2                !
 ! A4    A(1,4,5)              125.3758         estimate D2E/DX2                !
 ! A5    A(1,4,9)              114.3909         estimate D2E/DX2                !
 ! A6    A(5,4,9)              120.1987         estimate D2E/DX2                !
 ! A7    A(4,5,6)              119.7225         estimate D2E/DX2                !
 ! A8    A(4,5,8)              123.2586         estimate D2E/DX2                !
 ! A9    A(6,5,8)              116.8698         estimate D2E/DX2                !
 ! A10   A(5,6,7)              119.732          estimate D2E/DX2                !
 ! A11   A(5,6,12)             119.0517         estimate D2E/DX2                !
 ! A12   A(7,6,12)             121.2161         estimate D2E/DX2                !
 ! A13   A(4,9,10)             118.7349         estimate D2E/DX2                !
 ! A14   A(4,9,29)             120.6406         estimate D2E/DX2                !
 ! A15   A(10,9,29)            120.6245         estimate D2E/DX2                !
 ! A16   A(9,10,11)            118.2799         estimate D2E/DX2                !
 ! A17   A(9,10,12)            122.1126         estimate D2E/DX2                !
 ! A18   A(11,10,12)           119.5849         estimate D2E/DX2                !
 ! A19   A(6,12,10)            119.5817         estimate D2E/DX2                !
 ! A20   A(6,12,13)            117.8538         estimate D2E/DX2                !
 ! A21   A(10,12,13)           122.557          estimate D2E/DX2                !
 ! A22   A(12,13,14)           111.8717         estimate D2E/DX2                !
 ! A23   A(12,13,15)           106.9875         estimate D2E/DX2                !
 ! A24   A(12,13,16)           115.4461         estimate D2E/DX2                !
 ! A25   A(14,13,15)           102.6806         estimate D2E/DX2                !
 ! A26   A(14,13,16)           105.2492         estimate D2E/DX2                !
 ! A27   A(15,13,16)           113.9359         estimate D2E/DX2                !
 ! A28   A(13,14,22)           111.0638         estimate D2E/DX2                !
 ! A29   A(13,16,17)           110.0365         estimate D2E/DX2                !
 ! A30   A(13,16,18)           116.6133         estimate D2E/DX2                !
 ! A31   A(13,16,19)           100.2693         estimate D2E/DX2                !
 ! A32   A(17,16,18)           111.1957         estimate D2E/DX2                !
 ! A33   A(17,16,19)           113.3982         estimate D2E/DX2                !
 ! A34   A(18,16,19)           104.8521         estimate D2E/DX2                !
 ! A35   A(16,19,20)           115.1965         estimate D2E/DX2                !
 ! A36   A(16,19,21)           109.1829         estimate D2E/DX2                !
 ! A37   A(16,19,22)           101.7973         estimate D2E/DX2                !
 ! A38   A(20,19,21)           111.9987         estimate D2E/DX2                !
 ! A39   A(20,19,22)           106.2143         estimate D2E/DX2                !
 ! A40   A(21,19,22)           112.0139         estimate D2E/DX2                !
 ! A41   A(14,22,19)           100.3811         estimate D2E/DX2                !
 ! A42   A(14,22,23)           114.0619         estimate D2E/DX2                !
 ! A43   A(14,22,24)           108.0063         estimate D2E/DX2                !
 ! A44   A(19,22,23)           114.0573         estimate D2E/DX2                !
 ! A45   A(19,22,24)           111.9796         estimate D2E/DX2                !
 ! A46   A(23,22,24)           108.1426         estimate D2E/DX2                !
 ! A47   A(22,24,25)           109.3552         estimate D2E/DX2                !
 ! A48   A(22,24,26)           102.1107         estimate D2E/DX2                !
 ! A49   A(22,24,27)           115.0073         estimate D2E/DX2                !
 ! A50   A(25,24,26)           107.2193         estimate D2E/DX2                !
 ! A51   A(25,24,27)           113.2674         estimate D2E/DX2                !
 ! A52   A(26,24,27)           109.0299         estimate D2E/DX2                !
 ! A53   A(24,27,28)           106.2228         estimate D2E/DX2                !
 ! D1    D(2,1,4,5)            169.7794         estimate D2E/DX2                !
 ! D2    D(2,1,4,9)            -12.369          estimate D2E/DX2                !
 ! D3    D(3,1,4,5)              3.0994         estimate D2E/DX2                !
 ! D4    D(3,1,4,9)           -179.0491         estimate D2E/DX2                !
 ! D5    D(1,4,5,6)            174.3146         estimate D2E/DX2                !
 ! D6    D(1,4,5,8)             -1.1038         estimate D2E/DX2                !
 ! D7    D(9,4,5,6)             -3.4214         estimate D2E/DX2                !
 ! D8    D(9,4,5,8)           -178.8397         estimate D2E/DX2                !
 ! D9    D(1,4,9,10)          -176.6538         estimate D2E/DX2                !
 ! D10   D(1,4,9,29)             3.3606         estimate D2E/DX2                !
 ! D11   D(5,4,9,10)             1.3194         estimate D2E/DX2                !
 ! D12   D(5,4,9,29)          -178.6662         estimate D2E/DX2                !
 ! D13   D(4,5,6,7)            179.1077         estimate D2E/DX2                !
 ! D14   D(4,5,6,12)            -0.7531         estimate D2E/DX2                !
 ! D15   D(8,5,6,7)             -5.1866         estimate D2E/DX2                !
 ! D16   D(8,5,6,12)           174.9526         estimate D2E/DX2                !
 ! D17   D(5,6,12,10)            6.9802         estimate D2E/DX2                !
 ! D18   D(5,6,12,13)         -173.9937         estimate D2E/DX2                !
 ! D19   D(7,6,12,10)         -172.8785         estimate D2E/DX2                !
 ! D20   D(7,6,12,13)            6.1476         estimate D2E/DX2                !
 ! D21   D(4,9,10,11)         -176.6083         estimate D2E/DX2                !
 ! D22   D(4,9,10,12)            5.1309         estimate D2E/DX2                !
 ! D23   D(29,9,10,11)           3.3773         estimate D2E/DX2                !
 ! D24   D(29,9,10,12)        -174.8835         estimate D2E/DX2                !
 ! D25   D(9,10,12,6)           -9.3758         estimate D2E/DX2                !
 ! D26   D(9,10,12,13)         171.6458         estimate D2E/DX2                !
 ! D27   D(11,10,12,6)         172.3854         estimate D2E/DX2                !
 ! D28   D(11,10,12,13)         -6.5929         estimate D2E/DX2                !
 ! D29   D(6,12,13,14)          31.0298         estimate D2E/DX2                !
 ! D30   D(6,12,13,15)         142.7434         estimate D2E/DX2                !
 ! D31   D(6,12,13,16)         -89.2931         estimate D2E/DX2                !
 ! D32   D(10,12,13,14)       -149.9751         estimate D2E/DX2                !
 ! D33   D(10,12,13,15)        -38.2615         estimate D2E/DX2                !
 ! D34   D(10,12,13,16)         89.702          estimate D2E/DX2                !
 ! D35   D(12,13,14,22)       -123.282          estimate D2E/DX2                !
 ! D36   D(15,13,14,22)        122.3234         estimate D2E/DX2                !
 ! D37   D(16,13,14,22)          2.8267         estimate D2E/DX2                !
 ! D38   D(12,13,16,17)         29.1022         estimate D2E/DX2                !
 ! D39   D(12,13,16,18)        -98.7179         estimate D2E/DX2                !
 ! D40   D(12,13,16,19)        148.8153         estimate D2E/DX2                !
 ! D41   D(14,13,16,17)        -94.7688         estimate D2E/DX2                !
 ! D42   D(14,13,16,18)        137.4111         estimate D2E/DX2                !
 ! D43   D(14,13,16,19)         24.9444         estimate D2E/DX2                !
 ! D44   D(15,13,16,17)        153.5188         estimate D2E/DX2                !
 ! D45   D(15,13,16,18)         25.6987         estimate D2E/DX2                !
 ! D46   D(15,13,16,19)        -86.768          estimate D2E/DX2                !
 ! D47   D(13,14,22,19)        -29.4194         estimate D2E/DX2                !
 ! D48   D(13,14,22,23)         92.9702         estimate D2E/DX2                !
 ! D49   D(13,14,22,24)       -146.7837         estimate D2E/DX2                !
 ! D50   D(13,16,19,20)       -156.8096         estimate D2E/DX2                !
 ! D51   D(13,16,19,21)         76.1776         estimate D2E/DX2                !
 ! D52   D(13,16,19,22)        -42.3835         estimate D2E/DX2                !
 ! D53   D(17,16,19,20)        -39.5649         estimate D2E/DX2                !
 ! D54   D(17,16,19,21)       -166.5778         estimate D2E/DX2                !
 ! D55   D(17,16,19,22)         74.8612         estimate D2E/DX2                !
 ! D56   D(18,16,19,20)         81.9225         estimate D2E/DX2                !
 ! D57   D(18,16,19,21)        -45.0903         estimate D2E/DX2                !
 ! D58   D(18,16,19,22)       -163.6514         estimate D2E/DX2                !
 ! D59   D(16,19,22,14)         44.2846         estimate D2E/DX2                !
 ! D60   D(16,19,22,23)        -78.1082         estimate D2E/DX2                !
 ! D61   D(16,19,22,24)        158.6678         estimate D2E/DX2                !
 ! D62   D(20,19,22,14)        165.1927         estimate D2E/DX2                !
 ! D63   D(20,19,22,23)         42.7999         estimate D2E/DX2                !
 ! D64   D(20,19,22,24)        -80.4241         estimate D2E/DX2                !
 ! D65   D(21,19,22,14)        -72.2358         estimate D2E/DX2                !
 ! D66   D(21,19,22,23)        165.3714         estimate D2E/DX2                !
 ! D67   D(21,19,22,24)         42.1474         estimate D2E/DX2                !
 ! D68   D(14,22,24,25)        156.3394         estimate D2E/DX2                !
 ! D69   D(14,22,24,26)         42.9935         estimate D2E/DX2                !
 ! D70   D(14,22,24,27)        -74.9156         estimate D2E/DX2                !
 ! D71   D(19,22,24,25)         46.7355         estimate D2E/DX2                !
 ! D72   D(19,22,24,26)        -66.6104         estimate D2E/DX2                !
 ! D73   D(19,22,24,27)        175.4804         estimate D2E/DX2                !
 ! D74   D(23,22,24,25)        -79.7666         estimate D2E/DX2                !
 ! D75   D(23,22,24,26)        166.8875         estimate D2E/DX2                !
 ! D76   D(23,22,24,27)         48.9783         estimate D2E/DX2                !
 ! D77   D(22,24,27,28)        105.2039         estimate D2E/DX2                !
 ! D78   D(25,24,27,28)       -128.0222         estimate D2E/DX2                !
 ! D79   D(26,24,27,28)         -8.7358         estimate D2E/DX2                !
 --------------------------------------------------------------------------------
 Trust Radius=3.00D-01 FncErr=1.00D-07 GrdErr=1.00D-06 EigMax=2.50D+02 EigMin=1.00D-04
 Number of steps in this run=    172 maximum allowed number of steps=    174.
 GradGradGradGradGradGradGradGradGradGradGradGradGradGradGradGradGradGrad

 Leave Link  103 at Mon Jul 12 12:47:11 2021, MaxMem=   104857600 cpu:               0.0 elap:               0.0
 (Enter /dades/curu/g16A03_MST/g16/l202.exe)
                          Input orientation:                          
 ---------------------------------------------------------------------
 Center     Atomic      Atomic             Coordinates (Angstroms)
 Number     Number       Type             X           Y           Z
 ---------------------------------------------------------------------
      1          7           0       -0.254000   -0.565000    4.945000
      2          1           0       -0.364000   -1.448000    5.431000
      3          1           0       -0.341000    0.380000    5.302000
      4          6           0       -0.278000   -0.560000    3.624000
      5          6           0       -0.343000    0.579000    2.822000
      6          6           0       -0.245000    0.459000    1.473000
      7          1           0       -0.310000    1.342000    0.849000
      8          1           0       -0.398000    1.586000    3.222000
      9          7           0       -0.192000   -1.725000    3.087000
     10          6           0       -0.138000   -1.819000    1.712000
     11          8           0       -0.120000   -2.930000    1.209000
     12          7           0       -0.072000   -0.755000    0.940000
     13          6           0        0.166000   -0.842000   -0.511000
     14          8           0        0.849000    0.295000   -1.002000
     15          1           0        0.896000   -1.649000   -0.669000
     16          6           0       -1.117000   -0.965000   -1.396000
     17          1           0       -1.959000   -0.472000   -0.905000
     18          1           0       -1.387000   -1.969000   -1.729000
     19          6           0       -0.649000   -0.251000   -2.652000
     20          1           0       -1.445000    0.155000   -3.280000
     21          1           0        0.018000   -0.910000   -3.212000
     22          6           0        0.087000    0.946000   -2.073000
     23          1           0       -0.570000    1.749000   -1.728000
     24          6           0        1.126000    1.566000   -3.110000
     25          1           0        0.644000    1.674000   -4.085000
     26          1           0        1.864000    0.766000   -3.201000
     27          8           0        1.812000    2.812000   -2.649000
     28          1           0        2.721000    2.551000   -2.413000
     29          1           0       -0.165000   -2.547000    3.655000
 ---------------------------------------------------------------------
                    Distance matrix (angstroms):
                    1          2          3          4          5
     1  N    0.000000
     2  H    1.013896   0.000000
     3  H    1.013925   1.832690   0.000000
     4  C    1.321227   2.015239   1.924384   0.000000
     5  C    2.413252   3.303945   2.487972   1.394543   0.000000
     6  C    3.619868   4.395062   3.831018   2.380389   1.357868
     7  H    4.518518   5.364862   4.555833   3.364410   2.115653
     8  H    2.759758   3.753131   2.405012   2.186623   1.084930
     9  N    2.191257   2.366569   3.059322   1.285687   2.324100
    10  C    3.469620   3.744286   4.214844   2.293562   2.650383
    11  O    4.423672   4.481199   5.268547   3.387342   3.868408
    12  N    4.013633   4.553525   4.515266   2.698947   2.322697
    13  C    5.479148   5.996291   5.961653   4.168319   3.658854
    14  O    6.109257   6.774430   6.415898   4.837461   4.015532
    15  H    5.832200   6.232014   6.426496   4.581926   4.322752
    16  C    6.411946   6.885363   6.875639   5.105717   4.557909
    17  H    6.094110   6.606171   6.470756   4.831702   4.196020
    18  H    6.913551   7.251453   7.486446   5.645332   5.319196
    19  C    7.613740   8.176119   7.984932   6.294545   5.545017
    20  H    8.341913   8.922987   8.655644   7.038347   6.215190
    21  H    8.168822   8.668150   8.618653   6.851351   6.225480
    22  C    7.186914   7.889528   7.409060   5.903988   4.927536
    23  H    7.069893   7.843120   7.165717   5.836150   4.703502
    24  C    8.445625   9.178942   8.620930   7.199851   6.190376
    25  H    9.346680  10.065645   9.526827   8.078955   7.062566
    26  H    8.521432   9.185707   8.792726   7.275099   6.417347
    27  O    8.563955   9.389834   8.588855   7.422197   6.289845
    28  H    8.526444   9.329392   8.579645   7.424129   6.378253
    29  H    2.366505   2.097994   3.363170   1.990452   3.239977
                    6          7          8          9         10
     6  C    0.000000
     7  H    1.083185   0.000000
     8  H    2.086274   2.387134   0.000000
     9  N    2.716185   3.798560   3.320148   0.000000
    10  C    2.293001   3.281200   3.733862   1.379267   0.000000
    11  O    3.401565   4.291350   4.952142   2.232508   1.219694
    12  N    1.337092   2.112424   3.285435   2.359006   1.316220
    13  C    2.407858   2.616492   4.488716   3.722023   2.447177
    14  O    2.710970   2.421919   4.589539   4.678034   3.578961
    15  H    3.214609   3.564385   5.222982   3.911145   2.601388
    16  C    3.319536   3.318663   5.324517   4.640098   3.368593
    17  H    3.075620   3.014351   4.868697   4.541846   3.461089
    18  H    4.177577   4.332290   6.174832   4.968040   3.663739
    19  C    4.205109   3.861291   6.159663   5.942865   4.665216
    20  H    4.911560   4.443629   6.739434   6.755968   5.524942
    21  H    4.888001   4.655192   6.913713   6.354976   5.009630
    22  C    3.594650   2.975317   5.355544   5.817017   4.692768
    23  H    3.466428   2.621865   4.955669   5.949436   4.975022
    24  C    4.910090   4.217340   6.512849   7.139371   6.025579
    25  H    5.758291   5.036338   7.381447   7.980581   6.813060
    26  H    5.136965   4.632554   6.858861   7.069028   5.901508
    27  O    5.172885   4.347389   6.391856   7.583013   6.653344
    28  H    5.317388   4.614031   6.512497   7.551142   6.654803
    29  H    3.715314   4.797810   4.162147   0.999518   2.075081
                   11         12         13         14         15
    11  O    0.000000
    12  N    2.192097   0.000000
    13  C    2.720283   1.472961   0.000000
    14  O    4.028412   2.392092   1.414333   0.000000
    15  H    2.490000   2.079697   1.099597   1.972875   0.000000
    16  C    3.411929   2.567688   1.563471   2.368120   2.246899
    17  H    3.727289   2.654220   2.192661   2.912484   3.097103
    18  H    3.340757   3.213500   2.272765   3.264034   2.537339
    19  C    4.729081   3.672793   2.365880   2.294476   2.876407
    20  H    5.605709   4.530080   3.355099   3.235942   3.943605
    21  H    4.862580   4.155867   2.705906   2.650790   2.789956
    22  C    5.083085   3.463647   2.375506   1.466794   3.059366
    23  H    5.542699   3.692729   2.955684   2.157488   3.849291
    24  C    6.357696   4.819206   3.670813   2.477062   4.043217
    25  H    7.057404   5.627017   4.396842   3.383571   4.772304
    26  H    6.086442   4.817615   3.564403   2.467320   3.630465
    27  O    7.182434   5.399432   4.542255   3.158365   4.965881
    28  H    7.157620   5.474769   4.653824   3.253435   4.900221
    29  H    2.476213   3.254403   4.513551   5.549127   4.541927
                   16         17         18         19         20
    16  C    0.000000
    17  H    1.092288   0.000000
    18  H    1.091698   1.801990   0.000000
    19  C    1.518669   2.194755   2.085209   0.000000
    20  H    2.216177   2.509572   2.630654   1.092170   0.000000
    21  H    2.142220   3.069629   2.301042   1.092140   1.810861
    22  C    2.357937   2.749739   3.284545   1.519785   2.104651
    23  H    2.788410   2.745813   3.806706   2.204545   2.390641
    24  C    3.791412   4.304962   4.551764   2.581061   2.937663
    25  H    4.158866   4.636089   4.790318   2.725979   2.705422
    26  H    3.891111   4.628130   4.496222   2.766019   3.365864
    27  O    4.941131   5.295907   5.825630   3.929186   4.250395
    28  H    5.303470   5.771914   6.146049   4.389217   4.883448
    29  H    5.377883   5.321434   5.551110   6.729348   7.552048
                   21         22         23         24         25
    21  H    0.000000
    22  C    2.178719   0.000000
    23  H    3.101335   1.093381   0.000000
    24  C    2.714525   1.593515   2.195411   0.000000
    25  H    2.798403   2.210967   2.652333   1.092984   0.000000
    26  H    2.493354   2.112466   3.010046   1.092211   1.759068
    27  O    4.169975   2.605639   2.766249   1.495203   2.172870
    28  H    4.463533   3.103157   3.455880   2.000015   2.806892
    29  H    7.061795   6.713757   6.899009   8.021763   8.853187
                   26         27         28         29
    26  H    0.000000
    27  O    2.119793   0.000000
    28  H    2.131107   0.974730   0.000000
    29  H    7.880200   8.506928   8.434407   0.000000
 Stoichiometry    C9H14N3O3(1+)
 Framework group  C1[X(C9H14N3O3)]
 Deg. of freedom    81
 Full point group                 C1      NOp   1
 Largest Abelian subgroup         C1      NOp   1
 Largest concise Abelian subgroup C1      NOp   1
                         Standard orientation:                         
 ---------------------------------------------------------------------
 Center     Atomic      Atomic             Coordinates (Angstroms)
 Number     Number       Type             X           Y           Z
 ---------------------------------------------------------------------
      1          7           0       -4.427868   -1.305971    0.078633
      2          1           0       -5.198076   -0.681765   -0.133810
      3          1           0       -4.447396   -2.237368    0.478833
      4          6           0       -3.204526   -0.809740    0.131838
      5          6           0       -2.079257   -1.484837    0.603817
      6          6           0       -0.854798   -0.907145    0.500001
      7          1           0        0.017486   -1.425096    0.879654
      8          1           0       -2.112640   -2.496446    0.994467
      9          7           0       -3.093739    0.381305   -0.339466
     10          6           0       -1.842754    0.959758   -0.392451
     11          8           0       -1.755029    2.112220   -0.782052
     12          7           0       -0.751662    0.297988   -0.069940
     13          6           0        0.599459    0.841137   -0.291469
     14          8           0        1.546361   -0.182290   -0.528773
     15          1           0        0.577016    1.376582   -1.251629
     16          6           0        1.188051    1.680256    0.889159
     17          1           0        0.777254    1.329793    1.838640
     18          1           0        1.112199    2.765902    0.802990
     19          6           0        2.667392    1.379082    0.724235
     20          1           0        3.271368    1.507904    1.625043
     21          1           0        3.059275    1.955028   -0.116886
     22          6           0        2.650357   -0.112726    0.434472
     23          1           0        2.508801   -0.737316    1.320662
     24          6           0        3.978861   -0.592168   -0.303432
     25          1           0        4.848846   -0.171776    0.207459
     26          1           0        3.897866   -0.090348   -1.270149
     27          8           0        4.080687   -2.067086   -0.526773
     28          1           0        3.906794   -2.211575   -1.474920
     29          1           0       -3.898768    0.878769   -0.661171
 ---------------------------------------------------------------------
 Rotational constants (GHZ):           1.2762474           0.3173751           0.2723577
 Leave Link  202 at Mon Jul 12 12:47:11 2021, MaxMem=   104857600 cpu:               0.0 elap:               0.0
 (Enter /dades/curu/g16A03_MST/g16/l301.exe)
 Standard basis: 6-31G(d) (6D, 7F)
 Ernie: Thresh=  0.10000D-02 Tol=  0.10000D-05 Strict=F.
 There are   253 symmetry adapted cartesian basis functions of A   symmetry.
 There are   253 symmetry adapted basis functions of A   symmetry.
   253 basis functions,   476 primitive gaussians,   253 cartesian basis functions
    56 alpha electrons       56 beta electrons
       nuclear repulsion energy      1046.8663611412 Hartrees.
 IExCor=  402 DFT=T Ex+Corr=B3LYP ExCW=0 ScaHFX=  0.200000
 ScaDFX=  0.800000  0.720000  1.000000  0.810000 ScalE2=  1.000000  1.000000
 IRadAn=      5 IRanWt=     -1 IRanGd=            0 ICorTp=0 IEmpDi=  4
 NAtoms=   29 NActive=   29 NUniq=   29 SFac= 1.00D+00 NAtFMM=   60 NAOKFM=F Big=F
 Integral buffers will be    131072 words long.
 Raffenetti 2 integral format.
 Two-electron integral symmetry is turned on.
 Using the following non-standard input for PCM:
 MSTModel=DFT cav MSTCharged
 --- end of non-standard input.
 MST model for solvation energy: B3LYP parametrization.
 MST cavity parameters:
 ISph   IAn     Re0     Alpha   Atom Type   QCorr
 ------------------------------------------------
   1      7     1.50     1.50      NH         F
   2      1     0.90     1.50      NH         F
   3      1     0.90     1.50      NH         F
   4      6     1.50     1.50      C          F
   5      6     1.50     1.50      CH         F
   6      6     1.50     1.50      CH         F
   7      1     1.20     1.50      CH         F
   8      1     1.20     1.50      CH         F
   9      7     1.50     1.15      NHc        T
  10      6     1.50     1.50      C          F
  11      8     1.40     1.50      O          F
  12      7     1.50     1.50      Nc         F
  13      6     1.50     1.50      CH         F
  14      8     1.40     1.50      O          F
  15      1     1.20     1.50      CH         F
  16      6     1.50     1.50      CH2        F
  17      1     1.20     1.50      CH2        F
  18      1     1.20     1.50      CH2        F
  19      6     1.50     1.50      CH2        F
  20      1     1.20     1.50      CH2        F
  21      1     1.20     1.50      CH2        F
  22      6     1.50     1.50      CH         F
  23      1     1.20     1.50      CH         F
  24      6     1.50     1.50      CH2        F
  25      1     1.20     1.50      CH2        F
  26      1     1.20     1.50      CH2        F
  27      8     1.40     1.50      OH         F
  28      1     0.90     1.50      OH         F
  29      1     0.90     1.15      NHc        T
 ------------------------------------------------------------------------------
 Polarizable Continuum Model (PCM)
 =================================
 Model                : PCM.
 Atomic radii         : MST.
 Polarization charges : Total charges.
 Charge compensation  : None.
 Solution method      : On-the-fly selection.
 Cavity type          : Scaled VdW (van der Waals Surface) (Alpha=1.500).
 Cavity algorithm     : GePol (No added spheres)
                        Default sphere list used, NSphG=   29.
                        Lebedev-Laikov grids with approx.  5.0 points / Ang**2.
                        Smoothing algorithm: York/Karplus (Gamma=1.0000).
                        Polarization charges: spherical gaussians, with
                                              point-specific exponents (IZeta= 3).
                        Self-potential: point-specific (ISelfS= 7).
                        Self-field    : sphere-specific E.n sum rule (ISelfD= 2).
 1st derivatives      : Analytical E(r).r(x)/FMM algorithm (CHGder, D1EAlg=3).
                        Cavity 1st derivative terms included.
 Solvent              : n-Octanol, Eps=   9.862900 Eps(inf)=   2.043470
 ------------------------------------------------------------------------------
 GePol: Number of generator spheres                  =      29
 GePol: Total number of spheres                      =      29
 GePol: Number of exposed spheres                    =      29 (100.00%)
 GePol: Number of points                             =    2567
 GePol: Average weight of points                     =       0.11
 GePol: Minimum weight of points                     =   0.62D-11
 GePol: Maximum weight of points                     =    0.20837
 GePol: Number of points with low weight             =     135
 GePol: Fraction of low-weight points (<1% of avg)   =       5.26%
 GePol: Cavity surface area                          =    292.075 Ang**2
 GePol: Cavity volume                                =    328.076 Ang**3
 Surface areas from nonelectrostatic (unscaled) cavity and vdw tensions:
 Sphere =    1 Type =  NH  Surf =       14.451 Tension =       -0.234
 Sphere =    2 Type =  NH  Surf =        3.942 Tension =       -0.234
 Sphere =    3 Type =  NH  Surf =        3.936 Tension =       -0.234
 Sphere =    4 Type =  C   Surf =        5.586 Tension =       -0.205
 Sphere =    5 Type =  CH  Surf =        7.576 Tension =       -0.195
 Sphere =    6 Type =  CH  Surf =        7.111 Tension =       -0.195
 Sphere =    7 Type =  CH  Surf =        9.632 Tension =       -0.195
 Sphere =    8 Type =  CH  Surf =       10.195 Tension =       -0.195
 Sphere =    9 Type =  NHc Surf =        9.488 Tension =       -0.295
 Sphere =   10 Type =  C   Surf =        5.884 Tension =       -0.205
 Sphere =   11 Type =  O   Surf =       15.764 Tension =       -0.185
 Sphere =   12 Type =  Nc  Surf =        5.352 Tension =       -0.161
 Sphere =   13 Type =  CH  Surf =        2.925 Tension =       -0.195
 Sphere =   14 Type =  O   Surf =        9.785 Tension =       -0.185
 Sphere =   15 Type =  CH  Surf =        9.609 Tension =       -0.195
 Sphere =   16 Type =  CH2 Surf =        4.270 Tension =       -0.194
 Sphere =   17 Type =  CH2 Surf =       10.092 Tension =       -0.194
 Sphere =   18 Type =  CH2 Surf =       10.030 Tension =       -0.194
 Sphere =   19 Type =  CH2 Surf =        3.847 Tension =       -0.194
 Sphere =   20 Type =  CH2 Surf =       10.066 Tension =       -0.194
 Sphere =   21 Type =  CH2 Surf =       10.013 Tension =       -0.194
 Sphere =   22 Type =  CH  Surf =        3.334 Tension =       -0.195
 Sphere =   23 Type =  CH  Surf =       10.124 Tension =       -0.195
 Sphere =   24 Type =  CH2 Surf =        4.852 Tension =       -0.194
 Sphere =   25 Type =  CH2 Surf =       10.144 Tension =       -0.194
 Sphere =   26 Type =  CH2 Surf =        9.798 Tension =       -0.194
 Sphere =   27 Type =  OH  Surf =       15.101 Tension =       -0.238
 Sphere =   28 Type =  OH  Surf =        4.464 Tension =       -0.238
 Sphere =   29 Type =  NHc Surf =        3.845 Tension =       -0.295
 PCM non-electrostatic energy =        -0.0149022550 Hartrees.
 Nuclear repulsion after PCM non-electrostatic terms =     1046.8514588862 Hartrees.
 Leave Link  301 at Mon Jul 12 12:47:11 2021, MaxMem=   104857600 cpu:               0.1 elap:               0.1
 (Enter /dades/curu/g16A03_MST/g16/l302.exe)
 NPDir=0 NMtPBC=     1 NCelOv=     1 NCel=       1 NClECP=     1 NCelD=      1
         NCelK=      1 NCelE2=     1 NClLst=     1 CellRange=     0.0.
 One-electron integrals computed using PRISM.
 One-electron integral symmetry used in STVInt
 NBasis=   253 RedAO= T EigKep=  9.06D-04  NBF=   253
 NBsUse=   253 1.00D-06 EigRej= -1.00D+00 NBFU=   253
 Precomputing XC quadrature grid using
 IXCGrd= 4 IRadAn=           5 IRanWt=          -1 IRanGd=           0 AccXCQ= 0.00D+00.
 Generated NRdTot=       0 NPtTot=           0 NUsed=           0 NTot=          32
 NSgBfM=   253   252   252   252   253 MxSgAt=    29 MxSgA2=    29.
 Leave Link  302 at Mon Jul 12 12:47:12 2021, MaxMem=   104857600 cpu:               3.1 elap:               0.8
 (Enter /dades/curu/g16A03_MST/g16/l303.exe)
 DipDrv:  MaxL=1.
 Leave Link  303 at Mon Jul 12 12:47:12 2021, MaxMem=   104857600 cpu:               0.1 elap:               0.0
 (Enter /dades/curu/g16A03_MST/g16/l401.exe)
 ExpMin= 1.61D-01 ExpMax= 5.48D+03 ExpMxC= 8.25D+02 IAcc=3 IRadAn=         5 AccDes= 0.00D+00
 Harris functional with IExCor=  402 and IRadAn=       5 diagonalized for initial guess.
 HarFok:  IExCor=  402 AccDes= 0.00D+00 IRadAn=         5 IDoV= 1 UseB2=F ITyADJ=14
 ICtDFT=  3500011 ScaDFX=  1.000000  1.000000  1.000000  1.000000
 FoFCou: FMM=F IPFlag=           0 FMFlag=      100000 FMFlg1=           0
         NFxFlg=           0 DoJE=T BraDBF=F KetDBF=T FulRan=T
         wScrn=  0.000000 ICntrl=       500 IOpCl=  0 I1Cent=   200000004 NGrid=           0
         NMat0=    1 NMatS0=      1 NMatT0=    0 NMatD0=    1 NMtDS0=    0 NMtDT0=    0
 Petite list used in FoFCou.
 Harris En= -741.075285202241    
 JPrj=0 DoOrth=F DoCkMO=F.
 Leave Link  401 at Mon Jul 12 12:47:18 2021, MaxMem=   104857600 cpu:              21.2 elap:               5.3
 (Enter /dades/curu/g16A03_MST/g16/l502.exe)
 Integral symmetry usage will be decided dynamically.
 Closed shell SCF:
 Using DIIS extrapolation, IDIIS=  1040.
 NGot=   104857600 LenX=   104725134 LenY=   104660684
 Requested convergence on RMS density matrix=1.00D-08 within 128 cycles.
 Requested convergence on MAX density matrix=1.00D-06.
 Requested convergence on             energy=1.00D-06.
 No special actions if energy rises.
 Fock matrices will be formed incrementally for  20 cycles.

 Cycle   1  Pass 1  IDiag  1:
 FoFJK:  IHMeth= 1 ICntrl=       0 DoSepK=F KAlg= 0 I1Cent=           0 FoldK=F
 IRaf= 840000000 NMat=       1 IRICut=       1 DoRegI=T DoRafI=F ISym2E= 0 IDoP0=0 IntGTp=1.
 FoFCou: FMM=F IPFlag=           0 FMFlag=      100000 FMFlg1=           0
         NFxFlg=           0 DoJE=F BraDBF=F KetDBF=F FulRan=T
         wScrn=  0.000000 ICntrl=         0 IOpCl=  0 I1Cent=           0 NGrid=           0
         NMat0=    1 NMatS0=      1 NMatT0=    0 NMatD0=    1 NMtDS0=    0 NMtDT0=    0
 Symmetry not used in FoFCou.
 Inv3:  Mode=1 IEnd=    19768467.
 Iteration    1 A*A^-1 deviation from unit magnitude is 4.44D-15 for   2559.
 Iteration    1 A*A^-1 deviation from orthogonality  is 4.35D-15 for   2552     73.
 Iteration    1 A^-1*A deviation from unit magnitude is 4.44D-15 for   2559.
 Iteration    1 A^-1*A deviation from orthogonality  is 2.44D-15 for   2567   2450.
 E= -740.813274418684    
 DIIS: error= 2.35D-02 at cycle   1 NSaved=   1.
 NSaved= 1 IEnMin= 1 EnMin= -740.813274418684     IErMin= 1 ErrMin= 2.35D-02
 ErrMax= 2.35D-02  0.00D+00 EMaxC= 1.00D-01 BMatC= 3.95D-01 BMatP= 3.95D-01
 IDIUse=3 WtCom= 7.65D-01 WtEn= 2.35D-01
 Coeff-Com:  0.100D+01
 Coeff-En:   0.100D+01
 Coeff:      0.100D+01
 Gap=     0.161 Goal=   None    Shift=    0.000
 GapD=    0.161 DampG=1.000 DampE=0.500 DampFc=0.5000 IDamp=-1.
 Damping current iteration by 5.00D-01
 RMSDP=6.10D-03 MaxDP=2.55D-01              OVMax= 2.97D-01

 Cycle   2  Pass 1  IDiag  1:
 RMSU=  3.04D-03    CP:  9.88D-01
 E= -740.897269180858     Delta-E=       -0.083994762174 Rises=F Damp=T
 DIIS: error= 1.65D-02 at cycle   2 NSaved=   2.
 NSaved= 2 IEnMin= 2 EnMin= -740.897269180858     IErMin= 2 ErrMin= 1.65D-02
 ErrMax= 1.65D-02  0.00D+00 EMaxC= 1.00D-01 BMatC= 6.81D-02 BMatP= 3.95D-01
 IDIUse=3 WtCom= 8.35D-01 WtEn= 1.65D-01
 Coeff-Com:  0.223D+00 0.777D+00
 Coeff-En:   0.357D+00 0.643D+00
 Coeff:      0.245D+00 0.755D+00
 Gap=     0.193 Goal=   None    Shift=    0.000
 RMSDP=1.92D-03 MaxDP=1.12D-01 DE=-8.40D-02 OVMax= 1.85D-01

 Cycle   3  Pass 1  IDiag  1:
 RMSU=  1.63D-03    CP:  9.77D-01  6.73D-01
 E= -741.099357330226     Delta-E=       -0.202088149368 Rises=F Damp=F
 DIIS: error= 1.58D-02 at cycle   3 NSaved=   3.
 NSaved= 3 IEnMin= 3 EnMin= -741.099357330226     IErMin= 3 ErrMin= 1.58D-02
 ErrMax= 1.58D-02  0.00D+00 EMaxC= 1.00D-01 BMatC= 5.08D-02 BMatP= 6.81D-02
 IDIUse=3 WtCom= 8.42D-01 WtEn= 1.58D-01
 Coeff-Com:  0.637D-01 0.454D+00 0.482D+00
 Coeff-En:   0.000D+00 0.000D+00 0.100D+01
 Coeff:      0.536D-01 0.382D+00 0.564D+00
 Gap=     0.184 Goal=   None    Shift=    0.000
 RMSDP=1.24D-03 MaxDP=5.79D-02 DE=-2.02D-01 OVMax= 6.60D-02

 Cycle   4  Pass 1  IDiag  1:
 RMSU=  6.76D-04    CP:  9.84D-01  8.36D-01  4.49D-01
 E= -741.133622528780     Delta-E=       -0.034265198554 Rises=F Damp=F
 DIIS: error= 7.26D-03 at cycle   4 NSaved=   4.
 NSaved= 4 IEnMin= 4 EnMin= -741.133622528780     IErMin= 4 ErrMin= 7.26D-03
 ErrMax= 7.26D-03  0.00D+00 EMaxC= 1.00D-01 BMatC= 1.19D-02 BMatP= 5.08D-02
 IDIUse=3 WtCom= 9.27D-01 WtEn= 7.26D-02
 Coeff-Com:  0.101D-01 0.684D-01 0.332D+00 0.589D+00
 Coeff-En:   0.000D+00 0.000D+00 0.211D+00 0.789D+00
 Coeff:      0.938D-02 0.634D-01 0.324D+00 0.603D+00
 Gap=     0.184 Goal=   None    Shift=    0.000
 RMSDP=4.42D-04 MaxDP=2.15D-02 DE=-3.43D-02 OVMax= 3.00D-02

 Cycle   5  Pass 1  IDiag  1:
 RMSU=  1.56D-04    CP:  9.83D-01  7.71D-01  6.19D-01  6.53D-01
 E= -741.142855375278     Delta-E=       -0.009232846498 Rises=F Damp=F
 DIIS: error= 9.56D-04 at cycle   5 NSaved=   5.
 NSaved= 5 IEnMin= 5 EnMin= -741.142855375278     IErMin= 5 ErrMin= 9.56D-04
 ErrMax= 9.56D-04  0.00D+00 EMaxC= 1.00D-01 BMatC= 4.13D-04 BMatP= 1.19D-02
 IDIUse=3 WtCom= 9.90D-01 WtEn= 9.56D-03
 Coeff-Com:  0.128D-02 0.642D-02 0.129D+00 0.306D+00 0.557D+00
 Coeff-En:   0.000D+00 0.000D+00 0.000D+00 0.000D+00 0.100D+01
 Coeff:      0.127D-02 0.636D-02 0.128D+00 0.303D+00 0.561D+00
 Gap=     0.184 Goal=   None    Shift=    0.000
 RMSDP=8.63D-05 MaxDP=3.86D-03 DE=-9.23D-03 OVMax= 3.43D-03

 Cycle   6  Pass 1  IDiag  1:
 RMSU=  4.39D-05    CP:  9.82D-01  7.78D-01  6.14D-01  6.83D-01  5.65D-01
 E= -741.143154964489     Delta-E=       -0.000299589211 Rises=F Damp=F
 DIIS: error= 3.46D-04 at cycle   6 NSaved=   6.
 NSaved= 6 IEnMin= 6 EnMin= -741.143154964489     IErMin= 6 ErrMin= 3.46D-04
 ErrMax= 3.46D-04  0.00D+00 EMaxC= 1.00D-01 BMatC= 3.87D-05 BMatP= 4.13D-04
 IDIUse=3 WtCom= 9.97D-01 WtEn= 3.46D-03
 Coeff-Com: -0.269D-03-0.199D-02 0.394D-01 0.107D+00 0.302D+00 0.554D+00
 Coeff-En:   0.000D+00 0.000D+00 0.000D+00 0.000D+00 0.000D+00 0.100D+01
 Coeff:     -0.268D-03-0.198D-02 0.393D-01 0.107D+00 0.301D+00 0.556D+00
 Gap=     0.184 Goal=   None    Shift=    0.000
 RMSDP=2.24D-05 MaxDP=1.11D-03 DE=-3.00D-04 OVMax= 9.60D-04

 Cycle   7  Pass 1  IDiag  1:
 RMSU=  1.30D-05    CP:  9.82D-01  7.78D-01  6.14D-01  6.85D-01  6.16D-01
                    CP:  6.27D-01
 E= -741.143183258417     Delta-E=       -0.000028293929 Rises=F Damp=F
 DIIS: error= 4.08D-05 at cycle   7 NSaved=   7.
 NSaved= 7 IEnMin= 7 EnMin= -741.143183258417     IErMin= 7 ErrMin= 4.08D-05
 ErrMax= 4.08D-05  0.00D+00 EMaxC= 1.00D-01 BMatC= 1.90D-06 BMatP= 3.87D-05
 IDIUse=1 WtCom= 1.00D+00 WtEn= 0.00D+00
 Coeff-Com: -0.172D-03-0.132D-02 0.890D-02 0.267D-01 0.104D+00 0.266D+00
 Coeff-Com:  0.597D+00
 Coeff:     -0.172D-03-0.132D-02 0.890D-02 0.267D-01 0.104D+00 0.266D+00
 Coeff:      0.597D+00
 Gap=     0.183 Goal=   None    Shift=    0.000
 RMSDP=5.74D-06 MaxDP=1.85D-04 DE=-2.83D-05 OVMax= 1.86D-04

 Cycle   8  Pass 1  IDiag  1:
 RMSU=  3.11D-06    CP:  9.82D-01  7.77D-01  6.15D-01  6.86D-01  6.19D-01
                    CP:  6.57D-01  6.52D-01
 E= -741.143184796724     Delta-E=       -0.000001538307 Rises=F Damp=F
 DIIS: error= 1.16D-05 at cycle   8 NSaved=   8.
 NSaved= 8 IEnMin= 8 EnMin= -741.143184796724     IErMin= 8 ErrMin= 1.16D-05
 ErrMax= 1.16D-05  0.00D+00 EMaxC= 1.00D-01 BMatC= 8.40D-08 BMatP= 1.90D-06
 IDIUse=1 WtCom= 1.00D+00 WtEn= 0.00D+00
 Coeff-Com: -0.322D-04-0.305D-03 0.772D-03 0.238D-02 0.196D-01 0.623D-01
 Coeff-Com:  0.220D+00 0.695D+00
 Coeff:     -0.322D-04-0.305D-03 0.772D-03 0.238D-02 0.196D-01 0.623D-01
 Coeff:      0.220D+00 0.695D+00
 Gap=     0.183 Goal=   None    Shift=    0.000
 RMSDP=1.55D-06 MaxDP=5.00D-05 DE=-1.54D-06 OVMax= 7.00D-05

 Cycle   9  Pass 1  IDiag  1:
 RMSU=  1.18D-06    CP:  9.82D-01  7.77D-01  6.15D-01  6.85D-01  6.22D-01
                    CP:  6.58D-01  6.83D-01  7.57D-01
 E= -741.143184848346     Delta-E=       -0.000000051622 Rises=F Damp=F
 DIIS: error= 5.53D-06 at cycle   9 NSaved=   9.
 NSaved= 9 IEnMin= 9 EnMin= -741.143184848346     IErMin= 9 ErrMin= 5.53D-06
 ErrMax= 5.53D-06  0.00D+00 EMaxC= 1.00D-01 BMatC= 2.52D-08 BMatP= 8.40D-08
 IDIUse=1 WtCom= 1.00D+00 WtEn= 0.00D+00
 Coeff-Com: -0.809D-05-0.790D-04-0.195D-03-0.626D-03 0.397D-02 0.164D-01
 Coeff-Com:  0.784D-01 0.410D+00 0.492D+00
 Coeff:     -0.809D-05-0.790D-04-0.195D-03-0.626D-03 0.397D-02 0.164D-01
 Coeff:      0.784D-01 0.410D+00 0.492D+00
 Gap=     0.183 Goal=   None    Shift=    0.000
 RMSDP=6.55D-07 MaxDP=2.24D-05 DE=-5.16D-08 OVMax= 4.74D-05

 Cycle  10  Pass 1  IDiag  1:
 RMSU=  3.47D-07    CP:  9.82D-01  7.77D-01  6.15D-01  6.85D-01  6.21D-01
                    CP:  6.60D-01  6.88D-01  8.15D-01  5.70D-01
 E= -741.143184868682     Delta-E=       -0.000000020336 Rises=F Damp=F
 DIIS: error= 9.34D-07 at cycle  10 NSaved=  10.
 NSaved=10 IEnMin=10 EnMin= -741.143184868682     IErMin=10 ErrMin= 9.34D-07
 ErrMax= 9.34D-07  0.00D+00 EMaxC= 1.00D-01 BMatC= 1.16D-09 BMatP= 2.52D-08
 IDIUse=1 WtCom= 1.00D+00 WtEn= 0.00D+00
 Coeff-Com: -0.303D-05 0.203D-05-0.198D-03-0.633D-03-0.403D-03 0.475D-03
 Coeff-Com:  0.101D-01 0.114D+00 0.226D+00 0.651D+00
 Coeff:     -0.303D-05 0.203D-05-0.198D-03-0.633D-03-0.403D-03 0.475D-03
 Coeff:      0.101D-01 0.114D+00 0.226D+00 0.651D+00
 Gap=     0.183 Goal=   None    Shift=    0.000
 RMSDP=1.72D-07 MaxDP=5.31D-06 DE=-2.03D-08 OVMax= 1.18D-05

 Cycle  11  Pass 1  IDiag  1:
 RMSU=  1.04D-07    CP:  9.82D-01  7.77D-01  6.15D-01  6.85D-01  6.21D-01
                    CP:  6.60D-01  6.88D-01  8.26D-01  6.43D-01  7.25D-01
 E= -741.143184869575     Delta-E=       -0.000000000893 Rises=F Damp=F
 DIIS: error= 3.98D-07 at cycle  11 NSaved=  11.
 NSaved=11 IEnMin=11 EnMin= -741.143184869575     IErMin=11 ErrMin= 3.98D-07
 ErrMax= 3.98D-07  0.00D+00 EMaxC= 1.00D-01 BMatC= 1.73D-10 BMatP= 1.16D-09
 IDIUse=1 WtCom= 1.00D+00 WtEn= 0.00D+00
 Coeff-Com: -0.180D-05 0.884D-05-0.962D-04-0.307D-03-0.526D-03-0.986D-03
 Coeff-Com: -0.101D-02 0.313D-01 0.874D-01 0.360D+00 0.524D+00
 Coeff:     -0.180D-05 0.884D-05-0.962D-04-0.307D-03-0.526D-03-0.986D-03
 Coeff:     -0.101D-02 0.313D-01 0.874D-01 0.360D+00 0.524D+00
 Gap=     0.183 Goal=   None    Shift=    0.000
 RMSDP=5.56D-08 MaxDP=2.02D-06 DE=-8.93D-10 OVMax= 4.67D-06

 Cycle  12  Pass 1  IDiag  1:
 RMSU=  3.16D-08    CP:  9.82D-01  7.77D-01  6.15D-01  6.85D-01  6.21D-01
                    CP:  6.60D-01  6.88D-01  8.29D-01  6.42D-01  7.81D-01
                    CP:  6.17D-01
 E= -741.143184869743     Delta-E=       -0.000000000168 Rises=F Damp=F
 DIIS: error= 1.09D-07 at cycle  12 NSaved=  12.
 NSaved=12 IEnMin=12 EnMin= -741.143184869743     IErMin=12 ErrMin= 1.09D-07
 ErrMax= 1.09D-07  0.00D+00 EMaxC= 1.00D-01 BMatC= 1.12D-11 BMatP= 1.73D-10
 IDIUse=1 WtCom= 1.00D+00 WtEn= 0.00D+00
 Coeff-Com: -0.955D-06 0.464D-05-0.210D-04-0.666D-04-0.181D-03-0.452D-03
 Coeff-Com: -0.166D-02 0.146D-02 0.143D-01 0.857D-01 0.237D+00 0.664D+00
 Coeff:     -0.955D-06 0.464D-05-0.210D-04-0.666D-04-0.181D-03-0.452D-03
 Coeff:     -0.166D-02 0.146D-02 0.143D-01 0.857D-01 0.237D+00 0.664D+00
 Gap=     0.183 Goal=   None    Shift=    0.000
 RMSDP=1.67D-08 MaxDP=6.89D-07 DE=-1.68D-10 OVMax= 1.32D-06

 Cycle  13  Pass 1  IDiag  1:
 RMSU=  1.20D-08    CP:  9.82D-01  7.77D-01  6.15D-01  6.85D-01  6.21D-01
                    CP:  6.60D-01  6.88D-01  8.29D-01  6.45D-01  7.83D-01
                    CP:  6.97D-01  7.97D-01
 E= -741.143184869738     Delta-E=        0.000000000006 Rises=F Damp=F
 DIIS: error= 5.50D-08 at cycle  13 NSaved=  13.
 NSaved=13 IEnMin=12 EnMin= -741.143184869743     IErMin=13 ErrMin= 5.50D-08
 ErrMax= 5.50D-08  0.00D+00 EMaxC= 1.00D-01 BMatC= 2.34D-12 BMatP= 1.12D-11
 IDIUse=1 WtCom= 1.00D+00 WtEn= 0.00D+00
 Coeff-Com: -0.448D-06 0.150D-05-0.352D-06-0.178D-06-0.378D-04-0.135D-03
 Coeff-Com: -0.892D-03-0.328D-02-0.303D-02 0.228D-02 0.711D-01 0.382D+00
 Coeff-Com:  0.552D+00
 Coeff:     -0.448D-06 0.150D-05-0.352D-06-0.178D-06-0.378D-04-0.135D-03
 Coeff:     -0.892D-03-0.328D-02-0.303D-02 0.228D-02 0.711D-01 0.382D+00
 Coeff:      0.552D+00
 Gap=     0.183 Goal=   None    Shift=    0.000
 RMSDP=6.12D-09 MaxDP=1.82D-07 DE= 5.68D-12 OVMax= 3.83D-07

 Error on total polarization charges =  0.00510
 SCF Done:  E(RB3LYP) =  -741.143184870     A.U. after   13 cycles
            NFock= 13  Conv=0.61D-08     -V/T= 2.0086
 KE= 7.348392857889D+02 PE=-3.804788468711D+03 EE= 1.281954539166D+03
 Leave Link  502 at Mon Jul 12 12:49:46 2021, MaxMem=   104857600 cpu:             568.9 elap:             148.1
 (Enter /dades/curu/g16A03_MST/g16/l601.exe)
 Copying SCF densities to generalized density rwf, IOpCl= 0 IROHF=0.

 **********************************************************************

            Population analysis using the SCF density.

 **********************************************************************

 Orbital symmetries:
       Occupied  (A) (A) (A) (A) (A) (A) (A) (A) (A) (A) (A) (A)
                 (A) (A) (A) (A) (A) (A) (A) (A) (A) (A) (A) (A)
                 (A) (A) (A) (A) (A) (A) (A) (A) (A) (A) (A) (A)
                 (A) (A) (A) (A) (A) (A) (A) (A) (A) (A) (A) (A)
                 (A) (A) (A) (A) (A) (A) (A) (A)
       Virtual   (A) (A) (A) (A) (A) (A) (A) (A) (A) (A) (A) (A)
                 (A) (A) (A) (A) (A) (A) (A) (A) (A) (A) (A) (A)
                 (A) (A) (A) (A) (A) (A) (A) (A) (A) (A) (A) (A)
                 (A) (A) (A) (A) (A) (A) (A) (A) (A) (A) (A) (A)
                 (A) (A) (A) (A) (A) (A) (A) (A) (A) (A) (A) (A)
                 (A) (A) (A) (A) (A) (A) (A) (A) (A) (A) (A) (A)
                 (A) (A) (A) (A) (A) (A) (A) (A) (A) (A) (A) (A)
                 (A) (A) (A) (A) (A) (A) (A) (A) (A) (A) (A) (A)
                 (A) (A) (A) (A) (A) (A) (A) (A) (A) (A) (A) (A)
                 (A) (A) (A) (A) (A) (A) (A) (A) (A) (A) (A) (A)
                 (A) (A) (A) (A) (A) (A) (A) (A) (A) (A) (A) (A)
                 (A) (A) (A) (A) (A) (A) (A) (A) (A) (A) (A) (A)
                 (A) (A) (A) (A) (A) (A) (A) (A) (A) (A) (A) (A)
                 (A) (A) (A) (A) (A) (A) (A) (A) (A) (A) (A) (A)
                 (A) (A) (A) (A) (A) (A) (A) (A) (A) (A) (A) (A)
                 (A) (A) (A) (A) (A) (A) (A) (A) (A) (A) (A) (A)
                 (A) (A) (A) (A) (A)
 The electronic state is 1-A.
 Alpha  occ. eigenvalues --  -19.18892 -19.15660 -19.15452 -14.45220 -14.44527
 Alpha  occ. eigenvalues --  -14.42045 -10.37147 -10.34995 -10.31851 -10.30611
 Alpha  occ. eigenvalues --  -10.26406 -10.25283 -10.24530 -10.22025 -10.20918
 Alpha  occ. eigenvalues --   -1.14016  -1.08428  -1.06472  -1.02625  -1.00406
 Alpha  occ. eigenvalues --   -0.96796  -0.85263  -0.82027  -0.79359  -0.75799
 Alpha  occ. eigenvalues --   -0.73245  -0.69095  -0.64961  -0.64547  -0.62993
 Alpha  occ. eigenvalues --   -0.61102  -0.57630  -0.55962  -0.55544  -0.54741
 Alpha  occ. eigenvalues --   -0.53467  -0.51457  -0.49881  -0.48406  -0.47590
 Alpha  occ. eigenvalues --   -0.46277  -0.45624  -0.44405  -0.43616  -0.42462
 Alpha  occ. eigenvalues --   -0.41199  -0.38887  -0.37788  -0.37328  -0.34947
 Alpha  occ. eigenvalues --   -0.34305  -0.33016  -0.31599  -0.30408  -0.28389
 Alpha  occ. eigenvalues --   -0.27692
 Alpha virt. eigenvalues --   -0.09343  -0.03102   0.03368   0.05640   0.06289
 Alpha virt. eigenvalues --    0.06991   0.07366   0.08018   0.08587   0.09569
 Alpha virt. eigenvalues --    0.10702   0.11545   0.12773   0.13717   0.14588
 Alpha virt. eigenvalues --    0.16273   0.16856   0.17063   0.17510   0.19096
 Alpha virt. eigenvalues --    0.19684   0.20838   0.21282   0.21977   0.22546
 Alpha virt. eigenvalues --    0.24898   0.25434   0.28300   0.28800   0.31420
 Alpha virt. eigenvalues --    0.34020   0.36190   0.43385   0.44476   0.46906
 Alpha virt. eigenvalues --    0.48155   0.49223   0.50826   0.51290   0.53337
 Alpha virt. eigenvalues --    0.53866   0.53982   0.54799   0.55323   0.55610
 Alpha virt. eigenvalues --    0.56737   0.57876   0.58874   0.60680   0.61469
 Alpha virt. eigenvalues --    0.61965   0.63101   0.64565   0.65349   0.67896
 Alpha virt. eigenvalues --    0.70554   0.71125   0.72701   0.74395   0.75974
 Alpha virt. eigenvalues --    0.78017   0.79142   0.79603   0.80578   0.81498
 Alpha virt. eigenvalues --    0.82308   0.82857   0.83359   0.84067   0.85174
 Alpha virt. eigenvalues --    0.85397   0.87050   0.88130   0.89798   0.90097
 Alpha virt. eigenvalues --    0.91608   0.92628   0.92860   0.93830   0.94812
 Alpha virt. eigenvalues --    0.96681   0.97206   1.01576   1.03180   1.04100
 Alpha virt. eigenvalues --    1.05227   1.06862   1.08665   1.08978   1.12035
 Alpha virt. eigenvalues --    1.13185   1.18481   1.22141   1.23415   1.24635
 Alpha virt. eigenvalues --    1.26703   1.29241   1.31735   1.33629   1.35259
 Alpha virt. eigenvalues --    1.35765   1.37187   1.40437   1.41299   1.42743
 Alpha virt. eigenvalues --    1.44923   1.45549   1.50574   1.51672   1.55697
 Alpha virt. eigenvalues --    1.56118   1.57782   1.62032   1.64980   1.67079
 Alpha virt. eigenvalues --    1.69084   1.69622   1.72925   1.74372   1.76531
 Alpha virt. eigenvalues --    1.77698   1.79106   1.81529   1.83790   1.84235
 Alpha virt. eigenvalues --    1.85492   1.87137   1.88240   1.89449   1.90912
 Alpha virt. eigenvalues --    1.91580   1.93475   1.93809   1.96381   1.98658
 Alpha virt. eigenvalues --    2.00378   2.00994   2.03532   2.03790   2.07962
 Alpha virt. eigenvalues --    2.09416   2.11082   2.11682   2.15188   2.17684
 Alpha virt. eigenvalues --    2.18549   2.22247   2.24636   2.25814   2.27118
 Alpha virt. eigenvalues --    2.30010   2.30884   2.32558   2.36025   2.36135
 Alpha virt. eigenvalues --    2.39986   2.40720   2.41738   2.43666   2.46889
 Alpha virt. eigenvalues --    2.48563   2.50661   2.51669   2.54556   2.57255
 Alpha virt. eigenvalues --    2.60262   2.62895   2.65399   2.66499   2.70435
 Alpha virt. eigenvalues --    2.71977   2.75479   2.77789   2.79863   2.84525
 Alpha virt. eigenvalues --    2.87052   2.88932   2.94565   3.00252   3.04005
 Alpha virt. eigenvalues --    3.25676   3.49614   3.70575   3.81786   3.97685
 Alpha virt. eigenvalues --    4.02839   4.06962   4.09174   4.18407   4.23380
 Alpha virt. eigenvalues --    4.26890   4.33862   4.36947   4.49155   4.54314
 Alpha virt. eigenvalues --    4.60300   4.64288
          Condensed to atoms (all electrons):
               1          2          3          4          5          6
     1  N    6.935088   0.311408   0.314714   0.371836  -0.070148   0.004796
     2  H    0.311408   0.300455  -0.011129  -0.017728   0.004148  -0.000149
     3  H    0.314714  -0.011129   0.305982  -0.024430  -0.002874   0.000138
     4  C    0.371836  -0.017728  -0.024430   4.279674   0.465198  -0.006634
     5  C   -0.070148   0.004148  -0.002874   0.465198   5.043701   0.546437
     6  C    0.004796  -0.000149   0.000138  -0.006634   0.546437   4.712287
     7  H   -0.000099   0.000002   0.000001   0.003644  -0.029734   0.361252
     8  H   -0.006011  -0.000002   0.003505  -0.028807   0.368308  -0.028278
     9  N   -0.086851  -0.004594   0.004324   0.346950  -0.039493  -0.025345
    10  C    0.001737  -0.000050  -0.000062  -0.026961  -0.018949  -0.030042
    11  O   -0.000129  -0.000018   0.000002   0.000895   0.001384   0.001381
    12  N    0.000301  -0.000008   0.000023  -0.018329  -0.031524   0.321121
    13  C    0.000008  -0.000000  -0.000000   0.000462   0.005125  -0.027502
    14  O    0.000000  -0.000000   0.000000  -0.000036   0.001297   0.009403
    15  H    0.000000   0.000000   0.000000  -0.000032  -0.000099   0.005896
    16  C    0.000000  -0.000000   0.000000   0.000027  -0.000133  -0.000867
    17  H    0.000000   0.000000   0.000000   0.000015  -0.000191   0.003320
    18  H    0.000000   0.000000  -0.000000  -0.000001   0.000007  -0.000110
    19  C    0.000000   0.000000  -0.000000   0.000000  -0.000006   0.000124
    20  H   -0.000000   0.000000  -0.000000   0.000000  -0.000000  -0.000026
    21  H   -0.000000  -0.000000   0.000000   0.000000  -0.000000   0.000004
    22  C    0.000000  -0.000000   0.000000  -0.000001   0.000069  -0.000351
    23  H   -0.000000  -0.000000  -0.000000   0.000001  -0.000063  -0.000833
    24  C    0.000000   0.000000  -0.000000  -0.000000   0.000000   0.000039
    25  H    0.000000  -0.000000  -0.000000   0.000000  -0.000000  -0.000002
    26  H    0.000000  -0.000000  -0.000000   0.000000  -0.000000  -0.000007
    27  O    0.000000  -0.000000  -0.000000   0.000000  -0.000000  -0.000007
    28  H   -0.000000  -0.000000  -0.000000   0.000000   0.000000  -0.000000
    29  H   -0.005157   0.004469   0.000012  -0.019156   0.004162  -0.000172
               7          8          9         10         11         12
     1  N   -0.000099  -0.006011  -0.086851   0.001737  -0.000129   0.000301
     2  H    0.000002  -0.000002  -0.004594  -0.000050  -0.000018  -0.000008
     3  H    0.000001   0.003505   0.004324  -0.000062   0.000002   0.000023
     4  C    0.003644  -0.028807   0.346950  -0.026961   0.000895  -0.018329
     5  C   -0.029734   0.368308  -0.039493  -0.018949   0.001384  -0.031524
     6  C    0.361252  -0.028278  -0.025345  -0.030042   0.001381   0.321121
     7  H    0.457660  -0.003759  -0.000181   0.001438  -0.000131  -0.042705
     8  H   -0.003759   0.474749   0.003687   0.000708   0.000004   0.003237
     9  N   -0.000181   0.003687   7.087141   0.284716  -0.094921  -0.095746
    10  C    0.001438   0.000708   0.284716   4.125582   0.626735   0.255496
    11  O   -0.000131   0.000004  -0.094921   0.626735   8.088487  -0.115511
    12  N   -0.042705   0.003237  -0.095746   0.255496  -0.115511   7.154097
    13  C   -0.003570  -0.000123   0.002211  -0.024627   0.006432   0.200718
    14  O    0.007485   0.000014  -0.000021   0.002232   0.000221  -0.051796
    15  H    0.000441   0.000004   0.000125  -0.001361   0.008772  -0.062023
    16  C    0.000637  -0.000001  -0.000165  -0.001970   0.000739  -0.045018
    17  H    0.000761   0.000001  -0.000033   0.000023  -0.000157  -0.004394
    18  H   -0.000030  -0.000000   0.000011   0.000717   0.000737   0.000892
    19  C   -0.000180  -0.000000   0.000002   0.000176   0.000083   0.003025
    20  H   -0.000009   0.000000  -0.000000  -0.000001   0.000000  -0.000024
    21  H    0.000016  -0.000000  -0.000000  -0.000008  -0.000001   0.000108
    22  C    0.001735   0.000001   0.000001  -0.000048  -0.000004  -0.000078
    23  H    0.001030  -0.000004   0.000000  -0.000006   0.000000   0.001210
    24  C   -0.000033   0.000000  -0.000000   0.000002   0.000000  -0.000117
    25  H    0.000001  -0.000000   0.000000  -0.000000  -0.000000   0.000002
    26  H    0.000003  -0.000000   0.000000  -0.000000   0.000000   0.000024
    27  O    0.000015  -0.000000   0.000000  -0.000000  -0.000000  -0.000000
    28  H    0.000004  -0.000000   0.000000   0.000000   0.000000   0.000000
    29  H    0.000018  -0.000095   0.295016  -0.004281   0.004440   0.003722
              13         14         15         16         17         18
     1  N    0.000008   0.000000   0.000000   0.000000   0.000000   0.000000
     2  H   -0.000000  -0.000000   0.000000  -0.000000   0.000000   0.000000
     3  H   -0.000000   0.000000   0.000000   0.000000   0.000000  -0.000000
     4  C    0.000462  -0.000036  -0.000032   0.000027   0.000015  -0.000001
     5  C    0.005125   0.001297  -0.000099  -0.000133  -0.000191   0.000007
     6  C   -0.027502   0.009403   0.005896  -0.000867   0.003320  -0.000110
     7  H   -0.003570   0.007485   0.000441   0.000637   0.000761  -0.000030
     8  H   -0.000123   0.000014   0.000004  -0.000001   0.000001  -0.000000
     9  N    0.002211  -0.000021   0.000125  -0.000165  -0.000033   0.000011
    10  C   -0.024627   0.002232  -0.001361  -0.001970   0.000023   0.000717
    11  O    0.006432   0.000221   0.008772   0.000739  -0.000157   0.000737
    12  N    0.200718  -0.051796  -0.062023  -0.045018  -0.004394   0.000892
    13  C    4.733658   0.249594   0.394296   0.343964  -0.033674  -0.018515
    14  O    0.249594   8.323465  -0.047437  -0.057103  -0.000752   0.002883
    15  H    0.394296  -0.047437   0.533741  -0.033325   0.003677  -0.003118
    16  C    0.343964  -0.057103  -0.033325   5.153705   0.370769   0.367257
    17  H   -0.033674  -0.000752   0.003677   0.370769   0.538955  -0.024249
    18  H   -0.018515   0.002883  -0.003118   0.367257  -0.024249   0.517215
    19  C   -0.072625  -0.052571  -0.000235   0.354661  -0.030788  -0.034775
    20  H    0.006060   0.004125  -0.000207  -0.025589  -0.004794   0.000504
    21  H   -0.001074  -0.001345   0.001419  -0.042032   0.004466  -0.006002
    22  C   -0.052253   0.204734   0.005044  -0.057944   0.000810   0.005180
    23  H    0.001923  -0.037657  -0.000362  -0.004481   0.001705  -0.000078
    24  C    0.002749  -0.038762   0.000132   0.003996  -0.000009  -0.000075
    25  H   -0.000073   0.003008  -0.000005  -0.000108  -0.000004   0.000001
    26  H    0.000194   0.002383  -0.000201  -0.000432   0.000001   0.000007
    27  O    0.000003   0.001350   0.000002  -0.000060   0.000001   0.000000
    28  H    0.000002   0.000763  -0.000001   0.000008  -0.000000  -0.000000
    29  H   -0.000017   0.000000   0.000000   0.000000   0.000000  -0.000000
              19         20         21         22         23         24
     1  N    0.000000  -0.000000  -0.000000   0.000000  -0.000000   0.000000
     2  H    0.000000   0.000000  -0.000000  -0.000000  -0.000000   0.000000
     3  H   -0.000000  -0.000000   0.000000   0.000000  -0.000000  -0.000000
     4  C    0.000000   0.000000   0.000000  -0.000001   0.000001  -0.000000
     5  C   -0.000006  -0.000000  -0.000000   0.000069  -0.000063   0.000000
     6  C    0.000124  -0.000026   0.000004  -0.000351  -0.000833   0.000039
     7  H   -0.000180  -0.000009   0.000016   0.001735   0.001030  -0.000033
     8  H   -0.000000   0.000000  -0.000000   0.000001  -0.000004   0.000000
     9  N    0.000002  -0.000000  -0.000000   0.000001   0.000000  -0.000000
    10  C    0.000176  -0.000001  -0.000008  -0.000048  -0.000006   0.000002
    11  O    0.000083   0.000000  -0.000001  -0.000004   0.000000   0.000000
    12  N    0.003025  -0.000024   0.000108  -0.000078   0.001210  -0.000117
    13  C   -0.072625   0.006060  -0.001074  -0.052253   0.001923   0.002749
    14  O   -0.052571   0.004125  -0.001345   0.204734  -0.037657  -0.038762
    15  H   -0.000235  -0.000207   0.001419   0.005044  -0.000362   0.000132
    16  C    0.354661  -0.025589  -0.042032  -0.057944  -0.004481   0.003996
    17  H   -0.030788  -0.004794   0.004466   0.000810   0.001705  -0.000009
    18  H   -0.034775   0.000504  -0.006002   0.005180  -0.000078  -0.000075
    19  C    5.142096   0.359027   0.380490   0.320562  -0.045195  -0.024289
    20  H    0.359027   0.543501  -0.024658  -0.030260  -0.000550  -0.001478
    21  H    0.380490  -0.024658   0.543635  -0.034702   0.004810  -0.006018
    22  C    0.320562  -0.030260  -0.034702   4.957770   0.357964   0.339822
    23  H   -0.045195  -0.000550   0.004810   0.357964   0.603796  -0.050035
    24  C   -0.024289  -0.001478  -0.006018   0.339822  -0.050035   4.895086
    25  H    0.002867   0.001810   0.000418  -0.052794   0.001153   0.365351
    26  H   -0.004619   0.000063   0.006048  -0.040090   0.006788   0.350363
    27  O    0.002272  -0.000041   0.000022  -0.036051   0.001906   0.243162
    28  H   -0.000072   0.000001  -0.000013   0.000127  -0.000317  -0.017755
    29  H   -0.000000   0.000000  -0.000000  -0.000000  -0.000000   0.000000
              25         26         27         28         29
     1  N    0.000000   0.000000   0.000000  -0.000000  -0.005157
     2  H   -0.000000  -0.000000  -0.000000  -0.000000   0.004469
     3  H   -0.000000  -0.000000  -0.000000  -0.000000   0.000012
     4  C    0.000000   0.000000   0.000000   0.000000  -0.019156
     5  C   -0.000000  -0.000000  -0.000000   0.000000   0.004162
     6  C   -0.000002  -0.000007  -0.000007  -0.000000  -0.000172
     7  H    0.000001   0.000003   0.000015   0.000004   0.000018
     8  H   -0.000000  -0.000000  -0.000000  -0.000000  -0.000095
     9  N    0.000000   0.000000   0.000000   0.000000   0.295016
    10  C   -0.000000  -0.000000  -0.000000   0.000000  -0.004281
    11  O   -0.000000   0.000000  -0.000000   0.000000   0.004440
    12  N    0.000002   0.000024  -0.000000   0.000000   0.003722
    13  C   -0.000073   0.000194   0.000003   0.000002  -0.000017
    14  O    0.003008   0.002383   0.001350   0.000763   0.000000
    15  H   -0.000005  -0.000201   0.000002  -0.000001   0.000000
    16  C   -0.000108  -0.000432  -0.000060   0.000008   0.000000
    17  H   -0.000004   0.000001   0.000001  -0.000000   0.000000
    18  H    0.000001   0.000007   0.000000  -0.000000  -0.000000
    19  C    0.002867  -0.004619   0.002272  -0.000072  -0.000000
    20  H    0.001810   0.000063  -0.000041   0.000001   0.000000
    21  H    0.000418   0.006048   0.000022  -0.000013  -0.000000
    22  C   -0.052794  -0.040090  -0.036051   0.000127  -0.000000
    23  H    0.001153   0.006788   0.001906  -0.000317  -0.000000
    24  C    0.365351   0.350363   0.243162  -0.017755   0.000000
    25  H    0.574587  -0.035098  -0.030184   0.004173  -0.000000
    26  H   -0.035098   0.593395  -0.023250  -0.010639  -0.000000
    27  O   -0.030184  -0.023250   8.254741   0.237220  -0.000000
    28  H    0.004173  -0.010639   0.237220   0.362504  -0.000000
    29  H   -0.000000  -0.000000  -0.000000  -0.000000   0.273705
 Mulliken charges:
               1
     1  N   -0.771493
     2  H    0.413196
     3  H    0.409794
     4  C    0.673412
     5  C   -0.246621
     6  C    0.154125
     7  H    0.244289
     8  H    0.212860
     9  N   -0.676834
    10  C    0.808801
    11  O   -0.529440
    12  N   -0.476704
    13  C    0.286653
    14  O   -0.525477
    15  H    0.194858
    16  C   -0.326536
    17  H    0.174539
    18  H    0.191542
    19  C   -0.300032
    20  H    0.172545
    21  H    0.174418
    22  C    0.110756
    23  H    0.157294
    24  C   -0.062132
    25  H    0.164894
    26  H    0.155064
    27  O   -0.651100
    28  H    0.423996
    29  H    0.443333
 Sum of Mulliken charges =   1.00000
 Mulliken charges with hydrogens summed into heavy atoms:
               1
     1  N    0.051497
     4  C    0.673412
     5  C   -0.033761
     6  C    0.398413
     9  N   -0.233500
    10  C    0.808801
    11  O   -0.529440
    12  N   -0.476704
    13  C    0.481511
    14  O   -0.525477
    16  C    0.039544
    19  C    0.046931
    22  C    0.268051
    24  C    0.257827
    27  O   -0.227104
 Electronic spatial extent (au):  <R**2>=           3923.7543
 Charge=              1.0000 electrons
 Dipole moment (field-independent basis, Debye):
    X=            -11.9699    Y=             -2.7960    Z=              1.4904  Tot=             12.3821
 Quadrupole moment (field-independent basis, Debye-Ang):
   XX=            -15.7366   YY=            -82.2955   ZZ=            -79.9032
   XY=             22.8073   XZ=             -3.3077   YZ=              0.8312
 Traceless Quadrupole moment (field-independent basis, Debye-Ang):
   XX=             43.5752   YY=            -22.9837   ZZ=            -20.5914
   XY=             22.8073   XZ=             -3.3077   YZ=              0.8312
 Octapole moment (field-independent basis, Debye-Ang**2):
  XXX=           -305.0208  YYY=            -33.3858  ZZZ=            -12.2121  XYY=            -31.4426
  XXY=            -13.5401  XXZ=            -19.5636  XZZ=             16.0732  YZZ=            -10.1595
  YYZ=              6.9439  XYZ=             20.4117
 Hexadecapole moment (field-independent basis, Debye-Ang**3):
 XXXX=          -2296.8123 YYYY=           -852.5775 ZZZZ=           -242.3167 XXXY=            295.3204
 XXXZ=            -26.4912 YYYX=            125.0073 YYYZ=             10.1145 ZZZX=            -24.0661
 ZZZY=             13.0853 XXYY=           -715.0158 XXZZ=           -604.4052 YYZZ=           -168.3092
 XXYZ=              0.8024 YYXZ=            -68.3198 ZZXY=            -34.6343
 N-N= 1.046851458886D+03 E-N=-3.804788460591D+03  KE= 7.348392857889D+02
 No NMR shielding tensors so no spin-rotation constants.
 Leave Link  601 at Mon Jul 12 12:49:46 2021, MaxMem=   104857600 cpu:               0.4 elap:               0.1
 (Enter /dades/curu/g16A03_MST/g16/l701.exe)
 ... and contract with generalized density number  0.
 Compute integral first derivatives.
 D1PCM: PCM CHGder 1st derivatives, ID1Alg=3 FixD1E=F DoIter=F DoCFld=F I1PDM=0.
 GePol: Maximum number of non-zero 1st derivatives   =     390
 Leave Link  701 at Mon Jul 12 12:49:49 2021, MaxMem=   104857600 cpu:              12.6 elap:               3.2
 (Enter /dades/curu/g16A03_MST/g16/l702.exe)
 L702 exits ... SP integral derivatives will be done elsewhere.
 Leave Link  702 at Mon Jul 12 12:49:49 2021, MaxMem=   104857600 cpu:               0.1 elap:               0.0
 (Enter /dades/curu/g16A03_MST/g16/l703.exe)
 Integral derivatives from FoFJK, PRISM(SPDF).
 Compute integral first derivatives, UseDBF=F ICtDFT=           0.
 Calling FoFJK, ICntrl=      2127 FMM=F ISym2X=0 I1Cent= 0 IOpClX= 0 NMat=1 NMatS=1 NMatT=0.
 FoFJK:  IHMeth= 1 ICntrl=    2127 DoSepK=F KAlg= 0 I1Cent=           0 FoldK=F
 IRaf=         0 NMat=       1 IRICut=       1 DoRegI=T DoRafI=F ISym2E= 0 IDoP0=0 IntGTp=1.
 FoFCou: FMM=F IPFlag=           0 FMFlag=      100000 FMFlg1=         800
         NFxFlg=           0 DoJE=F BraDBF=F KetDBF=F FulRan=T
         wScrn=  0.000000 ICntrl=      2127 IOpCl=  0 I1Cent=           0 NGrid=           0
         NMat0=    1 NMatS0=      1 NMatT0=    0 NMatD0=    1 NMtDS0=    0 NMtDT0=    0
 Symmetry not used in FoFCou.
 Leave Link  703 at Mon Jul 12 12:50:10 2021, MaxMem=   104857600 cpu:              84.4 elap:              21.2
 (Enter /dades/curu/g16A03_MST/g16/l716.exe)
 Dipole        =-4.70931683D+00-1.10004675D+00 5.86362284D-01
 ***** Axes restored to original set *****
 -------------------------------------------------------------------
 Center     Atomic                   Forces (Hartrees/Bohr)
 Number     Number              X              Y              Z
 -------------------------------------------------------------------
      1        7          -0.003815620    0.033389151   -0.005921618
      2        1           0.000120606    0.009078505    0.012610154
      3        1          -0.001997691   -0.010266123    0.024910601
      4        6           0.002959213    0.026567267    0.049949667
      5        6          -0.000493269    0.035346470   -0.007198956
      6        6          -0.002765713    0.020452996    0.022782166
      7        1           0.004954705   -0.006464671   -0.004731352
      8        1          -0.003011718   -0.005439298    0.005701425
      9        7           0.000505967   -0.009974458   -0.053923854
     10        6           0.004248524   -0.101502680   -0.001525715
     11        8           0.000650349   -0.015794389   -0.007115885
     12        7          -0.002221558    0.065506011   -0.030823213
     13        6           0.009975824   -0.021096538   -0.034722269
     14        8          -0.006650942    0.023302908    0.014293968
     15        1          -0.013396107   -0.005204044    0.007819993
     16        6           0.008244904   -0.009096538   -0.004173699
     17        1          -0.001169117   -0.000896922   -0.001347250
     18        1          -0.000906744   -0.004455650    0.016773653
     19        6          -0.011879487    0.028963409    0.000492404
     20        1          -0.004558041   -0.011303973   -0.003968107
     21        1           0.000183520    0.004237628   -0.003473737
     22        6           0.037811285    0.002326701   -0.024943938
     23        1          -0.002630701   -0.002663904    0.007444300
     24        6           0.011258338   -0.002822666    0.037661760
     25        1          -0.000724140    0.011078547    0.002991441
[...]
 Alpha virt. eigenvalues --    0.77312   0.78013   0.78361   0.78814   0.79503
 Alpha virt. eigenvalues --    0.80088   0.80965   0.81006   0.81959   0.82872
 Alpha virt. eigenvalues --    0.83365   0.83917   0.84437   0.85062   0.85687
 Alpha virt. eigenvalues --    0.86329   0.87313   0.88211   0.88317   0.88377
 Alpha virt. eigenvalues --    0.89894   0.90179   0.91079   0.91365   0.92318
 Alpha virt. eigenvalues --    0.94648   0.95043   0.95862   0.96097   0.97217
 Alpha virt. eigenvalues --    0.98489   0.98730   1.01743   1.02660   1.03047
 Alpha virt. eigenvalues --    1.04238   1.04402   1.06339   1.07104   1.08724
 Alpha virt. eigenvalues --    1.08996   1.11248   1.11384   1.12927   1.13629
 Alpha virt. eigenvalues --    1.14982   1.15522   1.16343   1.17572   1.19700
 Alpha virt. eigenvalues --    1.21062   1.21586   1.22329   1.23035   1.25458
 Alpha virt. eigenvalues --    1.25988   1.27004   1.28793   1.29734   1.29990
 Alpha virt. eigenvalues --    1.31600   1.33021   1.34434   1.35944   1.36864
 Alpha virt. eigenvalues --    1.37913   1.38366   1.40652   1.40949   1.42702
 Alpha virt. eigenvalues --    1.43692   1.44690   1.46041   1.46358   1.49054
 Alpha virt. eigenvalues --    1.49626   1.51921   1.52780   1.53345   1.55029
 Alpha virt. eigenvalues --    1.56000   1.56604   1.58672   1.59101   1.59571
 Alpha virt. eigenvalues --    1.60419   1.61865   1.63264   1.64326   1.65122
 Alpha virt. eigenvalues --    1.66030   1.67310   1.67917   1.68996   1.70760
 Alpha virt. eigenvalues --    1.71656   1.72357   1.72819   1.74548   1.75884
 Alpha virt. eigenvalues --    1.77388   1.79019   1.79324   1.79797   1.81324
 Alpha virt. eigenvalues --    1.81954   1.82545   1.82699   1.84042   1.85241
 Alpha virt. eigenvalues --    1.85939   1.87831   1.88511   1.89628   1.90801
 Alpha virt. eigenvalues --    1.91045   1.92294   1.95244   1.96273   1.97011
 Alpha virt. eigenvalues --    1.99017   1.99538   2.00351   2.01226   2.02275
 Alpha virt. eigenvalues --    2.03613   2.04553   2.05375   2.06631   2.07022
 Alpha virt. eigenvalues --    2.07287   2.08583   2.10070   2.10899   2.11193
 Alpha virt. eigenvalues --    2.12523   2.13050   2.13969   2.15183   2.16263
 Alpha virt. eigenvalues --    2.16832   2.18545   2.18997   2.19312   2.21574
 Alpha virt. eigenvalues --    2.23542   2.24064   2.24516   2.25844   2.27103
 Alpha virt. eigenvalues --    2.28988   2.29390   2.31078   2.32340   2.34255
 Alpha virt. eigenvalues --    2.34691   2.36198   2.37635   2.37842   2.39676
 Alpha virt. eigenvalues --    2.41235   2.41741   2.42312   2.45399   2.45937
 Alpha virt. eigenvalues --    2.47183   2.47751   2.48986   2.51575   2.51789
 Alpha virt. eigenvalues --    2.53533   2.55165   2.55558   2.56592   2.58894
 Alpha virt. eigenvalues --    2.59599   2.60876   2.63293   2.64893   2.65677
 Alpha virt. eigenvalues --    2.66378   2.69339   2.70159   2.71162   2.72335
 Alpha virt. eigenvalues --    2.73435   2.74639   2.76314   2.76969   2.79077
 Alpha virt. eigenvalues --    2.79631   2.80411   2.82518   2.83986   2.85083
 Alpha virt. eigenvalues --    2.86342   2.88074   2.91073   2.93335   2.95535
 Alpha virt. eigenvalues --    2.97218   2.98352   3.01110   3.03034   3.06243
 Alpha virt. eigenvalues --    3.06877   3.10275   3.12002   3.13886   3.14682
 Alpha virt. eigenvalues --    3.21265   3.23636   3.26384   3.30497   3.35399
 Alpha virt. eigenvalues --    3.39893   3.44667   3.53594   3.61273   3.65706
 Alpha virt. eigenvalues --    3.68108   3.69135   3.70677   3.72195   3.75213
 Alpha virt. eigenvalues --    3.76928   3.80318   3.81411   3.84236   3.85219
 Alpha virt. eigenvalues --    3.88567   3.90796   3.96027   3.98976   4.06319
 Alpha virt. eigenvalues --    4.08184   4.21768   4.25088   4.30492   4.37195
          Condensed to atoms (all electrons):
               1          2          3          4          5          6
     1  N    6.450698   0.481010   0.421747   0.223655  -0.201433   0.113066
     2  H    0.481010   0.826669  -0.161929  -0.154704   0.013416  -0.021391
     3  H    0.421747  -0.161929   0.770588  -0.053284   0.024525   0.000649
     4  C    0.223655  -0.154704  -0.053284   6.312584  -1.277010   0.261516
     5  C   -0.201433   0.013416   0.024525  -1.277010   9.030028  -1.867570
     6  C    0.113066  -0.021391   0.000649   0.261516  -1.867570   7.704310
     7  H    0.003256  -0.003255   0.002110  -0.090625   0.195537  -0.161058
     8  H   -0.036717   0.008831  -0.002094   0.248578  -0.908527   0.343044
     9  N   -0.136040   0.020370  -0.027880   0.125448   0.073035   0.001408
    10  C   -0.017106   0.007061  -0.014795  -0.226908   0.259351  -0.912656
    11  O   -0.005552   0.000969   0.000311   0.054824  -0.022216  -0.033883
    12  N    0.009501   0.004338  -0.004568   0.021408  -0.547518   0.475569
    13  C    0.000437   0.001086  -0.001168   0.009372  -0.150881  -0.627774
    14  O    0.002026   0.000067  -0.000001  -0.022901  -0.001379   0.142957
    15  H   -0.000405  -0.000131   0.000054   0.006160  -0.033748  -0.030737
    16  C    0.001296   0.000311   0.000115   0.011563  -0.057161   0.071982
    17  H    0.000115   0.000075   0.000033   0.012413  -0.036547   0.052098
    18  H    0.000161  -0.000078   0.000042  -0.007279   0.018969  -0.018836
    19  C   -0.000087   0.000123  -0.000180  -0.001851   0.011020   0.051792
    20  H    0.000054   0.000001   0.000009  -0.000796  -0.001500  -0.026976
    21  H   -0.000049   0.000009  -0.000015   0.001053   0.001053   0.035677
    22  C    0.001027   0.000153  -0.000046   0.003326  -0.090303  -0.011530
    23  H   -0.000110   0.000028  -0.000051   0.002816   0.013849   0.067251
    24  C    0.000145  -0.000017   0.000050  -0.000259  -0.016168  -0.023373
    25  H    0.000001  -0.000002  -0.000001  -0.000238   0.003280   0.007770
    26  H    0.000023   0.000001   0.000005   0.000028  -0.002719  -0.002375
    27  O   -0.000003   0.000001  -0.000004   0.000201  -0.002448  -0.002229
    28  H   -0.000004   0.000010  -0.000010   0.000426  -0.001563   0.001928
    29  H   -0.032446  -0.007746  -0.001169  -0.157924   0.047368  -0.041314
               7          8          9         10         11         12
     1  N    0.003256  -0.036717  -0.136040  -0.017106  -0.005552   0.009501
     2  H   -0.003255   0.008831   0.020370   0.007061   0.000969   0.004338
     3  H    0.002110  -0.002094  -0.027880  -0.014795   0.000311  -0.004568
     4  C   -0.090625   0.248578   0.125448  -0.226908   0.054824   0.021408
     5  C    0.195537  -0.908527   0.073035   0.259351  -0.022216  -0.547518
     6  C   -0.161058   0.343044   0.001408  -0.912656  -0.033883   0.475569
     7  H    2.006819  -0.136003   0.011646   0.000297  -0.010411  -0.198206
     8  H   -0.136003   1.810067  -0.038916   0.014008   0.002870   0.142863
     9  N    0.011646  -0.038916   7.352272   0.001486  -0.236340  -0.016155
    10  C    0.000297   0.014008   0.001486   6.010740   0.449061  -0.207375
    11  O   -0.010411   0.002870  -0.236340   0.449061   8.553938  -0.178585
    12  N   -0.198206   0.142863  -0.016155  -0.207375  -0.178585   8.389998
    13  C   -0.067854   0.046794  -0.043106  -0.106626   0.083333  -0.492965
    14  O   -0.062920  -0.001196  -0.000955  -0.074205   0.008328  -0.144026
    15  H    0.027205  -0.002366  -0.006492   0.184152   0.031781  -0.223542
    16  C   -0.026695  -0.002000   0.009063   0.028606  -0.017618   0.311576
    17  H   -0.004492  -0.000447  -0.009630   0.039491   0.014249  -0.141937
    18  H   -0.000748   0.000052   0.002991  -0.014147  -0.002116  -0.027017
    19  C   -0.022411   0.002210   0.006765  -0.081538   0.009450   0.119494
    20  H    0.001468  -0.000090   0.000912   0.002095   0.001032  -0.017649
    21  H   -0.004448   0.000206  -0.000815   0.000242  -0.000512   0.017658
    22  C    0.038864   0.001170  -0.002909  -0.030677   0.002470   0.012372
    23  H   -0.016525   0.001208  -0.001619   0.011883   0.000163   0.028925
    24  C    0.020709  -0.001416   0.000350   0.013144   0.000547  -0.031781
    25  H   -0.003282   0.000212   0.000033  -0.000763  -0.000007  -0.003583
    26  H    0.003446  -0.000225   0.000067   0.002773   0.000239   0.005626
    27  O   -0.005937   0.000342  -0.000024   0.000255   0.000016   0.000606
    28  H   -0.003609   0.000434  -0.000266   0.000143   0.000077   0.003533
    29  H    0.002459   0.003168   0.509271  -0.153432   0.001337   0.030116
              13         14         15         16         17         18
     1  N    0.000437   0.002026  -0.000405   0.001296   0.000115   0.000161
     2  H    0.001086   0.000067  -0.000131   0.000311   0.000075  -0.000078
     3  H   -0.001168  -0.000001   0.000054   0.000115   0.000033   0.000042
     4  C    0.009372  -0.022901   0.006160   0.011563   0.012413  -0.007279
     5  C   -0.150881  -0.001379  -0.033748  -0.057161  -0.036547   0.018969
     6  C   -0.627774   0.142957  -0.030737   0.071982   0.052098  -0.018836
     7  H   -0.067854  -0.062920   0.027205  -0.026695  -0.004492  -0.000748
     8  H    0.046794  -0.001196  -0.002366  -0.002000  -0.000447   0.000052
     9  N   -0.043106  -0.000955  -0.006492   0.009063  -0.009630   0.002991
    10  C   -0.106626  -0.074205   0.184152   0.028606   0.039491  -0.014147
    11  O    0.083333   0.008328   0.031781  -0.017618   0.014249  -0.002116
    12  N   -0.492965  -0.144026  -0.223542   0.311576  -0.141937  -0.027017
    13  C    8.015717   0.059050  -0.283471  -0.784844  -0.225233   0.236157
    14  O    0.059050   9.983638  -0.307609  -0.184416   0.006784   0.034197
    15  H   -0.283471  -0.307609   1.855422   0.181341   0.091516  -0.095702
    16  C   -0.784844  -0.184416   0.181341   5.572959   0.108092  -0.052280
    17  H   -0.225233   0.006784   0.091516   0.108092   1.510992  -0.212206
    18  H    0.236157   0.034197  -0.095702  -0.052280  -0.212206   1.320625
    19  C   -0.109940   0.054041  -0.088615   0.141934  -0.054325  -0.010488
    20  H    0.108442   0.012302   0.003864   0.057736  -0.097002   0.007339
    21  H   -0.061625   0.005968   0.013868  -0.090556   0.089614  -0.086986
    22  C   -0.551026  -0.243641   0.042580   0.177820   0.022654   0.028669
    23  H   -0.104544  -0.071240  -0.003665  -0.038080   0.027232  -0.000817
    24  C   -0.005658  -0.040281   0.015799   0.008462   0.024772  -0.003191
    25  H    0.005962   0.084768   0.000852   0.009185   0.002402   0.000247
    26  H   -0.021972  -0.006726   0.002465   0.040329   0.000391  -0.002810
    27  O    0.015607  -0.049901  -0.001562  -0.011078  -0.000776  -0.000016
    28  H   -0.005167   0.036170  -0.000834  -0.004493  -0.000406   0.000115
    29  H   -0.000451   0.000130   0.003419  -0.003640   0.000701  -0.000245
              19         20         21         22         23         24
     1  N   -0.000087   0.000054  -0.000049   0.001027  -0.000110   0.000145
     2  H    0.000123   0.000001   0.000009   0.000153   0.000028  -0.000017
     3  H   -0.000180   0.000009  -0.000015  -0.000046  -0.000051   0.000050
     4  C   -0.001851  -0.000796   0.001053   0.003326   0.002816  -0.000259
     5  C    0.011020  -0.001500   0.001053  -0.090303   0.013849  -0.016168
     6  C    0.051792  -0.026976   0.035677  -0.011530   0.067251  -0.023373
     7  H   -0.022411   0.001468  -0.004448   0.038864  -0.016525   0.020709
     8  H    0.002210  -0.000090   0.000206   0.001170   0.001208  -0.001416
     9  N    0.006765   0.000912  -0.000815  -0.002909  -0.001619   0.000350
    10  C   -0.081538   0.002095   0.000242  -0.030677   0.011883   0.013144
    11  O    0.009450   0.001032  -0.000512   0.002470   0.000163   0.000547
    12  N    0.119494  -0.017649   0.017658   0.012372   0.028925  -0.031781
    13  C   -0.109940   0.108442  -0.061625  -0.551026  -0.104544  -0.005658
    14  O    0.054041   0.012302   0.005968  -0.243641  -0.071240  -0.040281
    15  H   -0.088615   0.003864   0.013868   0.042580  -0.003665   0.015799
    16  C    0.141934   0.057736  -0.090556   0.177820  -0.038080   0.008462
    17  H   -0.054325  -0.097002   0.089614   0.022654   0.027232   0.024772
    18  H   -0.010488   0.007339  -0.086986   0.028669  -0.000817  -0.003191
    19  C    5.380077  -0.060948   0.261032   0.013458   0.071815  -0.170756
    20  H   -0.060948   1.299530  -0.225166   0.120146  -0.124022   0.027097
    21  H    0.261032  -0.225166   1.335594  -0.195230   0.080048  -0.036458
    22  C    0.013458   0.120146  -0.195230   6.314112  -0.218156   0.296932
    23  H    0.071815  -0.124022   0.080048  -0.218156   1.653617  -0.108681
    24  C   -0.170756   0.027097  -0.036458   0.296932  -0.108681   4.481377
    25  H    0.031070   0.006834  -0.016296  -0.044578  -0.082598   0.131056
    26  H   -0.080512  -0.002746   0.020731  -0.093641   0.074451   0.337473
    27  O   -0.041121  -0.000398   0.000033   0.226369   0.013200  -0.105513
    28  H    0.010417   0.001055   0.001545  -0.002312  -0.004604  -0.035000
    29  H   -0.001202  -0.000081   0.000053  -0.000209   0.000124   0.000214
              25         26         27         28         29
     1  N    0.000001   0.000023  -0.000003  -0.000004  -0.032446
     2  H   -0.000002   0.000001   0.000001   0.000010  -0.007746
     3  H   -0.000001   0.000005  -0.000004  -0.000010  -0.001169
     4  C   -0.000238   0.000028   0.000201   0.000426  -0.157924
     5  C    0.003280  -0.002719  -0.002448  -0.001563   0.047368
     6  C    0.007770  -0.002375  -0.002229   0.001928  -0.041314
     7  H   -0.003282   0.003446  -0.005937  -0.003609   0.002459
     8  H    0.000212  -0.000225   0.000342   0.000434   0.003168
     9  N    0.000033   0.000067  -0.000024  -0.000266   0.509271
    10  C   -0.000763   0.002773   0.000255   0.000143  -0.153432
    11  O   -0.000007   0.000239   0.000016   0.000077   0.001337
    12  N   -0.003583   0.005626   0.000606   0.003533   0.030116
    13  C    0.005962  -0.021972   0.015607  -0.005167  -0.000451
    14  O    0.084768  -0.006726  -0.049901   0.036170   0.000130
    15  H    0.000852   0.002465  -0.001562  -0.000834   0.003419
    16  C    0.009185   0.040329  -0.011078  -0.004493  -0.003640
    17  H    0.002402   0.000391  -0.000776  -0.000406   0.000701
    18  H    0.000247  -0.002810  -0.000016   0.000115  -0.000245
    19  C    0.031070  -0.080512  -0.041121   0.010417  -0.001202
    20  H    0.006834  -0.002746  -0.000398   0.001055  -0.000081
    21  H   -0.016296   0.020731   0.000033   0.001545   0.000053
    22  C   -0.044578  -0.093641   0.226369  -0.002312  -0.000209
    23  H   -0.082598   0.074451   0.013200  -0.004604   0.000124
    24  C    0.131056   0.337473  -0.105513  -0.035000   0.000214
    25  H    1.299077  -0.204895  -0.152627   0.015110  -0.000002
    26  H   -0.204895   1.091207  -0.062720  -0.040311   0.000023
    27  O   -0.152627  -0.062720   8.583304   0.301593  -0.000001
    28  H    0.015110  -0.040311   0.301593   0.541879  -0.000004
    29  H   -0.000002   0.000023  -0.000001  -0.000004   0.865420
 Mulliken charges:
               1
     1  N   -0.278264
     2  H   -0.015277
     3  H    0.046955
     4  C    0.698408
     5  C    1.527263
     6  C    0.450684
     7  H   -0.495336
     8  H   -0.496060
     9  N   -0.593969
    10  C    0.815437
    11  O   -0.707757
    12  N   -0.338676
    13  C    1.062350
    14  O   -1.219031
    15  H   -0.381597
    16  C    0.540489
    17  H   -0.220624
    18  H   -0.114602
    19  C    0.559278
    20  H   -0.092540
    21  H   -0.146226
    22  C    0.182136
    23  H   -0.271898
    24  C    1.220427
    25  H   -0.088985
    26  H   -0.057627
    27  O   -0.705170
    28  H    0.184149
    29  H   -0.063938
 Sum of Mulliken charges =   1.00000
 Mulliken charges with hydrogens summed into heavy atoms:
               1
     1  N   -0.246586
     4  C    0.698408
     5  C    1.031203
     6  C   -0.044652
     9  N   -0.657907
    10  C    0.815437
    11  O   -0.707757
    12  N   -0.338676
    13  C    0.680753
    14  O   -1.219031
    16  C    0.205264
    19  C    0.320512
    22  C   -0.089762
    24  C    1.073815
    27  O   -0.521021
 Electronic spatial extent (au):  <R**2>=           3857.4599
 Charge=              1.0000 electrons
 Dipole moment (field-independent basis, Debye):
    X=            -10.9832    Y=             -2.2856    Z=              1.8826  Tot=             11.3754
 Quadrupole moment (field-independent basis, Debye-Ang):
   XX=            -21.4712   YY=            -82.3436   ZZ=            -84.6985
   XY=             23.3763   XZ=             -1.5695   YZ=              0.2127
 Traceless Quadrupole moment (field-independent basis, Debye-Ang):
   XX=             41.3666   YY=            -19.5059   ZZ=            -21.8607
   XY=             23.3763   XZ=             -1.5695   YZ=              0.2127
 Octapole moment (field-independent basis, Debye-Ang**2):
  XXX=           -293.7299  YYY=            -31.2623  ZZZ=             -7.4394  XYY=            -39.5159
  XXY=             -7.3534  XXZ=             22.5384  XZZ=             14.0286  YZZ=             -1.7650
  YYZ=              8.5443  XYZ=             10.0055
 Hexadecapole moment (field-independent basis, Debye-Ang**3):
 XXXX=          -2243.4174 YYYY=           -919.2158 ZZZZ=           -225.6790 XXXY=            348.1297
 XXXZ=            -33.5645 YYYX=            145.3457 YYYZ=              3.1000 ZZZX=             -5.6340
 ZZZY=              7.5615 XXYY=           -715.3500 XXZZ=           -646.5532 YYZZ=           -189.2626
 XXYZ=            -45.7850 YYXZ=            -43.5910 ZZXY=            -13.2812
 N-N= 1.047236420049D+03 E-N=-3.804328269952D+03  KE= 7.357410852667D+02
 Leave Link  601 at Mon Jul 12 14:13:20 2021, MaxMem=   262144000 cpu:               0.4 elap:               0.4
 (Enter /dades/curu/g16A03_MST/g16/l9999.exe)
 1\1\GINC-PIRINEUS23\SP\RMP2-FC\Aug-CC-pVDZ\C9H14N3O3(1+)\UBATOR02\12-J
 ul-2021\0\\#p mp2/aug-cc-pVDZ scf=tight maxdisk=180GB geom=allcheck\\S
 ET_328_BBB304_conf1.geo_210_285 geometry\\1,1\N,0,-0.5666696314,-0.460
 5016129,4.9149001871\H,0,-0.7616576252,-1.3030147057,5.4441539129\H,0,
 -0.5319661963,0.4136912735,5.4242720663\C,0,-0.3373095341,-0.485296537
 9,3.6082931937\C,0,-0.0420664926,0.6755294165,2.8506424933\C,0,0.17779
 09526,0.5336228865,1.5124200505\H,0,0.4338098268,1.3636315685,0.868284
 627\H,0,0.0183287459,1.6434794085,3.3258860068\N,0,-0.379313374,-1.672
 7222317,2.9470416557\C,0,-0.1576993284,-1.8450528834,1.5782722313\O,0,
 -0.1993209898,-2.934297476,1.042103222\N,0,0.1102054092,-0.6666988419,
 0.8871551677\C,0,0.3739674614,-0.8177593814,-0.5866810587\O,0,0.901867
 1768,0.3831023231,-1.0727241909\H,0,1.1166594378,-1.6138920578,-0.6586
 726036\C,0,-0.9082855477,-1.1224558854,-1.3821764026\H,0,-1.77919338,-
 0.7868767101,-0.8129743578\H,0,-1.0186819763,-2.1884844618,-1.57480385
 16\C,0,-0.7255833984,-0.2755100268,-2.6475465786\H,0,-1.6754761995,0.0
 084390083,-3.1053568801\H,0,-0.1329024883,-0.8140031812,-3.3935155351\
 C,0,0.0599740149,0.9278841483,-2.134834081\H,0,-0.5985429215,1.6868217
 208,-1.6938929986\C,0,0.9869626369,1.5857196625,-3.1407079848\H,0,0.38
 95176674,2.0090140853,-3.9523517245\H,0,1.6467648444,0.8179491974,-3.5
 689863284\O,0,1.7235560732,2.6556454061,-2.5764576658\H,0,2.2991217011
 ,2.2725896251,-1.8950290817\H,0,-0.587856865,-2.5375537368,3.449286509
 7\\Version=ES64L-G16RevA.03\State=1-A\HF=-736.8282537\MP2=-739.1643139
 \RMSD=8.771e-09\PG=C01 [X(C9H14N3O3)]\\@


 WHAT THE SLIME CONTAINS, THE GLOWING REVEALS
 BY THE FLAME'S BRIGHT HUE WHEN YOU IGNITE IT.
   --  LEONARD THURNEYSSER, 1531-1596
 DESCRIBING HIS FLAME PHOTOLYSIS ANALYTIC METHOD
 Job cpu time:       0 days  1 hours 23 minutes 40.3 seconds.
 Elapsed time:       0 days  0 hours 25 minutes 14.2 seconds.
 File lengths (MBytes):  RWF=  38155 Int=      0 D2E=      0 Chk=     18 Scr=      1
 Normal termination of Gaussian 16 at Mon Jul 12 14:13:22 2021.
