 Entering Gaussian System, Link 0=g16
 Input=SET_328_BBB285_conf1.geo_120_300_OCTANOL.dat
 Output=SET_328_BBB285_conf1.geo_120_300_OCTANOL.log
 Initial command:
 /dades/curu/g16A03_MST/g16/l1.exe "/tmp/ubator02/1835286/Gau-154884.inp" -scrdir="/tmp/ubator02/1835286/"
 Entering Link 1 = /dades/curu/g16A03_MST/g16/l1.exe PID=    154887.
  
 Copyright (c) 1988,1990,1992,1993,1995,1998,2003,2009,2016,
            Gaussian, Inc.  All Rights Reserved.
  
 This is part of the Gaussian(R) 16 program.  It is based on
 the Gaussian(R) 09 system (copyright 2009, Gaussian, Inc.),
 the Gaussian(R) 03 system (copyright 2003, Gaussian, Inc.),
 the Gaussian(R) 98 system (copyright 1998, Gaussian, Inc.),
 the Gaussian(R) 94 system (copyright 1995, Gaussian, Inc.),
 the Gaussian 92(TM) system (copyright 1992, Gaussian, Inc.),
 the Gaussian 90(TM) system (copyright 1990, Gaussian, Inc.),
 the Gaussian 88(TM) system (copyright 1988, Gaussian, Inc.),
 the Gaussian 86(TM) system (copyright 1986, Carnegie Mellon
 University), and the Gaussian 82(TM) system (copyright 1983,
 Carnegie Mellon University). Gaussian is a federally registered
 trademark of Gaussian, Inc.
  
 This software contains proprietary and confidential information,
 including trade secrets, belonging to Gaussian, Inc.
  
 This software is provided under written license and may be
 used, copied, transmitted, or stored only in accord with that
 written license.
  
 The following legend is applicable only to US Government
 contracts under FAR:
  
                    RESTRICTED RIGHTS LEGEND
  
 Use, reproduction and disclosure by the US Government is
 subject to restrictions as set forth in subparagraphs (a)
 and (c) of the Commercial Computer Software - Restricted
 Rights clause in FAR 52.227-19.
  
 Gaussian, Inc.
 340 Quinnipiac St., Bldg. 40, Wallingford CT 06492
  
  
 ---------------------------------------------------------------
 Warning -- This program may not be used in any manner that
 competes with the business of Gaussian, Inc. or will provide
 assistance to any competitor of Gaussian, Inc.  The licensee
 of this program is prohibited from giving any competitor of
 Gaussian, Inc. access to this program.  By using this program,
 the user acknowledges that Gaussian, Inc. is engaged in the
 business of creating and licensing software in the field of
 computational chemistry and represents and warrants to the
 licensee that it is not a competitor of Gaussian, Inc. and that
 it will not use this program in any manner prohibited above.
 ---------------------------------------------------------------
  

 Cite this work as:
 Gaussian 16, Revision A.03,
 M. J. Frisch, G. W. Trucks, H. B. Schlegel, G. E. Scuseria, 
 M. A. Robb, J. R. Cheeseman, G. Scalmani, V. Barone, 
 G. A. Petersson, H. Nakatsuji, X. Li, M. Caricato, A. V. Marenich, 
 J. Bloino, B. G. Janesko, R. Gomperts, B. Mennucci, H. P. Hratchian, 
 J. V. Ortiz, A. F. Izmaylov, J. L. Sonnenberg, D. Williams-Young, 
 F. Ding, F. Lipparini, F. Egidi, J. Goings, B. Peng, A. Petrone, 
 T. Henderson, D. Ranasinghe, V. G. Zakrzewski, J. Gao, N. Rega, 
 G. Zheng, W. Liang, M. Hada, M. Ehara, K. Toyota, R. Fukuda, 
 J. Hasegawa, M. Ishida, T. Nakajima, Y. Honda, O. Kitao, H. Nakai, 
 T. Vreven, K. Throssell, J. A. Montgomery, Jr., J. E. Peralta, 
 F. Ogliaro, M. J. Bearpark, J. J. Heyd, E. N. Brothers, K. N. Kudin, 
 V. N. Staroverov, T. A. Keith, R. Kobayashi, J. Normand, 
 K. Raghavachari, A. P. Rendell, J. C. Burant, S. S. Iyengar, 
 J. Tomasi, M. Cossi, J. M. Millam, M. Klene, C. Adamo, R. Cammi, 
 J. W. Ochterski, R. L. Martin, K. Morokuma, O. Farkas, 
 J. B. Foresman, and D. J. Fox, Gaussian, Inc., Wallingford CT, 2016.
 
 ******************************************
 Gaussian 16:  ES64L-G16RevA.03 25-Dec-2016
                12-Jul-2021 
 ******************************************
 %mem=800MB
 %nproc=4
 Will use up to    4 processors via shared memory.
 %chk=SET_328_BBB285_conf1.geo_120_300.chk
 ---------------------------------------------------------------
 #p b3lyp/6-31G(d) opt freq scrf=(iefpcm,read,solvent=n-octanol)
 ---------------------------------------------------------------
 1/18=20,19=15,26=3,38=1,40=2/1,3;
 2/9=110,12=2,17=6,18=5,40=1/2;
 3/5=1,6=6,7=1,11=2,25=1,30=1,70=2203,71=1,72=25,74=-5/1,2,3;
 4//1;
 5/5=2,38=5,53=25/2;
 6/7=2,8=2,9=2,10=2,28=1/1;
 7//1,2,3,16;
 1/18=20,19=15,26=3/3(2);
 2/9=110/2;
 99//99;
 2/9=110/2;
 3/5=1,6=6,7=1,11=2,25=1,30=1,70=2205,71=1,72=25,74=-5/1,2,3;
 4/5=5,16=3,69=1/1;
 5/5=2,38=5,53=25/2;
 7//1,2,3,16;
 1/18=20,19=15,26=3/3(-5);
 2/9=110/2;
 6/7=2,8=2,9=2,10=2,19=2,28=1/1;
 99/9=1/99;
 Leave Link    1 at Mon Jul 12 12:33:17 2021, MaxMem=   104857600 cpu:               0.0 elap:               0.0
 (Enter /dades/curu/g16A03_MST/g16/l101.exe)
 -----------------------------------------
 SET_328_BBB285_conf1.geo_120_300 geometry
 -----------------------------------------
 Symbolic Z-matrix:
 Charge = -1 Multiplicity = 1
 N                    -0.591     3.339    -3.97 
 H                     0.236     2.764    -3.903 
 C                    -1.636     3.047    -3.193 
 O                    -2.691     3.532    -3.522 
 C                    -1.222     2.111    -2.086 
 C                    -2.116     1.716    -1.016 
 N                    -1.507     0.805    -0.259 
 H                    -3.149     1.92     -0.762 
 N                    -0.03      1.506    -1.893 
 N                    -0.289     0.691    -0.826 
 C                     0.793    -0.131    -0.262 
 H                     1.719     0.115    -0.803 
 O                     1.044     0.224     1.174 
 C                     0.354    -0.693     2.078 
 C                     0.877    -0.709     3.542 
 O                     2.301    -1.105     3.558 
 H                     2.323    -1.876     2.963 
 H                     0.275    -1.335     4.207 
 H                     0.704     0.294     3.941 
 H                    -0.644    -0.248     2.097 
 C                     0.26     -2.047     1.339 
 O                     1.424    -2.821     1.827 
 H                     1.133    -3.741     1.693 
 H                    -0.69     -2.409     1.74 
 C                     0.365    -1.598    -0.173 
 H                    -0.598    -1.66     -0.686 
 O                     1.275    -2.345    -0.926 
 H                     0.82     -3.197    -1.052 
 
 ITRead=  0  0  0  0  0  0  0  0  0  0  0  0  0  0  0  0  0  0  0  0
 ITRead=  0  0  0  0  0  0  0  0
 MicOpt= -1 -1 -1 -1 -1 -1 -1 -1 -1 -1 -1 -1 -1 -1 -1 -1 -1 -1 -1 -1
 MicOpt= -1 -1 -1 -1 -1 -1 -1 -1
 NAtoms=     28 NQM=       28 NQMF=       0 NMMI=      0 NMMIF=      0
                NMic=       0 NMicF=      0.
                    Isotopes and Nuclear Properties:
 (Nuclear quadrupole moments (NQMom) in fm**2, nuclear magnetic moments (NMagM)
  in nuclear magnetons)

  Atom         1           2           3           4           5           6           7           8           9          10
 IAtWgt=          14           1          12          16          12          12          14           1          14          14
 AtmWgt=  14.0030740   1.0078250  12.0000000  15.9949146  12.0000000  12.0000000  14.0030740   1.0078250  14.0030740  14.0030740
 NucSpn=           2           1           0           0           0           0           2           1           2           2
 AtZEff=  -0.0000000  -0.0000000  -0.0000000  -0.0000000  -0.0000000  -0.0000000  -0.0000000  -0.0000000  -0.0000000  -0.0000000
 NQMom=    2.0440000   0.0000000   0.0000000   0.0000000   0.0000000   0.0000000   2.0440000   0.0000000   2.0440000   2.0440000
 NMagM=    0.4037610   2.7928460   0.0000000   0.0000000   0.0000000   0.0000000   0.4037610   2.7928460   0.4037610   0.4037610
 AtZNuc=   7.0000000   1.0000000   6.0000000   8.0000000   6.0000000   6.0000000   7.0000000   1.0000000   7.0000000   7.0000000

  Atom        11          12          13          14          15          16          17          18          19          20
 IAtWgt=          12           1          16          12          12          16           1           1           1           1
 AtmWgt=  12.0000000   1.0078250  15.9949146  12.0000000  12.0000000  15.9949146   1.0078250   1.0078250   1.0078250   1.0078250
 NucSpn=           0           1           0           0           0           0           1           1           1           1
 AtZEff=  -0.0000000  -0.0000000  -0.0000000  -0.0000000  -0.0000000  -0.0000000  -0.0000000  -0.0000000  -0.0000000  -0.0000000
 NQMom=    0.0000000   0.0000000   0.0000000   0.0000000   0.0000000   0.0000000   0.0000000   0.0000000   0.0000000   0.0000000
 NMagM=    0.0000000   2.7928460   0.0000000   0.0000000   0.0000000   0.0000000   2.7928460   2.7928460   2.7928460   2.7928460
 AtZNuc=   6.0000000   1.0000000   8.0000000   6.0000000   6.0000000   8.0000000   1.0000000   1.0000000   1.0000000   1.0000000

  Atom        21          22          23          24          25          26          27          28
 IAtWgt=          12          16           1           1          12           1          16           1
 AtmWgt=  12.0000000  15.9949146   1.0078250   1.0078250  12.0000000   1.0078250  15.9949146   1.0078250
 NucSpn=           0           0           1           1           0           1           0           1
 AtZEff=  -0.0000000  -0.0000000  -0.0000000  -0.0000000  -0.0000000  -0.0000000  -0.0000000  -0.0000000
 NQMom=    0.0000000   0.0000000   0.0000000   0.0000000   0.0000000   0.0000000   0.0000000   0.0000000
 NMagM=    0.0000000   0.0000000   2.7928460   2.7928460   0.0000000   2.7928460   0.0000000   2.7928460
 AtZNuc=   6.0000000   8.0000000   1.0000000   1.0000000   6.0000000   1.0000000   8.0000000   1.0000000
 Leave Link  101 at Mon Jul 12 12:33:17 2021, MaxMem=   104857600 cpu:               0.2 elap:               0.3
 (Enter /dades/curu/g16A03_MST/g16/l103.exe)

 GradGradGradGradGradGradGradGradGradGradGradGradGradGradGradGradGradGrad
 Berny optimization.
 Initialization pass.
                           ----------------------------
                           !    Initial Parameters    !
                           ! (Angstroms and Degrees)  !
 --------------------------                            --------------------------
 ! Name  Definition              Value          Derivative Info.                !
 --------------------------------------------------------------------------------
 ! R1    R(1,2)                  1.0095         estimate D2E/DX2                !
 ! R2    R(1,3)                  1.3345         estimate D2E/DX2                !
 ! R3    R(3,4)                  1.2069         estimate D2E/DX2                !
 ! R4    R(3,5)                  1.5076         estimate D2E/DX2                !
 ! R5    R(5,6)                  1.4492         estimate D2E/DX2                !
 ! R6    R(5,9)                  1.3506         estimate D2E/DX2                !
 ! R7    R(6,7)                  1.3319         estimate D2E/DX2                !
 ! R8    R(6,8)                  1.0832         estimate D2E/DX2                !
 ! R9    R(7,10)                 1.3483         estimate D2E/DX2                !
 ! R10   R(9,10)                 1.3674         estimate D2E/DX2                !
 ! R11   R(10,11)                1.4712         estimate D2E/DX2                !
 ! R12   R(11,12)                1.1003         estimate D2E/DX2                !
 ! R13   R(11,13)                1.5004         estimate D2E/DX2                !
 ! R14   R(11,25)                1.5307         estimate D2E/DX2                !
 ! R15   R(13,14)                1.4609         estimate D2E/DX2                !
 ! R16   R(14,15)                1.5547         estimate D2E/DX2                !
 ! R17   R(14,20)                1.0929         estimate D2E/DX2                !
 ! R18   R(14,21)                1.5454         estimate D2E/DX2                !
 ! R19   R(15,16)                1.4781         estimate D2E/DX2                !
 ! R20   R(15,18)                1.0938         estimate D2E/DX2                !
 ! R21   R(15,19)                1.0932         estimate D2E/DX2                !
 ! R22   R(16,17)                0.9741         estimate D2E/DX2                !
 ! R23   R(21,22)                1.4806         estimate D2E/DX2                !
 ! R24   R(21,24)                1.0929         estimate D2E/DX2                !
 ! R25   R(21,25)                1.5807         estimate D2E/DX2                !
 ! R26   R(22,23)                0.9742         estimate D2E/DX2                !
 ! R27   R(25,26)                1.0929         estimate D2E/DX2                !
 ! R28   R(25,27)                1.3975         estimate D2E/DX2                !
 ! R29   R(27,28)                0.9741         estimate D2E/DX2                !
 ! A1    A(2,1,3)              118.5692         estimate D2E/DX2                !
 ! A2    A(1,3,4)              115.9676         estimate D2E/DX2                !
 ! A3    A(1,3,5)              110.3846         estimate D2E/DX2                !
 ! A4    A(4,3,5)              133.6079         estimate D2E/DX2                !
 ! A5    A(3,5,6)              122.817          estimate D2E/DX2                !
 ! A6    A(3,5,9)              128.7106         estimate D2E/DX2                !
 ! A7    A(6,5,9)              108.4724         estimate D2E/DX2                !
 ! A8    A(5,6,7)              108.9059         estimate D2E/DX2                !
 ! A9    A(5,6,8)              135.2461         estimate D2E/DX2                !
 ! A10   A(7,6,8)              115.5706         estimate D2E/DX2                !
 ! A11   A(6,7,10)             103.4074         estimate D2E/DX2                !
 ! A12   A(5,9,10)             102.1999         estimate D2E/DX2                !
 ! A13   A(7,10,9)             116.6695         estimate D2E/DX2                !
 ! A14   A(7,10,11)            123.3932         estimate D2E/DX2                !
 ! A15   A(9,10,11)            119.5276         estimate D2E/DX2                !
 ! A16   A(10,11,12)           107.7902         estimate D2E/DX2                !
 ! A17   A(10,11,13)           110.9616         estimate D2E/DX2                !
 ! A18   A(10,11,25)           110.6163         estimate D2E/DX2                !
 ! A19   A(12,11,13)           106.0751         estimate D2E/DX2                !
 ! A20   A(12,11,25)           118.5652         estimate D2E/DX2                !
 ! A21   A(13,11,25)           102.5847         estimate D2E/DX2                !
 ! A22   A(11,13,14)           111.3902         estimate D2E/DX2                !
 ! A23   A(13,14,15)           115.485          estimate D2E/DX2                !
 ! A24   A(13,14,20)           100.7474         estimate D2E/DX2                !
 ! A25   A(13,14,21)           106.4262         estimate D2E/DX2                !
 ! A26   A(15,14,20)           107.1584         estimate D2E/DX2                !
 ! A27   A(15,14,21)           117.4995         estimate D2E/DX2                !
 ! A28   A(20,14,21)           108.0302         estimate D2E/DX2                !
 ! A29   A(14,15,16)           109.6962         estimate D2E/DX2                !
 ! A30   A(14,15,18)           113.1557         estimate D2E/DX2                !
 ! A31   A(14,15,19)           106.3203         estimate D2E/DX2                !
 ! A32   A(16,15,18)           111.7339         estimate D2E/DX2                !
 ! A33   A(16,15,19)           113.2223         estimate D2E/DX2                !
 ! A34   A(18,15,19)           102.4791         estimate D2E/DX2                !
 ! A35   A(15,16,17)           103.1314         estimate D2E/DX2                !
 ! A36   A(14,21,22)           104.6308         estimate D2E/DX2                !
 ! A37   A(14,21,24)            99.6499         estimate D2E/DX2                !
 ! A38   A(14,21,25)           101.7997         estimate D2E/DX2                !
 ! A39   A(22,21,24)           112.9113         estimate D2E/DX2                !
 ! A40   A(22,21,25)           114.3012         estimate D2E/DX2                !
 ! A41   A(24,21,25)           120.1852         estimate D2E/DX2                !
 ! A42   A(21,22,23)           102.3284         estimate D2E/DX2                !
 ! A43   A(11,25,21)           110.2672         estimate D2E/DX2                !
 ! A44   A(11,25,26)           105.8697         estimate D2E/DX2                !
 ! A45   A(11,25,27)           107.3893         estimate D2E/DX2                !
 ! A46   A(21,25,26)           111.9837         estimate D2E/DX2                !
 ! A47   A(21,25,27)           114.0039         estimate D2E/DX2                !
 ! A48   A(26,25,27)           106.8892         estimate D2E/DX2                !
 ! A49   A(25,27,28)           103.4777         estimate D2E/DX2                !
 ! D1    D(2,1,3,4)           -162.6774         estimate D2E/DX2                !
 ! D2    D(2,1,3,5)             15.3411         estimate D2E/DX2                !
 ! D3    D(1,3,5,6)            174.2349         estimate D2E/DX2                !
 ! D4    D(1,3,5,9)             -5.7975         estimate D2E/DX2                !
 ! D5    D(4,3,5,6)             -8.2256         estimate D2E/DX2                !
 ! D6    D(4,3,5,9)            171.742          estimate D2E/DX2                !
 ! D7    D(3,5,6,7)            174.9348         estimate D2E/DX2                !
 ! D8    D(3,5,6,8)              1.4952         estimate D2E/DX2                !
 ! D9    D(9,5,6,7)             -5.0386         estimate D2E/DX2                !
 ! D10   D(9,5,6,8)           -178.4782         estimate D2E/DX2                !
 ! D11   D(3,5,9,10)          -174.2226         estimate D2E/DX2                !
 ! D12   D(6,5,9,10)             5.7487         estimate D2E/DX2                !
 ! D13   D(5,6,7,10)             1.7576         estimate D2E/DX2                !
 ! D14   D(8,6,7,10)           176.6415         estimate D2E/DX2                !
 ! D15   D(6,7,10,9)             2.1249         estimate D2E/DX2                !
 ! D16   D(6,7,10,11)          174.7274         estimate D2E/DX2                !
 ! D17   D(5,9,10,7)            -5.1621         estimate D2E/DX2                !
 ! D18   D(5,9,10,11)         -178.0655         estimate D2E/DX2                !
 ! D19   D(7,10,11,12)        -168.831          estimate D2E/DX2                !
 ! D20   D(7,10,11,13)         -53.0878         estimate D2E/DX2                !
 ! D21   D(7,10,11,25)          60.0789         estimate D2E/DX2                !
 ! D22   D(9,10,11,12)           3.5707         estimate D2E/DX2                !
 ! D23   D(9,10,11,13)         119.3138         estimate D2E/DX2                !
 ! D24   D(9,10,11,25)        -127.5194         estimate D2E/DX2                !
 ! D25   D(10,11,13,14)         97.274          estimate D2E/DX2                !
 ! D26   D(12,11,13,14)       -145.9249         estimate D2E/DX2                !
 ! D27   D(25,11,13,14)        -20.8816         estimate D2E/DX2                !
 ! D28   D(10,11,25,21)       -113.8173         estimate D2E/DX2                !
 ! D29   D(10,11,25,26)          7.504          estimate D2E/DX2                !
 ! D30   D(10,11,25,27)        121.4284         estimate D2E/DX2                !
 ! D31   D(12,11,25,21)        120.9782         estimate D2E/DX2                !
 ! D32   D(12,11,25,26)       -117.7005         estimate D2E/DX2                !
 ! D33   D(12,11,25,27)         -3.7761         estimate D2E/DX2                !
 ! D34   D(13,11,25,21)          4.582          estimate D2E/DX2                !
 ! D35   D(13,11,25,26)        125.9033         estimate D2E/DX2                !
 ! D36   D(13,11,25,27)       -120.1723         estimate D2E/DX2                !
 ! D37   D(11,13,14,15)        161.7356         estimate D2E/DX2                !
 ! D38   D(11,13,14,20)        -83.2325         estimate D2E/DX2                !
 ! D39   D(11,13,14,21)         29.3745         estimate D2E/DX2                !
 ! D40   D(13,14,15,16)        -59.982          estimate D2E/DX2                !
 ! D41   D(13,14,15,18)        174.5062         estimate D2E/DX2                !
 ! D42   D(13,14,15,19)         62.7836         estimate D2E/DX2                !
 ! D43   D(20,14,15,16)       -171.2895         estimate D2E/DX2                !
 ! D44   D(20,14,15,18)         63.1987         estimate D2E/DX2                !
 ! D45   D(20,14,15,19)        -48.5239         estimate D2E/DX2                !
 ! D46   D(21,14,15,16)         66.9801         estimate D2E/DX2                !
 ! D47   D(21,14,15,18)        -58.5317         estimate D2E/DX2                !
 ! D48   D(21,14,15,19)       -170.2542         estimate D2E/DX2                !
 ! D49   D(13,14,21,22)         95.5245         estimate D2E/DX2                !
 ! D50   D(13,14,21,24)       -147.5703         estimate D2E/DX2                !
 ! D51   D(13,14,21,25)        -23.7532         estimate D2E/DX2                !
 ! D52   D(15,14,21,22)        -35.7135         estimate D2E/DX2                !
 ! D53   D(15,14,21,24)         81.1917         estimate D2E/DX2                !
 ! D54   D(15,14,21,25)       -154.9912         estimate D2E/DX2                !
 ! D55   D(20,14,21,22)       -156.9928         estimate D2E/DX2                !
 ! D56   D(20,14,21,24)        -40.0876         estimate D2E/DX2                !
 ! D57   D(20,14,21,25)         83.7295         estimate D2E/DX2                !
 ! D58   D(14,15,16,17)        -46.0803         estimate D2E/DX2                !
 ! D59   D(18,15,16,17)         80.2423         estimate D2E/DX2                !
 ! D60   D(19,15,16,17)       -164.6598         estimate D2E/DX2                !
 ! D61   D(14,21,22,23)        155.1049         estimate D2E/DX2                !
 ! D62   D(24,21,22,23)         47.7423         estimate D2E/DX2                !
 ! D63   D(25,21,22,23)        -94.4219         estimate D2E/DX2                !
 ! D64   D(14,21,25,11)         11.5411         estimate D2E/DX2                !
 ! D65   D(14,21,25,26)       -106.0671         estimate D2E/DX2                !
 ! D66   D(14,21,25,27)        132.4172         estimate D2E/DX2                !
 ! D67   D(22,21,25,11)       -100.6352         estimate D2E/DX2                !
 ! D68   D(22,21,25,26)        141.7565         estimate D2E/DX2                !
 ! D69   D(22,21,25,27)         20.2408         estimate D2E/DX2                !
 ! D70   D(24,21,25,11)        120.1813         estimate D2E/DX2                !
 ! D71   D(24,21,25,26)          2.573          estimate D2E/DX2                !
 ! D72   D(24,21,25,27)       -118.9427         estimate D2E/DX2                !
 ! D73   D(11,25,27,28)       -163.9154         estimate D2E/DX2                !
 ! D74   D(21,25,27,28)         73.6177         estimate D2E/DX2                !
 ! D75   D(26,25,27,28)        -50.6775         estimate D2E/DX2                !
 --------------------------------------------------------------------------------
 Trust Radius=3.00D-01 FncErr=1.00D-07 GrdErr=1.00D-06 EigMax=2.50D+02 EigMin=1.00D-04
 Number of steps in this run=    163 maximum allowed number of steps=    168.
 GradGradGradGradGradGradGradGradGradGradGradGradGradGradGradGradGradGrad

 Leave Link  103 at Mon Jul 12 12:33:17 2021, MaxMem=   104857600 cpu:               0.1 elap:               0.1
 (Enter /dades/curu/g16A03_MST/g16/l202.exe)
                          Input orientation:                          
 ---------------------------------------------------------------------
 Center     Atomic      Atomic             Coordinates (Angstroms)
 Number     Number       Type             X           Y           Z
 ---------------------------------------------------------------------
      1          7           0       -0.591000    3.339000   -3.970000
      2          1           0        0.236000    2.764000   -3.903000
      3          6           0       -1.636000    3.047000   -3.193000
      4          8           0       -2.691000    3.532000   -3.522000
      5          6           0       -1.222000    2.111000   -2.086000
      6          6           0       -2.116000    1.716000   -1.016000
      7          7           0       -1.507000    0.805000   -0.259000
      8          1           0       -3.149000    1.920000   -0.762000
      9          7           0       -0.030000    1.506000   -1.893000
     10          7           0       -0.289000    0.691000   -0.826000
     11          6           0        0.793000   -0.131000   -0.262000
     12          1           0        1.719000    0.115000   -0.803000
     13          8           0        1.044000    0.224000    1.174000
     14          6           0        0.354000   -0.693000    2.078000
     15          6           0        0.877000   -0.709000    3.542000
     16          8           0        2.301000   -1.105000    3.558000
     17          1           0        2.323000   -1.876000    2.963000
     18          1           0        0.275000   -1.335000    4.207000
     19          1           0        0.704000    0.294000    3.941000
     20          1           0       -0.644000   -0.248000    2.097000
     21          6           0        0.260000   -2.047000    1.339000
     22          8           0        1.424000   -2.821000    1.827000
     23          1           0        1.133000   -3.741000    1.693000
     24          1           0       -0.690000   -2.409000    1.740000
     25          6           0        0.365000   -1.598000   -0.173000
     26          1           0       -0.598000   -1.660000   -0.686000
     27          8           0        1.275000   -2.345000   -0.926000
     28          1           0        0.820000   -3.197000   -1.052000
 ---------------------------------------------------------------------
                    Distance matrix (angstroms):
                    1          2          3          4          5
     1  N    0.000000
     2  H    1.009477   0.000000
     3  C    1.334548   2.022022   0.000000
     4  O    2.155911   3.049970   1.206852   0.000000
     5  C    2.335723   2.419434   1.507628   2.497859   0.000000
     6  C    3.699442   3.868459   2.596399   3.147780   1.449193
     7  N    4.586037   4.489373   3.694802   4.414244   2.263800
     8  H    4.341450   4.694299   3.077184   3.228917   2.345802
     9  N    2.826400   2.386089   2.577580   3.720113   1.350607
    10  N    4.121631   3.747117   3.601088   4.594486   2.115299
    11  C    5.263613   4.684886   4.958880   6.015266   3.523317
    12  H    5.075447   4.338950   5.056160   6.206203   3.778834
    13  O    6.231949   5.734143   5.849993   6.851679   4.395808
    14  C    7.329963   6.909206   6.762480   7.647395   5.261662
    15  C    8.658607   8.240184   8.110668   8.978686   6.635705
    16  O    9.207800   8.654473   8.849580   9.825896   7.389785
    17  H    9.151727   8.545591   8.820768   9.820483   7.345447
    18  H    9.458306   9.087102   8.809872   9.603244   7.329241
    19  H    8.575137   8.237006   7.996785   8.815160   6.582985
    20  H    7.048253   6.771008   6.310720   7.074728   4.836988
    21  C    7.610432   7.115115   7.076911   7.966364   5.587120
    22  O    8.695461   8.089281   8.306469   9.268529   6.829166
    23  H    9.228659   8.627563   8.810068   9.732201   7.353419
    24  H    8.102679   7.711086   7.416019   8.184627   5.945730
    25  C    6.301199   5.740783   5.890707   6.846301   4.464843
    26  H    5.981196   5.533211   5.433079   6.275381   4.070604
    27  O    6.712358   6.003660   6.533519   7.550331   5.237991
    28  H    7.295543   6.633459   7.042965   7.981695   5.780466
                    6          7          8          9         10
     6  C    0.000000
     7  N    1.331860   0.000000
     8  H    1.083153   2.047535   0.000000
     9  N    2.272581   2.311468   3.343459   0.000000
    10  N    2.103486   1.348336   3.113541   1.367404   0.000000
    11  C    3.527351   2.483164   4.471685   2.453010   1.471225
    12  H    4.161225   3.343518   5.192026   2.486359   2.089107
    13  O    4.124047   2.983061   4.919935   3.493349   2.448464
    14  C    4.634330   3.341990   5.211946   4.555425   3.280567
    15  C    5.967750   4.735320   6.453273   5.938695   4.732756
    16  O    6.956249   5.720005   7.583899   6.477984   5.399368
    17  H    6.959858   5.677847   7.630729   6.368302   5.269588
    18  H    6.504246   5.263106   6.856367   6.736045   5.454710
    19  H    5.877613   4.773850   6.293464   6.003604   4.885483
    20  H    3.964196   2.721087   4.375972   4.401547   3.090578
    21  C    5.035034   3.716154   5.636716   4.811833   3.533450
    22  O    6.418615   5.107840   7.077594   5.888586   4.723020
    23  H    6.904602   5.607675   7.510624   6.460880   5.292454
    24  H    5.161844   3.872116   5.571977   5.381590   4.044151
    25  C    4.224761   3.047325   5.007139   3.570608   2.468531
    26  H    3.716262   2.661735   4.396564   3.435554   2.375349
    27  O    5.291380   4.255222   6.147267   4.179511   3.416635
    28  H    5.723544   4.696784   6.482341   4.852627   4.049383
                   11         12         13         14         15
    11  C    0.000000
    12  H    1.100306   0.000000
    13  O    1.500374   2.091897   0.000000
    14  C    2.446255   3.288807   1.460892   0.000000
    15  C    3.848578   4.501885   2.550647   1.554696   0.000000
    16  O    4.220799   4.565681   3.004954   2.480111   1.478123
    17  H    3.973229   4.302517   3.040783   2.461641   1.946290
    18  H    4.657242   5.411814   3.495845   2.225095   1.093849
    19  H    4.225370   4.854668   2.788689   2.137157   1.093224
    20  H    2.764695   3.758396   1.980923   1.092882   2.148019
    21  C    2.553105   3.375069   2.408178   1.545404   2.650310
    22  O    3.463839   3.952723   3.137329   2.395054   2.775064
    23  H    4.119433   4.630567   3.999813   3.169443   3.560528
    24  H    3.375882   4.317488   3.203092   2.036869   2.931330
    25  C    1.530749   2.272572   2.365404   2.426138   3.854049
    26  H    2.110094   2.921096   3.115320   3.079138   4.577773
    27  O    2.361147   2.502771   3.326127   3.549840   4.774717
    28  H    3.166257   3.440864   4.087602   4.035353   5.224771
                   16         17         18         19         20
    16  O    0.000000
    17  H    0.974141   0.000000
    18  H    2.139808   2.456526   0.000000
    19  H    2.157382   2.878636   1.705414   0.000000
    20  H    3.397351   3.493341   2.545237   2.347595   0.000000
    21  C    3.158640   2.631081   2.955096   3.528147   2.151321
    22  O    2.590395   1.729660   3.031963   3.832835   3.312077
    23  H    3.433795   2.550926   3.584020   4.638833   3.939796
    24  H    3.735187   3.295146   2.858459   3.754177   2.190773
    25  C    4.232199   3.707498   4.388812   4.540879   2.827274
    26  H    5.169503   4.679113   4.980884   5.188685   3.121049
    27  O    4.764088   4.054946   5.326142   5.565793   4.149518
    28  H    5.274649   4.486009   5.605457   6.093487   4.555886
                   21         22         23         24         25
    21  C    0.000000
    22  O    1.480580   0.000000
    23  H    1.938319   0.974185   0.000000
    24  H    1.092861   2.155530   2.258265   0.000000
    25  C    1.580750   2.572394   2.943506   2.330304   0.000000
    26  H    2.233060   3.428057   3.603687   2.540658   1.092878
    27  O    2.499851   2.797818   2.971219   3.312533   1.397540
    28  H    2.711638   2.965608   2.815836   3.270521   1.880550
                   26         27         28
    26  H    0.000000
    27  O    2.008719   0.000000
    28  H    2.122981   0.974066   0.000000
 Stoichiometry    C8H11N4O5(1-)
 Framework group  C1[X(C8H11N4O5)]
 Deg. of freedom    78
 Full point group                 C1      NOp   1
 Largest Abelian subgroup         C1      NOp   1
 Largest concise Abelian subgroup C1      NOp   1
                         Standard orientation:                         
 ---------------------------------------------------------------------
 Center     Atomic      Atomic             Coordinates (Angstroms)
 Number     Number       Type             X           Y           Z
 ---------------------------------------------------------------------
      1          7           0       -4.782890    0.519721    1.238609
      2          1           0       -4.075020    1.082604    1.687079
      3          6           0       -4.458388   -0.150609    0.131191
      4          8           0       -5.382185   -0.536588   -0.542686
      5          6           0       -2.960104   -0.215556   -0.023303
      6          6           0       -2.310674   -0.983682   -1.066559
      7          7           0       -0.998903   -0.759128   -1.014771
      8          1           0       -2.647715   -1.597029   -1.893258
      9          7           0       -2.007255    0.383941    0.722902
     10          7           0       -0.865455    0.072885    0.037824
     11          6           0        0.436770    0.515862    0.559825
     12          1           0        0.260358    1.013310    1.525276
     13          8           0        1.324719   -0.657439    0.853140
     14          6           0        2.250216   -0.913592   -0.247789
     15          6           0        3.484940   -1.789467    0.106305
     16          8           0        4.275576   -1.130326    1.167094
     17          1           0        4.332033   -0.207574    0.860024
     18          1           0        4.100610   -2.036648   -0.763383
     19          1           0        3.093716   -2.765923    0.403991
     20          1           0        1.616217   -1.504285   -0.913761
     21          6           0        2.513542    0.450936   -0.923803
     22          8           0        3.764624    0.941109   -0.301999
     23          1           0        4.115487    1.540473   -0.985149
     24          1           0        2.652686    0.120158   -1.956067
     25          6           0        1.222153    1.267281   -0.518014
     26          1           0        0.534385    1.389288   -1.358533
     27          8           0        1.490331    2.546721   -0.023815
     28          1           0        1.743524    3.048840   -0.819161
 ---------------------------------------------------------------------
 Rotational constants (GHZ):           1.2162353           0.2115188           0.1990876
 Leave Link  202 at Mon Jul 12 12:33:18 2021, MaxMem=   104857600 cpu:               0.1 elap:               0.1
 (Enter /dades/curu/g16A03_MST/g16/l301.exe)
 Standard basis: 6-31G(d) (6D, 7F)
 Ernie: Thresh=  0.10000D-02 Tol=  0.10000D-05 Strict=F.
 There are   277 symmetry adapted cartesian basis functions of A   symmetry.
 There are   277 symmetry adapted basis functions of A   symmetry.
   277 basis functions,   520 primitive gaussians,   277 cartesian basis functions
    64 alpha electrons       64 beta electrons
       nuclear repulsion energy      1247.8148287446 Hartrees.
 IExCor=  402 DFT=T Ex+Corr=B3LYP ExCW=0 ScaHFX=  0.200000
 ScaDFX=  0.800000  0.720000  1.000000  0.810000 ScalE2=  1.000000  1.000000
 IRadAn=      5 IRanWt=     -1 IRanGd=            0 ICorTp=0 IEmpDi=  4
 NAtoms=   28 NActive=   28 NUniq=   28 SFac= 1.00D+00 NAtFMM=   60 NAOKFM=F Big=F
 Integral buffers will be    131072 words long.
 Raffenetti 2 integral format.
 Two-electron integral symmetry is turned on.
 Using the following non-standard input for PCM:
 MSTModel=DFT cav MSTCharged
 --- end of non-standard input.
 MST model for solvation energy: B3LYP parametrization.
 MST cavity parameters:
 ISph   IAn     Re0     Alpha   Atom Type   QCorr
 ------------------------------------------------
   1      7     1.50     1.15      NH         T
   2      1     0.90     1.15      NH         T
   3      6     1.50     1.50      C          F
   4      8     1.40     1.50      O          F
   5      6     1.50     1.50      C          F
   6      6     1.50     1.50      CH         F
   7      7     1.50     1.50      Nc         F
   8      1     1.20     1.50      CH         F
   9      7     1.50     1.50      Nc         F
  10      7     1.50     1.50      Nc         F
  11      6     1.50     1.50      CH         F
  12      1     1.20     1.50      CH         F
  13      8     1.40     1.50      O          F
  14      6     1.50     1.50      CH         F
  15      6     1.50     1.50      CH2        F
  16      8     1.40     1.50      OH         F
  17      1     0.90     1.50      OH         F
  18      1     1.20     1.50      CH2        F
  19      1     1.20     1.50      CH2        F
  20      1     1.20     1.50      CH         F
  21      6     1.50     1.50      CH         F
  22      8     1.40     1.50      OH         F
  23      1     0.90     1.50      OH         F
  24      1     1.20     1.50      CH         F
  25      6     1.50     1.50      CH         F
  26      1     1.20     1.50      CH         F
  27      8     1.40     1.50      OH         F
  28      1     0.90     1.50      OH         F
 ------------------------------------------------------------------------------
 Polarizable Continuum Model (PCM)
 =================================
 Model                : PCM.
 Atomic radii         : MST.
 Polarization charges : Total charges.
 Charge compensation  : None.
 Solution method      : On-the-fly selection.
 Cavity type          : Scaled VdW (van der Waals Surface) (Alpha=1.500).
 Cavity algorithm     : GePol (No added spheres)
                        Default sphere list used, NSphG=   28.
                        Lebedev-Laikov grids with approx.  5.0 points / Ang**2.
                        Smoothing algorithm: York/Karplus (Gamma=1.0000).
                        Polarization charges: spherical gaussians, with
                                              point-specific exponents (IZeta= 3).
                        Self-potential: point-specific (ISelfS= 7).
                        Self-field    : sphere-specific E.n sum rule (ISelfD= 2).
 1st derivatives      : Analytical E(r).r(x)/FMM algorithm (CHGder, D1EAlg=3).
                        Cavity 1st derivative terms included.
 Solvent              : n-Octanol, Eps=   9.862900 Eps(inf)=   2.043470
 ------------------------------------------------------------------------------
 GePol: Number of generator spheres                  =      28
 GePol: Total number of spheres                      =      28
 GePol: Number of exposed spheres                    =      28 (100.00%)
 GePol: Number of points                             =    2465
 GePol: Average weight of points                     =       0.12
 GePol: Minimum weight of points                     =   0.13D-09
 GePol: Maximum weight of points                     =    0.21373
 GePol: Number of points with low weight             =     129
 GePol: Fraction of low-weight points (<1% of avg)   =       5.23%
 GePol: Cavity surface area                          =    302.003 Ang**2
 GePol: Cavity volume                                =    341.022 Ang**3
 Surface areas from nonelectrostatic (unscaled) cavity and vdw tensions:
 Sphere =    1 Type =  NH  Surf =       16.873 Tension =       -0.234
 Sphere =    2 Type =  NH  Surf =        3.855 Tension =       -0.234
 Sphere =    3 Type =  C   Surf =        6.871 Tension =       -0.205
 Sphere =    4 Type =  O   Surf =       16.272 Tension =       -0.185
 Sphere =    5 Type =  C   Surf =        6.487 Tension =       -0.205
 Sphere =    6 Type =  CH  Surf =        8.182 Tension =       -0.195
 Sphere =    7 Type =  Nc  Surf =       13.148 Tension =       -0.161
 Sphere =    8 Type =  CH  Surf =       10.207 Tension =       -0.195
 Sphere =    9 Type =  Nc  Surf =       13.037 Tension =       -0.161
 Sphere =   10 Type =  Nc  Surf =        5.127 Tension =       -0.161
 Sphere =   11 Type =  CH  Surf =        3.321 Tension =       -0.195
 Sphere =   12 Type =  CH  Surf =        9.808 Tension =       -0.195
 Sphere =   13 Type =  O   Surf =       11.054 Tension =       -0.185
 Sphere =   14 Type =  CH  Surf =        2.902 Tension =       -0.195
 Sphere =   15 Type =  CH2 Surf =        4.593 Tension =       -0.194
 Sphere =   16 Type =  OH  Surf =       14.802 Tension =       -0.238
 Sphere =   17 Type =  OH  Surf =        2.581 Tension =       -0.238
 Sphere =   18 Type =  CH2 Surf =       10.130 Tension =       -0.194
 Sphere =   19 Type =  CH2 Surf =       10.014 Tension =       -0.194
 Sphere =   20 Type =  CH  Surf =        9.615 Tension =       -0.195
 Sphere =   21 Type =  CH  Surf =        4.056 Tension =       -0.195
 Sphere =   22 Type =  OH  Surf =       12.618 Tension =       -0.238
 Sphere =   23 Type =  OH  Surf =        4.433 Tension =       -0.238
 Sphere =   24 Type =  CH  Surf =        9.842 Tension =       -0.195
 Sphere =   25 Type =  CH  Surf =        3.384 Tension =       -0.195
 Sphere =   26 Type =  CH  Surf =        9.295 Tension =       -0.195
 Sphere =   27 Type =  OH  Surf =       14.135 Tension =       -0.238
 Sphere =   28 Type =  OH  Surf =        4.412 Tension =       -0.238
 PCM non-electrostatic energy =        -0.0153496442 Hartrees.
 Nuclear repulsion after PCM non-electrostatic terms =     1247.7994791003 Hartrees.
 Leave Link  301 at Mon Jul 12 12:33:18 2021, MaxMem=   104857600 cpu:               0.2 elap:               0.3
 (Enter /dades/curu/g16A03_MST/g16/l302.exe)
 NPDir=0 NMtPBC=     1 NCelOv=     1 NCel=       1 NClECP=     1 NCelD=      1
         NCelK=      1 NCelE2=     1 NClLst=     1 CellRange=     0.0.
 One-electron integrals computed using PRISM.
 One-electron integral symmetry used in STVInt
 NBasis=   277 RedAO= T EigKep=  1.09D-03  NBF=   277
 NBsUse=   277 1.00D-06 EigRej= -1.00D+00 NBFU=   277
 Precomputing XC quadrature grid using
 IXCGrd= 4 IRadAn=           5 IRanWt=          -1 IRanGd=           0 AccXCQ= 0.00D+00.
 Generated NRdTot=       0 NPtTot=           0 NUsed=           0 NTot=          32
 NSgBfM=   275   274   275   275   275 MxSgAt=    28 MxSgA2=    28.
 Leave Link  302 at Mon Jul 12 12:33:20 2021, MaxMem=   104857600 cpu:               2.8 elap:               0.9
 (Enter /dades/curu/g16A03_MST/g16/l303.exe)
 DipDrv:  MaxL=1.
 Leave Link  303 at Mon Jul 12 12:33:20 2021, MaxMem=   104857600 cpu:               0.1 elap:               0.1
 (Enter /dades/curu/g16A03_MST/g16/l401.exe)
 ExpMin= 1.61D-01 ExpMax= 5.48D+03 ExpMxC= 8.25D+02 IAcc=3 IRadAn=         5 AccDes= 0.00D+00
 Harris functional with IExCor=  402 and IRadAn=       5 diagonalized for initial guess.
 HarFok:  IExCor=  402 AccDes= 0.00D+00 IRadAn=         5 IDoV= 1 UseB2=F ITyADJ=14
 ICtDFT=  3500011 ScaDFX=  1.000000  1.000000  1.000000  1.000000
 FoFCou: FMM=F IPFlag=           0 FMFlag=      100000 FMFlg1=           0
         NFxFlg=           0 DoJE=T BraDBF=F KetDBF=T FulRan=T
         wScrn=  0.000000 ICntrl=       500 IOpCl=  0 I1Cent=   200000004 NGrid=           0
         NMat0=    1 NMatS0=      1 NMatT0=    0 NMatD0=    1 NMtDS0=    0 NMtDT0=    0
 Petite list used in FoFCou.
 Harris En= -906.625155733355    
 JPrj=0 DoOrth=F DoCkMO=F.
 Leave Link  401 at Mon Jul 12 12:33:26 2021, MaxMem=   104857600 cpu:              22.2 elap:               5.9
 (Enter /dades/curu/g16A03_MST/g16/l502.exe)
 Integral symmetry usage will be decided dynamically.
 Closed shell SCF:
 Using DIIS extrapolation, IDIIS=  1040.
 NGot=   104857600 LenX=   104699411 LenY=   104622241
 Requested convergence on RMS density matrix=1.00D-08 within 128 cycles.
 Requested convergence on MAX density matrix=1.00D-06.
 Requested convergence on             energy=1.00D-06.
 No special actions if energy rises.
 Fock matrices will be formed incrementally for  20 cycles.

 Cycle   1  Pass 1  IDiag  1:
 FoFJK:  IHMeth= 1 ICntrl=       0 DoSepK=F KAlg= 0 I1Cent=           0 FoldK=F
 IRaf= 800000000 NMat=       1 IRICut=       1 DoRegI=T DoRafI=F ISym2E= 0 IDoP0=0 IntGTp=1.
 FoFCou: FMM=F IPFlag=           0 FMFlag=      100000 FMFlg1=           0
         NFxFlg=           0 DoJE=F BraDBF=F KetDBF=F FulRan=T
         wScrn=  0.000000 ICntrl=         0 IOpCl=  0 I1Cent=           0 NGrid=           0
         NMat0=    1 NMatS0=      1 NMatT0=    0 NMatD0=    1 NMtDS0=    0 NMtDT0=    0
 Symmetry not used in FoFCou.
 Inv3:  Mode=1 IEnd=    18228675.
 Iteration    1 A*A^-1 deviation from unit magnitude is 9.10D-15 for   2459.
 Iteration    1 A*A^-1 deviation from orthogonality  is 2.49D-15 for   2449   2391.
 Iteration    1 A^-1*A deviation from unit magnitude is 8.88D-15 for   2459.
 Iteration    1 A^-1*A deviation from orthogonality  is 2.54D-15 for   2449   2391.
 E= -906.135281794698    
 DIIS: error= 3.23D-02 at cycle   1 NSaved=   1.
 NSaved= 1 IEnMin= 1 EnMin= -906.135281794698     IErMin= 1 ErrMin= 3.23D-02
 ErrMax= 3.23D-02  0.00D+00 EMaxC= 1.00D-01 BMatC= 5.32D-01 BMatP= 5.32D-01
 IDIUse=3 WtCom= 6.77D-01 WtEn= 3.23D-01
 Coeff-Com:  0.100D+01
 Coeff-En:   0.100D+01
 Coeff:      0.100D+01
 Gap=     0.223 Goal=   None    Shift=    0.000
 GapD=    0.223 DampG=1.000 DampE=0.500 DampFc=0.5000 IDamp=-1.
 Damping current iteration by 5.00D-01
 RMSDP=8.30D-03 MaxDP=2.86D-01              OVMax= 6.81D-01

 Cycle   2  Pass 1  IDiag  1:
 RMSU=  4.14D-03    CP:  9.88D-01
 E= -905.977928921632     Delta-E=        0.157352873066 Rises=F Damp=T
 DIIS: error= 1.78D-02 at cycle   2 NSaved=   2.
 NSaved= 2 IEnMin= 1 EnMin= -906.135281794698     IErMin= 2 ErrMin= 1.78D-02
 ErrMax= 1.78D-02  0.00D+00 EMaxC= 1.00D-01 BMatC= 1.84D-01 BMatP= 5.32D-01
 IDIUse=3 WtCom= 8.22D-01 WtEn= 1.78D-01
 Coeff-Com:  0.329D+00 0.671D+00
 Coeff-En:   0.611D+00 0.389D+00
 Coeff:      0.379D+00 0.621D+00
 Gap=     0.005 Goal=   None    Shift=    0.000
 RMSDP=3.78D-03 MaxDP=1.54D-01 DE= 1.57D-01 OVMax= 8.04D-01

 Cycle   3  Pass 1  IDiag  1:
 RMSU=  2.74D-03    CP:  9.79D-01  3.73D-01
 E= -906.432541627781     Delta-E=       -0.454612706148 Rises=F Damp=F
 DIIS: error= 1.35D-02 at cycle   3 NSaved=   3.
 NSaved= 3 IEnMin= 3 EnMin= -906.432541627781     IErMin= 3 ErrMin= 1.35D-02
 ErrMax= 1.35D-02  0.00D+00 EMaxC= 1.00D-01 BMatC= 1.37D-01 BMatP= 1.84D-01
 IDIUse=3 WtCom= 8.65D-01 WtEn= 1.35D-01
 Coeff-Com:  0.138D+00 0.435D+00 0.427D+00
 Coeff-En:   0.000D+00 0.499D-01 0.950D+00
 Coeff:      0.120D+00 0.383D+00 0.498D+00
 Gap=     0.219 Goal=   None    Shift=    0.000
 RMSDP=1.81D-03 MaxDP=7.91D-02 DE=-4.55D-01 OVMax= 1.00D-01

 Cycle   4  Pass 1  IDiag  1:
 RMSU=  1.21D-03    CP:  9.87D-01  4.36D-01  5.24D-01
 E= -906.565891376246     Delta-E=       -0.133349748465 Rises=F Damp=F
 DIIS: error= 2.72D-03 at cycle   4 NSaved=   4.
 NSaved= 4 IEnMin= 4 EnMin= -906.565891376246     IErMin= 4 ErrMin= 2.72D-03
 ErrMax= 2.72D-03  0.00D+00 EMaxC= 1.00D-01 BMatC= 8.87D-03 BMatP= 1.37D-01
 IDIUse=3 WtCom= 9.73D-01 WtEn= 2.72D-02
 Coeff-Com: -0.106D-01 0.163D+00 0.158D+00 0.690D+00
 Coeff-En:   0.000D+00 0.000D+00 0.000D+00 0.100D+01
 Coeff:     -0.103D-01 0.158D+00 0.154D+00 0.698D+00
 Gap=     0.142 Goal=   None    Shift=    0.000
 RMSDP=4.51D-04 MaxDP=1.62D-02 DE=-1.33D-01 OVMax= 2.40D-02

 Cycle   5  Pass 1  IDiag  1:
 RMSU=  4.29D-04    CP:  9.88D-01  4.62D-01  5.42D-01  9.43D-01
 E= -906.568891371482     Delta-E=       -0.002999995237 Rises=F Damp=F
 DIIS: error= 2.80D-03 at cycle   5 NSaved=   5.
 NSaved= 5 IEnMin= 5 EnMin= -906.568891371482     IErMin= 4 ErrMin= 2.72D-03
 ErrMax= 2.80D-03  0.00D+00 EMaxC= 1.00D-01 BMatC= 4.72D-03 BMatP= 8.87D-03
 IDIUse=3 WtCom= 9.72D-01 WtEn= 2.80D-02
 Coeff-Com: -0.302D-01 0.626D-01 0.296D-02 0.442D+00 0.523D+00
 Coeff-En:   0.000D+00 0.000D+00 0.000D+00 0.337D+00 0.663D+00
 Coeff:     -0.293D-01 0.609D-01 0.288D-02 0.439D+00 0.527D+00
 Gap=     0.136 Goal=   None    Shift=    0.000
 RMSDP=2.58D-04 MaxDP=1.08D-02 DE=-3.00D-03 OVMax= 2.74D-02

 Cycle   6  Pass 1  IDiag  1:
 RMSU=  1.36D-04    CP:  9.87D-01  4.84D-01  5.28D-01  1.06D+00  6.76D-01
 E= -906.573176094450     Delta-E=       -0.004284722967 Rises=F Damp=F
 DIIS: error= 7.43D-04 at cycle   6 NSaved=   6.
 NSaved= 6 IEnMin= 6 EnMin= -906.573176094450     IErMin= 6 ErrMin= 7.43D-04
 ErrMax= 7.43D-04  0.00D+00 EMaxC= 1.00D-01 BMatC= 4.20D-04 BMatP= 4.72D-03
 IDIUse=3 WtCom= 9.93D-01 WtEn= 7.43D-03
 Coeff-Com: -0.175D-01 0.153D-01-0.332D-01 0.159D+00 0.305D+00 0.571D+00
 Coeff-En:   0.000D+00 0.000D+00 0.000D+00 0.000D+00 0.000D+00 0.100D+01
 Coeff:     -0.174D-01 0.152D-01-0.330D-01 0.158D+00 0.303D+00 0.574D+00
 Gap=     0.134 Goal=   None    Shift=    0.000
 RMSDP=1.07D-04 MaxDP=5.29D-03 DE=-4.28D-03 OVMax= 5.83D-03

 Cycle   7  Pass 1  IDiag  1:
 RMSU=  7.07D-05    CP:  9.88D-01  4.90D-01  5.20D-01  1.09D+00  7.83D-01
                    CP:  7.41D-01
 E= -906.573516784300     Delta-E=       -0.000340689850 Rises=F Damp=F
 DIIS: error= 2.74D-04 at cycle   7 NSaved=   7.
 NSaved= 7 IEnMin= 7 EnMin= -906.573516784300     IErMin= 7 ErrMin= 2.74D-04
 ErrMax= 2.74D-04  0.00D+00 EMaxC= 1.00D-01 BMatC= 6.12D-05 BMatP= 4.20D-04
 IDIUse=3 WtCom= 9.97D-01 WtEn= 2.74D-03
 Coeff-Com: -0.541D-02 0.317D-02-0.188D-01 0.225D-01 0.922D-01 0.330D+00
 Coeff-Com:  0.577D+00
 Coeff-En:   0.000D+00 0.000D+00 0.000D+00 0.000D+00 0.000D+00 0.000D+00
 Coeff-En:   0.100D+01
 Coeff:     -0.539D-02 0.316D-02-0.187D-01 0.225D-01 0.919D-01 0.329D+00
 Coeff:      0.578D+00
 Gap=     0.135 Goal=   None    Shift=    0.000
 RMSDP=3.30D-05 MaxDP=1.49D-03 DE=-3.41D-04 OVMax= 2.79D-03

 Cycle   8  Pass 1  IDiag  1:
 RMSU=  1.92D-05    CP:  9.88D-01  4.91D-01  5.16D-01  1.10D+00  7.85D-01
                    CP:  8.27D-01  7.22D-01
 E= -906.573569371177     Delta-E=       -0.000052586877 Rises=F Damp=F
 DIIS: error= 7.26D-05 at cycle   8 NSaved=   8.
 NSaved= 8 IEnMin= 8 EnMin= -906.573569371177     IErMin= 8 ErrMin= 7.26D-05
 ErrMax= 7.26D-05  0.00D+00 EMaxC= 1.00D-01 BMatC= 4.68D-06 BMatP= 6.12D-05
 IDIUse=1 WtCom= 1.00D+00 WtEn= 0.00D+00
 Coeff-Com: -0.527D-03 0.289D-03-0.463D-02-0.596D-02 0.108D-01 0.759D-01
 Coeff-Com:  0.274D+00 0.650D+00
 Coeff:     -0.527D-03 0.289D-03-0.463D-02-0.596D-02 0.108D-01 0.759D-01
 Coeff:      0.274D+00 0.650D+00
 Gap=     0.135 Goal=   None    Shift=    0.000
 RMSDP=8.57D-06 MaxDP=4.14D-04 DE=-5.26D-05 OVMax= 5.95D-04

 Cycle   9  Pass 1  IDiag  1:
 RMSU=  6.45D-06    CP:  9.88D-01  4.91D-01  5.16D-01  1.10D+00  7.89D-01
                    CP:  8.34D-01  7.57D-01  7.75D-01
 E= -906.573572606701     Delta-E=       -0.000003235524 Rises=F Damp=F
 DIIS: error= 3.75D-05 at cycle   9 NSaved=   9.
 NSaved= 9 IEnMin= 9 EnMin= -906.573572606701     IErMin= 9 ErrMin= 3.75D-05
 ErrMax= 3.75D-05  0.00D+00 EMaxC= 1.00D-01 BMatC= 7.56D-07 BMatP= 4.68D-06
 IDIUse=1 WtCom= 1.00D+00 WtEn= 0.00D+00
 Coeff-Com:  0.190D-03-0.233D-03-0.984D-03-0.522D-02-0.100D-02 0.119D-01
 Coeff-Com:  0.108D+00 0.363D+00 0.524D+00
 Coeff:      0.190D-03-0.233D-03-0.984D-03-0.522D-02-0.100D-02 0.119D-01
 Coeff:      0.108D+00 0.363D+00 0.524D+00
 Gap=     0.135 Goal=   None    Shift=    0.000
 RMSDP=3.76D-06 MaxDP=1.54D-04 DE=-3.24D-06 OVMax= 3.41D-04

 Cycle  10  Pass 1  IDiag  1:
 RMSU=  2.57D-06    CP:  9.88D-01  4.91D-01  5.16D-01  1.10D+00  7.91D-01
                    CP:  8.35D-01  7.74D-01  8.36D-01  6.78D-01
 E= -906.573573191331     Delta-E=       -0.000000584630 Rises=F Damp=F
 DIIS: error= 1.43D-05 at cycle  10 NSaved=  10.
 NSaved=10 IEnMin=10 EnMin= -906.573573191331     IErMin=10 ErrMin= 1.43D-05
 ErrMax= 1.43D-05  0.00D+00 EMaxC= 1.00D-01 BMatC= 1.18D-07 BMatP= 7.56D-07
 IDIUse=1 WtCom= 1.00D+00 WtEn= 0.00D+00
 Coeff-Com:  0.183D-03-0.175D-03-0.497D-04-0.227D-02-0.103D-02-0.945D-03
 Coeff-Com:  0.389D-01 0.150D+00 0.323D+00 0.492D+00
 Coeff:      0.183D-03-0.175D-03-0.497D-04-0.227D-02-0.103D-02-0.945D-03
 Coeff:      0.389D-01 0.150D+00 0.323D+00 0.492D+00
 Gap=     0.135 Goal=   None    Shift=    0.000
 RMSDP=1.29D-06 MaxDP=5.55D-05 DE=-5.85D-07 OVMax= 1.24D-04

 Cycle  11  Pass 1  IDiag  1:
 RMSU=  8.99D-07    CP:  9.88D-01  4.91D-01  5.16D-01  1.10D+00  7.90D-01
                    CP:  8.35D-01  7.76D-01  8.36D-01  7.51D-01  7.19D-01
 E= -906.573573280626     Delta-E=       -0.000000089295 Rises=F Damp=F
 DIIS: error= 5.61D-06 at cycle  11 NSaved=  11.
 NSaved=11 IEnMin=11 EnMin= -906.573573280626     IErMin=11 ErrMin= 5.61D-06
 ErrMax= 5.61D-06  0.00D+00 EMaxC= 1.00D-01 BMatC= 1.74D-08 BMatP= 1.18D-07
 IDIUse=1 WtCom= 1.00D+00 WtEn= 0.00D+00
 Coeff-Com:  0.757D-04-0.962D-04 0.197D-03-0.135D-03 0.371D-04-0.306D-02
 Coeff-Com:  0.119D-02 0.850D-02 0.856D-01 0.269D+00 0.639D+00
 Coeff:      0.757D-04-0.962D-04 0.197D-03-0.135D-03 0.371D-04-0.306D-02
 Coeff:      0.119D-02 0.850D-02 0.856D-01 0.269D+00 0.639D+00
 Gap=     0.135 Goal=   None    Shift=    0.000
 RMSDP=5.06D-07 MaxDP=2.33D-05 DE=-8.93D-08 OVMax= 3.54D-05

 Cycle  12  Pass 1  IDiag  1:
 RMSU=  3.03D-07    CP:  9.88D-01  4.91D-01  5.16D-01  1.10D+00  7.90D-01
                    CP:  8.34D-01  7.77D-01  8.42D-01  7.70D-01  7.99D-01
                    CP:  7.78D-01
 E= -906.573573294091     Delta-E=       -0.000000013465 Rises=F Damp=F
 DIIS: error= 2.34D-06 at cycle  12 NSaved=  12.
 NSaved=12 IEnMin=12 EnMin= -906.573573294091     IErMin=12 ErrMin= 2.34D-06
 ErrMax= 2.34D-06  0.00D+00 EMaxC= 1.00D-01 BMatC= 2.97D-09 BMatP= 1.74D-08
 IDIUse=1 WtCom= 1.00D+00 WtEn= 0.00D+00
 Coeff-Com:  0.252D-04-0.315D-04 0.129D-03 0.233D-03 0.342D-03-0.143D-02
 Coeff-Com: -0.257D-02-0.104D-01 0.163D-01 0.906D-01 0.355D+00 0.552D+00
 Coeff:      0.252D-04-0.315D-04 0.129D-03 0.233D-03 0.342D-03-0.143D-02
 Coeff:     -0.257D-02-0.104D-01 0.163D-01 0.906D-01 0.355D+00 0.552D+00
 Gap=     0.135 Goal=   None    Shift=    0.000
 RMSDP=2.09D-07 MaxDP=8.58D-06 DE=-1.35D-08 OVMax= 1.33D-05

 Cycle  13  Pass 1  IDiag  1:
 RMSU=  1.11D-07    CP:  9.88D-01  4.91D-01  5.16D-01  1.10D+00  7.90D-01
                    CP:  8.34D-01  7.77D-01  8.41D-01  7.78D-01  8.12D-01
                    CP:  8.53D-01  7.57D-01
 E= -906.573573296650     Delta-E=       -0.000000002559 Rises=F Damp=F
 DIIS: error= 6.57D-07 at cycle  13 NSaved=  13.
 NSaved=13 IEnMin=13 EnMin= -906.573573296650     IErMin=13 ErrMin= 6.57D-07
 ErrMax= 6.57D-07  0.00D+00 EMaxC= 1.00D-01 BMatC= 3.26D-10 BMatP= 2.97D-09
 IDIUse=1 WtCom= 1.00D+00 WtEn= 0.00D+00
 Coeff-Com:  0.373D-05-0.919D-05 0.328D-04 0.115D-03 0.196D-03-0.160D-03
 Coeff-Com: -0.108D-02-0.588D-02-0.442D-02-0.295D-02 0.604D-01 0.240D+00
 Coeff-Com:  0.714D+00
 Coeff:      0.373D-05-0.919D-05 0.328D-04 0.115D-03 0.196D-03-0.160D-03
 Coeff:     -0.108D-02-0.588D-02-0.442D-02-0.295D-02 0.604D-01 0.240D+00
 Coeff:      0.714D+00
 Gap=     0.135 Goal=   None    Shift=    0.000
 RMSDP=7.34D-08 MaxDP=2.69D-06 DE=-2.56D-09 OVMax= 2.89D-06

 Cycle  14  Pass 1  IDiag  1:
 RMSU=  3.52D-08    CP:  9.88D-01  4.91D-01  5.16D-01  1.10D+00  7.90D-01
                    CP:  8.34D-01  7.77D-01  8.41D-01  7.80D-01  8.17D-01
                    CP:  8.72D-01  8.31D-01  8.44D-01
 E= -906.573573296911     Delta-E=       -0.000000000261 Rises=F Damp=F
 DIIS: error= 1.71D-07 at cycle  14 NSaved=  14.
 NSaved=14 IEnMin=14 EnMin= -906.573573296911     IErMin=14 ErrMin= 1.71D-07
 ErrMax= 1.71D-07  0.00D+00 EMaxC= 1.00D-01 BMatC= 3.01D-11 BMatP= 3.26D-10
 IDIUse=1 WtCom= 1.00D+00 WtEn= 0.00D+00
 Coeff-Com:  0.153D-06-0.286D-05 0.557D-05 0.363D-04 0.807D-04 0.688D-04
 Coeff-Com: -0.244D-03-0.197D-02-0.353D-02-0.105D-01-0.332D-02 0.662D-01
 Coeff-Com:  0.362D+00 0.592D+00
 Coeff:      0.153D-06-0.286D-05 0.557D-05 0.363D-04 0.807D-04 0.688D-04
 Coeff:     -0.244D-03-0.197D-02-0.353D-02-0.105D-01-0.332D-02 0.662D-01
 Coeff:      0.362D+00 0.592D+00
 Gap=     0.135 Goal=   None    Shift=    0.000
 RMSDP=2.26D-08 MaxDP=1.00D-06 DE=-2.61D-10 OVMax= 9.45D-07

 Cycle  15  Pass 1  IDiag  1:
 RMSU=  1.13D-08    CP:  9.88D-01  4.91D-01  5.16D-01  1.10D+00  7.90D-01
                    CP:  8.34D-01  7.77D-01  8.41D-01  7.80D-01  8.17D-01
                    CP:  8.75D-01  8.44D-01  8.96D-01  7.38D-01
 E= -906.573573296967     Delta-E=       -0.000000000057 Rises=F Damp=F
 DIIS: error= 7.79D-08 at cycle  15 NSaved=  15.
 NSaved=15 IEnMin=15 EnMin= -906.573573296967     IErMin=15 ErrMin= 7.79D-08
 ErrMax= 7.79D-08  0.00D+00 EMaxC= 1.00D-01 BMatC= 2.65D-12 BMatP= 3.01D-11
 IDIUse=1 WtCom= 1.00D+00 WtEn= 0.00D+00
 Coeff-Com: -0.211D-06-0.381D-06-0.106D-05 0.344D-05 0.194D-04 0.598D-04
 Coeff-Com:  0.539D-04-0.137D-03-0.915D-03-0.449D-02-0.912D-02 0.243D-05
 Coeff-Com:  0.829D-01 0.278D+00 0.654D+00
 Coeff:     -0.211D-06-0.381D-06-0.106D-05 0.344D-05 0.194D-04 0.598D-04
 Coeff:      0.539D-04-0.137D-03-0.915D-03-0.449D-02-0.912D-02 0.243D-05
 Coeff:      0.829D-01 0.278D+00 0.654D+00
 Gap=     0.135 Goal=   None    Shift=    0.000
 RMSDP=7.60D-09 MaxDP=2.65D-07 DE=-5.68D-11 OVMax= 3.72D-07

 Error on total polarization charges =  0.00556
 SCF Done:  E(RB3LYP) =  -906.573573297     A.U. after   15 cycles
            NFock= 15  Conv=0.76D-08     -V/T= 2.0090
 KE= 8.984909988554D+02 PE=-4.633018270170D+03 EE= 1.580154218917D+03
 Leave Link  502 at Mon Jul 12 12:36:19 2021, MaxMem=   104857600 cpu:             663.4 elap:             172.2
 (Enter /dades/curu/g16A03_MST/g16/l601.exe)
 Copying SCF densities to generalized density rwf, IOpCl= 0 IROHF=0.

 **********************************************************************

            Population analysis using the SCF density.

 **********************************************************************

 Orbital symmetries:
       Occupied  (A) (A) (A) (A) (A) (A) (A) (A) (A) (A) (A) (A)
                 (A) (A) (A) (A) (A) (A) (A) (A) (A) (A) (A) (A)
                 (A) (A) (A) (A) (A) (A) (A) (A) (A) (A) (A) (A)
                 (A) (A) (A) (A) (A) (A) (A) (A) (A) (A) (A) (A)
                 (A) (A) (A) (A) (A) (A) (A) (A) (A) (A) (A) (A)
                 (A) (A) (A) (A)
       Virtual   (A) (A) (A) (A) (A) (A) (A) (A) (A) (A) (A) (A)
                 (A) (A) (A) (A) (A) (A) (A) (A) (A) (A) (A) (A)
                 (A) (A) (A) (A) (A) (A) (A) (A) (A) (A) (A) (A)
                 (A) (A) (A) (A) (A) (A) (A) (A) (A) (A) (A) (A)
                 (A) (A) (A) (A) (A) (A) (A) (A) (A) (A) (A) (A)
                 (A) (A) (A) (A) (A) (A) (A) (A) (A) (A) (A) (A)
                 (A) (A) (A) (A) (A) (A) (A) (A) (A) (A) (A) (A)
                 (A) (A) (A) (A) (A) (A) (A) (A) (A) (A) (A) (A)
                 (A) (A) (A) (A) (A) (A) (A) (A) (A) (A) (A) (A)
                 (A) (A) (A) (A) (A) (A) (A) (A) (A) (A) (A) (A)
                 (A) (A) (A) (A) (A) (A) (A) (A) (A) (A) (A) (A)
                 (A) (A) (A) (A) (A) (A) (A) (A) (A) (A) (A) (A)
                 (A) (A) (A) (A) (A) (A) (A) (A) (A) (A) (A) (A)
                 (A) (A) (A) (A) (A) (A) (A) (A) (A) (A) (A) (A)
                 (A) (A) (A) (A) (A) (A) (A) (A) (A) (A) (A) (A)
                 (A) (A) (A) (A) (A) (A) (A) (A) (A) (A) (A) (A)
                 (A) (A) (A) (A) (A) (A) (A) (A) (A) (A) (A) (A)
                 (A) (A) (A) (A) (A) (A) (A) (A) (A)
 The electronic state is 1-A.
 Alpha  occ. eigenvalues --  -19.16903 -19.15220 -19.14358 -19.11533 -19.03000
 Alpha  occ. eigenvalues --  -14.42730 -14.35962 -14.35761 -14.19693 -10.28388
 Alpha  occ. eigenvalues --  -10.24941 -10.24882 -10.23251 -10.23020 -10.20180
 Alpha  occ. eigenvalues --  -10.20114 -10.20076  -1.07851  -1.04439  -1.02246
 Alpha  occ. eigenvalues --   -1.00467  -0.97339  -0.96016  -0.87482  -0.83215
 Alpha  occ. eigenvalues --   -0.76548  -0.76247  -0.72997  -0.67325  -0.62341
 Alpha  occ. eigenvalues --   -0.61202  -0.58263  -0.56047  -0.54231  -0.51389
 Alpha  occ. eigenvalues --   -0.50013  -0.48863  -0.47690  -0.47563  -0.46067
 Alpha  occ. eigenvalues --   -0.44167  -0.43474  -0.42437  -0.41847  -0.41109
 Alpha  occ. eigenvalues --   -0.39955  -0.39493  -0.36974  -0.35141  -0.34946
 Alpha  occ. eigenvalues --   -0.33820  -0.32649  -0.31460  -0.30382  -0.29420
 Alpha  occ. eigenvalues --   -0.29058  -0.27517  -0.27181  -0.25586  -0.24929
 Alpha  occ. eigenvalues --   -0.23420  -0.18625  -0.17527  -0.14400
 Alpha virt. eigenvalues --   -0.00907   0.03976   0.04568   0.08066   0.10109
 Alpha virt. eigenvalues --    0.11722   0.12279   0.13681   0.14229   0.15619
 Alpha virt. eigenvalues --    0.15759   0.17152   0.17375   0.17646   0.18382
 Alpha virt. eigenvalues --    0.19000   0.20713   0.21574   0.21689   0.24678
 Alpha virt. eigenvalues --    0.25102   0.25397   0.26938   0.27051   0.29783
 Alpha virt. eigenvalues --    0.30768   0.32780   0.35084   0.39697   0.42709
 Alpha virt. eigenvalues --    0.44316   0.48714   0.52228   0.52967   0.54534
 Alpha virt. eigenvalues --    0.55398   0.56878   0.57710   0.57959   0.58698
 Alpha virt. eigenvalues --    0.60725   0.61529   0.62801   0.63174   0.64683
 Alpha virt. eigenvalues --    0.65280   0.66338   0.68010   0.69103   0.69670
 Alpha virt. eigenvalues --    0.70553   0.72078   0.72930   0.74056   0.75322
 Alpha virt. eigenvalues --    0.76898   0.77311   0.78904   0.79841   0.80057
 Alpha virt. eigenvalues --    0.80648   0.81958   0.82933   0.83670   0.85722
 Alpha virt. eigenvalues --    0.86036   0.86285   0.87175   0.88310   0.89754
 Alpha virt. eigenvalues --    0.90277   0.91207   0.93647   0.95155   0.95637
 Alpha virt. eigenvalues --    0.97411   0.97953   0.99812   1.00164   1.02405
 Alpha virt. eigenvalues --    1.03180   1.04708   1.04805   1.05841   1.07307
 Alpha virt. eigenvalues --    1.07909   1.09328   1.10872   1.12247   1.14081
 Alpha virt. eigenvalues --    1.16504   1.18079   1.21154   1.22152   1.25888
 Alpha virt. eigenvalues --    1.27599   1.30221   1.31183   1.31853   1.33069
 Alpha virt. eigenvalues --    1.37196   1.38992   1.39941   1.41125   1.42569
 Alpha virt. eigenvalues --    1.44872   1.46548   1.49411   1.50342   1.51361
 Alpha virt. eigenvalues --    1.53423   1.53707   1.55702   1.58042   1.60902
 Alpha virt. eigenvalues --    1.62554   1.65677   1.66528   1.68956   1.71150
 Alpha virt. eigenvalues --    1.71833   1.73581   1.74224   1.75665   1.77683
 Alpha virt. eigenvalues --    1.79858   1.81234   1.82423   1.84700   1.85159
 Alpha virt. eigenvalues --    1.86143   1.88027   1.88967   1.90028   1.91502
 Alpha virt. eigenvalues --    1.93650   1.94618   1.95153   1.97240   1.97980
 Alpha virt. eigenvalues --    1.99567   2.02777   2.03723   2.04727   2.05340
 Alpha virt. eigenvalues --    2.07581   2.11264   2.12976   2.14677   2.17165
 Alpha virt. eigenvalues --    2.18069   2.19395   2.21692   2.22349   2.24270
 Alpha virt. eigenvalues --    2.26620   2.28398   2.31152   2.32268   2.36529
 Alpha virt. eigenvalues --    2.36804   2.37933   2.39774   2.42028   2.42968
 Alpha virt. eigenvalues --    2.43320   2.45655   2.49409   2.50959   2.53556
 Alpha virt. eigenvalues --    2.54096   2.54676   2.57584   2.57716   2.61115
 Alpha virt. eigenvalues --    2.62219   2.63537   2.68176   2.71511   2.75160
 Alpha virt. eigenvalues --    2.76006   2.78633   2.82250   2.83418   2.84343
 Alpha virt. eigenvalues --    2.85264   2.87008   2.87495   2.94437   2.96460
 Alpha virt. eigenvalues --    2.97731   3.04775   3.07437   3.15020   3.21714
 Alpha virt. eigenvalues --    3.26778   3.65891   3.74132   3.79895   3.86188
 Alpha virt. eigenvalues --    3.91241   3.96188   4.01239   4.06204   4.17676
 Alpha virt. eigenvalues --    4.25158   4.29577   4.34725   4.46793   4.49462
 Alpha virt. eigenvalues --    4.59110   4.71866   4.81157
          Condensed to atoms (all electrons):
               1          2          3          4          5          6
     1  N    7.462992   0.239230   0.481365  -0.157748  -0.161623   0.012330
     2  H    0.239230   0.550806  -0.042410   0.009444  -0.003948   0.000188
     3  C    0.481365  -0.042410   4.353358   0.621509   0.240462  -0.025143
     4  O   -0.157748   0.009444   0.621509   8.228076  -0.094399   0.007667
     5  C   -0.161623  -0.003948   0.240462  -0.094399   5.193036   0.383714
     6  C    0.012330   0.000188  -0.025143   0.007667   0.383714   5.077323
     7  N   -0.000289  -0.000008   0.004127   0.000115  -0.030217   0.399999
     8  H    0.000076  -0.000028  -0.000571   0.001716  -0.034224   0.373398
     9  N   -0.021276   0.008323  -0.032910   0.001396   0.381228  -0.081967
    10  N    0.000621   0.000424   0.004035  -0.000023  -0.094573  -0.122263
    11  C    0.000002  -0.000034  -0.000103   0.000000   0.005855   0.005474
    12  H    0.000001   0.000018  -0.000008  -0.000000   0.000411  -0.000281
    13  O   -0.000000   0.000000   0.000000  -0.000000  -0.000147   0.000183
    14  C   -0.000000  -0.000000  -0.000000   0.000000  -0.000008  -0.000034
    15  C    0.000000  -0.000000  -0.000000   0.000000  -0.000000  -0.000000
    16  O   -0.000000   0.000000   0.000000  -0.000000   0.000000   0.000000
    17  H    0.000000  -0.000000   0.000000   0.000000   0.000000  -0.000000
    18  H    0.000000  -0.000000   0.000000   0.000000   0.000000  -0.000000
    19  H    0.000000   0.000000  -0.000000  -0.000000  -0.000000   0.000000
    20  H    0.000000   0.000000  -0.000000   0.000000   0.000013  -0.000027
    21  C   -0.000000  -0.000000  -0.000000   0.000000   0.000010  -0.000022
    22  O    0.000000   0.000000   0.000000  -0.000000  -0.000000   0.000000
    23  H    0.000000  -0.000000  -0.000000  -0.000000   0.000000  -0.000000
    24  H    0.000000   0.000000   0.000000  -0.000000  -0.000000   0.000004
    25  C   -0.000000   0.000001   0.000004  -0.000000  -0.000526   0.000572
    26  H    0.000000   0.000000  -0.000000  -0.000000  -0.000173   0.000333
    27  O    0.000000  -0.000000  -0.000000   0.000000   0.000003  -0.000006
    28  H   -0.000000   0.000000  -0.000000  -0.000000  -0.000001   0.000000
               7          8          9         10         11         12
     1  N   -0.000289   0.000076  -0.021276   0.000621   0.000002   0.000001
     2  H   -0.000008  -0.000028   0.008323   0.000424  -0.000034   0.000018
     3  C    0.004127  -0.000571  -0.032910   0.004035  -0.000103  -0.000008
     4  O    0.000115   0.001716   0.001396  -0.000023   0.000000  -0.000000
     5  C   -0.030217  -0.034224   0.381228  -0.094573   0.005855   0.000411
     6  C    0.399999   0.373398  -0.081967  -0.122263   0.005474  -0.000281
     7  N    6.798814  -0.049853  -0.076042   0.250380  -0.044859   0.003499
     8  H   -0.049853   0.539499   0.004239   0.006735  -0.000229   0.000002
     9  N   -0.076042   0.004239   7.032091   0.190877  -0.046087   0.007723
    10  N    0.250380   0.006735   0.190877   6.805019   0.195569  -0.050413
    11  C   -0.044859  -0.000229  -0.046087   0.195569   4.859384   0.380274
    12  H    0.003499   0.000002   0.007723  -0.050413   0.380274   0.510459
    13  O    0.002821  -0.000001   0.000950  -0.054518   0.237439  -0.028692
    14  C   -0.002872   0.000004  -0.000011  -0.003673  -0.026872   0.004768
    15  C    0.000131  -0.000000   0.000001  -0.000144   0.002237  -0.000062
    16  O   -0.000000   0.000000   0.000000   0.000001  -0.000016   0.000006
    17  H   -0.000000  -0.000000  -0.000000   0.000004   0.000108  -0.000007
    18  H   -0.000001   0.000000  -0.000000   0.000003  -0.000096   0.000001
    19  H    0.000004   0.000000  -0.000000  -0.000008  -0.000128   0.000005
    20  H    0.010793  -0.000007   0.000079   0.003208  -0.004305  -0.000349
    21  C   -0.000299  -0.000001  -0.000157   0.000389  -0.047074   0.001441
    22  O    0.000000   0.000000   0.000000   0.000016   0.000520   0.000007
    23  H    0.000000  -0.000000  -0.000000  -0.000002  -0.000175   0.000006
    24  H   -0.000080   0.000000   0.000002   0.000206   0.004338  -0.000113
    25  C   -0.004096   0.000015   0.003505  -0.035628   0.300213  -0.033986
    26  H    0.006709   0.000013   0.000962  -0.001762  -0.063612   0.003631
    27  O    0.000113  -0.000000  -0.000125   0.001379  -0.034499   0.002375
    28  H    0.000002   0.000000   0.000005  -0.000360   0.007159  -0.000099
              13         14         15         16         17         18
     1  N   -0.000000  -0.000000   0.000000  -0.000000   0.000000   0.000000
     2  H    0.000000  -0.000000  -0.000000   0.000000  -0.000000  -0.000000
     3  C    0.000000  -0.000000  -0.000000   0.000000   0.000000   0.000000
     4  O   -0.000000   0.000000   0.000000  -0.000000   0.000000   0.000000
     5  C   -0.000147  -0.000008  -0.000000   0.000000   0.000000   0.000000
     6  C    0.000183  -0.000034  -0.000000   0.000000  -0.000000  -0.000000
     7  N    0.002821  -0.002872   0.000131  -0.000000  -0.000000  -0.000001
     8  H   -0.000001   0.000004  -0.000000   0.000000  -0.000000   0.000000
     9  N    0.000950  -0.000011   0.000001   0.000000  -0.000000  -0.000000
    10  N   -0.054518  -0.003673  -0.000144   0.000001   0.000004   0.000003
    11  C    0.237439  -0.026872   0.002237  -0.000016   0.000108  -0.000096
    12  H   -0.028692   0.004768  -0.000062   0.000006  -0.000007   0.000001
    13  O    8.332340   0.212743  -0.030453   0.000988   0.001470   0.002014
    14  C    0.212743   4.991330   0.323187  -0.031547  -0.006645  -0.037839
    15  C   -0.030453   0.323187   4.868500   0.265687  -0.039867   0.354974
    16  O    0.000988  -0.031547   0.265687   8.300683   0.238836  -0.033199
    17  H    0.001470  -0.006645  -0.039867   0.238836   0.323756  -0.000652
    18  H    0.002014  -0.037839   0.354974  -0.033199  -0.000652   0.629525
    19  H   -0.001003  -0.027409   0.365388  -0.028783   0.004009  -0.058707
    20  H   -0.054865   0.346198  -0.039253   0.003465   0.000165   0.005055
    21  C   -0.051509   0.304075  -0.026844  -0.006819  -0.004414  -0.005801
    22  O    0.000990  -0.045585   0.004461  -0.027701   0.048690   0.000955
    23  H   -0.000097   0.006054   0.000207   0.001133  -0.001653  -0.000120
    24  H    0.003462  -0.037940  -0.001076  -0.000161   0.000955   0.001477
    25  C   -0.045083  -0.069127   0.004211  -0.000180   0.000141   0.000186
    26  H    0.003273   0.006304  -0.000123   0.000001  -0.000008  -0.000004
    27  O    0.001248   0.002109  -0.000043   0.000000   0.000016  -0.000000
    28  H   -0.000162  -0.000063   0.000001   0.000000  -0.000004   0.000000
              19         20         21         22         23         24
     1  N    0.000000   0.000000  -0.000000   0.000000   0.000000   0.000000
     2  H    0.000000   0.000000  -0.000000   0.000000  -0.000000   0.000000
     3  C   -0.000000  -0.000000  -0.000000   0.000000  -0.000000   0.000000
     4  O   -0.000000   0.000000   0.000000  -0.000000  -0.000000  -0.000000
     5  C   -0.000000   0.000013   0.000010  -0.000000   0.000000  -0.000000
     6  C    0.000000  -0.000027  -0.000022   0.000000  -0.000000   0.000004
     7  N    0.000004   0.010793  -0.000299   0.000000   0.000000  -0.000080
     8  H    0.000000  -0.000007  -0.000001   0.000000  -0.000000   0.000000
     9  N   -0.000000   0.000079  -0.000157   0.000000  -0.000000   0.000002
    10  N   -0.000008   0.003208   0.000389   0.000016  -0.000002   0.000206
    11  C   -0.000128  -0.004305  -0.047074   0.000520  -0.000175   0.004338
    12  H    0.000005  -0.000349   0.001441   0.000007   0.000006  -0.000113
    13  O   -0.001003  -0.054865  -0.051509   0.000990  -0.000097   0.003462
    14  C   -0.027409   0.346198   0.304075  -0.045585   0.006054  -0.037940
    15  C    0.365388  -0.039253  -0.026844   0.004461   0.000207  -0.001076
    16  O   -0.028783   0.003465  -0.006819  -0.027701   0.001133  -0.000161
    17  H    0.004009   0.000165  -0.004414   0.048690  -0.001653   0.000955
    18  H   -0.058707   0.005055  -0.005801   0.000955  -0.000120   0.001477
    19  H    0.589819  -0.004816   0.005011   0.000086   0.000019  -0.000398
    20  H   -0.004816   0.641339  -0.058782   0.003548  -0.000260  -0.000805
    21  C    0.005011  -0.058782   5.111896   0.200282  -0.018386   0.346733
    22  O    0.000086   0.003548   0.200282   8.293555   0.234741  -0.028539
    23  H    0.000019  -0.000260  -0.018386   0.234741   0.349265  -0.006006
    24  H   -0.000398  -0.000805   0.346733  -0.028539  -0.006006   0.579339
    25  C   -0.000078   0.001101   0.284836  -0.039255  -0.001046  -0.032124
    26  H    0.000003   0.000359  -0.045470   0.002096   0.000004  -0.001802
    27  O    0.000001  -0.000013  -0.044058   0.000348   0.002262   0.001452
    28  H   -0.000000  -0.000007  -0.001355   0.001745   0.000375   0.000300
              25         26         27         28
     1  N   -0.000000   0.000000   0.000000  -0.000000
     2  H    0.000001   0.000000  -0.000000   0.000000
     3  C    0.000004  -0.000000  -0.000000  -0.000000
     4  O   -0.000000  -0.000000   0.000000  -0.000000
     5  C   -0.000526  -0.000173   0.000003  -0.000001
     6  C    0.000572   0.000333  -0.000006   0.000000
     7  N   -0.004096   0.006709   0.000113   0.000002
     8  H    0.000015   0.000013  -0.000000   0.000000
     9  N    0.003505   0.000962  -0.000125   0.000005
    10  N   -0.035628  -0.001762   0.001379  -0.000360
    11  C    0.300213  -0.063612  -0.034499   0.007159
    12  H   -0.033986   0.003631   0.002375  -0.000099
    13  O   -0.045083   0.003273   0.001248  -0.000162
    14  C   -0.069127   0.006304   0.002109  -0.000063
    15  C    0.004211  -0.000123  -0.000043   0.000001
    16  O   -0.000180   0.000001   0.000000   0.000000
    17  H    0.000141  -0.000008   0.000016  -0.000004
    18  H    0.000186  -0.000004  -0.000000   0.000000
    19  H   -0.000078   0.000003   0.000001  -0.000000
    20  H    0.001101   0.000359  -0.000013  -0.000007
    21  C    0.284836  -0.045470  -0.044058  -0.001355
    22  O   -0.039255   0.002096   0.000348   0.001745
    23  H   -0.001046   0.000004   0.002262   0.000375
    24  H   -0.032124  -0.001802   0.001452   0.000300
    25  C    5.004026   0.370404   0.220909  -0.024898
    26  H    0.370404   0.600335  -0.034895  -0.008880
    27  O    0.220909  -0.034895   8.274272   0.240200
    28  H   -0.024898  -0.008880   0.240200   0.364867
 Mulliken charges:
               1
     1  N   -0.855681
     2  H    0.237994
     3  C    0.396284
     4  O   -0.617754
     5  C    0.215109
     6  C   -0.031441
     7  N   -0.268892
     8  H    0.159216
     9  N   -0.372807
    10  N   -0.095500
    11  C    0.269517
    12  H    0.199384
    13  O   -0.533394
    14  C    0.092852
    15  C   -0.051120
    16  O   -0.682394
    17  H    0.435100
    18  H    0.142231
    19  H    0.156987
    20  H    0.148167
    21  C    0.056320
    22  O   -0.650961
    23  H    0.433680
    24  H    0.170775
    25  C    0.095903
    26  H    0.162301
    27  O   -0.633049
    28  H    0.421173
 Sum of Mulliken charges =  -1.00000
 Mulliken charges with hydrogens summed into heavy atoms:
               1
     1  N   -0.617687
     3  C    0.396284
     4  O   -0.617754
     5  C    0.215109
     6  C    0.127775
     7  N   -0.268892
     9  N   -0.372807
    10  N   -0.095500
    11  C    0.468902
    13  O   -0.533394
    14  C    0.241018
    15  C    0.248097
    16  O   -0.247294
    21  C    0.227095
    22  O   -0.217281
    25  C    0.258204
    27  O   -0.211877
 Electronic spatial extent (au):  <R**2>=           5359.4194
 Charge=             -1.0000 electrons
 Dipole moment (field-independent basis, Debye):
    X=             23.8350    Y=              2.9816    Z=             -8.8502  Tot=             25.5993
 Quadrupole moment (field-independent basis, Debye-Ang):
   XX=           -234.2643   YY=            -94.4979   ZZ=           -103.8344
   XY=             12.1114   XZ=             -7.7992   YZ=             -4.8079
 Traceless Quadrupole moment (field-independent basis, Debye-Ang):
   XX=            -90.0654   YY=             49.7009   ZZ=             40.3645
   XY=             12.1114   XZ=             -7.7992   YZ=             -4.8079
 Octapole moment (field-independent basis, Debye-Ang**2):
  XXX=            728.4018  YYY=             16.7442  ZZZ=            -17.1350  XYY=             37.3460
  XXY=             48.1518  XXZ=           -131.4803  XZZ=             42.4864  YZZ=             15.6193
  YYZ=            -25.7212  XYZ=              7.7987
 Hexadecapole moment (field-independent basis, Debye-Ang**3):
 XXXX=          -9642.3899 YYYY=           -691.5160 ZZZZ=           -443.4676 XXXY=            248.2677
 XXXZ=             29.3389 YYYX=             59.7464 YYYZ=            -59.7485 ZZZX=             29.2344
 ZZZY=             -1.5540 XXYY=          -1042.1970 XXZZ=          -1172.3451 YYZZ=           -182.7042
 XXYZ=            -54.7033 YYXZ=            -49.3034 ZZXY=             60.6633
 N-N= 1.247799479100D+03 E-N=-4.633018262008D+03  KE= 8.984909988554D+02
 No NMR shielding tensors so no spin-rotation constants.
 Leave Link  601 at Mon Jul 12 12:36:19 2021, MaxMem=   104857600 cpu:               0.5 elap:               0.2
 (Enter /dades/curu/g16A03_MST/g16/l701.exe)
 ... and contract with generalized density number  0.
 Compute integral first derivatives.
 D1PCM: PCM CHGder 1st derivatives, ID1Alg=3 FixD1E=F DoIter=F DoCFld=F I1PDM=0.
 GePol: Maximum number of non-zero 1st derivatives   =     246
 Leave Link  701 at Mon Jul 12 12:36:23 2021, MaxMem=   104857600 cpu:              12.4 elap:               3.3
 (Enter /dades/curu/g16A03_MST/g16/l702.exe)
 L702 exits ... SP integral derivatives will be done elsewhere.
 Leave Link  702 at Mon Jul 12 12:36:23 2021, MaxMem=   104857600 cpu:               0.0 elap:               0.0
 (Enter /dades/curu/g16A03_MST/g16/l703.exe)
 Integral derivatives from FoFJK, PRISM(SPDF).
 Compute integral first derivatives, UseDBF=F ICtDFT=           0.
 Calling FoFJK, ICntrl=      2127 FMM=F ISym2X=0 I1Cent= 0 IOpClX= 0 NMat=1 NMatS=1 NMatT=0.
 FoFJK:  IHMeth= 1 ICntrl=    2127 DoSepK=F KAlg= 0 I1Cent=           0 FoldK=F
 IRaf=         0 NMat=       1 IRICut=       1 DoRegI=T DoRafI=F ISym2E= 0 IDoP0=0 IntGTp=1.
 FoFCou: FMM=F IPFlag=           0 FMFlag=      100000 FMFlg1=         800
         NFxFlg=           0 DoJE=F BraDBF=F KetDBF=F FulRan=T
         wScrn=  0.000000 ICntrl=      2127 IOpCl=  0 I1Cent=           0 NGrid=           0
         NMat0=    1 NMatS0=      1 NMatT0=    0 NMatD0=    1 NMtDS0=    0 NMtDT0=    0
 Symmetry not used in FoFCou.
 Leave Link  703 at Mon Jul 12 12:36:48 2021, MaxMem=   104857600 cpu:             100.7 elap:              25.5
 (Enter /dades/curu/g16A03_MST/g16/l716.exe)
 Dipole        = 9.37741437D+00 1.17306053D+00-3.48192998D+00
 ***** Axes restored to original set *****
 -------------------------------------------------------------------
 Center     Atomic                   Forces (Hartrees/Bohr)
 Number     Number              X              Y              Z
 -------------------------------------------------------------------
      1        7           0.010306214    0.015502431   -0.026924561
      2        1           0.005511890   -0.008350443    0.019097995
      3        6           0.117365227   -0.016963575   -0.039133118
      4        8          -0.092914181    0.012807907    0.029832065
      5        6          -0.045326322    0.001972250    0.031694393
      6        6           0.016180674   -0.015568750   -0.007563934
      7        7           0.015637453   -0.001342795   -0.006587064
      8        1           0.002454512    0.007786700   -0.008782428
      9        7          -0.031982546   -0.006887315    0.009663587
     10        7           0.019052985    0.008884863    0.000134404
     11        6          -0.007229850    0.012815459    0.063901435
     12        1          -0.010399443   -0.007557907   -0.000096779
     13        8           0.013568053   -0.001201412   -0.016061646
     14        6          -0.017792275    0.016622864   -0.014666130
     15        6           0.032135095   -0.002371770   -0.027041476
     16        8          -0.028869746    0.021005668    0.012458061
     17        1          -0.001680572   -0.000165461    0.002603859
     18        1          -0.003041898   -0.009501109   -0.007857898
     19        1           0.015739422    0.003233350    0.000120282
[...]
 Alpha virt. eigenvalues --    0.80483   0.81106   0.81209   0.82198   0.82946
 Alpha virt. eigenvalues --    0.83075   0.83211   0.84432   0.84687   0.85873
 Alpha virt. eigenvalues --    0.86006   0.87120   0.87870   0.88306   0.88563
 Alpha virt. eigenvalues --    0.88569   0.89339   0.90027   0.90458   0.91362
 Alpha virt. eigenvalues --    0.91507   0.92180   0.92299   0.92623   0.93794
 Alpha virt. eigenvalues --    0.94259   0.94809   0.95712   0.96007   0.96773
 Alpha virt. eigenvalues --    0.97351   0.98871   0.99720   1.00356   1.00718
 Alpha virt. eigenvalues --    1.01290   1.01486   1.03003   1.03039   1.03734
 Alpha virt. eigenvalues --    1.04339   1.04714   1.05328   1.06410   1.06752
 Alpha virt. eigenvalues --    1.07262   1.08708   1.09839   1.10110   1.10946
 Alpha virt. eigenvalues --    1.12062   1.12743   1.13377   1.14710   1.14925
 Alpha virt. eigenvalues --    1.15565   1.16174   1.17792   1.18288   1.19043
 Alpha virt. eigenvalues --    1.20556   1.21033   1.21432   1.22611   1.23608
 Alpha virt. eigenvalues --    1.24233   1.25635   1.25923   1.26757   1.27374
 Alpha virt. eigenvalues --    1.28539   1.29419   1.30490   1.31238   1.32434
 Alpha virt. eigenvalues --    1.33730   1.35372   1.36838   1.37302   1.37991
 Alpha virt. eigenvalues --    1.39410   1.40007   1.40461   1.41028   1.41631
 Alpha virt. eigenvalues --    1.43161   1.44076   1.44476   1.46157   1.47127
 Alpha virt. eigenvalues --    1.47561   1.48672   1.49120   1.50008   1.51304
 Alpha virt. eigenvalues --    1.51735   1.53341   1.53670   1.54306   1.56104
 Alpha virt. eigenvalues --    1.57695   1.58730   1.60705   1.61006   1.62236
 Alpha virt. eigenvalues --    1.62601   1.64520   1.66282   1.67368   1.68397
 Alpha virt. eigenvalues --    1.69082   1.69961   1.70714   1.71063   1.72398
 Alpha virt. eigenvalues --    1.74256   1.75143   1.76316   1.77866   1.78165
 Alpha virt. eigenvalues --    1.79051   1.80766   1.81355   1.82760   1.82910
 Alpha virt. eigenvalues --    1.83344   1.84206   1.85126   1.85667   1.87025
 Alpha virt. eigenvalues --    1.87484   1.89016   1.89800   1.90586   1.91633
 Alpha virt. eigenvalues --    1.92256   1.94789   1.95571   1.96019   1.98509
 Alpha virt. eigenvalues --    1.98714   1.99262   2.00388   2.00642   2.01409
 Alpha virt. eigenvalues --    2.02769   2.04007   2.05411   2.06713   2.07596
 Alpha virt. eigenvalues --    2.11399   2.12028   2.14066   2.14841   2.15803
 Alpha virt. eigenvalues --    2.16300   2.17472   2.17586   2.18385   2.19467
 Alpha virt. eigenvalues --    2.20212   2.21266   2.22478   2.22916   2.23497
 Alpha virt. eigenvalues --    2.24974   2.25161   2.27449   2.28777   2.30416
 Alpha virt. eigenvalues --    2.31232   2.31687   2.32873   2.34069   2.34404
 Alpha virt. eigenvalues --    2.34985   2.36229   2.38808   2.39651   2.40678
 Alpha virt. eigenvalues --    2.41113   2.42019   2.44385   2.45771   2.46271
 Alpha virt. eigenvalues --    2.47991   2.48182   2.49784   2.52036   2.52375
 Alpha virt. eigenvalues --    2.52951   2.54926   2.55409   2.57373   2.58718
 Alpha virt. eigenvalues --    2.59869   2.60060   2.61738   2.62391   2.63212
 Alpha virt. eigenvalues --    2.64933   2.66977   2.68338   2.69342   2.70301
 Alpha virt. eigenvalues --    2.71604   2.73679   2.73769   2.75230   2.75932
 Alpha virt. eigenvalues --    2.78279   2.78808   2.81336   2.82705   2.84788
 Alpha virt. eigenvalues --    2.86018   2.86935   2.88768   2.88955   2.91099
 Alpha virt. eigenvalues --    2.91381   2.93752   2.96402   2.98222   2.99807
 Alpha virt. eigenvalues --    3.00748   3.01398   3.03528   3.04932   3.05705
 Alpha virt. eigenvalues --    3.07715   3.08992   3.10084   3.10762   3.13664
 Alpha virt. eigenvalues --    3.15489   3.17945   3.18447   3.19767   3.20607
 Alpha virt. eigenvalues --    3.22830   3.25708   3.26443   3.27996   3.33283
 Alpha virt. eigenvalues --    3.36355   3.37862   3.38964   3.40102   3.43828
 Alpha virt. eigenvalues --    3.51701   3.58518   3.59545   3.62657   3.68972
 Alpha virt. eigenvalues --    3.73330   3.75162   3.75766   3.78187   3.79510
 Alpha virt. eigenvalues --    3.83407   3.89458   3.90920   3.91389   3.93889
 Alpha virt. eigenvalues --    3.94423   3.97317   3.98043   3.99473   4.02070
 Alpha virt. eigenvalues --    4.02475   4.02771   4.04878   4.05136   4.09213
 Alpha virt. eigenvalues --    4.09950   4.11998   4.13467   4.15182   4.19775
 Alpha virt. eigenvalues --    4.20975   4.23862   4.27680   4.32274   4.37939
 Alpha virt. eigenvalues --    4.40897   4.47852   4.52265   4.58313   4.84752
 Alpha virt. eigenvalues --    5.76908
          Condensed to atoms (all electrons):
               1          2          3          4          5          6
     1  N    7.611334   0.214963  -0.251497  -0.132901   0.432772  -0.003530
     2  H    0.214963   0.794663   0.135958   0.010635  -0.250761  -0.043588
     3  C   -0.251497   0.135958   6.236717   0.075576  -1.350709  -0.019634
     4  O   -0.132901   0.010635   0.075576   9.014028   0.062746   0.031223
     5  C    0.432772  -0.250761  -1.350709   0.062746   7.041342  -0.392607
     6  C   -0.003530  -0.043588  -0.019634   0.031223  -0.392607   6.154496
     7  N   -0.006090   0.019698   0.003339  -0.014848   0.238935  -0.304604
     8  H   -0.002779   0.000057   0.069798  -0.016724  -0.127652   0.356568
     9  N   -0.091371  -0.021718  -0.051021   0.002142   0.554413   0.674215
    10  N   -0.061356   0.151004   0.235401  -0.017808  -0.852617  -0.754619
    11  C   -0.011463  -0.001159  -0.039444  -0.006154  -0.246102  -0.089930
    12  H   -0.002430   0.000268   0.009358   0.000229   0.000613   0.009062
    13  O    0.000119   0.000133   0.002312  -0.000212  -0.010666   0.042147
    14  C    0.001208  -0.000095   0.001761   0.000195   0.080657  -0.051447
    15  C   -0.000080   0.000113   0.000336   0.000028   0.014779  -0.009436
    16  O   -0.000001  -0.000001  -0.000016  -0.000001  -0.000771   0.000094
    17  H   -0.000007  -0.000008   0.000052  -0.000002   0.000093  -0.000310
    18  H   -0.000002  -0.000004   0.000051   0.000004   0.000065   0.001146
    19  H   -0.000005   0.000062   0.000062   0.000009   0.002872  -0.001766
    20  H    0.000128  -0.000303   0.001630  -0.000147  -0.009825  -0.007732
    21  C   -0.000775   0.001283   0.001929  -0.000104  -0.034635   0.111247
    22  O    0.000008  -0.000071  -0.000171  -0.000001  -0.002281  -0.004018
    23  H    0.000011   0.000028  -0.000172   0.000002  -0.000802   0.002321
    24  H   -0.000053   0.000080   0.000301  -0.000014   0.001355   0.000106
    25  C    0.002743  -0.001051  -0.011349   0.000214  -0.032997  -0.138139
    26  H    0.000017  -0.000898  -0.001043  -0.000138  -0.036976   0.019557
    27  O    0.000020   0.000039   0.000158   0.000026   0.012285   0.012116
    28  H    0.000060  -0.000012  -0.000204   0.000011  -0.000085  -0.001215
               7          8          9         10         11         12
     1  N   -0.006090  -0.002779  -0.091371  -0.061356  -0.011463  -0.002430
     2  H    0.019698   0.000057  -0.021718   0.151004  -0.001159   0.000268
     3  C    0.003339   0.069798  -0.051021   0.235401  -0.039444   0.009358
     4  O   -0.014848  -0.016724   0.002142  -0.017808  -0.006154   0.000229
     5  C    0.238935  -0.127652   0.554413  -0.852617  -0.246102   0.000613
     6  C   -0.304604   0.356568   0.674215  -0.754619  -0.089930   0.009062
     7  N    9.742562  -0.355052  -1.656452  -0.474363  -0.113444  -0.111924
     8  H   -0.355052   1.415264  -0.113164   0.176457   0.023815   0.001033
     9  N   -1.656452  -0.113164  12.266977  -2.901977  -0.886775   0.177851
    10  N   -0.474363   0.176457  -2.901977  12.234616   0.062865  -0.184601
    11  C   -0.113444   0.023815  -0.886775   0.062865   8.631151  -0.194224
    12  H   -0.111924   0.001033   0.177851  -0.184601  -0.194224   1.584043
    13  O    0.114499   0.001188  -0.093044   0.071252  -0.247090  -0.118641
    14  C   -0.033185  -0.013148   0.321958  -0.144098  -2.058585   0.134988
    15  C   -0.015701  -0.001060  -0.021607   0.051144   0.096926  -0.017273
    16  O    0.000075   0.000013   0.000005   0.003211  -0.036916  -0.003093
    17  H   -0.001277   0.000004   0.001442  -0.000781   0.004354   0.003636
    18  H    0.003723  -0.000010  -0.002729  -0.007395   0.007918  -0.000588
    19  H   -0.005174  -0.000034  -0.001363   0.011673   0.002064   0.000830
    20  H    0.012562  -0.003282  -0.009801  -0.089639   0.127080   0.015752
    21  C    0.099528   0.012560  -0.349431   0.476674   1.117170  -0.074952
    22  O   -0.023321  -0.000095   0.009716  -0.012297   0.046077   0.004086
    23  H    0.004148   0.000011  -0.003705  -0.004774   0.013140  -0.001351
    24  H    0.004786   0.000755  -0.011785   0.022864  -0.095948  -0.002703
    25  C    0.187029  -0.032269   0.207674  -0.457101  -2.042927   0.070588
    26  H    0.098713  -0.006773  -0.077677  -0.145242  -0.000206   0.050935
    27  O   -0.014936   0.000703   0.056820  -0.007770   0.183723  -0.021618
    28  H    0.003218  -0.000344   0.004675  -0.008036  -0.056006  -0.007927
              13         14         15         16         17         18
     1  N    0.000119   0.001208  -0.000080  -0.000001  -0.000007  -0.000002
     2  H    0.000133  -0.000095   0.000113  -0.000001  -0.000008  -0.000004
     3  C    0.002312   0.001761   0.000336  -0.000016   0.000052   0.000051
     4  O   -0.000212   0.000195   0.000028  -0.000001  -0.000002   0.000004
     5  C   -0.010666   0.080657   0.014779  -0.000771   0.000093   0.000065
     6  C    0.042147  -0.051447  -0.009436   0.000094  -0.000310   0.001146
     7  N    0.114499  -0.033185  -0.015701   0.000075  -0.001277   0.003723
     8  H    0.001188  -0.013148  -0.001060   0.000013   0.000004  -0.000010
     9  N   -0.093044   0.321958  -0.021607   0.000005   0.001442  -0.002729
    10  N    0.071252  -0.144098   0.051144   0.003211  -0.000781  -0.007395
    11  C   -0.247090  -2.058585   0.096926  -0.036916   0.004354   0.007918
    12  H   -0.118641   0.134988  -0.017273  -0.003093   0.003636  -0.000588
    13  O    9.641520  -0.422976   0.041856  -0.000040  -0.003226   0.085849
    14  C   -0.422976   9.449622  -0.367739   0.090771   0.037330  -0.068330
    15  C    0.041856  -0.367739   4.664650  -0.083377  -0.018394   0.253099
    16  O   -0.000040   0.090771  -0.083377   8.646458   0.286574  -0.049271
    17  H   -0.003226   0.037330  -0.018394   0.286574   0.481207  -0.028507
    18  H    0.085849  -0.068330   0.253099  -0.049271  -0.028507   1.143530
    19  H   -0.063512   0.119160   0.224768  -0.124243   0.001447  -0.208936
    20  H   -0.057809  -0.414293  -0.071826   0.017962   0.014503  -0.058849
    21  C    0.139805  -2.815709   0.025669   0.033017  -0.040812  -0.053575
    22  O    0.013532  -0.022861   0.015485  -0.033759   0.000627   0.020533
    23  H    0.000344   0.005831   0.000854   0.003014  -0.004820  -0.002839
    24  H    0.023732   0.411247   0.006078  -0.013877   0.005291   0.000860
    25  C   -0.022079   1.905929  -0.132487  -0.001810  -0.000201   0.045912
    26  H    0.010713  -0.122140   0.006550   0.001968  -0.001563   0.005415
    27  O    0.017222  -0.045695   0.001747   0.001548  -0.001028  -0.000248
    28  H    0.000342   0.040218  -0.000737  -0.000501   0.000017  -0.000193
              19         20         21         22         23         24
     1  N   -0.000005   0.000128  -0.000775   0.000008   0.000011  -0.000053
     2  H    0.000062  -0.000303   0.001283  -0.000071   0.000028   0.000080
     3  C    0.000062   0.001630   0.001929  -0.000171  -0.000172   0.000301
     4  O    0.000009  -0.000147  -0.000104  -0.000001   0.000002  -0.000014
     5  C    0.002872  -0.009825  -0.034635  -0.002281  -0.000802   0.001355
     6  C   -0.001766  -0.007732   0.111247  -0.004018   0.002321   0.000106
     7  N   -0.005174   0.012562   0.099528  -0.023321   0.004148   0.004786
     8  H   -0.000034  -0.003282   0.012560  -0.000095   0.000011   0.000755
     9  N   -0.001363  -0.009801  -0.349431   0.009716  -0.003705  -0.011785
    10  N    0.011673  -0.089639   0.476674  -0.012297  -0.004774   0.022864
    11  C    0.002064   0.127080   1.117170   0.046077   0.013140  -0.095948
    12  H    0.000830   0.015752  -0.074952   0.004086  -0.001351  -0.002703
    13  O   -0.063512  -0.057809   0.139805   0.013532   0.000344   0.023732
    14  C    0.119160  -0.414293  -2.815709  -0.022861   0.005831   0.411247
    15  C    0.224768  -0.071826   0.025669   0.015485   0.000854   0.006078
    16  O   -0.124243   0.017962   0.033017  -0.033759   0.003014  -0.013877
    17  H    0.001447   0.014503  -0.040812   0.000627  -0.004820   0.005291
    18  H   -0.208936  -0.058849  -0.053575   0.020533  -0.002839   0.000860
    19  H    1.148746  -0.032541   0.050124  -0.008708   0.002547   0.007205
    20  H   -0.032541   1.758658   0.052876   0.067097   0.000349  -0.109114
    21  C    0.050124   0.052876  10.580168  -0.432489   0.007363  -0.587276
    22  O   -0.008708   0.067097  -0.432489   9.013699   0.317076  -0.160081
    23  H    0.002547   0.000349   0.007363   0.317076   0.484994   0.006142
    24  H    0.007205  -0.109114  -0.587276  -0.160081   0.006142   1.476161
    25  C   -0.051341  -0.011855  -3.798734   0.228617  -0.145009   0.292941
    26  H   -0.003942  -0.000250   0.345603  -0.009062   0.032748  -0.082754
    27  O   -0.000106   0.006174   0.309060  -0.054369   0.035044  -0.025543
    28  H   -0.000096   0.002492  -0.163481   0.007546  -0.011492   0.011008
              25         26         27         28
     1  N    0.002743   0.000017   0.000020   0.000060
     2  H   -0.001051  -0.000898   0.000039  -0.000012
     3  C   -0.011349  -0.001043   0.000158  -0.000204
     4  O    0.000214  -0.000138   0.000026   0.000011
     5  C   -0.032997  -0.036976   0.012285  -0.000085
     6  C   -0.138139   0.019557   0.012116  -0.001215
     7  N    0.187029   0.098713  -0.014936   0.003218
     8  H   -0.032269  -0.006773   0.000703  -0.000344
     9  N    0.207674  -0.077677   0.056820   0.004675
    10  N   -0.457101  -0.145242  -0.007770  -0.008036
    11  C   -2.042927  -0.000206   0.183723  -0.056006
    12  H    0.070588   0.050935  -0.021618  -0.007927
    13  O   -0.022079   0.010713   0.017222   0.000342
    14  C    1.905929  -0.122140  -0.045695   0.040218
    15  C   -0.132487   0.006550   0.001747  -0.000737
    16  O   -0.001810   0.001968   0.001548  -0.000501
    17  H   -0.000201  -0.001563  -0.001028   0.000017
    18  H    0.045912   0.005415  -0.000248  -0.000193
    19  H   -0.051341  -0.003942  -0.000106  -0.000096
    20  H   -0.011855  -0.000250   0.006174   0.002492
    21  C   -3.798734   0.345603   0.309060  -0.163481
    22  O    0.228617  -0.009062  -0.054369   0.007546
    23  H   -0.145009   0.032748   0.035044  -0.011492
    24  H    0.292941  -0.082754  -0.025543   0.011008
    25  C   10.088016  -0.321194  -0.662394   0.203815
    26  H   -0.321194   1.652188  -0.079912  -0.088915
    27  O   -0.662394  -0.079912   8.772225   0.344525
    28  H    0.203815  -0.088915   0.344525   0.560436
 Mulliken charges:
               1
     1  N   -0.699042
     2  H   -0.009312
     3  C    0.950523
     4  O   -1.008016
     5  C    0.906562
     6  C    0.408277
     7  N   -0.402445
     8  H   -0.385840
     9  N   -0.984270
    10  N   -0.372686
    11  C    1.810091
    12  H   -0.321947
    13  O   -1.167267
    14  C   -0.020576
    15  C    1.335635
    16  O   -0.737033
    17  H    0.264362
    18  H   -0.086629
    19  H   -0.069802
    20  H   -0.199995
    21  C    0.987897
    22  O   -0.980514
    23  H    0.258997
    24  H   -0.181766
    25  C    0.629459
    26  H   -0.245722
    27  O   -0.839818
    28  H    0.160879
 Sum of Mulliken charges =  -1.00000
 Mulliken charges with hydrogens summed into heavy atoms:
               1
     1  N   -0.708355
     3  C    0.950523
     4  O   -1.008016
     5  C    0.906562
     6  C    0.022437
     7  N   -0.402445
     9  N   -0.984270
    10  N   -0.372686
    11  C    1.488144
    13  O   -1.167267
    14  C   -0.220571
    15  C    1.179204
    16  O   -0.472671
    21  C    0.806131
    22  O   -0.721517
    25  C    0.383736
    27  O   -0.678939
 Electronic spatial extent (au):  <R**2>=           5149.1726
 Charge=             -1.0000 electrons
 Dipole moment (field-independent basis, Debye):
    X=             20.3318    Y=              5.8911    Z=             -5.1392  Tot=             21.7830
 Quadrupole moment (field-independent basis, Debye-Ang):
   XX=           -235.0532   YY=           -100.0494   ZZ=           -110.8222
   XY=              1.7732   XZ=              2.9547   YZ=              3.7197
 Traceless Quadrupole moment (field-independent basis, Debye-Ang):
   XX=            -86.4116   YY=             48.5922   ZZ=             37.8194
   XY=              1.7732   XZ=              2.9547   YZ=              3.7197
 Octapole moment (field-independent basis, Debye-Ang**2):
  XXX=            612.9414  YYY=             43.0471  ZZZ=             -8.5775  XYY=             30.6134
  XXY=             98.3172  XXZ=            -77.0201  XZZ=             60.4494  YZZ=              9.6924
  YYZ=            -19.0074  XYZ=              9.8933
 Hexadecapole moment (field-independent basis, Debye-Ang**3):
 XXXX=          -9243.4943 YYYY=           -708.9565 ZZZZ=           -556.8300 XXXY=           -138.5560
 XXXZ=            234.0211 YYYX=             96.9118 YYYZ=             -4.4037 ZZZX=            109.0050
 ZZZY=             14.0860 XXYY=          -1131.2252 XXZZ=          -1215.2988 YYZZ=           -251.3350
 XXYZ=             78.9713 YYXZ=            -22.8674 ZZXY=              0.6933
 N-N= 1.264264162443D+03 E-N=-4.663376840797D+03  KE= 9.001443909623D+02
 Leave Link  601 at Mon Jul 12 16:36:32 2021, MaxMem=   262144000 cpu:               0.4 elap:               0.4
 (Enter /dades/curu/g16A03_MST/g16/l9999.exe)
 1\1\GINC-PIRINEUS19\SP\RMP2-FC\Aug-CC-pVDZ\C8H11N4O5(1-)\UBATOR02\12-J
 ul-2021\0\\#p mp2/aug-cc-pVDZ scf=tight maxdisk=180GB geom=allcheck\\S
 ET_328_BBB285_conf1.geo_120_300 geometry\\-1,1\N,0,-0.2408676882,3.708
 8349494,-3.5981034317\H,0,0.5651631936,3.1564620637,-3.2908844533\C,0,
 -1.3125840935,3.2305529601,-2.9881361711\O,0,-2.4998326433,3.644394430
 8,-3.1042486756\C,0,-1.1598491408,2.0578737797,-2.0369620791\C,0,-2.18
 79222385,1.4138227796,-1.3157875479\N,0,-1.6764939765,0.415738949,-0.5
 987319174\H,0,-3.2425911311,1.6355812155,-1.3069062281\N,0,-0.01207037
 09,1.4367289977,-1.7409933744\N,0,-0.3697222188,0.4612296581,-0.898049
 1096\C,0,0.6188500086,-0.3637856915,-0.2155608462\H,0,1.5099477492,-0.
 3299854898,-0.8425991619\O,0,0.936179817,0.1442298389,1.0608274482\C,0
 ,0.2541588611,-0.6305727517,2.0619693058\C,0,0.9436289347,-0.434564725
 1,3.408789268\O,0,2.3180480687,-0.7572571519,3.4043723146\H,0,2.383382
 0987,-1.5868559098,2.892807241\H,0,0.3805904803,-1.0223602733,4.152784
 1642\H,0,0.8583643852,0.6171890733,3.6978466338\H,0,-0.7868103318,-0.2
 871602998,2.1507904454\C,0,0.2444503493,-2.059357487,1.5017140565\O,0,
 1.4683622168,-2.7398078859,1.7671759035\H,0,1.7893421932,-3.0443965544
 ,0.892209198\H,0,-0.5909784906,-2.6446049689,1.9038992648\C,0,0.108619
 0963,-1.811834518,-0.0254458874\H,0,-0.9322646987,-1.8818160076,-0.340
 6552759\O,0,0.9407899927,-2.6902086331,-0.7740355228\H,0,0.4321095771,
 -3.4890703481,-0.9910855616\\Version=ES64L-G16RevA.03\State=1-A\HF=-90
 1.5365151\MP2=-904.3561977\RMSD=7.899e-09\PG=C01 [X(C8H11N4O5)]\\@


 A DANDELION FROM A LOVER MEANS MORE THAN AN ORCHID FROM A FRIEND.
 Job cpu time:       0 days  1 hours 53 minutes 44.0 seconds.
 Elapsed time:       0 days  0 hours 33 minutes 56.8 seconds.
 File lengths (MBytes):  RWF=  57414 Int=      0 D2E=      0 Chk=     21 Scr=      1
 Normal termination of Gaussian 16 at Mon Jul 12 16:36:33 2021.
