 Entering Gaussian System, Link 0=g16
 Input=SET_328_BBB2_conf1.geo_225_285_OCTANOL.dat
 Output=SET_328_BBB2_conf1.geo_225_285_OCTANOL.log
 Initial command:
 /dades/curu/g16A03_MST/g16/l1.exe "/tmp/ubator02/1835267/Gau-117761.inp" -scrdir="/tmp/ubator02/1835267/"
 Entering Link 1 = /dades/curu/g16A03_MST/g16/l1.exe PID=    117763.
  
 Copyright (c) 1988,1990,1992,1993,1995,1998,2003,2009,2016,
            Gaussian, Inc.  All Rights Reserved.
  
 This is part of the Gaussian(R) 16 program.  It is based on
 the Gaussian(R) 09 system (copyright 2009, Gaussian, Inc.),
 the Gaussian(R) 03 system (copyright 2003, Gaussian, Inc.),
 the Gaussian(R) 98 system (copyright 1998, Gaussian, Inc.),
 the Gaussian(R) 94 system (copyright 1995, Gaussian, Inc.),
 the Gaussian 92(TM) system (copyright 1992, Gaussian, Inc.),
 the Gaussian 90(TM) system (copyright 1990, Gaussian, Inc.),
 the Gaussian 88(TM) system (copyright 1988, Gaussian, Inc.),
 the Gaussian 86(TM) system (copyright 1986, Carnegie Mellon
 University), and the Gaussian 82(TM) system (copyright 1983,
 Carnegie Mellon University). Gaussian is a federally registered
 trademark of Gaussian, Inc.
  
 This software contains proprietary and confidential information,
 including trade secrets, belonging to Gaussian, Inc.
  
 This software is provided under written license and may be
 used, copied, transmitted, or stored only in accord with that
 written license.
  
 The following legend is applicable only to US Government
 contracts under FAR:
  
                    RESTRICTED RIGHTS LEGEND
  
 Use, reproduction and disclosure by the US Government is
 subject to restrictions as set forth in subparagraphs (a)
 and (c) of the Commercial Computer Software - Restricted
 Rights clause in FAR 52.227-19.
  
 Gaussian, Inc.
 340 Quinnipiac St., Bldg. 40, Wallingford CT 06492
  
  
 ---------------------------------------------------------------
 Warning -- This program may not be used in any manner that
 competes with the business of Gaussian, Inc. or will provide
 assistance to any competitor of Gaussian, Inc.  The licensee
 of this program is prohibited from giving any competitor of
 Gaussian, Inc. access to this program.  By using this program,
 the user acknowledges that Gaussian, Inc. is engaged in the
 business of creating and licensing software in the field of
 computational chemistry and represents and warrants to the
 licensee that it is not a competitor of Gaussian, Inc. and that
 it will not use this program in any manner prohibited above.
 ---------------------------------------------------------------
  

 Cite this work as:
 Gaussian 16, Revision A.03,
 M. J. Frisch, G. W. Trucks, H. B. Schlegel, G. E. Scuseria, 
 M. A. Robb, J. R. Cheeseman, G. Scalmani, V. Barone, 
 G. A. Petersson, H. Nakatsuji, X. Li, M. Caricato, A. V. Marenich, 
 J. Bloino, B. G. Janesko, R. Gomperts, B. Mennucci, H. P. Hratchian, 
 J. V. Ortiz, A. F. Izmaylov, J. L. Sonnenberg, D. Williams-Young, 
 F. Ding, F. Lipparini, F. Egidi, J. Goings, B. Peng, A. Petrone, 
 T. Henderson, D. Ranasinghe, V. G. Zakrzewski, J. Gao, N. Rega, 
 G. Zheng, W. Liang, M. Hada, M. Ehara, K. Toyota, R. Fukuda, 
 J. Hasegawa, M. Ishida, T. Nakajima, Y. Honda, O. Kitao, H. Nakai, 
 T. Vreven, K. Throssell, J. A. Montgomery, Jr., J. E. Peralta, 
 F. Ogliaro, M. J. Bearpark, J. J. Heyd, E. N. Brothers, K. N. Kudin, 
 V. N. Staroverov, T. A. Keith, R. Kobayashi, J. Normand, 
 K. Raghavachari, A. P. Rendell, J. C. Burant, S. S. Iyengar, 
 J. Tomasi, M. Cossi, J. M. Millam, M. Klene, C. Adamo, R. Cammi, 
 J. W. Ochterski, R. L. Martin, K. Morokuma, O. Farkas, 
 J. B. Foresman, and D. J. Fox, Gaussian, Inc., Wallingford CT, 2016.
 
 ******************************************
 Gaussian 16:  ES64L-G16RevA.03 25-Dec-2016
                12-Jul-2021 
 ******************************************
 %mem=800MB
 %nproc=4
 Will use up to    4 processors via shared memory.
 %chk=SET_328_BBB2_conf1.geo_225_285.chk
 ---------------------------------------------------------------
 #p b3lyp/6-31G(d) opt freq scrf=(iefpcm,read,solvent=n-octanol)
 ---------------------------------------------------------------
 1/18=20,19=15,26=3,38=1,40=2/1,3;
 2/9=110,12=2,17=6,18=5,40=1/2;
 3/5=1,6=6,7=1,11=2,25=1,30=1,70=2203,71=1,72=25,74=-5/1,2,3;
 4//1;
 5/5=2,38=5,53=25/2;
 6/7=2,8=2,9=2,10=2,28=1/1;
 7//1,2,3,16;
 1/18=20,19=15,26=3/3(2);
 2/9=110/2;
 99//99;
 2/9=110/2;
 3/5=1,6=6,7=1,11=2,25=1,30=1,70=2205,71=1,72=25,74=-5/1,2,3;
 4/5=5,16=3,69=1/1;
 5/5=2,38=5,53=25/2;
 7//1,2,3,16;
 1/18=20,19=15,26=3/3(-5);
 2/9=110/2;
 6/7=2,8=2,9=2,10=2,19=2,28=1/1;
 99/9=1/99;
 Leave Link    1 at Mon Jul 12 11:17:04 2021, MaxMem=   104857600 cpu:               0.0 elap:               0.0
 (Enter /dades/curu/g16A03_MST/g16/l101.exe)
 ---------------------------------------
 SET_328_BBB2_conf1.geo_225_285 geometry
 ---------------------------------------
 Symbolic Z-matrix:
 Charge =  1 Multiplicity = 1
 C                    -3.236     2.278     1.924 
 H                    -2.67      2.078     2.838 
 H                    -4.116     1.63      1.912 
 H                    -3.558     3.319     2.01 
 N                    -2.391     2.116     0.716 
 H                    -1.592     2.708     0.823 
 C                    -1.91      0.783     0.391 
 C                    -0.771     0.34      1.307 
 C                     0.517     0.193     0.838 
 C                     1.462    -0.408     1.695 
 C                     1.131    -0.809     2.994 
 C                    -0.141    -0.597     3.451 
 C                    -1.114    -0.126     2.587 
 H                    -2.147    -0.231     2.909 
 H                    -0.384    -0.836     4.483 
 H                     1.871    -1.215     3.68 
 H                     2.45     -0.583     1.275 
 H                    -2.782     0.143     0.549 
 C                    -1.536     0.867    -1.083 
 H                    -2.184     1.493    -1.7 
 H                    -1.564    -0.142    -1.499 
 C                    -0.065     1.458    -1.288 
 H                     0.017     2.408    -0.756 
 H                     0.297     1.728    -2.282 
 C                     0.981     0.561    -0.555 
 H                     1.888     1.133    -0.352 
 C                     1.464    -0.55     -1.412 
 C                     0.741    -1.751    -1.533 
 H                    -0.15     -1.926    -0.935 
 C                     1.182    -2.792    -2.415 
 Cl                    0.267    -4.266    -2.308 
 C                     2.365    -2.66     -3.132 
 Cl                    2.954    -3.746    -4.26 
 C                     3.07     -1.453    -2.977 
 H                     3.932    -1.342    -3.63 
 C                     2.626    -0.407    -2.149 
 H                     3.112     0.565    -2.157 
 H                    -2.916     2.448    -0.068 
 
 ITRead=  0  0  0  0  0  0  0  0  0  0  0  0  0  0  0  0  0  0  0  0
 ITRead=  0  0  0  0  0  0  0  0  0  0  0  0  0  0  0  0  0  0
 MicOpt= -1 -1 -1 -1 -1 -1 -1 -1 -1 -1 -1 -1 -1 -1 -1 -1 -1 -1 -1 -1
 MicOpt= -1 -1 -1 -1 -1 -1 -1 -1 -1 -1 -1 -1 -1 -1 -1 -1 -1 -1
 NAtoms=     38 NQM=       38 NQMF=       0 NMMI=      0 NMMIF=      0
                NMic=       0 NMicF=      0.
                    Isotopes and Nuclear Properties:
 (Nuclear quadrupole moments (NQMom) in fm**2, nuclear magnetic moments (NMagM)
  in nuclear magnetons)

  Atom         1           2           3           4           5           6           7           8           9          10
 IAtWgt=          12           1           1           1          14           1          12          12          12          12
 AtmWgt=  12.0000000   1.0078250   1.0078250   1.0078250  14.0030740   1.0078250  12.0000000  12.0000000  12.0000000  12.0000000
 NucSpn=           0           1           1           1           2           1           0           0           0           0
 AtZEff=  -0.0000000  -0.0000000  -0.0000000  -0.0000000  -0.0000000  -0.0000000  -0.0000000  -0.0000000  -0.0000000  -0.0000000
 NQMom=    0.0000000   0.0000000   0.0000000   0.0000000   2.0440000   0.0000000   0.0000000   0.0000000   0.0000000   0.0000000
 NMagM=    0.0000000   2.7928460   2.7928460   2.7928460   0.4037610   2.7928460   0.0000000   0.0000000   0.0000000   0.0000000
 AtZNuc=   6.0000000   1.0000000   1.0000000   1.0000000   7.0000000   1.0000000   6.0000000   6.0000000   6.0000000   6.0000000

  Atom        11          12          13          14          15          16          17          18          19          20
 IAtWgt=          12          12          12           1           1           1           1           1          12           1
 AtmWgt=  12.0000000  12.0000000  12.0000000   1.0078250   1.0078250   1.0078250   1.0078250   1.0078250  12.0000000   1.0078250
 NucSpn=           0           0           0           1           1           1           1           1           0           1
 AtZEff=  -0.0000000  -0.0000000  -0.0000000  -0.0000000  -0.0000000  -0.0000000  -0.0000000  -0.0000000  -0.0000000  -0.0000000
 NQMom=    0.0000000   0.0000000   0.0000000   0.0000000   0.0000000   0.0000000   0.0000000   0.0000000   0.0000000   0.0000000
 NMagM=    0.0000000   0.0000000   0.0000000   2.7928460   2.7928460   2.7928460   2.7928460   2.7928460   0.0000000   2.7928460
 AtZNuc=   6.0000000   6.0000000   6.0000000   1.0000000   1.0000000   1.0000000   1.0000000   1.0000000   6.0000000   1.0000000

  Atom        21          22          23          24          25          26          27          28          29          30
 IAtWgt=           1          12           1           1          12           1          12          12           1          12
 AtmWgt=   1.0078250  12.0000000   1.0078250   1.0078250  12.0000000   1.0078250  12.0000000  12.0000000   1.0078250  12.0000000
 NucSpn=           1           0           1           1           0           1           0           0           1           0
 AtZEff=  -0.0000000  -0.0000000  -0.0000000  -0.0000000  -0.0000000  -0.0000000  -0.0000000  -0.0000000  -0.0000000  -0.0000000
 NQMom=    0.0000000   0.0000000   0.0000000   0.0000000   0.0000000   0.0000000   0.0000000   0.0000000   0.0000000   0.0000000
 NMagM=    2.7928460   0.0000000   2.7928460   2.7928460   0.0000000   2.7928460   0.0000000   0.0000000   2.7928460   0.0000000
 AtZNuc=   1.0000000   6.0000000   1.0000000   1.0000000   6.0000000   1.0000000   6.0000000   6.0000000   1.0000000   6.0000000

  Atom        31          32          33          34          35          36          37          38
 IAtWgt=          35          12          35          12           1          12           1           1
 AtmWgt=  34.9688527  12.0000000  34.9688527  12.0000000   1.0078250  12.0000000   1.0078250   1.0078250
 NucSpn=           3           0           3           0           1           0           1           1
 AtZEff=  -0.0000000  -0.0000000  -0.0000000  -0.0000000  -0.0000000  -0.0000000  -0.0000000  -0.0000000
 NQMom=   -8.1650000   0.0000000  -8.1650000   0.0000000   0.0000000   0.0000000   0.0000000   0.0000000
 NMagM=    0.8218740   0.0000000   0.8218740   0.0000000   2.7928460   0.0000000   2.7928460   2.7928460
 AtZNuc=  17.0000000   6.0000000  17.0000000   6.0000000   1.0000000   6.0000000   1.0000000   1.0000000
 Leave Link  101 at Mon Jul 12 11:17:04 2021, MaxMem=   104857600 cpu:               0.1 elap:               0.2
 (Enter /dades/curu/g16A03_MST/g16/l103.exe)

 GradGradGradGradGradGradGradGradGradGradGradGradGradGradGradGradGradGrad
 Berny optimization.
 Initialization pass.
                           ----------------------------
                           !    Initial Parameters    !
                           ! (Angstroms and Degrees)  !
 --------------------------                            --------------------------
 ! Name  Definition              Value          Derivative Info.                !
 --------------------------------------------------------------------------------
 ! R1    R(1,2)                  1.0935         estimate D2E/DX2                !
 ! R2    R(1,3)                  1.0929         estimate D2E/DX2                !
 ! R3    R(1,4)                  1.0931         estimate D2E/DX2                !
 ! R4    R(1,5)                  1.4831         estimate D2E/DX2                !
 ! R5    R(5,6)                  1.0002         estimate D2E/DX2                !
 ! R6    R(5,7)                  1.4539         estimate D2E/DX2                !
 ! R7    R(5,38)                 1.0003         estimate D2E/DX2                !
 ! R8    R(7,8)                  1.5273         estimate D2E/DX2                !
 ! R9    R(7,18)                 1.0931         estimate D2E/DX2                !
 ! R10   R(7,19)                 1.523          estimate D2E/DX2                !
 ! R11   R(8,9)                  1.3786         estimate D2E/DX2                !
 ! R12   R(8,13)                 1.4047         estimate D2E/DX2                !
 ! R13   R(9,10)                 1.4102         estimate D2E/DX2                !
 ! R14   R(9,25)                 1.5137         estimate D2E/DX2                !
 ! R15   R(10,11)                1.3992         estimate D2E/DX2                !
 ! R16   R(10,17)                1.0877         estimate D2E/DX2                !
 ! R17   R(11,12)                1.3681         estimate D2E/DX2                !
 ! R18   R(11,16)                1.0877         estimate D2E/DX2                !
 ! R19   R(12,13)                1.3839         estimate D2E/DX2                !
 ! R20   R(12,15)                1.0868         estimate D2E/DX2                !
 ! R21   R(13,14)                1.0871         estimate D2E/DX2                !
 ! R22   R(19,20)                1.092          estimate D2E/DX2                !
 ! R23   R(19,21)                1.0918         estimate D2E/DX2                !
 ! R24   R(19,22)                1.5985         estimate D2E/DX2                !
 ! R25   R(22,23)                1.0919         estimate D2E/DX2                !
 ! R26   R(22,24)                1.0918         estimate D2E/DX2                !
 ! R27   R(22,25)                1.5608         estimate D2E/DX2                !
 ! R28   R(25,26)                1.0913         estimate D2E/DX2                !
 ! R29   R(25,27)                1.4839         estimate D2E/DX2                !
 ! R30   R(27,28)                1.407          estimate D2E/DX2                !
 ! R31   R(27,36)                1.3834         estimate D2E/DX2                !
 ! R32   R(28,29)                1.0872         estimate D2E/DX2                !
 ! R33   R(28,30)                1.4339         estimate D2E/DX2                !
 ! R34   R(30,31)                1.7382         estimate D2E/DX2                !
 ! R35   R(30,32)                1.3896         estimate D2E/DX2                !
 ! R36   R(32,33)                1.6729         estimate D2E/DX2                !
 ! R37   R(32,34)                1.4064         estimate D2E/DX2                !
 ! R38   R(34,35)                1.0871         estimate D2E/DX2                !
 ! R39   R(34,36)                1.406          estimate D2E/DX2                !
 ! R40   R(36,37)                1.0868         estimate D2E/DX2                !
 ! A1    A(2,1,3)              108.512          estimate D2E/DX2                !
 ! A2    A(2,1,4)              105.1238         estimate D2E/DX2                !
 ! A3    A(2,1,5)              111.4645         estimate D2E/DX2                !
 ! A4    A(3,1,4)              109.1682         estimate D2E/DX2                !
 ! A5    A(3,1,5)              112.6473         estimate D2E/DX2                !
 ! A6    A(4,1,5)              109.6309         estimate D2E/DX2                !
 ! A7    A(1,5,6)              107.6602         estimate D2E/DX2                !
 ! A8    A(1,5,7)              118.0807         estimate D2E/DX2                !
 ! A9    A(1,5,38)             107.645          estimate D2E/DX2                !
 ! A10   A(6,5,7)              107.596          estimate D2E/DX2                !
 ! A11   A(6,5,38)             107.8601         estimate D2E/DX2                !
 ! A12   A(7,5,38)             107.6227         estimate D2E/DX2                !
 ! A13   A(5,7,8)              112.2463         estimate D2E/DX2                !
 ! A14   A(5,7,18)             103.9199         estimate D2E/DX2                !
 ! A15   A(5,7,19)             104.3008         estimate D2E/DX2                !
 ! A16   A(8,7,18)             109.779          estimate D2E/DX2                !
 ! A17   A(8,7,19)             114.4131         estimate D2E/DX2                !
 ! A18   A(18,7,19)            111.5962         estimate D2E/DX2                !
 ! A19   A(7,8,9)              121.5773         estimate D2E/DX2                !
 ! A20   A(7,8,13)             117.4279         estimate D2E/DX2                !
 ! A21   A(9,8,13)             120.1827         estimate D2E/DX2                !
 ! A22   A(8,9,10)             117.6959         estimate D2E/DX2                !
 ! A23   A(8,9,25)             124.9987         estimate D2E/DX2                !
 ! A24   A(10,9,25)            117.2236         estimate D2E/DX2                !
 ! A25   A(9,10,11)            121.8575         estimate D2E/DX2                !
 ! A26   A(9,10,17)            116.269          estimate D2E/DX2                !
 ! A27   A(11,10,17)           121.8189         estimate D2E/DX2                !
 ! A28   A(10,11,12)           119.0547         estimate D2E/DX2                !
 ! A29   A(10,11,16)           122.1115         estimate D2E/DX2                !
 ! A30   A(12,11,16)           118.6667         estimate D2E/DX2                !
 ! A31   A(11,12,13)           119.8607         estimate D2E/DX2                !
 ! A32   A(11,12,15)           119.4052         estimate D2E/DX2                !
 ! A33   A(13,12,15)           120.6962         estimate D2E/DX2                !
 ! A34   A(8,13,12)            120.673          estimate D2E/DX2                !
 ! A35   A(8,13,14)            122.2742         estimate D2E/DX2                !
 ! A36   A(12,13,14)           116.7635         estimate D2E/DX2                !
 ! A37   A(7,19,20)            115.6408         estimate D2E/DX2                !
 ! A38   A(7,19,21)            108.1498         estimate D2E/DX2                !
 ! A39   A(7,19,22)            111.7458         estimate D2E/DX2                !
 ! A40   A(20,19,21)           107.4153         estimate D2E/DX2                !
 ! A41   A(20,19,22)           105.1692         estimate D2E/DX2                !
 ! A42   A(21,19,22)           108.4475         estimate D2E/DX2                !
 ! A43   A(19,22,23)           109.1657         estimate D2E/DX2                !
 ! A44   A(19,22,24)           120.8853         estimate D2E/DX2                !
 ! A45   A(19,22,25)           110.1217         estimate D2E/DX2                !
 ! A46   A(23,22,24)           101.7431         estimate D2E/DX2                !
 ! A47   A(23,22,25)           102.7606         estimate D2E/DX2                !
 ! A48   A(24,22,25)           110.3342         estimate D2E/DX2                !
 ! A49   A(9,25,22)            111.4992         estimate D2E/DX2                !
 ! A50   A(9,25,26)            102.1812         estimate D2E/DX2                !
 ! A51   A(9,25,27)            116.6948         estimate D2E/DX2                !
 ! A52   A(22,25,26)           110.0665         estimate D2E/DX2                !
 ! A53   A(22,25,27)           112.1597         estimate D2E/DX2                !
 ! A54   A(26,25,27)           103.2571         estimate D2E/DX2                !
 ! A55   A(25,27,28)           121.4306         estimate D2E/DX2                !
 ! A56   A(25,27,36)           120.2429         estimate D2E/DX2                !
 ! A57   A(28,27,36)           118.2954         estimate D2E/DX2                !
 ! A58   A(27,28,29)           120.7426         estimate D2E/DX2                !
 ! A59   A(27,28,30)           120.9667         estimate D2E/DX2                !
 ! A60   A(29,28,30)           118.2617         estimate D2E/DX2                !
 ! A61   A(28,30,31)           114.5747         estimate D2E/DX2                !
 ! A62   A(28,30,32)           120.6798         estimate D2E/DX2                !
 ! A63   A(31,30,32)           124.0873         estimate D2E/DX2                !
 ! A64   A(30,32,33)           125.8715         estimate D2E/DX2                !
 ! A65   A(30,32,34)           116.8345         estimate D2E/DX2                !
 ! A66   A(33,32,34)           117.0618         estimate D2E/DX2                !
 ! A67   A(32,34,35)           114.7664         estimate D2E/DX2                !
 ! A68   A(32,34,36)           123.0308         estimate D2E/DX2                !
 ! A69   A(35,34,36)           121.8829         estimate D2E/DX2                !
 ! A70   A(27,36,34)           120.1375         estimate D2E/DX2                !
 ! A71   A(27,36,37)           118.1641         estimate D2E/DX2                !
 ! A72   A(34,36,37)           121.3214         estimate D2E/DX2                !
 ! D1    D(2,1,5,6)            -55.2336         estimate D2E/DX2                !
 ! D2    D(2,1,5,7)             66.734          estimate D2E/DX2                !
 ! D3    D(2,1,5,38)          -171.2751         estimate D2E/DX2                !
 ! D4    D(3,1,5,6)           -177.4909         estimate D2E/DX2                !
 ! D5    D(3,1,5,7)            -55.5232         estimate D2E/DX2                !
 ! D6    D(3,1,5,38)            66.4676         estimate D2E/DX2                !
 ! D7    D(4,1,5,6)             60.7363         estimate D2E/DX2                !
 ! D8    D(4,1,5,7)           -177.2961         estimate D2E/DX2                !
 ! D9    D(4,1,5,38)           -55.3052         estimate D2E/DX2                !
 ! D10   D(1,5,7,8)            -75.089          estimate D2E/DX2                !
 ! D11   D(1,5,7,18)            43.4688         estimate D2E/DX2                !
 ! D12   D(1,5,7,19)           160.5018         estimate D2E/DX2                !
 ! D13   D(6,5,7,8)             46.9113         estimate D2E/DX2                !
 ! D14   D(6,5,7,18)           165.4691         estimate D2E/DX2                !
 ! D15   D(6,5,7,19)           -77.4979         estimate D2E/DX2                !
 ! D16   D(38,5,7,8)           162.9088         estimate D2E/DX2                !
 ! D17   D(38,5,7,18)          -78.5334         estimate D2E/DX2                !
 ! D18   D(38,5,7,19)           38.4996         estimate D2E/DX2                !
 ! D19   D(5,7,8,9)           -111.1614         estimate D2E/DX2                !
 ! D20   D(5,7,8,13)            79.1453         estimate D2E/DX2                !
 ! D21   D(18,7,8,9)           133.7956         estimate D2E/DX2                !
 ! D22   D(18,7,8,13)          -35.8978         estimate D2E/DX2                !
 ! D23   D(19,7,8,9)             7.4419         estimate D2E/DX2                !
 ! D24   D(19,7,8,13)         -162.2515         estimate D2E/DX2                !
 ! D25   D(5,7,19,20)          -36.4727         estimate D2E/DX2                !
 ! D26   D(5,7,19,21)         -156.9182         estimate D2E/DX2                !
 ! D27   D(5,7,19,22)           83.7889         estimate D2E/DX2                !
 ! D28   D(8,7,19,20)         -159.481          estimate D2E/DX2                !
 ! D29   D(8,7,19,21)           80.0735         estimate D2E/DX2                !
 ! D30   D(8,7,19,22)          -39.2194         estimate D2E/DX2                !
 ! D31   D(18,7,19,20)          75.114          estimate D2E/DX2                !
 ! D32   D(18,7,19,21)         -45.3315         estimate D2E/DX2                !
 ! D33   D(18,7,19,22)        -164.6244         estimate D2E/DX2                !
 ! D34   D(7,8,9,10)          -170.724          estimate D2E/DX2                !
 ! D35   D(7,8,9,25)             5.8849         estimate D2E/DX2                !
 ! D36   D(13,8,9,10)           -1.3099         estimate D2E/DX2                !
 ! D37   D(13,8,9,25)          175.299          estimate D2E/DX2                !
 ! D38   D(7,8,13,12)          177.2589         estimate D2E/DX2                !
 ! D39   D(7,8,13,14)            3.6375         estimate D2E/DX2                !
 ! D40   D(9,8,13,12)            7.415          estimate D2E/DX2                !
 ! D41   D(9,8,13,14)         -166.2064         estimate D2E/DX2                !
 ! D42   D(8,9,10,11)           -1.9535         estimate D2E/DX2                !
 ! D43   D(8,9,10,17)          175.4037         estimate D2E/DX2                !
 ! D44   D(25,9,10,11)        -178.8299         estimate D2E/DX2                !
 ! D45   D(25,9,10,17)          -1.4727         estimate D2E/DX2                !
 ! D46   D(8,9,25,22)           14.5122         estimate D2E/DX2                !
 ! D47   D(8,9,25,26)          132.0472         estimate D2E/DX2                !
 ! D48   D(8,9,25,27)         -116.1671         estimate D2E/DX2                !
 ! D49   D(10,9,25,22)        -168.8644         estimate D2E/DX2                !
 ! D50   D(10,9,25,26)         -51.3294         estimate D2E/DX2                !
 ! D51   D(10,9,25,27)          60.4563         estimate D2E/DX2                !
 ! D52   D(9,10,11,12)          -0.8162         estimate D2E/DX2                !
 ! D53   D(9,10,11,16)        -176.053          estimate D2E/DX2                !
 ! D54   D(17,10,11,12)       -178.0271         estimate D2E/DX2                !
 ! D55   D(17,10,11,16)          6.7361         estimate D2E/DX2                !
 ! D56   D(10,11,12,13)          6.8805         estimate D2E/DX2                !
 ! D57   D(10,11,12,15)       -175.3441         estimate D2E/DX2                !
 ! D58   D(16,11,12,13)       -177.7172         estimate D2E/DX2                !
 ! D59   D(16,11,12,15)          0.0582         estimate D2E/DX2                !
 ! D60   D(11,12,13,8)         -10.2553         estimate D2E/DX2                !
 ! D61   D(11,12,13,14)        163.7058         estimate D2E/DX2                !
 ! D62   D(15,12,13,8)         171.9985         estimate D2E/DX2                !
 ! D63   D(15,12,13,14)        -14.0403         estimate D2E/DX2                !
 ! D64   D(7,19,22,23)         -53.103          estimate D2E/DX2                !
 ! D65   D(7,19,22,24)        -170.4231         estimate D2E/DX2                !
 ! D66   D(7,19,22,25)          59.0066         estimate D2E/DX2                !
 ! D67   D(20,19,22,23)         73.1138         estimate D2E/DX2                !
 ! D68   D(20,19,22,24)        -44.2064         estimate D2E/DX2                !
 ! D69   D(20,19,22,25)       -174.7766         estimate D2E/DX2                !
 ! D70   D(21,19,22,23)       -172.2197         estimate D2E/DX2                !
 ! D71   D(21,19,22,24)         70.4601         estimate D2E/DX2                !
 ! D72   D(21,19,22,25)        -60.1101         estimate D2E/DX2                !
 ! D73   D(19,22,25,9)         -45.1546         estimate D2E/DX2                !
 ! D74   D(19,22,25,26)       -157.8185         estimate D2E/DX2                !
 ! D75   D(19,22,25,27)         87.8269         estimate D2E/DX2                !
 ! D76   D(23,22,25,9)          71.0431         estimate D2E/DX2                !
 ! D77   D(23,22,25,26)        -41.6207         estimate D2E/DX2                !
 ! D78   D(23,22,25,27)       -155.9754         estimate D2E/DX2                !
 ! D79   D(24,22,25,9)         178.89           estimate D2E/DX2                !
 ! D80   D(24,22,25,26)         66.2262         estimate D2E/DX2                !
 ! D81   D(24,22,25,27)        -48.1285         estimate D2E/DX2                !
 ! D82   D(9,25,27,28)          46.9744         estimate D2E/DX2                !
 ! D83   D(9,25,27,36)        -135.0898         estimate D2E/DX2                !
 ! D84   D(22,25,27,28)        -83.3954         estimate D2E/DX2                !
 ! D85   D(22,25,27,36)         94.5404         estimate D2E/DX2                !
 ! D86   D(26,25,27,28)        158.1428         estimate D2E/DX2                !
 ! D87   D(26,25,27,36)        -23.9213         estimate D2E/DX2                !
 ! D88   D(25,27,28,29)         -5.1211         estimate D2E/DX2                !
 ! D89   D(25,27,28,30)        176.8694         estimate D2E/DX2                !
 ! D90   D(36,27,28,29)        176.9041         estimate D2E/DX2                !
 ! D91   D(36,27,28,30)         -1.1054         estimate D2E/DX2                !
 ! D92   D(25,27,36,34)       -178.9674         estimate D2E/DX2                !
 ! D93   D(25,27,36,37)         -5.9226         estimate D2E/DX2                !
 ! D94   D(28,27,36,34)         -0.9677         estimate D2E/DX2                !
 ! D95   D(28,27,36,37)        172.0772         estimate D2E/DX2                !
 ! D96   D(27,28,30,31)        173.6636         estimate D2E/DX2                !
 ! D97   D(27,28,30,32)          2.5921         estimate D2E/DX2                !
 ! D98   D(29,28,30,31)         -4.3942         estimate D2E/DX2                !
 ! D99   D(29,28,30,32)       -175.4657         estimate D2E/DX2                !
 ! D100  D(28,30,32,33)       -176.1286         estimate D2E/DX2                !
 ! D101  D(28,30,32,34)         -1.8532         estimate D2E/DX2                !
 ! D102  D(31,30,32,33)         13.6839         estimate D2E/DX2                !
 ! D103  D(31,30,32,34)       -172.0407         estimate D2E/DX2                !
 ! D104  D(30,32,34,35)       -173.848          estimate D2E/DX2                !
 ! D105  D(30,32,34,36)         -0.2407         estimate D2E/DX2                !
 ! D106  D(33,32,34,35)          0.9443         estimate D2E/DX2                !
 ! D107  D(33,32,34,36)        174.5517         estimate D2E/DX2                !
 ! D108  D(32,34,36,27)          1.7007         estimate D2E/DX2                !
 ! D109  D(32,34,36,37)       -171.1205         estimate D2E/DX2                !
 ! D110  D(35,34,36,27)        174.8626         estimate D2E/DX2                !
 ! D111  D(35,34,36,37)          2.0414         estimate D2E/DX2                !
 --------------------------------------------------------------------------------
 Trust Radius=3.00D-01 FncErr=1.00D-07 GrdErr=1.00D-06 EigMax=2.50D+02 EigMin=1.00D-04
 Number of steps in this run=    228 maximum allowed number of steps=    228.
 GradGradGradGradGradGradGradGradGradGradGradGradGradGradGradGradGradGrad

 Leave Link  103 at Mon Jul 12 11:17:05 2021, MaxMem=   104857600 cpu:               0.0 elap:               0.2
 (Enter /dades/curu/g16A03_MST/g16/l202.exe)
                          Input orientation:                          
 ---------------------------------------------------------------------
 Center     Atomic      Atomic             Coordinates (Angstroms)
 Number     Number       Type             X           Y           Z
 ---------------------------------------------------------------------
      1          6           0       -3.236000    2.278000    1.924000
      2          1           0       -2.670000    2.078000    2.838000
      3          1           0       -4.116000    1.630000    1.912000
      4          1           0       -3.558000    3.319000    2.010000
      5          7           0       -2.391000    2.116000    0.716000
      6          1           0       -1.592000    2.708000    0.823000
      7          6           0       -1.910000    0.783000    0.391000
      8          6           0       -0.771000    0.340000    1.307000
      9          6           0        0.517000    0.193000    0.838000
     10          6           0        1.462000   -0.408000    1.695000
     11          6           0        1.131000   -0.809000    2.994000
     12          6           0       -0.141000   -0.597000    3.451000
     13          6           0       -1.114000   -0.126000    2.587000
     14          1           0       -2.147000   -0.231000    2.909000
     15          1           0       -0.384000   -0.836000    4.483000
     16          1           0        1.871000   -1.215000    3.680000
     17          1           0        2.450000   -0.583000    1.275000
     18          1           0       -2.782000    0.143000    0.549000
     19          6           0       -1.536000    0.867000   -1.083000
     20          1           0       -2.184000    1.493000   -1.700000
     21          1           0       -1.564000   -0.142000   -1.499000
     22          6           0       -0.065000    1.458000   -1.288000
     23          1           0        0.017000    2.408000   -0.756000
     24          1           0        0.297000    1.728000   -2.282000
     25          6           0        0.981000    0.561000   -0.555000
     26          1           0        1.888000    1.133000   -0.352000
     27          6           0        1.464000   -0.550000   -1.412000
     28          6           0        0.741000   -1.751000   -1.533000
     29          1           0       -0.150000   -1.926000   -0.935000
     30          6           0        1.182000   -2.792000   -2.415000
     31         17           0        0.267000   -4.266000   -2.308000
     32          6           0        2.365000   -2.660000   -3.132000
     33         17           0        2.954000   -3.746000   -4.260000
     34          6           0        3.070000   -1.453000   -2.977000
     35          1           0        3.932000   -1.342000   -3.630000
     36          6           0        2.626000   -0.407000   -2.149000
     37          1           0        3.112000    0.565000   -2.157000
     38          1           0       -2.916000    2.448000   -0.068000
 ---------------------------------------------------------------------
                    Distance matrix (angstroms):
                    1          2          3          4          5
     1  C    0.000000
     2  H    1.093504   0.000000
     3  H    1.092908   1.774569   0.000000
     4  H    1.093051   1.736148   1.781485   0.000000
     5  N    1.483082   2.140600   2.154585   2.117436   0.000000
     6  H    2.024805   2.370487   2.952724   2.376436   1.000157
     7  C    2.518609   2.870964   2.810211   3.430504   1.453917
     8  C    3.195741   2.995130   3.635815   4.139567   2.475451
     9  C    4.428502   4.208348   4.968212   5.267930   3.488449
    10  C    5.416479   4.955812   5.942610   6.260204   4.708994
    11  C    5.453912   4.775637   5.886464   6.324189   5.113648
    12  C    4.491812   3.731921   4.809228   5.393276   4.461288
    13  C    3.274396   2.709567   3.542762   4.263108   3.187151
    14  H    2.907099   2.368555   2.886917   3.924490   3.221365
    15  H    4.937548   4.052557   5.159362   5.783946   5.189667
    16  H    6.431643   5.672168   6.860322   7.267744   6.168104
    17  H    6.398212   5.978151   6.958124   7.201520   5.570670
    18  H    2.579722   2.999382   2.418366   3.581016   2.018291
    19  C    3.731350   4.257548   4.025990   4.434798   2.351048
    20  H    3.854388   4.601289   4.098529   4.357322   2.503604
    21  H    4.513193   4.996119   4.613850   5.316732   3.269360
    22  C    4.587438   4.918770   5.165287   5.151813   3.139945
    23  H    4.216789   4.499523   4.980482   4.610998   2.837342
    24  H    5.520419   5.927899   6.088827   5.984444   4.045231
    25  C    5.184266   5.209946   5.762661   5.898162   3.924774
    26  H    5.722462   5.643092   6.435893   6.325864   4.518490
    27  C    6.420006   6.485279   6.851115   7.204147   5.147520
    28  C    6.633266   6.738086   6.847601   7.532539   5.460871
    29  H    5.947343   6.051276   6.039843   6.913575   4.907713
    30  C    8.003158   8.133192   8.145294   8.910249   6.830663
    31  Cl   8.544283   8.680646   8.472420   9.529322   7.545824
    32  C    9.017659   9.134592   9.265495   9.862583   7.761238
    33  Cl  10.622925  10.767077  10.815723  11.473154   9.364435
    34  C    8.815089   8.901112   9.222028   9.569354   7.496568
    35  H    9.763787   9.854838  10.213562  10.470655   8.415807
    36  C    7.626375   7.687198   8.129923   8.331999   6.304288
    37  H    7.738607   7.789141   8.362713   8.332905   6.398651
    38  H    2.024689   2.939771   2.455509   2.342838   1.000252
                    6          7          8          9         10
     6  H    0.000000
     7  C    1.998343   0.000000
     8  C    2.552591   1.527294   0.000000
     9  C    3.282275   2.537368   1.378591   0.000000
    10  C    4.449355   3.806479   2.386700   1.410204   0.000000
    11  C    4.949471   4.307871   2.789942   2.455471   1.399201
    12  C    4.464842   3.794385   2.423139   2.807994   2.385134
    13  C    3.372200   2.506454   1.404708   2.412659   2.740614
    14  H    3.646525   2.724828   2.187652   3.400840   3.811824
    15  H    5.235914   4.657714   3.408771   3.893156   3.371030
    16  H    5.961942   5.394950   3.876766   3.448586   2.181457
    17  H    5.231897   4.653709   3.350790   2.128294   1.087736
    18  H    2.840845   1.093137   2.158123   3.312012   4.430401
    19  C    2.650519   1.523026   2.564187   2.891250   4.281462
    20  H    2.862205   2.225187   3.516821   3.927702   5.332274
    21  H    3.676271   2.132473   2.955471   3.147119   4.407842
    22  C    2.889732   2.584316   2.912453   2.541422   3.835619
    23  H    2.274230   2.769398   3.025481   2.774358   4.003159
    24  H    3.764272   3.592882   3.993506   3.484110   4.662215
    25  C    3.623372   3.049931   2.566201   1.513661   2.496562
    26  H    3.996455   3.885789   3.232864   2.044344   2.597377
    27  C    4.994890   4.051120   3.630466   2.551736   3.110244
    28  C    5.556645   4.141344   3.837190   3.074240   3.569800
    29  H    5.161771   3.492071   3.247609   2.842284   3.437989
    30  C    6.959146   5.496792   5.241843   4.464802   4.759617
    31  Cl   7.867383   6.125058   5.946504   5.462829   5.686493
    32  C    7.753406   6.522377   6.207996   5.226434   5.402485
    33  Cl   9.389202   8.111852   7.846178   6.887982   6.987870
    34  C    7.313560   6.414321   6.026673   4.876613   5.050275
    35  H    8.169840   7.403582   7.022913   5.829363   5.943810
    36  C    6.027233   5.333198   4.903219   3.705408   4.016371
    37  H    5.966613   5.635629   5.208417   3.980256   4.301992
    38  H    1.616928   1.998735   3.306859   4.206109   5.516502
                   11         12         13         14         15
    11  C    0.000000
    12  C    1.368129   0.000000
    13  C    2.381630   1.383859   0.000000
    14  H    3.329654   2.109918   1.087105   0.000000
    15  H    2.124400   1.086827   2.152165   2.439604   0.000000
    16  H    1.087673   2.117194   3.360178   4.207971   2.423525
    17  H    2.178485   3.383556   3.825218   4.891449   4.287987
    18  H    4.711252   3.993005   2.647268   2.472388   4.710117
    19  C    5.152067   4.964522   3.825315   4.185091   5.933605
    20  H    6.190482   5.922394   4.705787   4.921019   6.847900
    21  H    5.281568   5.170537   4.110736   4.447277   6.136641
    22  C    4.990514   5.165939   4.315679   4.980186   6.218411
    23  H    5.064838   5.172411   4.344648   5.007938   6.175067
    24  H    5.913383   6.201996   5.397722   6.062780   7.266573
    25  C    3.807204   4.318320   3.838380   4.734020   5.403358
    26  H    3.942097   4.644626   4.385750   5.364312   5.693520
    27  C    4.426150   5.121231   4.776804   5.640224   6.184491
    28  C    4.640387   5.191329   4.801672   5.512015   6.188304
    29  H    4.280852   4.582938   4.071091   4.651599   5.531508
    30  C    5.761265   6.401430   6.115487   6.781293   7.338985
    31  Cl   6.388157   6.840622   6.558032   7.023226   7.635862
    32  C    6.517425   7.339748   7.157622   7.921608   8.298928
    33  Cl   8.035534   8.885648   8.748396   9.474702   9.800530
    34  C    6.310887   7.236190   7.086951   7.959609   8.243931
    35  H    7.211592   8.202738   8.098880   8.997060   9.203514
    36  C    5.370948   6.249191   6.041213   6.956714   7.295722
    37  H    5.687270   6.586495   6.390782   7.345410   7.633768
    38  H    6.030100   5.418119   4.113600   4.078104   6.156889
                   16         17         18         19         20
    16  H    0.000000
    17  H    2.553173   0.000000
    18  H    5.770419   5.331789   0.000000
    19  C    6.215186   4.852923   2.177181   0.000000
    20  H    7.260901   5.885096   2.690373   1.092002   0.000000
    21  H    6.306552   4.899158   2.399803   1.091751   1.760121
    22  C    5.964398   4.130360   3.533537   1.598483   2.158965
    23  H    6.020095   4.357813   3.829837   2.212107   2.563740
    24  H    6.832581   4.756930   4.472922   2.353468   2.559162
    25  C    4.677767   2.610670   3.943819   2.589925   3.492402
    26  H    4.665878   2.430561   4.858066   3.511252   4.304403
    27  C    5.151343   2.862386   4.728032   3.334086   4.191026
    28  C    5.360929   3.488520   4.509267   3.498736   4.371161
    29  H    5.088044   3.667117   3.662027   3.121498   4.051166
    30  C    6.333299   4.483704   5.754374   4.748687   5.495672
    31  Cl   6.909237   5.582819   6.074383   5.576659   6.288334
    32  C    6.981075   4.872659   6.920851   5.644106   6.323878
    33  Cl   8.403716   6.394905   8.435194   7.178663   7.771729
    34  C    6.768301   4.384154   7.016110   5.494076   6.157448
    35  H    7.596048   5.179906   8.046556   6.423855   7.011960
    36  C    5.932970   3.433035   6.068622   4.481258   5.191118
    37  H    6.227283   3.678963   6.499212   4.780019   5.396077
    38  H    7.097918   6.307501   2.389910   2.331134   2.027627
                   21         22         23         24         25
    21  H    0.000000
    22  C    2.202617   0.000000
    23  H    3.090972   1.091901   0.000000
    24  H    2.751965   1.091778   1.693953   0.000000
    25  C    2.803992   1.560774   2.093109   2.193690   0.000000
    26  H    3.854548   2.189961   2.299887   2.571032   1.091349
    27  C    3.056602   2.526911   3.357664   2.703345   1.483934
    28  C    2.811239   3.317731   4.292457   3.586304   2.521791
    29  H    2.345239   3.403423   4.340908   3.919941   2.758393
    30  C    3.924547   4.570300   5.581174   4.607745   3.839611
    31  Cl   4.584149   5.823641   6.856638   5.994131   5.184856
    32  C    4.944093   5.124760   6.069852   4.924801   4.351003
    33  Cl   6.405018   6.710347   7.666531   6.398188   6.014150
    34  C    5.037575   4.599442   5.400090   4.276835   3.779709
    35  H    6.015578   5.413037   6.135927   4.945223   4.667487
    36  C    4.248391   3.385414   4.083082   3.162302   2.486742
    37  H    4.774703   3.412615   3.865032   3.048347   2.666005
    38  H    3.253270   3.255257   3.012878   3.967816   4.357126
                   26         27         28         29         30
    26  H    0.000000
    27  C    2.033683   0.000000
    28  C    3.320817   1.407043   0.000000
    29  H    3.721668   2.173914   1.087249   0.000000
    30  C    4.489992   2.472266   1.433906   2.171308   0.000000
    31  Cl   5.966806   4.005531   2.674047   2.744926   1.738203
    32  C    4.726815   2.867455   2.453662   3.419180   1.389605
    33  Cl   6.341408   4.532728   4.039050   4.899269   2.730224
    34  C    3.869773   2.417410   2.756480   3.842121   2.381871
    35  H    4.587902   3.411424   3.840205   4.926135   3.337847
    36  C    2.479002   1.383424   2.395625   3.389297   2.800735
    37  H    2.253625   2.124654   3.372666   4.282407   3.880839
    38  H    4.988817   5.475284   5.757732   5.247316   7.054049
                   31         32         33         34         35
    31  Cl   0.000000
    32  C    2.767637   0.000000
    33  Cl   3.361647   1.672932   0.000000
    34  C    4.027076   1.406378   2.630094   0.000000
    35  H    4.871312   2.107277   2.670693   1.087094   0.000000
    36  C    4.525709   2.471926   3.963941   1.406000   2.184770
    37  H    5.608510   3.450979   4.799197   2.178644   2.545344
    38  H    7.760598   7.960447   9.507650   7.714420   8.599247
                   36         37         38
    36  C    0.000000
    37  H    1.086758   0.000000
    38  H    6.572317   6.651796   0.000000
 Stoichiometry    C17H18Cl2N(1+)
 Framework group  C1[X(C17H18Cl2N)]
 Deg. of freedom   108
 Full point group                 C1      NOp   1
 Largest Abelian subgroup         C1      NOp   1
 Largest concise Abelian subgroup C1      NOp   1
                         Standard orientation:                         
 ---------------------------------------------------------------------
 Center     Atomic      Atomic             Coordinates (Angstroms)
 Number     Number       Type             X           Y           Z
 ---------------------------------------------------------------------
      1          6           0       -5.291402   -1.088604    0.880168
      2          1           0       -5.502445   -0.102311    0.457748
      3          1           0       -5.343132   -1.017819    1.969554
      4          1           0       -6.100785   -1.730772    0.523405
      5          7           0       -3.989873   -1.616026    0.403324
      6          1           0       -4.008301   -1.610618   -0.596649
      7          6           0       -2.778330   -0.931327    0.824304
      8          6           0       -2.571605    0.387218    0.081788
      9          6           0       -1.548916    0.550674   -0.828104
     10          6           0       -1.307809    1.851453   -1.316488
     11          6           0       -2.096048    2.942105   -0.933185
     12          6           0       -3.140181    2.737609   -0.073102
     13          6           0       -3.316022    1.497091    0.514489
     14          1           0       -3.973100    1.453839    1.379460
     15          1           0       -3.802150    3.564939    0.168799
     16          1           0       -1.954023    3.934647   -1.354757
     17          1           0       -0.448048    1.967667   -1.972592
     18          1           0       -2.942714   -0.735518    1.887124
     19          6           0       -1.672504   -1.955911    0.607544
     20          1           0       -1.940818   -2.992883    0.820065
     21          1           0       -0.835131   -1.695227    1.257752
     22          6           0       -1.156305   -1.959051   -0.905293
     23          1           0       -2.009956   -2.081155   -1.575083
     24          1           0       -0.478922   -2.736196   -1.264708
     25          6           0       -0.614863   -0.546878   -1.290805
     26          1           0       -0.632297   -0.422280   -2.374878
     27          6           0        0.821169   -0.386598   -0.952898
     28          6           0        1.234241   -0.026649    0.343088
     29          1           0        0.504792    0.223824    1.109429
     30          6           0        2.626179    0.060680    0.676206
     31         17           0        2.951307    0.684057    2.265874
     32          6           0        3.601361   -0.156633   -0.289608
     33         17           0        5.253443   -0.177820   -0.027162
     34          6           0        3.153661   -0.500640   -1.577677
     35          1           0        3.941764   -0.765017   -2.278228
     36          6           0        1.792970   -0.632176   -1.906395
     37          1           0        1.479976   -1.035635   -2.865718
     38          1           0       -3.919914   -2.567538    0.703716
 ---------------------------------------------------------------------
 Rotational constants (GHZ):           0.5396974           0.1471803           0.1424371
 Leave Link  202 at Mon Jul 12 11:17:05 2021, MaxMem=   104857600 cpu:               0.1 elap:               0.3
 (Enter /dades/curu/g16A03_MST/g16/l301.exe)
 Standard basis: 6-31G(d) (6D, 7F)
 Ernie: Thresh=  0.10000D-02 Tol=  0.10000D-05 Strict=F.
 There are   344 symmetry adapted cartesian basis functions of A   symmetry.
 There are   344 symmetry adapted basis functions of A   symmetry.
   344 basis functions,   680 primitive gaussians,   344 cartesian basis functions
    80 alpha electrons       80 beta electrons
       nuclear repulsion energy      1767.2717838527 Hartrees.
 IExCor=  402 DFT=T Ex+Corr=B3LYP ExCW=0 ScaHFX=  0.200000
 ScaDFX=  0.800000  0.720000  1.000000  0.810000 ScalE2=  1.000000  1.000000
 IRadAn=      5 IRanWt=     -1 IRanGd=            0 ICorTp=0 IEmpDi=  4
 NAtoms=   38 NActive=   38 NUniq=   38 SFac= 1.00D+00 NAtFMM=   60 NAOKFM=F Big=F
 Integral buffers will be    131072 words long.
 Raffenetti 2 integral format.
 Two-electron integral symmetry is turned on.
 Using the following non-standard input for PCM:
 MSTModel=DFT cav MSTCharged
 --- end of non-standard input.
 MST model for solvation energy: B3LYP parametrization.
 MST cavity parameters:
 ISph   IAn     Re0     Alpha   Atom Type   QCorr
 ------------------------------------------------
   1      6     1.50     1.50      CN+        F
   2      1     1.20     1.50      CN+        F
   3      1     1.20     1.50      CN+        F
   4      1     1.20     1.50      CN+        F
   5      7     1.50     1.15      NH+        T
   6      1     0.90     1.15      NH+        T
   7      6     1.50     1.50      CN+        F
   8      6     1.50     1.50      C          F
   9      6     1.50     1.50      C          F
  10      6     1.50     1.50      CH         F
  11      6     1.50     1.50      CH         F
  12      6     1.50     1.50      CH         F
  13      6     1.50     1.50      CH         F
  14      1     1.20     1.50      CH         F
  15      1     1.20     1.50      CH         F
  16      1     1.20     1.50      CH         F
  17      1     1.20     1.50      CH         F
  18      1     1.20     1.50      CN+        F
  19      6     1.50     1.50      CH2        F
  20      1     1.20     1.50      CH2        F
  21      1     1.20     1.50      CH2        F
  22      6     1.50     1.50      CH2        F
  23      1     1.20     1.50      CH2        F
  24      1     1.20     1.50      CH2        F
  25      6     1.50     1.50      CH         F
  26      1     1.20     1.50      CH         F
  27      6     1.50     1.50      C          F
  28      6     1.50     1.50      CH         F
  29      1     1.20     1.50      CH         F
  30      6     1.50     1.50      C          F
  31     17     1.80     1.50      Cl         F
  32      6     1.50     1.50      C          F
  33     17     1.80     1.50      Cl         F
  34      6     1.50     1.50      CH         F
  35      1     1.20     1.50      CH         F
  36      6     1.50     1.50      CH         F
  37      1     1.20     1.50      CH         F
  38      1     0.90     1.15      NH+        T
 ------------------------------------------------------------------------------
 Polarizable Continuum Model (PCM)
 =================================
 Model                : PCM.
 Atomic radii         : MST.
 Polarization charges : Total charges.
 Charge compensation  : None.
 Solution method      : On-the-fly selection.
 Cavity type          : Scaled VdW (van der Waals Surface) (Alpha=1.500).
 Cavity algorithm     : GePol (No added spheres)
                        Default sphere list used, NSphG=   38.
                        Lebedev-Laikov grids with approx.  5.0 points / Ang**2.
                        Smoothing algorithm: York/Karplus (Gamma=1.0000).
                        Polarization charges: spherical gaussians, with
                                              point-specific exponents (IZeta= 3).
                        Self-potential: point-specific (ISelfS= 7).
                        Self-field    : sphere-specific E.n sum rule (ISelfD= 2).
 1st derivatives      : Analytical E(r).r(x)/FMM algorithm (CHGder, D1EAlg=3).
                        Cavity 1st derivative terms included.
 Solvent              : n-Octanol, Eps=   9.862900 Eps(inf)=   2.043470
 ------------------------------------------------------------------------------
 GePol: Number of generator spheres                  =      38
 GePol: Total number of spheres                      =      38
 GePol: Number of exposed spheres                    =      38 (100.00%)
 GePol: Number of points                             =    3676
 GePol: Average weight of points                     =       0.11
 GePol: Minimum weight of points                     =   0.11D-10
 GePol: Maximum weight of points                     =    0.21373
 GePol: Number of points with low weight             =     191
 GePol: Fraction of low-weight points (<1% of avg)   =       5.20%
 GePol: Cavity surface area                          =    407.481 Ang**2
 GePol: Cavity volume                                =    500.345 Ang**3
 Surface areas from nonelectrostatic (unscaled) cavity and vdw tensions:
 Sphere =    1 Type =  CN+ Surf =        5.240 Tension =       -0.227
 Sphere =    2 Type =  CN+ Surf =        9.807 Tension =       -0.227
 Sphere =    3 Type =  CN+ Surf =       10.122 Tension =       -0.227
 Sphere =    4 Type =  CN+ Surf =       10.088 Tension =       -0.227
 Sphere =    5 Type =  NH+ Surf =        7.332 Tension =       -0.274
 Sphere =    6 Type =  NH+ Surf =        3.842 Tension =       -0.274
 Sphere =    7 Type =  CN+ Surf =        2.712 Tension =       -0.227
 Sphere =    8 Type =  C   Surf =        6.027 Tension =       -0.205
 Sphere =    9 Type =  C   Surf =        5.918 Tension =       -0.205
 Sphere =   10 Type =  CH  Surf =        7.648 Tension =       -0.195
 Sphere =   11 Type =  CH  Surf =        7.757 Tension =       -0.195
 Sphere =   12 Type =  CH  Surf =        7.624 Tension =       -0.195
 Sphere =   13 Type =  CH  Surf =        7.558 Tension =       -0.195
 Sphere =   14 Type =  CH  Surf =       10.041 Tension =       -0.195
 Sphere =   15 Type =  CH  Surf =       10.223 Tension =       -0.195
 Sphere =   16 Type =  CH  Surf =       10.241 Tension =       -0.195
 Sphere =   17 Type =  CH  Surf =       10.118 Tension =       -0.195
 Sphere =   18 Type =  CN+ Surf =        9.616 Tension =       -0.227
 Sphere =   19 Type =  CH2 Surf =        3.698 Tension =       -0.194
 Sphere =   20 Type =  CH2 Surf =        9.747 Tension =       -0.194
 Sphere =   21 Type =  CH2 Surf =        9.717 Tension =       -0.194
 Sphere =   22 Type =  CH2 Surf =        4.067 Tension =       -0.194
 Sphere =   23 Type =  CH2 Surf =        9.796 Tension =       -0.194
 Sphere =   24 Type =  CH2 Surf =       10.102 Tension =       -0.194
 Sphere =   25 Type =  CH  Surf =        2.537 Tension =       -0.195
 Sphere =   26 Type =  CH  Surf =        8.992 Tension =       -0.195
 Sphere =   27 Type =  C   Surf =        5.892 Tension =       -0.205
 Sphere =   28 Type =  CH  Surf =        7.524 Tension =       -0.195
 Sphere =   29 Type =  CH  Surf =        9.654 Tension =       -0.195
 Sphere =   30 Type =  C   Surf =        5.367 Tension =       -0.205
 Sphere =   31 Type =  Cl  Surf =       31.613 Tension =       -0.163
 Sphere =   32 Type =  C   Surf =        5.059 Tension =       -0.205
 Sphere =   33 Type =  Cl  Surf =       31.261 Tension =       -0.163
 Sphere =   34 Type =  CH  Surf =        7.504 Tension =       -0.195
 Sphere =   35 Type =  CH  Surf =        9.683 Tension =       -0.195
 Sphere =   36 Type =  CH  Surf =        7.598 Tension =       -0.195
 Sphere =   37 Type =  CH  Surf =        9.876 Tension =       -0.195
 Sphere =   38 Type =  NH+ Surf =        3.694 Tension =       -0.274
 PCM non-electrostatic energy =        -0.0203411162 Hartrees.
 Nuclear repulsion after PCM non-electrostatic terms =     1767.2514427365 Hartrees.
 Leave Link  301 at Mon Jul 12 11:17:06 2021, MaxMem=   104857600 cpu:               0.2 elap:               0.2
 (Enter /dades/curu/g16A03_MST/g16/l302.exe)
 NPDir=0 NMtPBC=     1 NCelOv=     1 NCel=       1 NClECP=     1 NCelD=      1
         NCelK=      1 NCelE2=     1 NClLst=     1 CellRange=     0.0.
 One-electron integrals computed using PRISM.
 One-electron integral symmetry used in STVInt
 NBasis=   344 RedAO= T EigKep=  4.16D-04  NBF=   344
 NBsUse=   344 1.00D-06 EigRej= -1.00D+00 NBFU=   344
 Precomputing XC quadrature grid using
 IXCGrd= 4 IRadAn=           5 IRanWt=          -1 IRanGd=           0 AccXCQ= 0.00D+00.
 Generated NRdTot=       0 NPtTot=           0 NUsed=           0 NTot=          32
 NSgBfM=   341   341   341   341   341 MxSgAt=    38 MxSgA2=    38.
 Leave Link  302 at Mon Jul 12 11:17:08 2021, MaxMem=   104857600 cpu:               5.9 elap:               1.7
 (Enter /dades/curu/g16A03_MST/g16/l303.exe)
 DipDrv:  MaxL=1.
 Leave Link  303 at Mon Jul 12 11:17:09 2021, MaxMem=   104857600 cpu:               0.1 elap:               0.1
 (Enter /dades/curu/g16A03_MST/g16/l401.exe)
 ExpMin= 1.43D-01 ExpMax= 2.52D+04 ExpMxC= 3.78D+03 IAcc=3 IRadAn=         5 AccDes= 0.00D+00
 Harris functional with IExCor=  402 and IRadAn=       5 diagonalized for initial guess.
 HarFok:  IExCor=  402 AccDes= 0.00D+00 IRadAn=         5 IDoV= 1 UseB2=F ITyADJ=14
 ICtDFT=  3500011 ScaDFX=  1.000000  1.000000  1.000000  1.000000
 FoFCou: FMM=F IPFlag=           0 FMFlag=      100000 FMFlg1=           0
         NFxFlg=           0 DoJE=T BraDBF=F KetDBF=T FulRan=T
         wScrn=  0.000000 ICntrl=       500 IOpCl=  0 I1Cent=   200000004 NGrid=           0
         NMat0=    1 NMatS0=      1 NMatT0=    0 NMatD0=    1 NMtDS0=    0 NMtDT0=    0
 Petite list used in FoFCou.
 Harris En= -1633.44157448079    
 JPrj=0 DoOrth=F DoCkMO=F.
 Leave Link  401 at Mon Jul 12 11:17:20 2021, MaxMem=   104857600 cpu:              40.9 elap:              10.6
 (Enter /dades/curu/g16A03_MST/g16/l502.exe)
 Integral symmetry usage will be decided dynamically.
 Closed shell SCF:
 Using DIIS extrapolation, IDIIS=  1040.
 NGot=   104857600 LenX=   104614988 LenY=   104496211
 Requested convergence on RMS density matrix=1.00D-08 within 128 cycles.
 Requested convergence on MAX density matrix=1.00D-06.
 Requested convergence on             energy=1.00D-06.
 No special actions if energy rises.
 Fock matrices will be formed incrementally for  20 cycles.

 Cycle   1  Pass 1  IDiag  1:
 FoFJK:  IHMeth= 1 ICntrl=       0 DoSepK=F KAlg= 0 I1Cent=           0 FoldK=F
 IRaf= 820000000 NMat=       1 IRICut=       1 DoRegI=T DoRafI=F ISym2E= 0 IDoP0=0 IntGTp=1.
 FoFCou: FMM=F IPFlag=           0 FMFlag=      100000 FMFlg1=           0
         NFxFlg=           0 DoJE=F BraDBF=F KetDBF=F FulRan=T
         wScrn=  0.000000 ICntrl=         0 IOpCl=  0 I1Cent=           0 NGrid=           0
         NMat0=    1 NMatS0=      1 NMatT0=    0 NMatD0=    1 NMtDS0=    0 NMtDT0=    0
 Symmetry not used in FoFCou.
 Inv3:  Mode=1 IEnd=    40538928.
 Iteration    1 A*A^-1 deviation from unit magnitude is 6.44D-15 for    910.
 Iteration    1 A*A^-1 deviation from orthogonality  is 2.82D-15 for   3645   3643.
 Iteration    1 A^-1*A deviation from unit magnitude is 6.88D-15 for    910.
 Iteration    1 A^-1*A deviation from orthogonality  is 2.72D-15 for   1970    417.
 E= -1633.20841406323    
 DIIS: error= 3.51D-02 at cycle   1 NSaved=   1.
 NSaved= 1 IEnMin= 1 EnMin= -1633.20841406323     IErMin= 1 ErrMin= 3.51D-02
 ErrMax= 3.51D-02  0.00D+00 EMaxC= 1.00D-01 BMatC= 4.01D-01 BMatP= 4.01D-01
 IDIUse=3 WtCom= 6.49D-01 WtEn= 3.51D-01
 Coeff-Com:  0.100D+01
 Coeff-En:   0.100D+01
 Coeff:      0.100D+01
 Gap=     0.352 Goal=   None    Shift=    0.000
 GapD=    0.352 DampG=1.000 DampE=0.500 DampFc=0.5000 IDamp=-1.
 Damping current iteration by 5.00D-01
 RMSDP=4.75D-03 MaxDP=1.26D-01              OVMax= 2.56D-01

 Cycle   2  Pass 1  IDiag  1:
 RMSU=  2.35D-03    CP:  9.84D-01
 E= -1633.39183687357     Delta-E=       -0.183422810340 Rises=F Damp=T
 DIIS: error= 1.10D-02 at cycle   2 NSaved=   2.
 NSaved= 2 IEnMin= 2 EnMin= -1633.39183687357     IErMin= 2 ErrMin= 1.10D-02
 ErrMax= 1.10D-02  0.00D+00 EMaxC= 1.00D-01 BMatC= 3.18D-02 BMatP= 4.01D-01
 IDIUse=3 WtCom= 8.90D-01 WtEn= 1.10D-01
 Coeff-Com:  0.532D-01 0.947D+00
 Coeff-En:   0.136D+00 0.864D+00
 Coeff:      0.624D-01 0.938D+00
 Gap=     0.286 Goal=   None    Shift=    0.000
 RMSDP=1.56D-03 MaxDP=5.17D-02 DE=-1.83D-01 OVMax= 2.04D-01

 Cycle   3  Pass 1  IDiag  1:
 RMSU=  1.47D-03    CP:  9.73D-01  7.94D-01
 E= -1633.61316392820     Delta-E=       -0.221327054634 Rises=F Damp=F
 DIIS: error= 7.35D-03 at cycle   3 NSaved=   3.
 NSaved= 3 IEnMin= 3 EnMin= -1633.61316392820     IErMin= 3 ErrMin= 7.35D-03
 ErrMax= 7.35D-03  0.00D+00 EMaxC= 1.00D-01 BMatC= 2.21D-02 BMatP= 3.18D-02
 IDIUse=3 WtCom= 9.27D-01 WtEn= 7.35D-02
 Coeff-Com: -0.296D-01 0.451D+00 0.578D+00
 Coeff-En:   0.000D+00 0.000D+00 0.100D+01
 Coeff:     -0.274D-01 0.418D+00 0.609D+00
 Gap=     0.216 Goal=   None    Shift=    0.000
 RMSDP=8.39D-04 MaxDP=3.42D-02 DE=-2.21D-01 OVMax= 8.76D-02

 Cycle   4  Pass 1  IDiag  1:
 RMSU=  6.51D-04    CP:  9.75D-01  9.12D-01  6.95D-01
 E= -1633.62654768755     Delta-E=       -0.013383759348 Rises=F Damp=F
 DIIS: error= 4.91D-03 at cycle   4 NSaved=   4.
 NSaved= 4 IEnMin= 4 EnMin= -1633.62654768755     IErMin= 4 ErrMin= 4.91D-03
 ErrMax= 4.91D-03  0.00D+00 EMaxC= 1.00D-01 BMatC= 1.05D-02 BMatP= 2.21D-02
 IDIUse=3 WtCom= 9.51D-01 WtEn= 4.91D-02
 Coeff-Com: -0.265D-01 0.125D+00 0.417D+00 0.485D+00
 Coeff-En:   0.000D+00 0.000D+00 0.344D+00 0.656D+00
 Coeff:     -0.252D-01 0.119D+00 0.413D+00 0.493D+00
 Gap=     0.210 Goal=   None    Shift=    0.000
 RMSDP=4.02D-04 MaxDP=1.57D-02 DE=-1.34D-02 OVMax= 3.45D-02

 Cycle   5  Pass 1  IDiag  1:
 RMSU=  1.69D-04    CP:  9.75D-01  8.94D-01  7.94D-01  4.90D-01
 E= -1633.63749429168     Delta-E=       -0.010946604126 Rises=F Damp=F
 DIIS: error= 6.10D-04 at cycle   5 NSaved=   5.
 NSaved= 5 IEnMin= 5 EnMin= -1633.63749429168     IErMin= 5 ErrMin= 6.10D-04
 ErrMax= 6.10D-04  0.00D+00 EMaxC= 1.00D-01 BMatC= 3.59D-04 BMatP= 1.05D-02
 IDIUse=3 WtCom= 9.94D-01 WtEn= 6.10D-03
 Coeff-Com: -0.946D-02 0.247D-01 0.159D+00 0.247D+00 0.579D+00
 Coeff-En:   0.000D+00 0.000D+00 0.000D+00 0.000D+00 0.100D+01
 Coeff:     -0.940D-02 0.246D-01 0.158D+00 0.245D+00 0.582D+00
 Gap=     0.211 Goal=   None    Shift=    0.000
 RMSDP=8.80D-05 MaxDP=3.71D-03 DE=-1.09D-02 OVMax= 4.88D-03

 Cycle   6  Pass 1  IDiag  1:
 RMSU=  5.61D-05    CP:  9.75D-01  8.91D-01  7.95D-01  5.48D-01  6.70D-01
 E= -1633.63783999064     Delta-E=       -0.000345698968 Rises=F Damp=F
 DIIS: error= 1.78D-04 at cycle   6 NSaved=   6.
 NSaved= 6 IEnMin= 6 EnMin= -1633.63783999064     IErMin= 6 ErrMin= 1.78D-04
 ErrMax= 1.78D-04  0.00D+00 EMaxC= 1.00D-01 BMatC= 3.43D-05 BMatP= 3.59D-04
 IDIUse=3 WtCom= 9.98D-01 WtEn= 1.78D-03
 Coeff-Com: -0.266D-02 0.321D-02 0.483D-01 0.859D-01 0.306D+00 0.559D+00
 Coeff-En:   0.000D+00 0.000D+00 0.000D+00 0.000D+00 0.148D-01 0.985D+00
 Coeff:     -0.265D-02 0.320D-02 0.482D-01 0.858D-01 0.306D+00 0.560D+00
 Gap=     0.210 Goal=   None    Shift=    0.000
 RMSDP=2.70D-05 MaxDP=6.94D-04 DE=-3.46D-04 OVMax= 2.39D-03

 Cycle   7  Pass 1  IDiag  1:
 RMSU=  1.36D-05    CP:  9.74D-01  8.91D-01  8.00D-01  5.50D-01  6.98D-01
                    CP:  6.17D-01
 E= -1633.63787411381     Delta-E=       -0.000034123167 Rises=F Damp=F
 DIIS: error= 6.84D-05 at cycle   7 NSaved=   7.
 NSaved= 7 IEnMin= 7 EnMin= -1633.63787411381     IErMin= 7 ErrMin= 6.84D-05
 ErrMax= 6.84D-05  0.00D+00 EMaxC= 1.00D-01 BMatC= 3.56D-06 BMatP= 3.43D-05
 IDIUse=1 WtCom= 1.00D+00 WtEn= 0.00D+00
 Coeff-Com: -0.834D-03-0.513D-04 0.168D-01 0.317D-01 0.133D+00 0.317D+00
 Coeff-Com:  0.502D+00
 Coeff:     -0.834D-03-0.513D-04 0.168D-01 0.317D-01 0.133D+00 0.317D+00
 Coeff:      0.502D+00
 Gap=     0.210 Goal=   None    Shift=    0.000
 RMSDP=8.00D-06 MaxDP=2.33D-04 DE=-3.41D-05 OVMax= 9.10D-04

 Cycle   8  Pass 1  IDiag  1:
 RMSU=  4.96D-06    CP:  9.74D-01  8.91D-01  7.99D-01  5.50D-01  7.09D-01
                    CP:  6.72D-01  6.36D-01
 E= -1633.63787770299     Delta-E=       -0.000003589175 Rises=F Damp=F
 DIIS: error= 1.96D-05 at cycle   8 NSaved=   8.
 NSaved= 8 IEnMin= 8 EnMin= -1633.63787770299     IErMin= 8 ErrMin= 1.96D-05
 ErrMax= 1.96D-05  0.00D+00 EMaxC= 1.00D-01 BMatC= 3.43D-07 BMatP= 3.56D-06
 IDIUse=1 WtCom= 1.00D+00 WtEn= 0.00D+00
 Coeff-Com:  0.136D-03-0.666D-03-0.982D-03-0.140D-02 0.641D-02 0.521D-01
 Coeff-Com:  0.257D+00 0.687D+00
 Coeff:      0.136D-03-0.666D-03-0.982D-03-0.140D-02 0.641D-02 0.521D-01
 Coeff:      0.257D+00 0.687D+00
 Gap=     0.210 Goal=   None    Shift=    0.000
 RMSDP=2.45D-06 MaxDP=7.09D-05 DE=-3.59D-06 OVMax= 2.56D-04

 Cycle   9  Pass 1  IDiag  1:
 RMSU=  1.52D-06    CP:  9.74D-01  8.91D-01  8.00D-01  5.50D-01  7.10D-01
                    CP:  6.74D-01  7.28D-01  7.60D-01
 E= -1633.63787809042     Delta-E=       -0.000000387430 Rises=F Damp=F
 DIIS: error= 5.34D-06 at cycle   9 NSaved=   9.
 NSaved= 9 IEnMin= 9 EnMin= -1633.63787809042     IErMin= 9 ErrMin= 5.34D-06
 ErrMax= 5.34D-06  0.00D+00 EMaxC= 1.00D-01 BMatC= 2.06D-08 BMatP= 3.43D-07
 IDIUse=1 WtCom= 1.00D+00 WtEn= 0.00D+00
 Coeff-Com:  0.115D-03-0.306D-03-0.137D-02-0.249D-02-0.458D-02 0.654D-02
 Coeff-Com:  0.842D-01 0.310D+00 0.608D+00
 Coeff:      0.115D-03-0.306D-03-0.137D-02-0.249D-02-0.458D-02 0.654D-02
 Coeff:      0.842D-01 0.310D+00 0.608D+00
 Gap=     0.210 Goal=   None    Shift=    0.000
 RMSDP=6.22D-07 MaxDP=3.27D-05 DE=-3.87D-07 OVMax= 8.01D-05

 Cycle  10  Pass 1  IDiag  1:
 RMSU=  4.52D-07    CP:  9.74D-01  8.91D-01  8.00D-01  5.50D-01  7.10D-01
                    CP:  6.78D-01  7.35D-01  8.11D-01  8.39D-01
 E= -1633.63787811104     Delta-E=       -0.000000020625 Rises=F Damp=F
 DIIS: error= 1.76D-06 at cycle  10 NSaved=  10.
 NSaved=10 IEnMin=10 EnMin= -1633.63787811104     IErMin=10 ErrMin= 1.76D-06
 ErrMax= 1.76D-06  0.00D+00 EMaxC= 1.00D-01 BMatC= 3.20D-09 BMatP= 2.06D-08
 IDIUse=1 WtCom= 1.00D+00 WtEn= 0.00D+00
 Coeff-Com:  0.418D-04-0.749D-04-0.564D-03-0.110D-02-0.301D-02-0.249D-02
 Coeff-Com:  0.107D-01 0.765D-01 0.319D+00 0.601D+00
 Coeff:      0.418D-04-0.749D-04-0.564D-03-0.110D-02-0.301D-02-0.249D-02
 Coeff:      0.107D-01 0.765D-01 0.319D+00 0.601D+00
 Gap=     0.210 Goal=   None    Shift=    0.000
 RMSDP=2.42D-07 MaxDP=1.15D-05 DE=-2.06D-08 OVMax= 3.71D-05

 Cycle  11  Pass 1  IDiag  1:
 RMSU=  1.53D-07    CP:  9.74D-01  8.91D-01  8.00D-01  5.50D-01  7.10D-01
                    CP:  6.78D-01  7.40D-01  8.23D-01  8.86D-01  6.79D-01
 E= -1633.63787811459     Delta-E=       -0.000000003551 Rises=F Damp=F
 DIIS: error= 8.29D-07 at cycle  11 NSaved=  11.
 NSaved=11 IEnMin=11 EnMin= -1633.63787811459     IErMin=11 ErrMin= 8.29D-07
 ErrMax= 8.29D-07  0.00D+00 EMaxC= 1.00D-01 BMatC= 3.00D-10 BMatP= 3.20D-09
 IDIUse=1 WtCom= 1.00D+00 WtEn= 0.00D+00
 Coeff-Com:  0.645D-05 0.604D-06-0.113D-03-0.247D-03-0.896D-03-0.201D-02
 Coeff-Com: -0.539D-02-0.569D-03 0.831D-01 0.289D+00 0.637D+00
 Coeff:      0.645D-05 0.604D-06-0.113D-03-0.247D-03-0.896D-03-0.201D-02
 Coeff:     -0.539D-02-0.569D-03 0.831D-01 0.289D+00 0.637D+00
 Gap=     0.210 Goal=   None    Shift=    0.000
 RMSDP=8.64D-08 MaxDP=3.70D-06 DE=-3.55D-09 OVMax= 1.32D-05

 Cycle  12  Pass 1  IDiag  1:
 RMSU=  5.59D-08    CP:  9.74D-01  8.91D-01  8.00D-01  5.50D-01  7.10D-01
                    CP:  6.78D-01  7.40D-01  8.27D-01  9.03D-01  7.76D-01
                    CP:  7.71D-01
 E= -1633.63787811492     Delta-E=       -0.000000000328 Rises=F Damp=F
 DIIS: error= 3.26D-07 at cycle  12 NSaved=  12.
 NSaved=12 IEnMin=12 EnMin= -1633.63787811492     IErMin=12 ErrMin= 3.26D-07
 ErrMax= 3.26D-07  0.00D+00 EMaxC= 1.00D-01 BMatC= 6.19D-11 BMatP= 3.00D-10
 IDIUse=1 WtCom= 1.00D+00 WtEn= 0.00D+00
 Coeff-Com: -0.260D-05 0.116D-04 0.201D-04 0.235D-04-0.471D-04-0.807D-03
 Coeff-Com: -0.491D-02-0.123D-01 0.883D-03 0.818D-01 0.368D+00 0.567D+00
 Coeff:     -0.260D-05 0.116D-04 0.201D-04 0.235D-04-0.471D-04-0.807D-03
 Coeff:     -0.491D-02-0.123D-01 0.883D-03 0.818D-01 0.368D+00 0.567D+00
 Gap=     0.210 Goal=   None    Shift=    0.000
 RMSDP=3.38D-08 MaxDP=1.59D-06 DE=-3.28D-10 OVMax= 4.67D-06

 Cycle  13  Pass 1  IDiag  1:
 RMSU=  1.97D-08    CP:  9.74D-01  8.91D-01  8.00D-01  5.50D-01  7.10D-01
                    CP:  6.78D-01  7.40D-01  8.27D-01  9.12D-01  7.78D-01
                    CP:  8.52D-01  6.71D-01
 E= -1633.63787811497     Delta-E=       -0.000000000048 Rises=F Damp=F
 DIIS: error= 7.15D-08 at cycle  13 NSaved=  13.
 NSaved=13 IEnMin=13 EnMin= -1633.63787811497     IErMin=13 ErrMin= 7.15D-08
 ErrMax= 7.15D-08  0.00D+00 EMaxC= 1.00D-01 BMatC= 3.89D-12 BMatP= 6.19D-11
 IDIUse=1 WtCom= 1.00D+00 WtEn= 0.00D+00
 Coeff-Com: -0.170D-05 0.500D-05 0.189D-04 0.334D-04 0.655D-04-0.180D-03
 Coeff-Com: -0.165D-02-0.547D-02-0.783D-02 0.750D-02 0.973D-01 0.260D+00
 Coeff-Com:  0.650D+00
 Coeff:     -0.170D-05 0.500D-05 0.189D-04 0.334D-04 0.655D-04-0.180D-03
 Coeff:     -0.165D-02-0.547D-02-0.783D-02 0.750D-02 0.973D-01 0.260D+00
 Coeff:      0.650D+00
 Gap=     0.210 Goal=   None    Shift=    0.000
 RMSDP=9.24D-09 MaxDP=3.06D-07 DE=-4.82D-11 OVMax= 1.12D-06

 Error on total polarization charges =  0.00728
 SCF Done:  E(RB3LYP) =  -1633.63787811     A.U. after   13 cycles
            NFock= 13  Conv=0.92D-08     -V/T= 2.0058
 KE= 1.624183838945D+03 PE=-7.352342991881D+03 EE= 2.327269832085D+03
 Leave Link  502 at Mon Jul 12 11:22:51 2021, MaxMem=   104857600 cpu:            1282.8 elap:             330.6
 (Enter /dades/curu/g16A03_MST/g16/l601.exe)
 Copying SCF densities to generalized density rwf, IOpCl= 0 IROHF=0.

 **********************************************************************

            Population analysis using the SCF density.

 **********************************************************************

 Orbital symmetries:
       Occupied  (A) (A) (A) (A) (A) (A) (A) (A) (A) (A) (A) (A)
                 (A) (A) (A) (A) (A) (A) (A) (A) (A) (A) (A) (A)
                 (A) (A) (A) (A) (A) (A) (A) (A) (A) (A) (A) (A)
                 (A) (A) (A) (A) (A) (A) (A) (A) (A) (A) (A) (A)
                 (A) (A) (A) (A) (A) (A) (A) (A) (A) (A) (A) (A)
                 (A) (A) (A) (A) (A) (A) (A) (A) (A) (A) (A) (A)
                 (A) (A) (A) (A) (A) (A) (A) (A)
       Virtual   (A) (A) (A) (A) (A) (A) (A) (A) (A) (A) (A) (A)
                 (A) (A) (A) (A) (A) (A) (A) (A) (A) (A) (A) (A)
                 (A) (A) (A) (A) (A) (A) (A) (A) (A) (A) (A) (A)
                 (A) (A) (A) (A) (A) (A) (A) (A) (A) (A) (A) (A)
                 (A) (A) (A) (A) (A) (A) (A) (A) (A) (A) (A) (A)
                 (A) (A) (A) (A) (A) (A) (A) (A) (A) (A) (A) (A)
                 (A) (A) (A) (A) (A) (A) (A) (A) (A) (A) (A) (A)
                 (A) (A) (A) (A) (A) (A) (A) (A) (A) (A) (A) (A)
                 (A) (A) (A) (A) (A) (A) (A) (A) (A) (A) (A) (A)
                 (A) (A) (A) (A) (A) (A) (A) (A) (A) (A) (A) (A)
                 (A) (A) (A) (A) (A) (A) (A) (A) (A) (A) (A) (A)
                 (A) (A) (A) (A) (A) (A) (A) (A) (A) (A) (A) (A)
                 (A) (A) (A) (A) (A) (A) (A) (A) (A) (A) (A) (A)
                 (A) (A) (A) (A) (A) (A) (A) (A) (A) (A) (A) (A)
                 (A) (A) (A) (A) (A) (A) (A) (A) (A) (A) (A) (A)
                 (A) (A) (A) (A) (A) (A) (A) (A) (A) (A) (A) (A)
                 (A) (A) (A) (A) (A) (A) (A) (A) (A) (A) (A) (A)
                 (A) (A) (A) (A) (A) (A) (A) (A) (A) (A) (A) (A)
                 (A) (A) (A) (A) (A) (A) (A) (A) (A) (A) (A) (A)
                 (A) (A) (A) (A) (A) (A) (A) (A) (A) (A) (A) (A)
                 (A) (A) (A) (A) (A) (A) (A) (A) (A) (A) (A) (A)
                 (A) (A) (A) (A) (A) (A) (A) (A) (A) (A) (A) (A)
 The electronic state is 1-A.
 Alpha  occ. eigenvalues -- -101.57167-101.56675 -14.48150 -10.28515 -10.27751
 Alpha  occ. eigenvalues --  -10.27258 -10.27024 -10.23142 -10.23134 -10.22664
 Alpha  occ. eigenvalues --  -10.22411 -10.22399 -10.22290 -10.22260 -10.22194
 Alpha  occ. eigenvalues --  -10.21812 -10.21621 -10.21299 -10.21219 -10.20880
 Alpha  occ. eigenvalues --   -9.48914  -9.48322  -7.25313  -7.24726  -7.24335
 Alpha  occ. eigenvalues --   -7.24279  -7.23751  -7.23703  -1.06020  -0.93543
 Alpha  occ. eigenvalues --   -0.90274  -0.88344  -0.86472  -0.84237  -0.81272
 Alpha  occ. eigenvalues --   -0.77836  -0.76499  -0.75481  -0.75051  -0.72975
 Alpha  occ. eigenvalues --   -0.68528  -0.66190  -0.64403  -0.63697  -0.62491
 Alpha  occ. eigenvalues --   -0.61011  -0.58089  -0.55600  -0.54562  -0.52734
 Alpha  occ. eigenvalues --   -0.52017  -0.51075  -0.49944  -0.48973  -0.47462
 Alpha  occ. eigenvalues --   -0.47055  -0.45756  -0.44878  -0.44720  -0.44418
 Alpha  occ. eigenvalues --   -0.43948  -0.43193  -0.42857  -0.42638  -0.41097
 Alpha  occ. eigenvalues --   -0.40734  -0.38977  -0.38672  -0.37856  -0.36638
 Alpha  occ. eigenvalues --   -0.36287  -0.35527  -0.35351  -0.33502  -0.33352
 Alpha  occ. eigenvalues --   -0.32523  -0.28177  -0.27204  -0.26137  -0.25429
 Alpha virt. eigenvalues --   -0.04386  -0.03947  -0.03399  -0.02608   0.00885
 Alpha virt. eigenvalues --    0.03346   0.05981   0.06137   0.07520   0.07974
 Alpha virt. eigenvalues --    0.08307   0.09772   0.10045   0.10851   0.11003
 Alpha virt. eigenvalues --    0.11840   0.12494   0.12854   0.13441   0.14115
 Alpha virt. eigenvalues --    0.14383   0.15727   0.16356   0.16587   0.17197
 Alpha virt. eigenvalues --    0.17755   0.18457   0.18884   0.20422   0.21347
 Alpha virt. eigenvalues --    0.21764   0.22580   0.23922   0.25601   0.25717
 Alpha virt. eigenvalues --    0.27182   0.28405   0.30033   0.31209   0.31582
 Alpha virt. eigenvalues --    0.33246   0.35048   0.35538   0.36754   0.39735
 Alpha virt. eigenvalues --    0.40403   0.41021   0.43278   0.43617   0.44507
 Alpha virt. eigenvalues --    0.44837   0.46070   0.47129   0.47721   0.48758
 Alpha virt. eigenvalues --    0.49577   0.49865   0.50335   0.51152   0.51437
 Alpha virt. eigenvalues --    0.52312   0.52652   0.53743   0.54931   0.55361
 Alpha virt. eigenvalues --    0.56442   0.57346   0.58093   0.58170   0.58637
 Alpha virt. eigenvalues --    0.58974   0.59717   0.60286   0.60957   0.61686
 Alpha virt. eigenvalues --    0.62160   0.62378   0.63040   0.64422   0.64895
 Alpha virt. eigenvalues --    0.66430   0.68685   0.70204   0.70899   0.71611
 Alpha virt. eigenvalues --    0.72400   0.74084   0.75367   0.76429   0.76820
 Alpha virt. eigenvalues --    0.78144   0.78917   0.79351   0.80625   0.81285
 Alpha virt. eigenvalues --    0.82320   0.82431   0.82615   0.82753   0.83395
 Alpha virt. eigenvalues --    0.83810   0.84107   0.84484   0.84837   0.85237
 Alpha virt. eigenvalues --    0.85584   0.86774   0.88005   0.88582   0.89233
 Alpha virt. eigenvalues --    0.89874   0.91383   0.91862   0.92381   0.93684
 Alpha virt. eigenvalues --    0.93916   0.94393   0.95099   0.96273   0.97493
 Alpha virt. eigenvalues --    0.97996   0.99739   1.00193   1.00452   1.02652
 Alpha virt. eigenvalues --    1.04167   1.04398   1.05818   1.06959   1.07437
 Alpha virt. eigenvalues --    1.11419   1.12929   1.13720   1.13906   1.15391
 Alpha virt. eigenvalues --    1.17928   1.18338   1.19281   1.21261   1.24112
 Alpha virt. eigenvalues --    1.25826   1.27652   1.29460   1.31413   1.33372
 Alpha virt. eigenvalues --    1.35221   1.35976   1.39009   1.40037   1.40756
 Alpha virt. eigenvalues --    1.42614   1.43553   1.45933   1.48332   1.49010
 Alpha virt. eigenvalues --    1.51319   1.52426   1.53356   1.54725   1.56497
 Alpha virt. eigenvalues --    1.57719   1.60082   1.62420   1.65142   1.68590
 Alpha virt. eigenvalues --    1.71718   1.73629   1.75168   1.76661   1.78141
 Alpha virt. eigenvalues --    1.78705   1.79813   1.80588   1.81766   1.82742
 Alpha virt. eigenvalues --    1.84396   1.86591   1.88245   1.88778   1.90121
 Alpha virt. eigenvalues --    1.90466   1.92384   1.94269   1.95002   1.96735
 Alpha virt. eigenvalues --    1.98323   1.99043   2.01374   2.01590   2.03239
 Alpha virt. eigenvalues --    2.04972   2.06131   2.07781   2.09061   2.10315
 Alpha virt. eigenvalues --    2.10875   2.13411   2.14021   2.14957   2.15776
 Alpha virt. eigenvalues --    2.17139   2.20473   2.22033   2.23688   2.25003
 Alpha virt. eigenvalues --    2.25741   2.26034   2.28190   2.28612   2.29779
 Alpha virt. eigenvalues --    2.30346   2.32715   2.34700   2.37847   2.39823
 Alpha virt. eigenvalues --    2.41124   2.46745   2.49192   2.50780   2.52633
 Alpha virt. eigenvalues --    2.53820   2.55519   2.56983   2.60154   2.62030
 Alpha virt. eigenvalues --    2.62951   2.64584   2.65676   2.67578   2.67754
 Alpha virt. eigenvalues --    2.71710   2.73115   2.73867   2.76100   2.77148
 Alpha virt. eigenvalues --    2.79038   2.81745   2.83376   2.90456   2.94501
 Alpha virt. eigenvalues --    3.04897   3.12380   3.31248   3.39618   3.88770
 Alpha virt. eigenvalues --    4.00361   4.06688   4.08338   4.11102   4.12181
 Alpha virt. eigenvalues --    4.14756   4.17525   4.21023   4.23997   4.26366
 Alpha virt. eigenvalues --    4.32680   4.34458   4.37070   4.38275   4.46739
 Alpha virt. eigenvalues --    4.51413   4.58361   4.69331   4.74496
          Condensed to atoms (all electrons):
               1          2          3          4          5          6
     1  C    5.065136   0.373602   0.382978   0.374679   0.251113  -0.020349
     2  H    0.373602   0.472097  -0.024538  -0.024819  -0.029230  -0.002438
     3  H    0.382978  -0.024538   0.465413  -0.022100  -0.031083   0.002919
     4  H    0.374679  -0.024819  -0.022100   0.475214  -0.025849  -0.001323
     5  N    0.251113  -0.029230  -0.031083  -0.025849   6.807413   0.290405
     6  H   -0.020349  -0.002438   0.002919  -0.001323   0.290405   0.292402
     7  C   -0.039004  -0.003271  -0.001238   0.003776   0.189541  -0.019289
     8  C   -0.002598   0.004718  -0.000568  -0.000059  -0.054752   0.000475
     9  C    0.000129   0.000185  -0.000025   0.000003  -0.002579   0.001031
    10  C   -0.000003  -0.000007  -0.000000  -0.000000  -0.000147  -0.000064
    11  C    0.000002  -0.000021   0.000000   0.000000   0.000022  -0.000017
    12  C   -0.000156   0.000425   0.000000   0.000001  -0.000066  -0.000014
    13  C   -0.003007   0.005895   0.000066   0.000142  -0.000065   0.000562
    14  H   -0.000001   0.000702   0.000430   0.000098  -0.000545   0.000093
    15  H    0.000005  -0.000009  -0.000000  -0.000000   0.000001   0.000000
    16  H    0.000000  -0.000000  -0.000000  -0.000000   0.000000  -0.000000
    17  H    0.000000  -0.000000   0.000000   0.000000   0.000001   0.000002
    18  H   -0.002970  -0.000170   0.004879   0.000154  -0.055873   0.005241
    19  C    0.005683  -0.000027   0.000062  -0.000254  -0.057998  -0.003731
    20  H    0.000060  -0.000008   0.000026  -0.000020  -0.006103  -0.000309
    21  H   -0.000151   0.000005  -0.000011   0.000003   0.004713  -0.000002
    22  C   -0.000023  -0.000002  -0.000001   0.000008  -0.005509   0.004891
    23  H   -0.000042   0.000005  -0.000003   0.000005   0.001443   0.005345
    24  H    0.000002  -0.000000   0.000000  -0.000000   0.000012  -0.000114
    25  C   -0.000003  -0.000005  -0.000000  -0.000000   0.000609  -0.000325
    26  H   -0.000000   0.000000  -0.000000   0.000000   0.000028  -0.000060
    27  C    0.000000   0.000000  -0.000000  -0.000000  -0.000018   0.000018
    28  C    0.000000   0.000000  -0.000000   0.000000   0.000001  -0.000001
    29  H   -0.000000  -0.000000  -0.000000   0.000000   0.000013  -0.000001
    30  C   -0.000000  -0.000000  -0.000000   0.000000   0.000000   0.000000
    31  Cl  -0.000000   0.000000  -0.000000   0.000000  -0.000000  -0.000000
    32  C   -0.000000  -0.000000   0.000000  -0.000000  -0.000000  -0.000000
    33  Cl  -0.000000   0.000000  -0.000000   0.000000   0.000000   0.000000
    34  C    0.000000   0.000000  -0.000000   0.000000  -0.000000   0.000000
    35  H   -0.000000  -0.000000   0.000000   0.000000   0.000000  -0.000000
    36  C   -0.000000   0.000000  -0.000000   0.000000   0.000000  -0.000000
[...]
    24  H    0.121497   0.008481   0.139317  -0.010698   0.012118  -0.001970
    25  C   -0.678474  -0.433805  -3.992449  -0.077582  -1.782194   1.026385
    26  H   -0.116435   0.016344   0.140645   0.169902   0.065288   0.009889
    27  C   -0.171703  -1.416355  -1.362830   0.784510   0.082002  -0.274952
    28  C   -0.525565   1.618175  -2.736466  -0.124992  -0.566858   0.427272
    29  H   -0.053381  -0.047203  -0.264585   0.116011  -0.041664   0.058960
    30  C   -0.442344  -0.166430  -0.139448   0.482602  -0.050908   0.136587
    31  Cl  -0.000307   0.013055  -0.016563  -0.013794  -0.009311   0.000368
    32  C   -0.009670   0.159998   0.046430   0.000169  -0.090183   0.056312
    33  Cl   0.000029  -0.001794  -0.008474   0.003248   0.000059  -0.000019
    34  C   -0.035338  -0.081759  -0.052906  -0.018555   0.051117  -0.016050
    35  H   -0.001263   0.000828   0.003341  -0.001511  -0.000480   0.000203
    36  C    0.877580  -0.429324   2.155472  -0.800472   0.382751  -0.263570
    37  H    0.000375   0.011813  -0.058932  -0.014658   0.005044  -0.000716
    38  H    0.031067  -0.079663  -0.005056  -0.001094   0.005183  -0.007410
              13         14         15         16         17         18
     1  C    0.089144   0.013724   0.002029  -0.000823   0.000894  -0.043634
     2  H    0.023166   0.014286  -0.002081  -0.001081   0.000400  -0.016825
     3  H    0.123285  -0.018410  -0.000406   0.000181  -0.000015   0.013065
     4  H   -0.075841   0.003128   0.000028  -0.000094   0.000429   0.008736
     5  N    0.358289   0.017691  -0.001946   0.003053  -0.008752   0.163930
     6  H   -0.023832   0.004094   0.001452  -0.000002  -0.002313   0.003046
     7  C   -1.320080  -0.313944   0.075009  -0.041086   0.073346  -1.465747
     8  C   -4.211613   0.590443   0.412581  -0.359024   0.358566   0.681918
     9  C   -4.856101   0.412003  -0.283632   0.436273   0.658152   0.059402
    10  C   -2.032590   0.047557  -0.026630   0.266511  -1.083500   0.017800
    11  C    1.013430  -0.200182   0.323749  -0.822536   0.245180  -0.023501
    12  C   -0.895174   0.080098  -0.793313   0.390168  -0.195561   0.088853
    13  C   21.165780  -1.238159   0.217414  -0.049602   0.037211   0.164800
    14  H   -1.238159   2.313937  -0.095431  -0.006090  -0.003021   0.000487
    15  H    0.217414  -0.095431   1.756188  -0.059099  -0.005105  -0.000666
    16  H   -0.049602  -0.006090  -0.059099   1.709860  -0.087627  -0.000924
    17  H    0.037211  -0.003021  -0.005105  -0.087627   2.146306   0.001146
    18  H    0.164800   0.000487  -0.000666  -0.000924   0.001146   1.914412
    19  C   -0.264628   0.065798   0.003453   0.001802  -0.034545  -0.071344
    20  H    0.036687   0.004948   0.000149   0.000226  -0.001321   0.009649
    21  H   -0.033086   0.001013   0.001653  -0.000191  -0.000692  -0.113978
    22  C    0.156458  -0.004275  -0.001257   0.001755   0.086945   0.064855
    23  H   -0.006881   0.000508  -0.000351   0.000031   0.006429  -0.009322
    24  H   -0.001077  -0.000637  -0.000052   0.000481   0.000230   0.010840
    25  C   -2.080602   0.079113  -0.021845   0.090275  -0.394811  -0.027972
    26  H   -0.036684   0.003458  -0.001021   0.001567   0.000305  -0.001228
    27  C    0.379462  -0.036809   0.013674  -0.039978  -0.123561   0.014722
    28  C   -0.603590   0.001312  -0.000887   0.025110  -0.139332   0.004286
    29  H   -0.115836   0.002225  -0.008572   0.004674   0.010424   0.007983
    30  C   -0.158262   0.026641  -0.006703   0.012176  -0.057384   0.000058
    31  Cl   0.003223  -0.000362   0.000122  -0.000398   0.000020  -0.001929
    32  C   -0.087538  -0.000820   0.001006   0.001869  -0.028603   0.000729
    33  Cl  -0.000144  -0.000010  -0.000003  -0.000064   0.001137   0.000145
    34  C    0.013351   0.000540  -0.000367  -0.002448   0.061917  -0.003536
    35  H   -0.000787   0.000020  -0.000012  -0.000002  -0.001562   0.000062
    36  C    0.391902  -0.008723  -0.000130  -0.005590   0.223634  -0.001126
    37  H    0.000066  -0.000473   0.000137  -0.000308   0.004887  -0.001425
    38  H    0.040397  -0.001769   0.000018  -0.000109   0.000305  -0.029218
              19         20         21         22         23         24
     1  C   -0.018470  -0.003332   0.001710  -0.016152   0.005130  -0.000830
     2  H    0.060202   0.002452   0.000258   0.008901   0.001117   0.000141
     3  H    0.013472   0.003061   0.000516   0.008342   0.001525   0.000748
     4  H   -0.053941  -0.002318  -0.001680  -0.008877  -0.000710  -0.000711
     5  N    0.397231   0.007942  -0.023677  -0.119495  -0.008106   0.002827
     6  H    0.012312  -0.005769   0.001870  -0.000324  -0.008538   0.010600
     7  C   -1.787493  -0.575006   0.494259   0.077965   0.061688   0.121497
     8  C    0.002904   0.373085  -0.193440  -0.349165  -0.106371   0.008481
     9  C    0.288104   0.006150  -0.038953   0.364660   0.024128   0.139317
    10  C    0.032070  -0.019382  -0.002460  -0.155730   0.010034  -0.010698
    11  C   -0.076261  -0.005301   0.026840  -0.057917  -0.008802   0.012118
    12  C   -0.109538   0.014558  -0.036616  -0.089228  -0.004521  -0.001970
    13  C   -0.264628   0.036687  -0.033086   0.156458  -0.006881  -0.001077
    14  H    0.065798   0.004948   0.001013  -0.004275   0.000508  -0.000637
    15  H    0.003453   0.000149   0.001653  -0.001257  -0.000351  -0.000052
    16  H    0.001802   0.000226  -0.000191   0.001755   0.000031   0.000481
    17  H   -0.034545  -0.001321  -0.000692   0.086945   0.006429   0.000230
    18  H   -0.071344   0.009649  -0.113978   0.064855  -0.009322   0.010840
    19  C    6.928664   0.261780  -0.088674   0.201529  -0.350889   0.013703
    20  H    0.261780   1.674240  -0.416230  -0.228418  -0.066051  -0.058434
    21  H   -0.088674  -0.416230   1.538979  -0.079082   0.095987  -0.045603
    22  C    0.201529  -0.228418  -0.079082   7.054915  -0.065372  -0.011214
    23  H   -0.350889  -0.066051   0.095987  -0.065372   1.931867  -0.591767
    24  H    0.013703  -0.058434  -0.045603  -0.011214  -0.591767   1.917412
    25  C   -0.252118   0.130637  -0.034606  -1.746704   0.163565   0.006772
    26  H    0.139088   0.014471  -0.009386   0.131947  -0.196173   0.108630
    27  C    0.082199  -0.046599   0.104192   0.389015   0.541123  -0.548302
    28  C    0.348739   0.063735   0.002988  -1.359262  -0.129445   0.085979
    29  H   -0.006020   0.006739  -0.062990   0.011737  -0.007237   0.026187
    30  C    0.097403   0.027654  -0.001110   0.102032  -0.031642   0.040360
    31  Cl   0.002884   0.000406   0.001353  -0.002928  -0.000017  -0.001238
    32  C   -0.007806  -0.001028  -0.015312  -0.191438  -0.003014   0.005758
    33  Cl   0.000986   0.000169  -0.000792   0.008496   0.000465  -0.000791
    34  C    0.080538  -0.000730   0.018014   0.455183   0.051676  -0.062312
    35  H    0.001272   0.000135  -0.001479  -0.013806  -0.000680  -0.003150
    36  C   -0.650534  -0.051824  -0.011716   0.676290  -0.001639   0.020815
    37  H    0.030601   0.002754   0.008375  -0.010861   0.013083  -0.046267
    38  H   -0.030748  -0.013435   0.019311  -0.023295  -0.009194   0.004401
              25         26         27         28         29         30
     1  C    0.006029  -0.000118   0.020618  -0.006506   0.003795  -0.007736
     2  H   -0.026786  -0.001328  -0.000400  -0.004055   0.000860  -0.000515
     3  H   -0.003803   0.000844  -0.001142   0.002396   0.001046  -0.000968
     4  H    0.006722  -0.001213   0.002878  -0.000811  -0.000372  -0.000387
     5  N    0.092695   0.017743  -0.027755   0.051602   0.017794   0.015960
     6  H   -0.053532   0.002666  -0.033221   0.011797  -0.001929   0.004054
     7  C   -0.678474  -0.116435  -0.171703  -0.525565  -0.053381  -0.442344
     8  C   -0.433805   0.016344  -1.416355   1.618175  -0.047203  -0.166430
     9  C   -3.992449   0.140645  -1.362830  -2.736466  -0.264585  -0.139448
    10  C   -0.077582   0.169902   0.784510  -0.124992   0.116011   0.482602
    11  C   -1.782194   0.065288   0.082002  -0.566858  -0.041664  -0.050908
    12  C    1.026385   0.009889  -0.274952   0.427272   0.058960   0.136587
    13  C   -2.080602  -0.036684   0.379462  -0.603590  -0.115836  -0.158262
    14  H    0.079113   0.003458  -0.036809   0.001312   0.002225   0.026641
    15  H   -0.021845  -0.001021   0.013674  -0.000887  -0.008572  -0.006703
    16  H    0.090275   0.001567  -0.039978   0.025110   0.004674   0.012176
    17  H   -0.394811   0.000305  -0.123561  -0.139332   0.010424  -0.057384
    18  H   -0.027972  -0.001228   0.014722   0.004286   0.007983   0.000058
    19  C   -0.252118   0.139088   0.082199   0.348739  -0.006020   0.097403
    20  H    0.130637   0.014471  -0.046599   0.063735   0.006739   0.027654
    21  H   -0.034606  -0.009386   0.104192   0.002988  -0.062990  -0.001110
    22  C   -1.746704   0.131947   0.389015  -1.359262   0.011737   0.102032
    23  H    0.163565  -0.196173   0.541123  -0.129445  -0.007237  -0.031642
    24  H    0.006772   0.108630  -0.548302   0.085979   0.026187   0.040360
    25  C   21.126773  -1.149094  -2.826570   0.027095   0.174614   1.526334
    26  H   -1.149094   1.695202  -0.059418  -0.103074   0.013765  -0.045303
    27  C   -2.826570  -0.059418  34.679077 -12.493251   0.511764   3.883084
    28  C    0.027095  -0.103074 -12.493251  34.417474  -2.034119 -10.989683
    29  H    0.174614   0.013765   0.511764  -2.034119   3.008937   0.658042
    30  C    1.526334  -0.045303   3.883084 -10.989683   0.658042  20.124085
    31  Cl  -0.032131  -0.000434  -0.694491   0.517732  -0.110696  -0.560780
    32  C    0.312709   0.028171  -7.839197   2.811982  -0.055184  -4.054778
    33  Cl  -0.042988  -0.001135   0.328485   0.083822  -0.007675  -0.062441
    34  C   -0.785775   0.039892   5.413197  -5.384443   0.184287   1.360726
    35  H    0.053310   0.004027  -0.395607   0.228120   0.013844  -0.248971
    36  C   -2.421319   0.322335 -15.404057   1.004303  -0.339894  -5.326294
    37  H   -0.018956  -0.063994   1.600550  -0.033952  -0.031903   0.160781
    38  H   -0.029685  -0.000914  -0.003938  -0.002293   0.000856  -0.000211
              31         32         33         34         35         36
     1  C    0.000075  -0.000081   0.000003   0.001067   0.000029   0.003150
     2  H   -0.000012  -0.000225  -0.000001   0.000051  -0.000003   0.001665
     3  H    0.000052   0.000088  -0.000001   0.000091   0.000003   0.000588
     4  H   -0.000004  -0.000047   0.000001   0.000188   0.000004   0.000085
     5  N    0.000064   0.003802  -0.000003  -0.007285   0.000091  -0.051067
     6  H    0.000007   0.001257  -0.000026  -0.005202  -0.000103   0.001053
     7  C   -0.000307  -0.009670   0.000029  -0.035338  -0.001263   0.877580
     8  C    0.013055   0.159998  -0.001794  -0.081759   0.000828  -0.429324
     9  C   -0.016563   0.046430  -0.008474  -0.052906   0.003341   2.155472
    10  C   -0.013794   0.000169   0.003248  -0.018555  -0.001511  -0.800472
    11  C   -0.009311  -0.090183   0.000059   0.051117  -0.000480   0.382751
    12  C    0.000368   0.056312  -0.000019  -0.016050   0.000203  -0.263570
    13  C    0.003223  -0.087538  -0.000144   0.013351  -0.000787   0.391902
    14  H   -0.000362  -0.000820  -0.000010   0.000540   0.000020  -0.008723
    15  H    0.000122   0.001006  -0.000003  -0.000367  -0.000012  -0.000130
    16  H   -0.000398   0.001869  -0.000064  -0.002448  -0.000002  -0.005590
    17  H    0.000020  -0.028603   0.001137   0.061917  -0.001562   0.223634
    18  H   -0.001929   0.000729   0.000145  -0.003536   0.000062  -0.001126
    19  C    0.002884  -0.007806   0.000986   0.080538   0.001272  -0.650534
    20  H    0.000406  -0.001028   0.000169  -0.000730   0.000135  -0.051824
    21  H    0.001353  -0.015312  -0.000792   0.018014  -0.001479  -0.011716
    22  C   -0.002928  -0.191438   0.008496   0.455183  -0.013806   0.676290
    23  H   -0.000017  -0.003014   0.000465   0.051676  -0.000680  -0.001639
    24  H   -0.001238   0.005758  -0.000791  -0.062312  -0.003150   0.020815
    25  C   -0.032131   0.312709  -0.042988  -0.785775   0.053310  -2.421319
    26  H   -0.000434   0.028171  -0.001135   0.039892   0.004027   0.322335
    27  C   -0.694491  -7.839197   0.328485   5.413197  -0.395607 -15.404057
    28  C    0.517732   2.811982   0.083822  -5.384443   0.228120   1.004303
    29  H   -0.110696  -0.055184  -0.007675   0.184287   0.013844  -0.339894
    30  C   -0.560780  -4.054778  -0.062441   1.360726  -0.248971  -5.326294
    31  Cl  17.616047   0.429424  -0.021626  -0.067451  -0.000970   0.273112
    32  C    0.429424  14.745183  -0.160390  -4.723887   1.008512   4.630895
    33  Cl  -0.021626  -0.160390  17.544035   0.196132  -0.124008  -0.407443
    34  C   -0.067451  -4.723887   0.196132  18.896877  -1.581064  -9.485572
    35  H   -0.000970   1.008512  -0.124008  -1.581064   1.860279   0.770768
    36  C    0.273112   4.630895  -0.407443  -9.485572   0.770768  31.961960
    37  H    0.004692  -0.458286   0.003970   1.003289  -0.129365  -2.597475
    38  H    0.000008   0.000267  -0.000003  -0.000685   0.000008   0.003034
              37         38
     1  C    0.000080  -0.026041
     2  H   -0.000015   0.018565
     3  H    0.000011  -0.018394
     4  H    0.000014  -0.009304
     5  N   -0.001398   0.457823
     6  H    0.000487  -0.051713
     7  C    0.000375   0.031067
     8  C    0.011813  -0.079663
     9  C   -0.058932  -0.005056
    10  C   -0.014658  -0.001094
    11  C    0.005044   0.005183
    12  C   -0.000716  -0.007410
    13  C    0.000066   0.040397
    14  H   -0.000473  -0.001769
    15  H    0.000137   0.000018
    16  H   -0.000308  -0.000109
    17  H    0.004887   0.000305
    18  H   -0.001425  -0.029218
    19  C    0.030601  -0.030748
    20  H    0.002754  -0.013435
    21  H    0.008375   0.019311
    22  C   -0.010861  -0.023295
    23  H    0.013083  -0.009194
    24  H   -0.046267   0.004401
    25  C   -0.018956  -0.029685
    26  H   -0.063994  -0.000914
    27  C    1.600550  -0.003938
    28  C   -0.033952  -0.002293
    29  H   -0.031903   0.000856
    30  C    0.160781  -0.000211
    31  Cl   0.004692   0.000008
    32  C   -0.458286   0.000267
    33  Cl   0.003970  -0.000003
    34  C    1.003289  -0.000685
    35  H   -0.129365   0.000008
    36  C   -2.597475   0.003034
    37  H    2.426563  -0.000279
    38  H   -0.000279   0.606400
 Mulliken charges:
               1
     1  C    0.945266
     2  H   -0.090153
     3  H   -0.086004
     4  H   -0.162322
     5  N   -0.718271
     6  H    0.203693
     7  C    0.582116
     8  C    1.068491
     9  C    0.768833
    10  C   -0.208818
    11  C    0.269711
    12  C    0.425280
    13  C   -0.121958
    14  H   -0.753908
    15  H   -0.499152
    16  H   -0.468933
    17  H   -0.750157
    18  H   -0.418548
    19  C    0.736277
    20  H   -0.146449
    21  H   -0.105565
    22  C    0.733776
    23  H   -0.301635
    24  H   -0.152243
    25  C    0.090773
    26  H   -0.139226
    27  C    0.969585
    28  C    1.504664
    29  H   -0.645285
    30  C   -0.306281
    31  Cl  -0.327201
    32  C   -0.517075
    33  Cl  -0.331354
    34  C    0.487230
    35  H   -0.440032
    36  C    0.556375
    37  H   -0.808309
    38  H    0.156808
 Sum of Mulliken charges =   1.00000
 Mulliken charges with hydrogens summed into heavy atoms:
               1
     1  C    0.606787
     5  N   -0.357771
     7  C    0.163568
     8  C    1.068491
     9  C    0.768833
    10  C   -0.958975
    11  C   -0.199222
    12  C   -0.073872
    13  C   -0.875866
    19  C    0.484264
    22  C    0.279898
    25  C   -0.048453
    27  C    0.969585
    28  C    0.859378
    30  C   -0.306281
    31  Cl  -0.327201
    32  C   -0.517075
    33  Cl  -0.331354
    34  C    0.047198
    36  C   -0.251934
 Electronic spatial extent (au):  <R**2>=           7645.6186
 Charge=              1.0000 electrons
 Dipole moment (field-independent basis, Debye):
    X=            -17.8945    Y=             -5.2770    Z=              0.5697  Tot=             18.6651
 Quadrupole moment (field-independent basis, Debye-Ang):
   XX=            -56.7479   YY=           -109.2642   ZZ=           -120.0332
   XY=             11.2409   XZ=            -18.5530   YZ=             -3.3316
 Traceless Quadrupole moment (field-independent basis, Debye-Ang):
   XX=             38.6005   YY=            -13.9157   ZZ=            -24.6848
   XY=             11.2409   XZ=            -18.5530   YZ=             -3.3316
 Octapole moment (field-independent basis, Debye-Ang**2):
  XXX=           -366.6760  YYY=             -1.9112  ZZZ=             12.2132  XYY=            -62.5976
  XXY=            -86.8656  XXZ=             63.8832  XZZ=            -22.3456  YZZ=             -5.5064
  YYZ=             -8.6805  XYZ=             26.8221
 Hexadecapole moment (field-independent basis, Debye-Ang**3):
 XXXX=          -5565.5849 YYYY=          -1534.1039 ZZZZ=           -991.5193 XXXY=            377.9551
 XXXZ=           -366.3665 YYYX=             34.8432 YYYZ=            -44.5484 ZZZX=            -50.0852
 ZZZY=             -3.4731 XXYY=          -1262.5911 XXZZ=          -1311.8716 YYZZ=           -388.3220
 XXYZ=             -8.3399 YYXZ=            -22.4121 ZZXY=             23.8386
 N-N= 1.770813374686D+03 E-N=-7.359561535498D+03  KE= 1.626853397155D+03
 Leave Link  601 at Mon Jul 12 16:10:24 2021, MaxMem=   262144000 cpu:               0.6 elap:               0.7
 (Enter /dades/curu/g16A03_MST/g16/l9999.exe)
 1\1\GINC-PIRINEUS10\SP\RMP2-FC\Aug-CC-pVDZ\C17H18Cl2N1(1+)\UBATOR02\12
 -Jul-2021\0\\#p mp2/aug-cc-pVDZ scf=tight maxdisk=180GB geom=allcheck\
 \SET_328_BBB2_conf1.geo_225_285 geometry\\1,1\C,0,-3.0813597062,2.3084
 2481,2.0423880918\H,0,-2.5207104635,1.8358163967,2.8442202545\H,0,-4.0
 169031544,1.7801415804,1.8673904783\H,0,-3.2770131528,3.353448108,2.28
 07512827\N,0,-2.2655389954,2.2553220722,0.7882872641\H,0,-1.3980847518
 ,2.7923134549,0.9357334992\C,0,-1.9230529601,0.8318438697,0.2924791966
 \C,0,-0.8741426877,0.2155199376,1.1939397024\C,0,0.4835164242,0.205527
 5858,0.8248887344\C,0,1.4188860172,-0.3136025546,1.7315264897\C,0,1.02
 93893769,-0.8338907145,2.9617833184\C,0,-0.3241962739,-0.8686404562,3.
 3035465538\C,0,-1.2636044306,-0.3492934931,2.4199427272\H,0,-2.3174784
 437,-0.3945167851,2.6742637362\H,0,-0.644531485,-1.299828952,4.2451180
 957\H,0,1.7756064793,-1.2270114131,3.6435056561\H,0,2.4684627429,-0.32
 17595455,1.4535165463\H,0,-2.8715213336,0.2956296451,0.381096042\C,0,-
 1.4830711645,0.897022742,-1.1696758561\H,0,-2.2104783616,1.4552736449,
 -1.7662884816\H,0,-1.4988685801,-0.1274240865,-1.5549049932\C,0,-0.080
 6461301,1.4871492371,-1.3187990273\H,0,-0.0624500406,2.5255453087,-0.9
 707555956\H,0,0.1900961415,1.5248586496,-2.3764915466\C,0,0.9771724927
 ,0.6632397068,-0.5435347225\H,0,1.8468713276,1.3110395337,-0.389276070
 7\C,0,1.4670151135,-0.5188218036,-1.3848263359\C,0,0.911042892,-1.7941
 499417,-1.2641082238\H,0,0.1487199465,-1.9895768579,-0.5205571131\C,0,
 1.3429256767,-2.8443932982,-2.0745727542\Cl,0,0.604782838,-4.415070706
 8,-1.8712943757\C,0,2.3510453394,-2.6316999099,-3.0189442229\Cl,0,2.92
 78313145,-3.9198737164,-4.0465996289\C,0,2.9192922366,-1.362647368,-3.
 1397480431\H,0,3.7079796015,-1.2062748821,-3.865486262\C,0,2.480969776
 8,-0.3205177572,-2.3309208559\H,0,2.9376996593,0.6578355136,-2.4328723
 224\H,0,-2.7756532814,2.7520424456,0.0462787621\\Version=ES64L-G16RevA
 .03\State=1-A\HF=-1627.5722083\MP2=-1630.400547\RMSD=8.470e-09\PG=C01 
 [X(C17H18Cl2N1)]\\@


 HE THAT FOLLOWS NATURE IS NEVER LOST.

                             -- BACON
 Job cpu time:       0 days  5 hours 47 minutes 59.4 seconds.
 Elapsed time:       0 days  1 hours 41 minutes 58.0 seconds.
 File lengths (MBytes):  RWF= 135652 Int=      0 D2E=      0 Chk=     33 Scr=      1
 Normal termination of Gaussian 16 at Mon Jul 12 16:10:26 2021.
