 Entering Gaussian System, Link 0=g16
 Input=SET_328_BBB304_conf1.geo_210_060_OCTANOL.dat
 Output=SET_328_BBB304_conf1.geo_210_060_OCTANOL.log
 Initial command:
 /dades/curu/g16A03_MST/g16/l1.exe "/tmp/ubator02/1835310/Gau-3491.inp" -scrdir="/tmp/ubator02/1835310/"
 Entering Link 1 = /dades/curu/g16A03_MST/g16/l1.exe PID=      3492.
  
 Copyright (c) 1988,1990,1992,1993,1995,1998,2003,2009,2016,
            Gaussian, Inc.  All Rights Reserved.
  
 This is part of the Gaussian(R) 16 program.  It is based on
 the Gaussian(R) 09 system (copyright 2009, Gaussian, Inc.),
 the Gaussian(R) 03 system (copyright 2003, Gaussian, Inc.),
 the Gaussian(R) 98 system (copyright 1998, Gaussian, Inc.),
 the Gaussian(R) 94 system (copyright 1995, Gaussian, Inc.),
 the Gaussian 92(TM) system (copyright 1992, Gaussian, Inc.),
 the Gaussian 90(TM) system (copyright 1990, Gaussian, Inc.),
 the Gaussian 88(TM) system (copyright 1988, Gaussian, Inc.),
 the Gaussian 86(TM) system (copyright 1986, Carnegie Mellon
 University), and the Gaussian 82(TM) system (copyright 1983,
 Carnegie Mellon University). Gaussian is a federally registered
 trademark of Gaussian, Inc.
  
 This software contains proprietary and confidential information,
 including trade secrets, belonging to Gaussian, Inc.
  
 This software is provided under written license and may be
 used, copied, transmitted, or stored only in accord with that
 written license.
  
 The following legend is applicable only to US Government
 contracts under FAR:
  
                    RESTRICTED RIGHTS LEGEND
  
 Use, reproduction and disclosure by the US Government is
 subject to restrictions as set forth in subparagraphs (a)
 and (c) of the Commercial Computer Software - Restricted
 Rights clause in FAR 52.227-19.
  
 Gaussian, Inc.
 340 Quinnipiac St., Bldg. 40, Wallingford CT 06492
  
  
 ---------------------------------------------------------------
 Warning -- This program may not be used in any manner that
 competes with the business of Gaussian, Inc. or will provide
 assistance to any competitor of Gaussian, Inc.  The licensee
 of this program is prohibited from giving any competitor of
 Gaussian, Inc. access to this program.  By using this program,
 the user acknowledges that Gaussian, Inc. is engaged in the
 business of creating and licensing software in the field of
 computational chemistry and represents and warrants to the
 licensee that it is not a competitor of Gaussian, Inc. and that
 it will not use this program in any manner prohibited above.
 ---------------------------------------------------------------
  

 Cite this work as:
 Gaussian 16, Revision A.03,
 M. J. Frisch, G. W. Trucks, H. B. Schlegel, G. E. Scuseria, 
 M. A. Robb, J. R. Cheeseman, G. Scalmani, V. Barone, 
 G. A. Petersson, H. Nakatsuji, X. Li, M. Caricato, A. V. Marenich, 
 J. Bloino, B. G. Janesko, R. Gomperts, B. Mennucci, H. P. Hratchian, 
 J. V. Ortiz, A. F. Izmaylov, J. L. Sonnenberg, D. Williams-Young, 
 F. Ding, F. Lipparini, F. Egidi, J. Goings, B. Peng, A. Petrone, 
 T. Henderson, D. Ranasinghe, V. G. Zakrzewski, J. Gao, N. Rega, 
 G. Zheng, W. Liang, M. Hada, M. Ehara, K. Toyota, R. Fukuda, 
 J. Hasegawa, M. Ishida, T. Nakajima, Y. Honda, O. Kitao, H. Nakai, 
 T. Vreven, K. Throssell, J. A. Montgomery, Jr., J. E. Peralta, 
 F. Ogliaro, M. J. Bearpark, J. J. Heyd, E. N. Brothers, K. N. Kudin, 
 V. N. Staroverov, T. A. Keith, R. Kobayashi, J. Normand, 
 K. Raghavachari, A. P. Rendell, J. C. Burant, S. S. Iyengar, 
 J. Tomasi, M. Cossi, J. M. Millam, M. Klene, C. Adamo, R. Cammi, 
 J. W. Ochterski, R. L. Martin, K. Morokuma, O. Farkas, 
 J. B. Foresman, and D. J. Fox, Gaussian, Inc., Wallingford CT, 2016.
 
 ******************************************
 Gaussian 16:  ES64L-G16RevA.03 25-Dec-2016
                12-Jul-2021 
 ******************************************
 %mem=800MB
 %nproc=4
 Will use up to    4 processors via shared memory.
 %chk=SET_328_BBB304_conf1.geo_210_060.chk
 ---------------------------------------------------------------
 #p b3lyp/6-31G(d) opt freq scrf=(iefpcm,read,solvent=n-octanol)
 ---------------------------------------------------------------
 1/18=20,19=15,26=3,38=1,40=2/1,3;
 2/9=110,12=2,17=6,18=5,40=1/2;
 3/5=1,6=6,7=1,11=2,25=1,30=1,70=2203,71=1,72=25,74=-5/1,2,3;
 4//1;
 5/5=2,38=5,53=25/2;
 6/7=2,8=2,9=2,10=2,28=1/1;
 7//1,2,3,16;
 1/18=20,19=15,26=3/3(2);
 2/9=110/2;
 99//99;
 2/9=110/2;
 3/5=1,6=6,7=1,11=2,25=1,30=1,70=2205,71=1,72=25,74=-5/1,2,3;
 4/5=5,16=3,69=1/1;
 5/5=2,38=5,53=25/2;
 7//1,2,3,16;
 1/18=20,19=15,26=3/3(-5);
 2/9=110/2;
 6/7=2,8=2,9=2,10=2,19=2,28=1/1;
 99/9=1/99;
 Leave Link    1 at Mon Jul 12 12:47:11 2021, MaxMem=   104857600 cpu:               0.0 elap:               0.0
 (Enter /dades/curu/g16A03_MST/g16/l101.exe)
 -----------------------------------------
 SET_328_BBB304_conf1.geo_210_060 geometry
 -----------------------------------------
 Symbolic Z-matrix:
 Charge =  1 Multiplicity = 1
 N                     1.417     3.984     2.716 
 H                     2.36      4.288     2.499 
 H                     1.189     3.639     3.642 
 C                     0.993     3.051     1.883 
 C                     1.614     2.637     0.661 
 C                     1.163     1.571    -0.025 
 H                     1.585     1.157    -0.932 
 H                     2.505     3.169     0.346 
 N                    -0.028     2.457     2.305 
 C                    -0.621     1.414     1.562 
 O                    -1.559     0.848     2.092 
 N                     0.054     0.918     0.476 
 C                    -0.409    -0.358    -0.025 
 O                     0.628    -1.123    -0.623 
 H                    -0.664    -1.025     0.811 
 C                    -1.552    -0.254    -1.067 
 H                    -1.574     0.703    -1.593 
 H                    -2.55     -0.367    -0.638 
 C                    -1.287    -1.362    -2.008 
 H                    -1.097    -0.911    -2.985 
 H                    -2.14     -2.044    -1.986 
 C                     0.047    -2.005    -1.622 
 H                     0.607    -1.911    -2.556 
 C                    -0.043    -3.452    -1.088 
 H                     0.958    -3.861    -0.93 
 H                    -0.483    -4.084    -1.864 
 O                    -0.873    -3.505     0.106 
 H                    -0.24     -3.575     0.843 
 H                    -0.428     2.727     3.181 
 
 ITRead=  0  0  0  0  0  0  0  0  0  0  0  0  0  0  0  0  0  0  0  0
 ITRead=  0  0  0  0  0  0  0  0  0
 MicOpt= -1 -1 -1 -1 -1 -1 -1 -1 -1 -1 -1 -1 -1 -1 -1 -1 -1 -1 -1 -1
 MicOpt= -1 -1 -1 -1 -1 -1 -1 -1 -1
 NAtoms=     29 NQM=       29 NQMF=       0 NMMI=      0 NMMIF=      0
                NMic=       0 NMicF=      0.
                    Isotopes and Nuclear Properties:
 (Nuclear quadrupole moments (NQMom) in fm**2, nuclear magnetic moments (NMagM)
  in nuclear magnetons)

  Atom         1           2           3           4           5           6           7           8           9          10
 IAtWgt=          14           1           1          12          12          12           1           1          14          12
 AtmWgt=  14.0030740   1.0078250   1.0078250  12.0000000  12.0000000  12.0000000   1.0078250   1.0078250  14.0030740  12.0000000
 NucSpn=           2           1           1           0           0           0           1           1           2           0
 AtZEff=  -0.0000000  -0.0000000  -0.0000000  -0.0000000  -0.0000000  -0.0000000  -0.0000000  -0.0000000  -0.0000000  -0.0000000
 NQMom=    2.0440000   0.0000000   0.0000000   0.0000000   0.0000000   0.0000000   0.0000000   0.0000000   2.0440000   0.0000000
 NMagM=    0.4037610   2.7928460   2.7928460   0.0000000   0.0000000   0.0000000   2.7928460   2.7928460   0.4037610   0.0000000
 AtZNuc=   7.0000000   1.0000000   1.0000000   6.0000000   6.0000000   6.0000000   1.0000000   1.0000000   7.0000000   6.0000000

  Atom        11          12          13          14          15          16          17          18          19          20
 IAtWgt=          16          14          12          16           1          12           1           1          12           1
 AtmWgt=  15.9949146  14.0030740  12.0000000  15.9949146   1.0078250  12.0000000   1.0078250   1.0078250  12.0000000   1.0078250
 NucSpn=           0           2           0           0           1           0           1           1           0           1
 AtZEff=  -0.0000000  -0.0000000  -0.0000000  -0.0000000  -0.0000000  -0.0000000  -0.0000000  -0.0000000  -0.0000000  -0.0000000
 NQMom=    0.0000000   2.0440000   0.0000000   0.0000000   0.0000000   0.0000000   0.0000000   0.0000000   0.0000000   0.0000000
 NMagM=    0.0000000   0.4037610   0.0000000   0.0000000   2.7928460   0.0000000   2.7928460   2.7928460   0.0000000   2.7928460
 AtZNuc=   8.0000000   7.0000000   6.0000000   8.0000000   1.0000000   6.0000000   1.0000000   1.0000000   6.0000000   1.0000000

  Atom        21          22          23          24          25          26          27          28          29
 IAtWgt=           1          12           1          12           1           1          16           1           1
 AtmWgt=   1.0078250  12.0000000   1.0078250  12.0000000   1.0078250   1.0078250  15.9949146   1.0078250   1.0078250
 NucSpn=           1           0           1           0           1           1           0           1           1
 AtZEff=  -0.0000000  -0.0000000  -0.0000000  -0.0000000  -0.0000000  -0.0000000  -0.0000000  -0.0000000  -0.0000000
 NQMom=    0.0000000   0.0000000   0.0000000   0.0000000   0.0000000   0.0000000   0.0000000   0.0000000   0.0000000
 NMagM=    2.7928460   0.0000000   2.7928460   0.0000000   2.7928460   2.7928460   0.0000000   2.7928460   2.7928460
 AtZNuc=   1.0000000   6.0000000   1.0000000   6.0000000   1.0000000   1.0000000   8.0000000   1.0000000   1.0000000
 Leave Link  101 at Mon Jul 12 12:47:12 2021, MaxMem=   104857600 cpu:               0.1 elap:               0.1
 (Enter /dades/curu/g16A03_MST/g16/l103.exe)

 GradGradGradGradGradGradGradGradGradGradGradGradGradGradGradGradGradGrad
 Berny optimization.
 Initialization pass.
                           ----------------------------
                           !    Initial Parameters    !
                           ! (Angstroms and Degrees)  !
 --------------------------                            --------------------------
 ! Name  Definition              Value          Derivative Info.                !
 --------------------------------------------------------------------------------
 ! R1    R(1,2)                  1.0143         estimate D2E/DX2                !
 ! R2    R(1,3)                  1.0141         estimate D2E/DX2                !
 ! R3    R(1,4)                  1.3207         estimate D2E/DX2                !
 ! R4    R(4,5)                  1.4319         estimate D2E/DX2                !
 ! R5    R(4,9)                  1.2543         estimate D2E/DX2                !
 ! R6    R(5,6)                  1.3455         estimate D2E/DX2                !
 ! R7    R(5,8)                  1.0845         estimate D2E/DX2                !
 ! R8    R(6,7)                  1.0826         estimate D2E/DX2                !
 ! R9    R(6,12)                 1.381          estimate D2E/DX2                !
 ! R10   R(9,10)                 1.4112         estimate D2E/DX2                !
 ! R11   R(9,29)                 1.0001         estimate D2E/DX2                !
 ! R12   R(10,11)                1.217          estimate D2E/DX2                !
 ! R13   R(10,12)                1.3715         estimate D2E/DX2                !
 ! R14   R(12,13)                1.4469         estimate D2E/DX2                !
 ! R15   R(13,14)                1.4206         estimate D2E/DX2                !
 ! R16   R(13,15)                1.0995         estimate D2E/DX2                !
 ! R17   R(13,16)                1.5502         estimate D2E/DX2                !
 ! R18   R(14,22)                1.4538         estimate D2E/DX2                !
 ! R19   R(16,17)                1.0922         estimate D2E/DX2                !
 ! R20   R(16,18)                1.0922         estimate D2E/DX2                !
 ! R21   R(16,19)                1.4776         estimate D2E/DX2                !
 ! R22   R(19,20)                1.0927         estimate D2E/DX2                !
 ! R23   R(19,21)                1.0923         estimate D2E/DX2                !
 ! R24   R(19,22)                1.5304         estimate D2E/DX2                !
 ! R25   R(22,23)                1.0931         estimate D2E/DX2                !
 ! R26   R(22,24)                1.545          estimate D2E/DX2                !
 ! R27   R(24,25)                1.0928         estimate D2E/DX2                !
 ! R28   R(24,26)                1.0933         estimate D2E/DX2                !
 ! R29   R(24,27)                1.4551         estimate D2E/DX2                !
 ! R30   R(27,28)                0.974          estimate D2E/DX2                !
 ! A1    A(2,1,3)              120.42           estimate D2E/DX2                !
 ! A2    A(2,1,4)              112.042          estimate D2E/DX2                !
 ! A3    A(3,1,4)              105.2727         estimate D2E/DX2                !
 ! A4    A(1,4,5)              127.1071         estimate D2E/DX2                !
 ! A5    A(1,4,9)              112.5615         estimate D2E/DX2                !
 ! A6    A(5,4,9)              120.2128         estimate D2E/DX2                !
 ! A7    A(4,5,6)              121.2526         estimate D2E/DX2                !
 ! A8    A(4,5,8)              117.5396         estimate D2E/DX2                !
 ! A9    A(6,5,8)              121.0609         estimate D2E/DX2                !
 ! A10   A(5,6,7)              126.8299         estimate D2E/DX2                !
 ! A11   A(5,6,12)             117.3109         estimate D2E/DX2                !
 ! A12   A(7,6,12)             115.8558         estimate D2E/DX2                !
 ! A13   A(4,9,10)             120.9908         estimate D2E/DX2                !
 ! A14   A(4,9,29)             119.4969         estimate D2E/DX2                !
 ! A15   A(10,9,29)            119.5123         estimate D2E/DX2                !
 ! A16   A(9,10,11)            115.9961         estimate D2E/DX2                !
 ! A17   A(9,10,12)            118.5138         estimate D2E/DX2                !
 ! A18   A(11,10,12)           123.7778         estimate D2E/DX2                !
 ! A19   A(6,12,10)            120.7614         estimate D2E/DX2                !
 ! A20   A(6,12,13)            123.2523         estimate D2E/DX2                !
 ! A21   A(10,12,13)           115.8245         estimate D2E/DX2                !
 ! A22   A(12,13,14)           112.7715         estimate D2E/DX2                !
 ! A23   A(12,13,15)           110.2389         estimate D2E/DX2                !
 ! A24   A(12,13,16)           114.175          estimate D2E/DX2                !
 ! A25   A(14,13,15)            99.363          estimate D2E/DX2                !
 ! A26   A(14,13,16)           106.942          estimate D2E/DX2                !
 ! A27   A(15,13,16)           112.3832         estimate D2E/DX2                !
 ! A28   A(13,14,22)           108.9191         estimate D2E/DX2                !
 ! A29   A(13,16,17)           113.412          estimate D2E/DX2                !
 ! A30   A(13,16,18)           113.753          estimate D2E/DX2                !
 ! A31   A(13,16,19)           104.2129         estimate D2E/DX2                !
 ! A32   A(17,16,18)           105.1537         estimate D2E/DX2                !
 ! A33   A(17,16,19)           110.7279         estimate D2E/DX2                !
 ! A34   A(18,16,19)           109.6604         estimate D2E/DX2                !
 ! A35   A(16,19,20)           106.9232         estimate D2E/DX2                !
 ! A36   A(16,19,21)           108.3786         estimate D2E/DX2                !
 ! A37   A(16,19,22)           108.1053         estimate D2E/DX2                !
 ! A38   A(20,19,21)           114.2975         estimate D2E/DX2                !
 ! A39   A(20,19,22)           104.3216         estimate D2E/DX2                !
 ! A40   A(21,19,22)           114.4115         estimate D2E/DX2                !
 ! A41   A(14,22,19)           105.4729         estimate D2E/DX2                !
 ! A42   A(14,22,23)           109.2841         estimate D2E/DX2                !
 ! A43   A(14,22,24)           110.7309         estimate D2E/DX2                !
 ! A44   A(19,22,23)           101.2406         estimate D2E/DX2                !
 ! A45   A(19,22,24)           115.4617         estimate D2E/DX2                !
 ! A46   A(23,22,24)           113.936          estimate D2E/DX2                !
 ! A47   A(22,24,25)           110.3121         estimate D2E/DX2                !
 ! A48   A(22,24,26)           108.6347         estimate D2E/DX2                !
 ! A49   A(22,24,27)           110.5453         estimate D2E/DX2                !
 ! A50   A(25,24,26)           104.7689         estimate D2E/DX2                !
 ! A51   A(25,24,27)           112.9676         estimate D2E/DX2                !
 ! A52   A(26,24,27)           109.3788         estimate D2E/DX2                !
 ! A53   A(24,27,28)           104.643          estimate D2E/DX2                !
 ! D1    D(2,1,4,5)            -11.0332         estimate D2E/DX2                !
 ! D2    D(2,1,4,9)            164.9735         estimate D2E/DX2                !
 ! D3    D(3,1,4,5)           -143.6286         estimate D2E/DX2                !
 ! D4    D(3,1,4,9)             32.3782         estimate D2E/DX2                !
 ! D5    D(1,4,5,6)            172.4738         estimate D2E/DX2                !
 ! D6    D(1,4,5,8)             -3.1649         estimate D2E/DX2                !
 ! D7    D(9,4,5,6)             -3.2584         estimate D2E/DX2                !
 ! D8    D(9,4,5,8)           -178.897          estimate D2E/DX2                !
 ! D9    D(1,4,9,10)          -179.1907         estimate D2E/DX2                !
 ! D10   D(1,4,9,29)             0.8394         estimate D2E/DX2                !
 ! D11   D(5,4,9,10)            -2.8755         estimate D2E/DX2                !
 ! D12   D(5,4,9,29)           177.1546         estimate D2E/DX2                !
 ! D13   D(4,5,6,7)           -177.4047         estimate D2E/DX2                !
 ! D14   D(4,5,6,12)             1.8832         estimate D2E/DX2                !
 ! D15   D(8,5,6,7)             -1.9194         estimate D2E/DX2                !
 ! D16   D(8,5,6,12)           177.3684         estimate D2E/DX2                !
 ! D17   D(5,6,12,10)            5.5517         estimate D2E/DX2                !
 ! D18   D(5,6,12,13)         -169.6288         estimate D2E/DX2                !
 ! D19   D(7,6,12,10)         -175.0817         estimate D2E/DX2                !
 ! D20   D(7,6,12,13)            9.7378         estimate D2E/DX2                !
 ! D21   D(4,9,10,11)          175.7891         estimate D2E/DX2                !
 ! D22   D(4,9,10,12)           10.1235         estimate D2E/DX2                !
 ! D23   D(29,9,10,11)          -4.241          estimate D2E/DX2                !
 ! D24   D(29,9,10,12)        -169.9066         estimate D2E/DX2                !
 ! D25   D(9,10,12,6)          -11.4492         estimate D2E/DX2                !
 ! D26   D(9,10,12,13)         164.074          estimate D2E/DX2                !
 ! D27   D(11,10,12,6)        -175.9204         estimate D2E/DX2                !
 ! D28   D(11,10,12,13)         -0.3972         estimate D2E/DX2                !
 ! D29   D(6,12,13,14)          25.4101         estimate D2E/DX2                !
 ! D30   D(6,12,13,15)         135.4591         estimate D2E/DX2                !
 ! D31   D(6,12,13,16)         -96.9238         estimate D2E/DX2                !
 ! D32   D(10,12,13,14)       -149.9895         estimate D2E/DX2                !
 ! D33   D(10,12,13,15)        -39.9405         estimate D2E/DX2                !
 ! D34   D(10,12,13,16)         87.6766         estimate D2E/DX2                !
 ! D35   D(12,13,14,22)       -152.7378         estimate D2E/DX2                !
 ! D36   D(15,13,14,22)         90.5531         estimate D2E/DX2                !
 ! D37   D(16,13,14,22)        -26.4268         estimate D2E/DX2                !
 ! D38   D(12,13,16,17)         24.4345         estimate D2E/DX2                !
 ! D39   D(12,13,16,18)        -95.6828         estimate D2E/DX2                !
 ! D40   D(12,13,16,19)        144.9338         estimate D2E/DX2                !
 ! D41   D(14,13,16,17)       -101.0342         estimate D2E/DX2                !
 ! D42   D(14,13,16,18)        138.8485         estimate D2E/DX2                !
 ! D43   D(14,13,16,19)         19.4651         estimate D2E/DX2                !
 ! D44   D(15,13,16,17)        150.9439         estimate D2E/DX2                !
 ! D45   D(15,13,16,18)         30.8266         estimate D2E/DX2                !
 ! D46   D(15,13,16,19)        -88.5567         estimate D2E/DX2                !
 ! D47   D(13,14,22,19)         22.4039         estimate D2E/DX2                !
 ! D48   D(13,14,22,23)        130.5316         estimate D2E/DX2                !
 ! D49   D(13,14,22,24)       -103.1682         estimate D2E/DX2                !
 ! D50   D(13,16,19,20)       -117.5545         estimate D2E/DX2                !
 ! D51   D(13,16,19,21)        118.7825         estimate D2E/DX2                !
 ! D52   D(13,16,19,22)         -5.7458         estimate D2E/DX2                !
 ! D53   D(17,16,19,20)          4.7285         estimate D2E/DX2                !
 ! D54   D(17,16,19,21)       -118.9344         estimate D2E/DX2                !
 ! D55   D(17,16,19,22)        116.5373         estimate D2E/DX2                !
 ! D56   D(18,16,19,20)        120.3234         estimate D2E/DX2                !
 ! D57   D(18,16,19,21)         -3.3395         estimate D2E/DX2                !
 ! D58   D(18,16,19,22)       -127.8678         estimate D2E/DX2                !
 ! D59   D(16,19,22,14)         -9.3847         estimate D2E/DX2                !
 ! D60   D(16,19,22,23)       -123.2375         estimate D2E/DX2                !
 ! D61   D(16,19,22,24)        113.2044         estimate D2E/DX2                !
 ! D62   D(20,19,22,14)        104.1651         estimate D2E/DX2                !
 ! D63   D(20,19,22,23)         -9.6878         estimate D2E/DX2                !
 ! D64   D(20,19,22,24)       -133.2458         estimate D2E/DX2                !
 ! D65   D(21,19,22,14)       -130.227          estimate D2E/DX2                !
 ! D66   D(21,19,22,23)        115.9202         estimate D2E/DX2                !
 ! D67   D(21,19,22,24)         -7.6379         estimate D2E/DX2                !
 ! D68   D(14,22,24,25)        -65.6785         estimate D2E/DX2                !
 ! D69   D(14,22,24,26)       -179.9891         estimate D2E/DX2                !
 ! D70   D(14,22,24,27)         59.9886         estimate D2E/DX2                !
 ! D71   D(19,22,24,25)        174.5755         estimate D2E/DX2                !
 ! D72   D(19,22,24,26)         60.2649         estimate D2E/DX2                !
 ! D73   D(19,22,24,27)        -59.7574         estimate D2E/DX2                !
 ! D74   D(23,22,24,25)         57.9873         estimate D2E/DX2                !
 ! D75   D(23,22,24,26)        -56.3233         estimate D2E/DX2                !
 ! D76   D(23,22,24,27)       -176.3456         estimate D2E/DX2                !
 ! D77   D(22,24,27,28)       -102.8992         estimate D2E/DX2                !
 ! D78   D(25,24,27,28)         21.2582         estimate D2E/DX2                !
 ! D79   D(26,24,27,28)        137.526          estimate D2E/DX2                !
 --------------------------------------------------------------------------------
 Trust Radius=3.00D-01 FncErr=1.00D-07 GrdErr=1.00D-06 EigMax=2.50D+02 EigMin=1.00D-04
 Number of steps in this run=    172 maximum allowed number of steps=    174.
 GradGradGradGradGradGradGradGradGradGradGradGradGradGradGradGradGradGrad

 Leave Link  103 at Mon Jul 12 12:47:12 2021, MaxMem=   104857600 cpu:               0.0 elap:               0.0
 (Enter /dades/curu/g16A03_MST/g16/l202.exe)
                          Input orientation:                          
 ---------------------------------------------------------------------
 Center     Atomic      Atomic             Coordinates (Angstroms)
 Number     Number       Type             X           Y           Z
 ---------------------------------------------------------------------
      1          7           0        1.417000    3.984000    2.716000
      2          1           0        2.360000    4.288000    2.499000
      3          1           0        1.189000    3.639000    3.642000
      4          6           0        0.993000    3.051000    1.883000
      5          6           0        1.614000    2.637000    0.661000
      6          6           0        1.163000    1.571000   -0.025000
      7          1           0        1.585000    1.157000   -0.932000
      8          1           0        2.505000    3.169000    0.346000
      9          7           0       -0.028000    2.457000    2.305000
     10          6           0       -0.621000    1.414000    1.562000
     11          8           0       -1.559000    0.848000    2.092000
     12          7           0        0.054000    0.918000    0.476000
     13          6           0       -0.409000   -0.358000   -0.025000
     14          8           0        0.628000   -1.123000   -0.623000
     15          1           0       -0.664000   -1.025000    0.811000
     16          6           0       -1.552000   -0.254000   -1.067000
     17          1           0       -1.574000    0.703000   -1.593000
     18          1           0       -2.550000   -0.367000   -0.638000
     19          6           0       -1.287000   -1.362000   -2.008000
     20          1           0       -1.097000   -0.911000   -2.985000
     21          1           0       -2.140000   -2.044000   -1.986000
     22          6           0        0.047000   -2.005000   -1.622000
     23          1           0        0.607000   -1.911000   -2.556000
     24          6           0       -0.043000   -3.452000   -1.088000
     25          1           0        0.958000   -3.861000   -0.930000
     26          1           0       -0.483000   -4.084000   -1.864000
     27          8           0       -0.873000   -3.505000    0.106000
     28          1           0       -0.240000   -3.575000    0.843000
     29          1           0       -0.428000    2.727000    3.181000
 ---------------------------------------------------------------------
                    Distance matrix (angstroms):
                    1          2          3          4          5
     1  N    0.000000
     2  H    1.014275   0.000000
     3  H    1.014142   1.760367   0.000000
     4  C    1.320664   1.943789   1.865004   0.000000
     5  C    2.465004   2.580806   3.173482   1.431894   0.000000
     6  C    3.660624   3.896854   4.210011   2.420695   1.345494
     7  H    4.618231   4.709092   5.219063   3.444115   2.174601
     8  H    2.732191   2.430760   3.579996   2.159268   1.084495
     9  N    2.142119   3.015417   2.160042   1.254337   2.330515
    10  C    3.477076   4.245492   3.543039   2.321165   2.702361
    11  O    4.368117   5.230469   4.212325   3.377809   3.913593
    12  N    4.034318   4.557090   4.326156   2.722326   2.328688
    13  C    5.449800   5.968522   5.654777   4.150584   3.678743
    14  O    6.152470   6.482718   6.417288   4.882165   4.093709
    15  H    5.748884   6.342073   5.762037   4.528643   4.315325
    16  C    6.409890   6.974945   6.696507   5.109065   4.622491
    17  H    6.186964   6.713646   6.607533   4.917842   4.357088
    18  H    6.776253   7.457741   6.953169   5.530914   5.296255
    19  C    7.629385   8.095441   7.941226   6.309742   5.615279
    20  H    7.923549   8.309916   8.357358   6.615358   5.764646
    21  H    8.431953   8.969919   8.663320   7.123474   6.558269
    22  C    7.520855   7.869845   7.801833   6.224394   5.405159
    23  H    7.949913   8.188628   8.340050   6.668970   5.661046
    24  C    8.479158   8.862764   8.612375   7.224206   6.548326
    25  H    8.663026   8.951528   8.786725   7.462569   6.722025
    26  H    9.469901   9.859452   9.631010   8.193095   7.479631
    27  O    8.254776   8.769811   8.233582   7.044205   6.649613
    28  H    7.961926   8.445656   7.868814   6.819514   6.485321
    29  H    2.280416   3.267230   1.912839   1.951671   3.244729
                    6          7          8          9         10
     6  C    0.000000
     7  H    1.082649   0.000000
     8  H    2.119483   2.554961   0.000000
     9  N    2.762676   3.843168   3.280353   0.000000
    10  C    2.392880   3.339539   3.785572   1.411222   0.000000
    11  O    3.523308   4.373190   4.995163   2.231190   1.217005
    12  N    1.381047   2.093692   3.330361   2.391754   1.371509
    13  C    2.488418   2.663440   4.590073   3.674001   2.388200
    14  O    2.810954   2.491933   4.783655   4.671180   3.573597
    15  H    3.282688   3.585690   5.277160   3.841986   2.552366
    16  C    3.433309   3.442371   5.492973   4.587208   3.249712
    17  H    3.271577   3.259190   5.145786   4.545441   3.371610
    18  H    4.232964   4.416700   6.246965   4.795488   3.425347
    19  C    4.305494   3.968819   6.360074   5.896763   4.571065
    20  H    4.475436   3.960373   6.380938   6.361626   5.129075
    21  H    5.274804   5.023240   7.361360   6.567513   5.182029
    22  C    4.072302   3.583265   6.056820   5.944443   4.719496
    23  H    4.340440   3.606450   6.150643   6.565971   5.433372
    24  C    5.273987   4.890562   7.237838   6.813880   5.570865
    25  H    5.510687   5.057021   7.310423   7.166209   6.043917
    26  H    6.170110   5.710808   8.149739   7.769959   6.479547
    27  O    5.470670   5.371541   7.484034   6.410544   5.136147
    28  H    5.403994   5.373367   7.298190   6.210267   5.054923
    29  H    3.761124   4.840851   4.103057   1.000138   2.093413
                   11         12         13         14         15
    11  O    0.000000
    12  N    2.284322   0.000000
    13  C    2.694184   1.446909   0.000000
    14  O    4.004876   2.388087   1.420633   0.000000
    15  H    2.439286   2.098332   1.099459   1.932673   0.000000
    16  C    3.345704   2.516678   1.550171   2.388451   2.215822
    17  H    3.687882   2.641471   2.222964   3.020593   3.097305
    18  H    3.148207   3.110151   2.227045   3.266718   2.467704
    19  C    4.665628   3.628627   2.389809   2.375410   2.906623
    20  H    5.392908   4.080265   3.088811   2.932510   3.822316
    21  H    5.033022   4.432666   3.111989   3.219912   3.322672
    22  C    4.951024   3.597997   2.339007   1.453783   2.717611
    23  H    5.823018   4.183548   3.138475   2.087552   3.706363
    24  C    5.558836   4.642457   3.291924   2.467936   3.143592
    25  H    6.135345   5.062894   3.867651   2.774850   3.702008
    26  H    6.413450   5.548331   4.155776   3.397341   4.067661
    27  O    4.833570   4.534221   3.183719   2.908327   2.586717
    28  H    4.781495   4.517541   3.336326   2.985780   2.585208
    29  H    2.448617   3.289655   4.449272   5.514350   4.444108
                   16         17         18         19         20
    16  C    0.000000
    17  H    1.092250   0.000000
    18  H    1.092160   1.734791   0.000000
    19  C    1.477623   2.125751   2.112367   0.000000
    20  H    2.077835   2.184076   2.813459   1.092717   0.000000
    21  H    2.096284   2.832104   2.190327   1.092345   1.835630
    22  C    2.435329   3.156223   3.224238   1.530360   2.088861
    23  H    3.102265   3.537955   4.003662   2.046690   2.021795
    24  C    3.536202   4.456794   4.000597   2.600392   3.341587
    25  H    4.396512   5.261244   4.959775   3.528046   4.141081
    26  H    4.055474   4.917224   4.426246   2.841907   3.420755
    27  O    3.522211   4.591870   3.634957   3.038559   4.041447
    28  H    4.049504   5.100484   4.221460   3.757896   4.741828
    29  H    5.309919   5.310458   5.353548   6.662096   7.190421
                   21         22         23         24         25
    21  H    0.000000
    22  C    2.217428   0.000000
    23  H    2.808665   1.093065   0.000000
    24  C    2.680723   1.545013   2.225355   0.000000
    25  H    3.743558   2.180257   2.563119   1.092816   0.000000
    26  H    2.630995   2.159098   2.527626   1.093252   1.731637
    27  O    2.848908   2.466249   3.437656   1.455110   2.133681
    28  H    3.735934   2.936579   3.878080   1.944916   2.158826
    29  H    7.238182   6.759161   7.449526   7.520148   7.888160
                   26         27         28         29
    26  H    0.000000
    27  O    2.090034   0.000000
    28  H    2.765136   0.974042   0.000000
    29  H    8.476129   6.963582   6.724343   0.000000
 Stoichiometry    C9H14N3O3(1+)
 Framework group  C1[X(C9H14N3O3)]
 Deg. of freedom    81
 Full point group                 C1      NOp   1
 Largest Abelian subgroup         C1      NOp   1
 Largest concise Abelian subgroup C1      NOp   1
                         Standard orientation:                         
 ---------------------------------------------------------------------
 Center     Atomic      Atomic             Coordinates (Angstroms)
 Number     Number       Type             X           Y           Z
 ---------------------------------------------------------------------
      1          7           0       -4.641818   -0.220237   -0.476672
      2          1           0       -4.995772   -1.107379   -0.817918
      3          1           0       -4.748367    0.622475   -1.030720
      4          6           0       -3.356514   -0.280814   -0.179218
      5          6           0       -2.546190   -1.457581   -0.084795
      6          6           0       -1.213351   -1.375945    0.080211
      7          1           0       -0.513026   -2.200461    0.123203
      8          1           0       -3.035200   -2.415583   -0.223479
      9          7           0       -2.838946    0.854176   -0.047760
     10          6           0       -1.467806    0.997004    0.254106
     11          8           0       -1.043935    2.137443    0.282957
     12          7           0       -0.665172   -0.113526    0.194615
     13          6           0        0.758988    0.139348    0.157613
     14          8           0        1.476772   -0.860655   -0.551595
     15          1           0        0.975067    1.004589   -0.485410
     16          6           0        1.418283    0.263191    1.555119
     17          1           0        0.865066   -0.252445    2.343206
     18          1           0        1.519258    1.293128    1.904185
     19          6           0        2.757616   -0.335516    1.378751
     20          1           0        2.806952   -1.204708    2.039131
     21          1           0        3.507609    0.430735    1.587528
     22          6           0        2.832535   -0.926393   -0.030948
     23          1           0        3.085298   -1.967170    0.187420
     24          6           0        3.821686   -0.229393   -0.991593
     25          1           0        3.879205   -0.773742   -1.937437
     26          1           0        4.827312   -0.298939   -0.568415
     27          8           0        3.465851    1.171064   -1.163189
     28          1           0        3.033887    1.210290   -2.035328
     29          1           0       -3.406723    1.670097   -0.158118
 ---------------------------------------------------------------------
 Rotational constants (GHZ):           1.4820141           0.3179683           0.3000379
 Leave Link  202 at Mon Jul 12 12:47:12 2021, MaxMem=   104857600 cpu:               0.0 elap:               0.0
 (Enter /dades/curu/g16A03_MST/g16/l301.exe)
 Standard basis: 6-31G(d) (6D, 7F)
 Ernie: Thresh=  0.10000D-02 Tol=  0.10000D-05 Strict=F.
 There are   253 symmetry adapted cartesian basis functions of A   symmetry.
 There are   253 symmetry adapted basis functions of A   symmetry.
   253 basis functions,   476 primitive gaussians,   253 cartesian basis functions
    56 alpha electrons       56 beta electrons
       nuclear repulsion energy      1059.5709641505 Hartrees.
 IExCor=  402 DFT=T Ex+Corr=B3LYP ExCW=0 ScaHFX=  0.200000
 ScaDFX=  0.800000  0.720000  1.000000  0.810000 ScalE2=  1.000000  1.000000
 IRadAn=      5 IRanWt=     -1 IRanGd=            0 ICorTp=0 IEmpDi=  4
 NAtoms=   29 NActive=   29 NUniq=   29 SFac= 1.00D+00 NAtFMM=   60 NAOKFM=F Big=F
 Integral buffers will be    131072 words long.
 Raffenetti 2 integral format.
 Two-electron integral symmetry is turned on.
 Using the following non-standard input for PCM:
 MSTModel=DFT cav MSTCharged
 --- end of non-standard input.
 MST model for solvation energy: B3LYP parametrization.
 MST cavity parameters:
 ISph   IAn     Re0     Alpha   Atom Type   QCorr
 ------------------------------------------------
   1      7     1.50     1.50      NH         F
   2      1     0.90     1.50      NH         F
   3      1     0.90     1.50      NH         F
   4      6     1.50     1.50      C          F
   5      6     1.50     1.50      CH         F
   6      6     1.50     1.50      CH         F
   7      1     1.20     1.50      CH         F
   8      1     1.20     1.50      CH         F
   9      7     1.50     1.15      NHc        T
  10      6     1.50     1.50      C          F
  11      8     1.40     1.50      O          F
  12      7     1.50     1.50      Nc         F
  13      6     1.50     1.50      CH         F
  14      8     1.40     1.50      O          F
  15      1     1.20     1.50      CH         F
  16      6     1.50     1.50      CH2        F
  17      1     1.20     1.50      CH2        F
  18      1     1.20     1.50      CH2        F
  19      6     1.50     1.50      CH2        F
  20      1     1.20     1.50      CH2        F
  21      1     1.20     1.50      CH2        F
  22      6     1.50     1.50      CH         F
  23      1     1.20     1.50      CH         F
  24      6     1.50     1.50      CH2        F
  25      1     1.20     1.50      CH2        F
  26      1     1.20     1.50      CH2        F
  27      8     1.40     1.50      OH         F
  28      1     0.90     1.50      OH         F
  29      1     0.90     1.15      NHc        T
 ------------------------------------------------------------------------------
 Polarizable Continuum Model (PCM)
 =================================
 Model                : PCM.
 Atomic radii         : MST.
 Polarization charges : Total charges.
 Charge compensation  : None.
 Solution method      : On-the-fly selection.
 Cavity type          : Scaled VdW (van der Waals Surface) (Alpha=1.500).
 Cavity algorithm     : GePol (No added spheres)
                        Default sphere list used, NSphG=   29.
                        Lebedev-Laikov grids with approx.  5.0 points / Ang**2.
                        Smoothing algorithm: York/Karplus (Gamma=1.0000).
                        Polarization charges: spherical gaussians, with
                                              point-specific exponents (IZeta= 3).
                        Self-potential: point-specific (ISelfS= 7).
                        Self-field    : sphere-specific E.n sum rule (ISelfD= 2).
 1st derivatives      : Analytical E(r).r(x)/FMM algorithm (CHGder, D1EAlg=3).
                        Cavity 1st derivative terms included.
 Solvent              : n-Octanol, Eps=   9.862900 Eps(inf)=   2.043470
 ------------------------------------------------------------------------------
 GePol: Number of generator spheres                  =      29
 GePol: Total number of spheres                      =      29
 GePol: Number of exposed spheres                    =      29 (100.00%)
 GePol: Number of points                             =    2613
 GePol: Average weight of points                     =       0.11
 GePol: Minimum weight of points                     =   0.15D-11
 GePol: Maximum weight of points                     =    0.20837
 GePol: Number of points with low weight             =     153
 GePol: Fraction of low-weight points (<1% of avg)   =       5.86%
 GePol: Cavity surface area                          =    288.435 Ang**2
 GePol: Cavity volume                                =    324.915 Ang**3
 Surface areas from nonelectrostatic (unscaled) cavity and vdw tensions:
 Sphere =    1 Type =  NH  Surf =       14.477 Tension =       -0.234
 Sphere =    2 Type =  NH  Surf =        3.949 Tension =       -0.234
 Sphere =    3 Type =  NH  Surf =        3.827 Tension =       -0.234
 Sphere =    4 Type =  C   Surf =        5.652 Tension =       -0.205
 Sphere =    5 Type =  CH  Surf =        7.675 Tension =       -0.195
 Sphere =    6 Type =  CH  Surf =        7.534 Tension =       -0.195
 Sphere =    7 Type =  CH  Surf =        9.838 Tension =       -0.195
 Sphere =    8 Type =  CH  Surf =       10.204 Tension =       -0.195
 Sphere =    9 Type =  NHc Surf =        9.222 Tension =       -0.295
 Sphere =   10 Type =  C   Surf =        6.171 Tension =       -0.205
 Sphere =   11 Type =  O   Surf =       15.648 Tension =       -0.185
 Sphere =   12 Type =  Nc  Surf =        5.565 Tension =       -0.161
 Sphere =   13 Type =  CH  Surf =        2.775 Tension =       -0.195
 Sphere =   14 Type =  O   Surf =       10.255 Tension =       -0.185
 Sphere =   15 Type =  CH  Surf =        9.233 Tension =       -0.195
 Sphere =   16 Type =  CH2 Surf =        4.037 Tension =       -0.194
 Sphere =   17 Type =  CH2 Surf =        9.916 Tension =       -0.194
 Sphere =   18 Type =  CH2 Surf =        9.942 Tension =       -0.194
 Sphere =   19 Type =  CH2 Surf =        4.003 Tension =       -0.194
 Sphere =   20 Type =  CH2 Surf =        9.416 Tension =       -0.194
 Sphere =   21 Type =  CH2 Surf =        9.963 Tension =       -0.194
 Sphere =   22 Type =  CH  Surf =        3.303 Tension =       -0.195
 Sphere =   23 Type =  CH  Surf =        9.527 Tension =       -0.195
 Sphere =   24 Type =  CH2 Surf =        4.570 Tension =       -0.194
 Sphere =   25 Type =  CH2 Surf =       10.109 Tension =       -0.194
 Sphere =   26 Type =  CH2 Surf =       10.052 Tension =       -0.194
 Sphere =   27 Type =  OH  Surf =       14.619 Tension =       -0.238
 Sphere =   28 Type =  OH  Surf =        4.440 Tension =       -0.238
 Sphere =   29 Type =  NHc Surf =        3.821 Tension =       -0.295
 PCM non-electrostatic energy =        -0.0147763767 Hartrees.
 Nuclear repulsion after PCM non-electrostatic terms =     1059.5561877737 Hartrees.
 Leave Link  301 at Mon Jul 12 12:47:12 2021, MaxMem=   104857600 cpu:               0.1 elap:               0.1
 (Enter /dades/curu/g16A03_MST/g16/l302.exe)
 NPDir=0 NMtPBC=     1 NCelOv=     1 NCel=       1 NClECP=     1 NCelD=      1
         NCelK=      1 NCelE2=     1 NClLst=     1 CellRange=     0.0.
 One-electron integrals computed using PRISM.
 One-electron integral symmetry used in STVInt
 NBasis=   253 RedAO= T EigKep=  9.30D-04  NBF=   253
 NBsUse=   253 1.00D-06 EigRej= -1.00D+00 NBFU=   253
 Precomputing XC quadrature grid using
 IXCGrd= 4 IRadAn=           5 IRanWt=          -1 IRanGd=           0 AccXCQ= 0.00D+00.
 Generated NRdTot=       0 NPtTot=           0 NUsed=           0 NTot=          32
 NSgBfM=   252   252   252   252   252 MxSgAt=    29 MxSgA2=    29.
 Leave Link  302 at Mon Jul 12 12:47:13 2021, MaxMem=   104857600 cpu:               3.1 elap:               0.8
 (Enter /dades/curu/g16A03_MST/g16/l303.exe)
 DipDrv:  MaxL=1.
 Leave Link  303 at Mon Jul 12 12:47:13 2021, MaxMem=   104857600 cpu:               0.1 elap:               0.0
 (Enter /dades/curu/g16A03_MST/g16/l401.exe)
 ExpMin= 1.61D-01 ExpMax= 5.48D+03 ExpMxC= 8.25D+02 IAcc=3 IRadAn=         5 AccDes= 0.00D+00
 Harris functional with IExCor=  402 and IRadAn=       5 diagonalized for initial guess.
 HarFok:  IExCor=  402 AccDes= 0.00D+00 IRadAn=         5 IDoV= 1 UseB2=F ITyADJ=14
 ICtDFT=  3500011 ScaDFX=  1.000000  1.000000  1.000000  1.000000
 FoFCou: FMM=F IPFlag=           0 FMFlag=      100000 FMFlg1=           0
         NFxFlg=           0 DoJE=T BraDBF=F KetDBF=T FulRan=T
         wScrn=  0.000000 ICntrl=       500 IOpCl=  0 I1Cent=   200000004 NGrid=           0
         NMat0=    1 NMatS0=      1 NMatT0=    0 NMatD0=    1 NMtDS0=    0 NMtDT0=    0
 Petite list used in FoFCou.
 Harris En= -741.068848496494    
 JPrj=0 DoOrth=F DoCkMO=F.
 Leave Link  401 at Mon Jul 12 12:47:18 2021, MaxMem=   104857600 cpu:              21.5 elap:               5.4
 (Enter /dades/curu/g16A03_MST/g16/l502.exe)
 Integral symmetry usage will be decided dynamically.
 Closed shell SCF:
 Using DIIS extrapolation, IDIIS=  1040.
 NGot=   104857600 LenX=   104725134 LenY=   104660684
 Requested convergence on RMS density matrix=1.00D-08 within 128 cycles.
 Requested convergence on MAX density matrix=1.00D-06.
 Requested convergence on             energy=1.00D-06.
 No special actions if energy rises.
 Fock matrices will be formed incrementally for  20 cycles.

 Cycle   1  Pass 1  IDiag  1:
 FoFJK:  IHMeth= 1 ICntrl=       0 DoSepK=F KAlg= 0 I1Cent=           0 FoldK=F
 IRaf= 850000000 NMat=       1 IRICut=       1 DoRegI=T DoRafI=F ISym2E= 0 IDoP0=0 IntGTp=1.
 FoFCou: FMM=F IPFlag=           0 FMFlag=      100000 FMFlg1=           0
         NFxFlg=           0 DoJE=F BraDBF=F KetDBF=F FulRan=T
         wScrn=  0.000000 ICntrl=         0 IOpCl=  0 I1Cent=           0 NGrid=           0
         NMat0=    1 NMatS0=      1 NMatT0=    0 NMatD0=    1 NMtDS0=    0 NMtDT0=    0
 Symmetry not used in FoFCou.
 Inv3:  Mode=1 IEnd=    20483307.
 Iteration    1 A*A^-1 deviation from unit magnitude is 4.77D-15 for   2611.
 Iteration    1 A*A^-1 deviation from orthogonality  is 4.04D-15 for   2601   1264.
 Iteration    1 A^-1*A deviation from unit magnitude is 4.77D-15 for   2611.
 Iteration    1 A^-1*A deviation from orthogonality  is 3.63D-15 for   2612   2362.
 E= -740.788470665380    
 DIIS: error= 2.77D-02 at cycle   1 NSaved=   1.
 NSaved= 1 IEnMin= 1 EnMin= -740.788470665380     IErMin= 1 ErrMin= 2.77D-02
 ErrMax= 2.77D-02  0.00D+00 EMaxC= 1.00D-01 BMatC= 4.07D-01 BMatP= 4.07D-01
 IDIUse=3 WtCom= 7.23D-01 WtEn= 2.77D-01
 Coeff-Com:  0.100D+01
 Coeff-En:   0.100D+01
 Coeff:      0.100D+01
 Gap=     0.165 Goal=   None    Shift=    0.000
 GapD=    0.165 DampG=1.000 DampE=0.500 DampFc=0.5000 IDamp=-1.
 Damping current iteration by 5.00D-01
 RMSDP=6.09D-03 MaxDP=2.53D-01              OVMax= 2.23D-01

 Cycle   2  Pass 1  IDiag  1:
 RMSU=  3.03D-03    CP:  9.87D-01
 E= -740.867748781377     Delta-E=       -0.079278115997 Rises=F Damp=T
 DIIS: error= 1.49D-02 at cycle   2 NSaved=   2.
 NSaved= 2 IEnMin= 2 EnMin= -740.867748781377     IErMin= 2 ErrMin= 1.49D-02
 ErrMax= 1.49D-02  0.00D+00 EMaxC= 1.00D-01 BMatC= 7.56D-02 BMatP= 4.07D-01
 IDIUse=3 WtCom= 8.51D-01 WtEn= 1.49D-01
 Coeff-Com:  0.237D+00 0.763D+00
 Coeff-En:   0.377D+00 0.623D+00
 Coeff:      0.258D+00 0.742D+00
 Gap=     0.187 Goal=   None    Shift=    0.000
 RMSDP=1.90D-03 MaxDP=1.01D-01 DE=-7.93D-02 OVMax= 1.97D-01

 Cycle   3  Pass 1  IDiag  1:
 RMSU=  1.63D-03    CP:  9.78D-01  6.88D-01
 E= -741.085455577149     Delta-E=       -0.217706795771 Rises=F Damp=F
 DIIS: error= 1.59D-02 at cycle   3 NSaved=   3.
 NSaved= 3 IEnMin= 3 EnMin= -741.085455577149     IErMin= 2 ErrMin= 1.49D-02
 ErrMax= 1.59D-02  0.00D+00 EMaxC= 1.00D-01 BMatC= 5.48D-02 BMatP= 7.56D-02
 IDIUse=3 WtCom= 8.41D-01 WtEn= 1.59D-01
 Coeff-Com:  0.737D-01 0.451D+00 0.475D+00
 Coeff-En:   0.000D+00 0.000D+00 0.100D+01
 Coeff:      0.620D-01 0.379D+00 0.559D+00
 Gap=     0.171 Goal=   None    Shift=    0.000
 RMSDP=1.26D-03 MaxDP=6.63D-02 DE=-2.18D-01 OVMax= 1.04D-01

 Cycle   4  Pass 1  IDiag  1:
 RMSU=  7.28D-04    CP:  9.84D-01  8.23D-01  4.24D-01
 E= -741.121403568032     Delta-E=       -0.035947990884 Rises=F Damp=F
 DIIS: error= 6.74D-03 at cycle   4 NSaved=   4.
 NSaved= 4 IEnMin= 4 EnMin= -741.121403568032     IErMin= 4 ErrMin= 6.74D-03
 ErrMax= 6.74D-03  0.00D+00 EMaxC= 1.00D-01 BMatC= 1.40D-02 BMatP= 5.48D-02
 IDIUse=3 WtCom= 9.33D-01 WtEn= 6.74D-02
 Coeff-Com:  0.124D-01 0.768D-01 0.341D+00 0.570D+00
 Coeff-En:   0.000D+00 0.000D+00 0.230D+00 0.770D+00
 Coeff:      0.116D-01 0.716D-01 0.334D+00 0.583D+00
 Gap=     0.168 Goal=   None    Shift=    0.000
 RMSDP=4.68D-04 MaxDP=2.50D-02 DE=-3.59D-02 OVMax= 3.42D-02

 Cycle   5  Pass 1  IDiag  1:
 RMSU=  1.75D-04    CP:  9.83D-01  7.71D-01  6.05D-01  6.21D-01
 E= -741.132377503553     Delta-E=       -0.010973935521 Rises=F Damp=F
 DIIS: error= 1.33D-03 at cycle   5 NSaved=   5.
 NSaved= 5 IEnMin= 5 EnMin= -741.132377503553     IErMin= 5 ErrMin= 1.33D-03
 ErrMax= 1.33D-03  0.00D+00 EMaxC= 1.00D-01 BMatC= 4.21D-04 BMatP= 1.40D-02
 IDIUse=3 WtCom= 9.87D-01 WtEn= 1.33D-02
 Coeff-Com:  0.106D-02 0.652D-02 0.125D+00 0.284D+00 0.584D+00
 Coeff-En:   0.000D+00 0.000D+00 0.000D+00 0.000D+00 0.100D+01
 Coeff:      0.105D-02 0.644D-02 0.123D+00 0.280D+00 0.590D+00
 Gap=     0.171 Goal=   None    Shift=    0.000
 RMSDP=9.01D-05 MaxDP=3.88D-03 DE=-1.10D-02 OVMax= 4.03D-03

 Cycle   6  Pass 1  IDiag  1:
 RMSU=  4.64D-05    CP:  9.82D-01  7.75D-01  6.01D-01  6.60D-01  6.01D-01
 E= -741.132685025895     Delta-E=       -0.000307522342 Rises=F Damp=F
 DIIS: error= 4.39D-04 at cycle   6 NSaved=   6.
 NSaved= 6 IEnMin= 6 EnMin= -741.132685025895     IErMin= 6 ErrMin= 4.39D-04
 ErrMax= 4.39D-04  0.00D+00 EMaxC= 1.00D-01 BMatC= 4.57D-05 BMatP= 4.21D-04
 IDIUse=3 WtCom= 9.96D-01 WtEn= 4.39D-03
 Coeff-Com: -0.476D-03-0.234D-02 0.389D-01 0.102D+00 0.320D+00 0.542D+00
 Coeff-En:   0.000D+00 0.000D+00 0.000D+00 0.000D+00 0.665D-02 0.993D+00
 Coeff:     -0.474D-03-0.233D-02 0.387D-01 0.101D+00 0.319D+00 0.544D+00
 Gap=     0.171 Goal=   None    Shift=    0.000
 RMSDP=2.39D-05 MaxDP=1.22D-03 DE=-3.08D-04 OVMax= 1.03D-03

 Cycle   7  Pass 1  IDiag  1:
 RMSU=  1.44D-05    CP:  9.82D-01  7.75D-01  6.01D-01  6.61D-01  6.42D-01
                    CP:  6.23D-01
 E= -741.132718602151     Delta-E=       -0.000033576256 Rises=F Damp=F
 DIIS: error= 5.07D-05 at cycle   7 NSaved=   7.
 NSaved= 7 IEnMin= 7 EnMin= -741.132718602151     IErMin= 7 ErrMin= 5.07D-05
 ErrMax= 5.07D-05  0.00D+00 EMaxC= 1.00D-01 BMatC= 2.00D-06 BMatP= 4.57D-05
 IDIUse=1 WtCom= 1.00D+00 WtEn= 0.00D+00
 Coeff-Com: -0.224D-03-0.134D-02 0.905D-02 0.253D-01 0.109D+00 0.254D+00
 Coeff-Com:  0.605D+00
 Coeff:     -0.224D-03-0.134D-02 0.905D-02 0.253D-01 0.109D+00 0.254D+00
 Coeff:      0.605D+00
 Gap=     0.171 Goal=   None    Shift=    0.000
 RMSDP=6.38D-06 MaxDP=1.50D-04 DE=-3.36D-05 OVMax= 3.52D-04

 Cycle   8  Pass 1  IDiag  1:
 RMSU=  3.61D-06    CP:  9.82D-01  7.75D-01  6.01D-01  6.62D-01  6.49D-01
                    CP:  6.49D-01  6.61D-01
 E= -741.132720236691     Delta-E=       -0.000001634539 Rises=F Damp=F
 DIIS: error= 2.17D-05 at cycle   8 NSaved=   8.
 NSaved= 8 IEnMin= 8 EnMin= -741.132720236691     IErMin= 8 ErrMin= 2.17D-05
 ErrMax= 2.17D-05  0.00D+00 EMaxC= 1.00D-01 BMatC= 1.40D-07 BMatP= 2.00D-06
 IDIUse=1 WtCom= 1.00D+00 WtEn= 0.00D+00
 Coeff-Com: -0.434D-04-0.380D-03 0.897D-03 0.241D-02 0.230D-01 0.666D-01
 Coeff-Com:  0.253D+00 0.654D+00
 Coeff:     -0.434D-04-0.380D-03 0.897D-03 0.241D-02 0.230D-01 0.666D-01
 Coeff:      0.253D+00 0.654D+00
 Gap=     0.171 Goal=   None    Shift=    0.000
 RMSDP=2.01D-06 MaxDP=7.99D-05 DE=-1.63D-06 OVMax= 1.85D-04

 Cycle   9  Pass 1  IDiag  1:
 RMSU=  1.47D-06    CP:  9.82D-01  7.75D-01  6.02D-01  6.61D-01  6.50D-01
                    CP:  6.50D-01  7.11D-01  7.22D-01
 E= -741.132720330954     Delta-E=       -0.000000094263 Rises=F Damp=F
 DIIS: error= 7.81D-06 at cycle   9 NSaved=   9.
 NSaved= 9 IEnMin= 9 EnMin= -741.132720330954     IErMin= 9 ErrMin= 7.81D-06
 ErrMax= 7.81D-06  0.00D+00 EMaxC= 1.00D-01 BMatC= 4.14D-08 BMatP= 1.40D-07
 IDIUse=1 WtCom= 1.00D+00 WtEn= 0.00D+00
 Coeff-Com: -0.646D-05-0.900D-04-0.210D-03-0.838D-03 0.419D-02 0.164D-01
 Coeff-Com:  0.926D-01 0.407D+00 0.481D+00
 Coeff:     -0.646D-05-0.900D-04-0.210D-03-0.838D-03 0.419D-02 0.164D-01
 Coeff:      0.926D-01 0.407D+00 0.481D+00
 Gap=     0.171 Goal=   None    Shift=    0.000
 RMSDP=8.28D-07 MaxDP=3.70D-05 DE=-9.43D-08 OVMax= 7.83D-05

 Cycle  10  Pass 1  IDiag  1:
 RMSU=  4.22D-07    CP:  9.82D-01  7.75D-01  6.02D-01  6.61D-01  6.51D-01
                    CP:  6.52D-01  7.09D-01  7.96D-01  5.59D-01
 E= -741.132720367747     Delta-E=       -0.000000036794 Rises=F Damp=F
 DIIS: error= 1.34D-06 at cycle  10 NSaved=  10.
 NSaved=10 IEnMin=10 EnMin= -741.132720367747     IErMin=10 ErrMin= 1.34D-06
 ErrMax= 1.34D-06  0.00D+00 EMaxC= 1.00D-01 BMatC= 1.28D-09 BMatP= 4.14D-08
 IDIUse=1 WtCom= 1.00D+00 WtEn= 0.00D+00
 Coeff-Com: -0.944D-06-0.268D-05-0.201D-03-0.668D-03-0.411D-03 0.508D-03
 Coeff-Com:  0.130D-01 0.109D+00 0.204D+00 0.675D+00
 Coeff:     -0.944D-06-0.268D-05-0.201D-03-0.668D-03-0.411D-03 0.508D-03
 Coeff:      0.130D-01 0.109D+00 0.204D+00 0.675D+00
 Gap=     0.171 Goal=   None    Shift=    0.000
 RMSDP=1.70D-07 MaxDP=6.79D-06 DE=-3.68D-08 OVMax= 1.34D-05

 Cycle  11  Pass 1  IDiag  1:
 RMSU=  1.10D-07    CP:  9.82D-01  7.75D-01  6.02D-01  6.61D-01  6.51D-01
                    CP:  6.52D-01  7.11D-01  8.04D-01  6.14D-01  8.03D-01
 E= -741.132720368776     Delta-E=       -0.000000001029 Rises=F Damp=F
 DIIS: error= 4.11D-07 at cycle  11 NSaved=  11.
 NSaved=11 IEnMin=11 EnMin= -741.132720368776     IErMin=11 ErrMin= 4.11D-07
 ErrMax= 4.11D-07  0.00D+00 EMaxC= 1.00D-01 BMatC= 2.21D-10 BMatP= 1.28D-09
 IDIUse=1 WtCom= 1.00D+00 WtEn= 0.00D+00
 Coeff-Com: -0.750D-06 0.867D-05-0.901D-04-0.297D-03-0.560D-03-0.108D-02
 Coeff-Com: -0.960D-03 0.259D-01 0.726D-01 0.366D+00 0.538D+00
 Coeff:     -0.750D-06 0.867D-05-0.901D-04-0.297D-03-0.560D-03-0.108D-02
 Coeff:     -0.960D-03 0.259D-01 0.726D-01 0.366D+00 0.538D+00
 Gap=     0.171 Goal=   None    Shift=    0.000
 RMSDP=6.34D-08 MaxDP=2.39D-06 DE=-1.03D-09 OVMax= 3.27D-06

 Cycle  12  Pass 1  IDiag  1:
 RMSU=  3.83D-08    CP:  9.82D-01  7.75D-01  6.02D-01  6.61D-01  6.51D-01
                    CP:  6.52D-01  7.11D-01  8.08D-01  6.17D-01  8.55D-01
                    CP:  6.38D-01
 E= -741.132720368922     Delta-E=       -0.000000000146 Rises=F Damp=F
 DIIS: error= 1.32D-07 at cycle  12 NSaved=  12.
 NSaved=12 IEnMin=12 EnMin= -741.132720368922     IErMin=12 ErrMin= 1.32D-07
 ErrMax= 1.32D-07  0.00D+00 EMaxC= 1.00D-01 BMatC= 1.34D-11 BMatP= 2.21D-10
 IDIUse=1 WtCom= 1.00D+00 WtEn= 0.00D+00
 Coeff-Com: -0.733D-06 0.415D-05-0.157D-04-0.513D-04-0.172D-03-0.468D-03
 Coeff-Com: -0.195D-02-0.104D-02 0.836D-02 0.746D-01 0.232D+00 0.689D+00
 Coeff:     -0.733D-06 0.415D-05-0.157D-04-0.513D-04-0.172D-03-0.468D-03
 Coeff:     -0.195D-02-0.104D-02 0.836D-02 0.746D-01 0.232D+00 0.689D+00
 Gap=     0.171 Goal=   None    Shift=    0.000
 RMSDP=1.81D-08 MaxDP=7.11D-07 DE=-1.46D-10 OVMax= 1.25D-06

 Cycle  13  Pass 1  IDiag  1:
 RMSU=  1.36D-08    CP:  9.82D-01  7.75D-01  6.02D-01  6.61D-01  6.51D-01
                    CP:  6.52D-01  7.11D-01  8.09D-01  6.19D-01  8.63D-01
                    CP:  7.01D-01  7.78D-01
 E= -741.132720368951     Delta-E=       -0.000000000029 Rises=F Damp=F
 DIIS: error= 6.70D-08 at cycle  13 NSaved=  13.
 NSaved=13 IEnMin=13 EnMin= -741.132720368951     IErMin=13 ErrMin= 6.70D-08
 ErrMax= 6.70D-08  0.00D+00 EMaxC= 1.00D-01 BMatC= 2.47D-12 BMatP= 1.34D-11
 IDIUse=1 WtCom= 1.00D+00 WtEn= 0.00D+00
 Coeff-Com: -0.407D-06 0.154D-05-0.190D-06-0.286D-06-0.450D-04-0.165D-03
 Coeff-Com: -0.107D-02-0.340D-02-0.302D-02 0.206D-02 0.736D-01 0.383D+00
 Coeff-Com:  0.549D+00
 Coeff:     -0.407D-06 0.154D-05-0.190D-06-0.286D-06-0.450D-04-0.165D-03
 Coeff:     -0.107D-02-0.340D-02-0.302D-02 0.206D-02 0.736D-01 0.383D+00
 Coeff:      0.549D+00
 Gap=     0.171 Goal=   None    Shift=    0.000
 RMSDP=6.90D-09 MaxDP=2.15D-07 DE=-2.86D-11 OVMax= 3.03D-07

 Error on total polarization charges =  0.00503
 SCF Done:  E(RB3LYP) =  -741.132720369     A.U. after   13 cycles
            NFock= 13  Conv=0.69D-08     -V/T= 2.0085
 KE= 7.349057736086D+02 PE=-3.830265689531D+03 EE= 1.294671007780D+03
 Leave Link  502 at Mon Jul 12 12:49:50 2021, MaxMem=   104857600 cpu:             582.8 elap:             151.8
 (Enter /dades/curu/g16A03_MST/g16/l601.exe)
 Copying SCF densities to generalized density rwf, IOpCl= 0 IROHF=0.

 **********************************************************************

            Population analysis using the SCF density.

 **********************************************************************

 Orbital symmetries:
       Occupied  (A) (A) (A) (A) (A) (A) (A) (A) (A) (A) (A) (A)
                 (A) (A) (A) (A) (A) (A) (A) (A) (A) (A) (A) (A)
                 (A) (A) (A) (A) (A) (A) (A) (A) (A) (A) (A) (A)
                 (A) (A) (A) (A) (A) (A) (A) (A) (A) (A) (A) (A)
                 (A) (A) (A) (A) (A) (A) (A) (A)
       Virtual   (A) (A) (A) (A) (A) (A) (A) (A) (A) (A) (A) (A)
                 (A) (A) (A) (A) (A) (A) (A) (A) (A) (A) (A) (A)
                 (A) (A) (A) (A) (A) (A) (A) (A) (A) (A) (A) (A)
                 (A) (A) (A) (A) (A) (A) (A) (A) (A) (A) (A) (A)
                 (A) (A) (A) (A) (A) (A) (A) (A) (A) (A) (A) (A)
                 (A) (A) (A) (A) (A) (A) (A) (A) (A) (A) (A) (A)
                 (A) (A) (A) (A) (A) (A) (A) (A) (A) (A) (A) (A)
                 (A) (A) (A) (A) (A) (A) (A) (A) (A) (A) (A) (A)
                 (A) (A) (A) (A) (A) (A) (A) (A) (A) (A) (A) (A)
                 (A) (A) (A) (A) (A) (A) (A) (A) (A) (A) (A) (A)
                 (A) (A) (A) (A) (A) (A) (A) (A) (A) (A) (A) (A)
                 (A) (A) (A) (A) (A) (A) (A) (A) (A) (A) (A) (A)
                 (A) (A) (A) (A) (A) (A) (A) (A) (A) (A) (A) (A)
                 (A) (A) (A) (A) (A) (A) (A) (A) (A) (A) (A) (A)
                 (A) (A) (A) (A) (A) (A) (A) (A) (A) (A) (A) (A)
                 (A) (A) (A) (A) (A) (A) (A) (A) (A) (A) (A) (A)
                 (A) (A) (A) (A) (A)
 The electronic state is 1-A.
 Alpha  occ. eigenvalues --  -19.18137 -19.17019 -19.16407 -14.45480 -14.44972
 Alpha  occ. eigenvalues --  -14.41669 -10.38232 -10.35225 -10.31196 -10.30737
 Alpha  occ. eigenvalues --  -10.25620 -10.25315 -10.24759 -10.20455 -10.19570
 Alpha  occ. eigenvalues --   -1.13742  -1.08326  -1.07292  -1.02558  -1.01689
 Alpha  occ. eigenvalues --   -0.96860  -0.85479  -0.81665  -0.78619  -0.75252
 Alpha  occ. eigenvalues --   -0.73324  -0.69348  -0.64727  -0.64178  -0.61780
 Alpha  occ. eigenvalues --   -0.59868  -0.57217  -0.56381  -0.55623  -0.54132
 Alpha  occ. eigenvalues --   -0.52369  -0.51463  -0.49836  -0.48463  -0.47802
 Alpha  occ. eigenvalues --   -0.46718  -0.46279  -0.45267  -0.44611  -0.41822
 Alpha  occ. eigenvalues --   -0.41093  -0.38230  -0.37432  -0.36110  -0.34718
 Alpha  occ. eigenvalues --   -0.33854  -0.33669  -0.32539  -0.30888  -0.29068
 Alpha  occ. eigenvalues --   -0.26917
 Alpha virt. eigenvalues --   -0.09854  -0.04766   0.02621   0.04402   0.06678
 Alpha virt. eigenvalues --    0.07196   0.07341   0.08209   0.09134   0.11434
 Alpha virt. eigenvalues --    0.11781   0.12259   0.12653   0.13939   0.14548
 Alpha virt. eigenvalues --    0.15206   0.16094   0.16591   0.18073   0.19370
 Alpha virt. eigenvalues --    0.20149   0.21174   0.22039   0.23649   0.25302
 Alpha virt. eigenvalues --    0.27023   0.27103   0.28184   0.29967   0.32072
 Alpha virt. eigenvalues --    0.32641   0.36042   0.42399   0.43765   0.45693
 Alpha virt. eigenvalues --    0.48041   0.48475   0.50890   0.51054   0.51528
 Alpha virt. eigenvalues --    0.53167   0.53965   0.55195   0.55752   0.56591
 Alpha virt. eigenvalues --    0.57446   0.58281   0.59599   0.60243   0.61784
 Alpha virt. eigenvalues --    0.62863   0.64380   0.64726   0.66341   0.67211
 Alpha virt. eigenvalues --    0.69903   0.71652   0.73286   0.74699   0.76923
 Alpha virt. eigenvalues --    0.77946   0.78689   0.79976   0.80498   0.81251
 Alpha virt. eigenvalues --    0.81666   0.82178   0.83738   0.84257   0.85307
 Alpha virt. eigenvalues --    0.85903   0.86101   0.87037   0.88176   0.89397
 Alpha virt. eigenvalues --    0.89668   0.90590   0.92451   0.93245   0.94489
 Alpha virt. eigenvalues --    0.95879   0.98179   1.00261   1.00906   1.01527
 Alpha virt. eigenvalues --    1.03670   1.04360   1.08505   1.09768   1.10083
 Alpha virt. eigenvalues --    1.12448   1.13295   1.15212   1.21730   1.23620
 Alpha virt. eigenvalues --    1.24115   1.25067   1.29628   1.30546   1.33104
 Alpha virt. eigenvalues --    1.36295   1.38543   1.39368   1.41360   1.43892
 Alpha virt. eigenvalues --    1.45142   1.48894   1.50149   1.51219   1.54137
 Alpha virt. eigenvalues --    1.55998   1.56947   1.63501   1.65173   1.67888
 Alpha virt. eigenvalues --    1.70323   1.71436   1.72809   1.76224   1.76862
 Alpha virt. eigenvalues --    1.78858   1.79355   1.81047   1.82976   1.84295
 Alpha virt. eigenvalues --    1.85249   1.86994   1.87556   1.89672   1.91050
 Alpha virt. eigenvalues --    1.93273   1.94134   1.97756   1.98424   2.00662
 Alpha virt. eigenvalues --    2.01398   2.05236   2.06709   2.08199   2.10690
 Alpha virt. eigenvalues --    2.11793   2.12472   2.14128   2.16253   2.17534
 Alpha virt. eigenvalues --    2.21216   2.22949   2.24557   2.25543   2.26324
 Alpha virt. eigenvalues --    2.28341   2.29904   2.32902   2.33797   2.38723
 Alpha virt. eigenvalues --    2.40235   2.41366   2.42331   2.45550   2.47611
 Alpha virt. eigenvalues --    2.48466   2.50472   2.52578   2.55084   2.57431
 Alpha virt. eigenvalues --    2.60337   2.63095   2.66538   2.68908   2.72287
 Alpha virt. eigenvalues --    2.72637   2.73708   2.75294   2.79359   2.82540
 Alpha virt. eigenvalues --    2.83565   2.88882   2.94824   2.96561   3.03323
 Alpha virt. eigenvalues --    3.22148   3.43425   3.73312   3.82610   3.94949
 Alpha virt. eigenvalues --    3.97053   4.05986   4.09621   4.16576   4.20822
 Alpha virt. eigenvalues --    4.24275   4.29039   4.39291   4.45836   4.52411
 Alpha virt. eigenvalues --    4.59456   4.67520
          Condensed to atoms (all electrons):
               1          2          3          4          5          6
     1  N    6.901075   0.315578   0.312310   0.373901  -0.063634   0.004897
     2  H    0.315578   0.318715  -0.014344  -0.024936  -0.003243   0.000116
     3  H    0.312310  -0.014344   0.326693  -0.025368   0.004433  -0.000238
     4  C    0.373901  -0.024936  -0.025368   4.328918   0.462005  -0.008790
     5  C   -0.063634  -0.003243   0.004433   0.462005   5.028911   0.537816
     6  C    0.004897   0.000116  -0.000238  -0.008790   0.537816   4.724072
     7  H   -0.000075   0.000000   0.000003   0.002716  -0.025501   0.360243
     8  H   -0.005988   0.003160  -0.000007  -0.029228   0.368754  -0.029699
     9  N   -0.092258   0.004494  -0.006888   0.349281  -0.036695  -0.024417
    10  C    0.002817  -0.000109   0.000213  -0.028585  -0.018036  -0.026636
    11  O   -0.000131   0.000003  -0.000062   0.001989   0.001006   0.001120
    12  N    0.000183   0.000030   0.000012  -0.019545  -0.027981   0.311161
    13  C    0.000007  -0.000000   0.000000   0.000452   0.004535  -0.024926
    14  O   -0.000000   0.000000  -0.000000  -0.000015   0.001000   0.006049
    15  H   -0.000000  -0.000000  -0.000000  -0.000028  -0.000015   0.005139
    16  C    0.000000   0.000000   0.000000   0.000049  -0.000374  -0.000606
    17  H   -0.000000   0.000000  -0.000000   0.000016  -0.000161   0.002229
    18  H    0.000000  -0.000000  -0.000000  -0.000004   0.000014  -0.000085
    19  C   -0.000000  -0.000000  -0.000000  -0.000000   0.000007   0.000194
    20  H   -0.000000   0.000000   0.000000  -0.000000   0.000001  -0.000013
    21  H    0.000000   0.000000   0.000000   0.000000  -0.000000  -0.000005
    22  C    0.000000  -0.000000   0.000000  -0.000000   0.000012  -0.000012
    23  H    0.000000  -0.000000   0.000000   0.000000  -0.000006  -0.000096
    24  C   -0.000000   0.000000  -0.000000  -0.000000   0.000001   0.000041
    25  H    0.000000   0.000000   0.000000   0.000000  -0.000000   0.000001
    26  H    0.000000  -0.000000   0.000000   0.000000  -0.000000  -0.000001
    27  O    0.000000  -0.000000   0.000000   0.000000  -0.000000   0.000000
    28  H   -0.000000   0.000000  -0.000000   0.000000  -0.000000   0.000000
    29  H   -0.004722   0.000071   0.005109  -0.025142   0.004467  -0.000238
               7          8          9         10         11         12
     1  N   -0.000075  -0.005988  -0.092258   0.002817  -0.000131   0.000183
     2  H    0.000000   0.003160   0.004494  -0.000109   0.000003   0.000030
     3  H    0.000003  -0.000007  -0.006888   0.000213  -0.000062   0.000012
     4  C    0.002716  -0.029228   0.349281  -0.028585   0.001989  -0.019545
     5  C   -0.025501   0.368754  -0.036695  -0.018036   0.001006  -0.027981
     6  C    0.360243  -0.029699  -0.024417  -0.026636   0.001120   0.311161
     7  H    0.448203  -0.002304  -0.000211   0.001630  -0.000096  -0.044157
     8  H   -0.002304   0.475582   0.004236   0.000563   0.000003   0.003091
     9  N   -0.000211   0.004236   7.059702   0.286854  -0.091703  -0.086015
    10  C    0.001630   0.000563   0.286854   4.142750   0.598101   0.257952
    11  O   -0.000096   0.000003  -0.091703   0.598101   8.058901  -0.091038
    12  N   -0.044157   0.003091  -0.086015   0.257952  -0.091038   7.147264
    13  C   -0.002632  -0.000104   0.002160  -0.024256   0.003931   0.194353
    14  O    0.012746   0.000003  -0.000022   0.002165   0.000235  -0.043382
    15  H    0.000550   0.000003   0.000143  -0.003549   0.009885  -0.053607
    16  C    0.000585   0.000001  -0.000127  -0.003112   0.000077  -0.043218
    17  H    0.000494   0.000000  -0.000038   0.000119  -0.000141  -0.004253
    18  H   -0.000022   0.000000   0.000029   0.001336   0.001545   0.000695
    19  C   -0.000105  -0.000000   0.000002   0.000156   0.000078   0.003399
    20  H    0.000008   0.000000  -0.000000  -0.000004  -0.000001  -0.000102
    21  H    0.000001   0.000000  -0.000000  -0.000004   0.000001  -0.000042
    22  C    0.000121  -0.000000   0.000001   0.000000   0.000003   0.002089
    23  H   -0.000197  -0.000000  -0.000000   0.000003   0.000000   0.000147
    24  C    0.000042   0.000000  -0.000000  -0.000001  -0.000001  -0.000209
    25  H    0.000001  -0.000000  -0.000000  -0.000000  -0.000000   0.000005
    26  H   -0.000001  -0.000000   0.000000  -0.000000   0.000000   0.000006
    27  O    0.000000  -0.000000   0.000000  -0.000011   0.000000   0.000197
    28  H   -0.000000  -0.000000   0.000000   0.000001  -0.000002  -0.000015
    29  H    0.000017  -0.000112   0.295612  -0.004396   0.004932   0.003486
              13         14         15         16         17         18
     1  N    0.000007  -0.000000  -0.000000   0.000000  -0.000000   0.000000
     2  H   -0.000000   0.000000  -0.000000   0.000000   0.000000  -0.000000
     3  H    0.000000  -0.000000  -0.000000   0.000000  -0.000000  -0.000000
     4  C    0.000452  -0.000015  -0.000028   0.000049   0.000016  -0.000004
     5  C    0.004535   0.001000  -0.000015  -0.000374  -0.000161   0.000014
     6  C   -0.024926   0.006049   0.005139  -0.000606   0.002229  -0.000085
     7  H   -0.002632   0.012746   0.000550   0.000585   0.000494  -0.000022
     8  H   -0.000104   0.000003   0.000003   0.000001   0.000000   0.000000
     9  N    0.002160  -0.000022   0.000143  -0.000127  -0.000038   0.000029
    10  C   -0.024256   0.002165  -0.003549  -0.003112   0.000119   0.001336
    11  O    0.003931   0.000235   0.009885   0.000077  -0.000141   0.001545
    12  N    0.194353  -0.043382  -0.053607  -0.043218  -0.004253   0.000695
    13  C    4.758935   0.233865   0.377460   0.338923  -0.032935  -0.015637
    14  O    0.233865   8.317546  -0.056501  -0.051742   0.000665   0.002734
    15  H    0.377460  -0.056501   0.555001  -0.046584   0.003927  -0.003065
    16  C    0.338923  -0.051742  -0.046584   5.168236   0.375305   0.363859
    17  H   -0.032935   0.000665   0.003927   0.375305   0.558002  -0.033071
    18  H   -0.015637   0.002734  -0.003065   0.363859  -0.033071   0.531118
    19  C   -0.072746  -0.049400   0.001917   0.353950  -0.033193  -0.032286
    20  H    0.004536   0.003135  -0.000146  -0.038651  -0.014482   0.004797
    21  H    0.004363   0.002126   0.000242  -0.035652   0.004455  -0.011150
    22  C   -0.045013   0.236796   0.002491  -0.065019   0.004027   0.004131
    23  H    0.006893  -0.035484  -0.000297   0.004010  -0.000262  -0.000221
    24  C   -0.003449  -0.044867   0.001111   0.001151  -0.000035   0.000164
    25  H   -0.000106  -0.000899   0.000353  -0.000230   0.000006  -0.000001
    26  H    0.000138   0.003087  -0.000010   0.000161  -0.000006  -0.000026
    27  O   -0.001308   0.001793   0.016254  -0.000784   0.000006   0.000090
    28  H    0.000189   0.001553  -0.000222   0.000127  -0.000001  -0.000021
    29  H   -0.000035   0.000000  -0.000004   0.000001   0.000000  -0.000000
              19         20         21         22         23         24
     1  N   -0.000000  -0.000000   0.000000   0.000000   0.000000  -0.000000
     2  H   -0.000000   0.000000   0.000000  -0.000000  -0.000000   0.000000
     3  H   -0.000000   0.000000   0.000000   0.000000   0.000000  -0.000000
     4  C   -0.000000  -0.000000   0.000000  -0.000000   0.000000  -0.000000
     5  C    0.000007   0.000001  -0.000000   0.000012  -0.000006   0.000001
     6  C    0.000194  -0.000013  -0.000005  -0.000012  -0.000096   0.000041
     7  H   -0.000105   0.000008   0.000001   0.000121  -0.000197   0.000042
     8  H   -0.000000   0.000000   0.000000  -0.000000  -0.000000   0.000000
     9  N    0.000002  -0.000000  -0.000000   0.000001  -0.000000  -0.000000
    10  C    0.000156  -0.000004  -0.000004   0.000000   0.000003  -0.000001
    11  O    0.000078  -0.000001   0.000001   0.000003   0.000000  -0.000001
    12  N    0.003399  -0.000102  -0.000042   0.002089   0.000147  -0.000209
    13  C   -0.072746   0.004536   0.004363  -0.045013   0.006893  -0.003449
    14  O   -0.049400   0.003135   0.002126   0.236796  -0.035484  -0.044867
    15  H    0.001917  -0.000146   0.000242   0.002491  -0.000297   0.001111
    16  C    0.353950  -0.038651  -0.035652  -0.065019   0.004010   0.001151
    17  H   -0.033193  -0.014482   0.004455   0.004027  -0.000262  -0.000035
    18  H   -0.032286   0.004797  -0.011150   0.004131  -0.000221   0.000164
    19  C    5.122810   0.379201   0.377809   0.351521  -0.053981  -0.039980
    20  H    0.379201   0.567272  -0.023804  -0.038399  -0.013010   0.004346
    21  H    0.377809  -0.023804   0.534222  -0.030800   0.004661  -0.007110
    22  C    0.351521  -0.038399  -0.030800   4.891477   0.366243   0.326807
    23  H   -0.053981  -0.013010   0.004661   0.366243   0.601898  -0.042779
    24  C   -0.039980   0.004346  -0.007110   0.326807  -0.042779   4.926348
    25  H    0.005442  -0.000156   0.000303  -0.036843  -0.001385   0.365027
    26  H   -0.004653   0.000067   0.001418  -0.045847   0.005931   0.360217
    27  O    0.001296   0.000110   0.003154  -0.060794   0.002802   0.251063
    28  H   -0.000242  -0.000009  -0.000133   0.000140  -0.000130  -0.021588
    29  H   -0.000000   0.000000   0.000000  -0.000000  -0.000000   0.000000
              25         26         27         28         29
     1  N    0.000000   0.000000   0.000000  -0.000000  -0.004722
     2  H    0.000000  -0.000000  -0.000000   0.000000   0.000071
     3  H    0.000000   0.000000   0.000000  -0.000000   0.005109
     4  C    0.000000   0.000000   0.000000   0.000000  -0.025142
     5  C   -0.000000  -0.000000  -0.000000  -0.000000   0.004467
     6  C    0.000001  -0.000001   0.000000   0.000000  -0.000238
     7  H    0.000001  -0.000001   0.000000  -0.000000   0.000017
     8  H   -0.000000  -0.000000  -0.000000  -0.000000  -0.000112
     9  N   -0.000000   0.000000   0.000000   0.000000   0.295612
    10  C   -0.000000  -0.000000  -0.000011   0.000001  -0.004396
    11  O   -0.000000   0.000000   0.000000  -0.000002   0.004932
    12  N    0.000005   0.000006   0.000197  -0.000015   0.003486
    13  C   -0.000106   0.000138  -0.001308   0.000189  -0.000035
    14  O   -0.000899   0.003087   0.001793   0.001553   0.000000
    15  H    0.000353  -0.000010   0.016254  -0.000222  -0.000004
    16  C   -0.000230   0.000161  -0.000784   0.000127   0.000001
    17  H    0.000006  -0.000006   0.000006  -0.000001   0.000000
    18  H   -0.000001  -0.000026   0.000090  -0.000021  -0.000000
    19  C    0.005442  -0.004653   0.001296  -0.000242  -0.000000
    20  H   -0.000156   0.000067   0.000110  -0.000009   0.000000
    21  H    0.000303   0.001418   0.003154  -0.000133   0.000000
    22  C   -0.036843  -0.045847  -0.060794   0.000140  -0.000000
    23  H   -0.001385   0.005931   0.002802  -0.000130  -0.000000
    24  C    0.365027   0.360217   0.251063  -0.021588   0.000000
    25  H    0.583596  -0.040594  -0.024053  -0.010464  -0.000000
    26  H   -0.040594   0.589510  -0.034021   0.005244  -0.000000
    27  O   -0.024053  -0.034021   8.239620   0.238185  -0.000000
    28  H   -0.010464   0.005244   0.238185   0.359332   0.000000
    29  H   -0.000000  -0.000000  -0.000000   0.000000   0.276576
 Mulliken charges:
               1
     1  N   -0.743960
     2  H    0.400466
     3  H    0.398135
     4  C    0.642313
     5  C   -0.237318
     6  C    0.162685
     7  H    0.247942
     8  H    0.212047
     9  N   -0.664142
    10  C    0.814038
    11  O   -0.498635
    12  N   -0.510504
    13  C    0.292408
    14  O   -0.543188
    15  H    0.189555
    16  C   -0.320337
    17  H    0.169327
    18  H    0.185076
    19  C   -0.311195
    20  H    0.165301
    21  H    0.175946
    22  C    0.136866
    23  H    0.155263
    24  C   -0.076297
    25  H    0.159997
    26  H    0.159379
    27  O   -0.633602
    28  H    0.428056
    29  H    0.444380
 Sum of Mulliken charges =   1.00000
 Mulliken charges with hydrogens summed into heavy atoms:
               1
     1  N    0.054640
     4  C    0.642313
     5  C   -0.025271
     6  C    0.410626
     9  N   -0.219762
    10  C    0.814038
    11  O   -0.498635
    12  N   -0.510504
    13  C    0.481963
    14  O   -0.543188
    16  C    0.034066
    19  C    0.030052
    22  C    0.292129
    24  C    0.243079
    27  O   -0.205546
 Electronic spatial extent (au):  <R**2>=           3716.2649
 Charge=              1.0000 electrons
 Dipole moment (field-independent basis, Debye):
    X=            -11.7376    Y=             -4.0208    Z=             -2.3038  Tot=             12.6193
 Quadrupole moment (field-independent basis, Debye-Ang):
   XX=            -19.7422   YY=            -80.2547   ZZ=            -76.9313
   XY=             -4.3851   XZ=             10.8606   YZ=             -2.8959
 Traceless Quadrupole moment (field-independent basis, Debye-Ang):
   XX=             39.2338   YY=            -21.2786   ZZ=            -17.9552
   XY=             -4.3851   XZ=             10.8606   YZ=             -2.8959
 Octapole moment (field-independent basis, Debye-Ang**2):
  XXX=           -219.2273  YYY=            -22.1845  ZZZ=            -20.2482  XYY=            -35.6365
  XXY=            -21.7430  XXZ=            -67.8653  XZZ=              7.7172  YZZ=             10.2541
  YYZ=             -7.0033  XYZ=             -0.5737
 Hexadecapole moment (field-independent basis, Debye-Ang**3):
 XXXX=          -2559.6686 YYYY=           -581.9172 ZZZZ=           -368.0206 XXXY=            -93.5429
 XXXZ=            257.2756 YYYX=             11.4144 YYYZ=            -10.7836 ZZZX=            -37.3424
 ZZZY=            -18.1077 XXYY=           -584.0938 XXZZ=           -586.3719 YYZZ=           -157.8310
 XXYZ=             16.7740 YYXZ=             23.8368 ZZXY=              7.3068
 N-N= 1.059556187774D+03 E-N=-3.830265685563D+03  KE= 7.349057736086D+02
 No NMR shielding tensors so no spin-rotation constants.
 Leave Link  601 at Mon Jul 12 12:49:50 2021, MaxMem=   104857600 cpu:               0.4 elap:               0.1
 (Enter /dades/curu/g16A03_MST/g16/l701.exe)
 ... and contract with generalized density number  0.
 Compute integral first derivatives.
 D1PCM: PCM CHGder 1st derivatives, ID1Alg=3 FixD1E=F DoIter=F DoCFld=F I1PDM=0.
 GePol: Maximum number of non-zero 1st derivatives   =     399
 Leave Link  701 at Mon Jul 12 12:49:53 2021, MaxMem=   104857600 cpu:              13.1 elap:               3.4
 (Enter /dades/curu/g16A03_MST/g16/l702.exe)
 L702 exits ... SP integral derivatives will be done elsewhere.
 Leave Link  702 at Mon Jul 12 12:49:53 2021, MaxMem=   104857600 cpu:               0.0 elap:               0.0
 (Enter /dades/curu/g16A03_MST/g16/l703.exe)
 Integral derivatives from FoFJK, PRISM(SPDF).
 Compute integral first derivatives, UseDBF=F ICtDFT=           0.
 Calling FoFJK, ICntrl=      2127 FMM=F ISym2X=0 I1Cent= 0 IOpClX= 0 NMat=1 NMatS=1 NMatT=0.
 FoFJK:  IHMeth= 1 ICntrl=    2127 DoSepK=F KAlg= 0 I1Cent=           0 FoldK=F
 IRaf=         0 NMat=       1 IRICut=       1 DoRegI=T DoRafI=F ISym2E= 0 IDoP0=0 IntGTp=1.
 FoFCou: FMM=F IPFlag=           0 FMFlag=      100000 FMFlg1=         800
         NFxFlg=           0 DoJE=F BraDBF=F KetDBF=F FulRan=T
         wScrn=  0.000000 ICntrl=      2127 IOpCl=  0 I1Cent=           0 NGrid=           0
         NMat0=    1 NMatS0=      1 NMatT0=    0 NMatD0=    1 NMtDS0=    0 NMtDT0=    0
 Symmetry not used in FoFCou.
 Leave Link  703 at Mon Jul 12 12:50:15 2021, MaxMem=   104857600 cpu:              87.0 elap:              21.8
 (Enter /dades/curu/g16A03_MST/g16/l716.exe)
 Dipole        =-4.61794179D+00-1.58191233D+00-9.06376464D-01
 ***** Axes restored to original set *****
 -------------------------------------------------------------------
 Center     Atomic                   Forces (Hartrees/Bohr)
 Number     Number              X              Y              Z
 -------------------------------------------------------------------
      1        7           0.028378337    0.011513174   -0.003855637
      2        1           0.002293587    0.007463812    0.014740269
      3        1           0.013714723    0.022803318    0.012829761
      4        6           0.067774524    0.028878579   -0.043065335
      5        6           0.022386389    0.027010679   -0.001543442
      6        6          -0.021955131   -0.010862218    0.008818461
      7        1           0.002628218   -0.000377650    0.003296295
      8        1          -0.003062924   -0.001424156   -0.001590571
      9        7          -0.071117039   -0.065381444   -0.025930289
     10        6          -0.015267422   -0.024027747    0.054668295
     11        8          -0.012840046   -0.002582603   -0.014700443
     12        7           0.020384578    0.014882945   -0.010392976
     13        6          -0.018852174   -0.041898458   -0.003282527
     14        8           0.012494973    0.013186449   -0.015843861
     15        1          -0.013725630    0.020182922    0.004796231
     16        6          -0.009161594    0.020801973    0.023029122
     17        1           0.006364169    0.003867551    0.005197337
     18        1           0.003955586    0.002766965    0.009159304
     19        6          -0.002250334   -0.012874574   -0.019064860
     20        1          -0.013865646   -0.008479017   -0.006171116
     21        1           0.005547184   -0.004123269   -0.009990596
     22        6          -0.004403392   -0.000924521    0.002203844
     23        1           0.017407715   -0.011260699    0.008433612
     24        6          -0.004743474    0.011635407    0.000225713
     25        1           0.000879459    0.001936334    0.006679278
[...]
 Alpha virt. eigenvalues --    0.72101   0.72310   0.72663   0.73146   0.74176
 Alpha virt. eigenvalues --    0.74744   0.74869   0.75483   0.75907   0.76451
 Alpha virt. eigenvalues --    0.77215   0.77595   0.77824   0.78460   0.78833
 Alpha virt. eigenvalues --    0.79167   0.80451   0.80664   0.81581   0.82810
 Alpha virt. eigenvalues --    0.83572   0.83776   0.84122   0.84521   0.85655
 Alpha virt. eigenvalues --    0.86062   0.86987   0.87356   0.88491   0.88694
 Alpha virt. eigenvalues --    0.89119   0.90580   0.90697   0.92015   0.92579
 Alpha virt. eigenvalues --    0.94057   0.94964   0.95197   0.96656   0.97375
 Alpha virt. eigenvalues --    0.98271   0.99787   1.02002   1.02908   1.03407
 Alpha virt. eigenvalues --    1.04912   1.06725   1.06956   1.08010   1.08645
 Alpha virt. eigenvalues --    1.08900   1.11336   1.12177   1.12714   1.13893
 Alpha virt. eigenvalues --    1.14786   1.15664   1.16433   1.17904   1.19305
 Alpha virt. eigenvalues --    1.20928   1.21985   1.24005   1.24099   1.25489
 Alpha virt. eigenvalues --    1.25973   1.27129   1.28287   1.30130   1.30246
 Alpha virt. eigenvalues --    1.32823   1.34042   1.34795   1.35669   1.36791
 Alpha virt. eigenvalues --    1.38077   1.40609   1.41048   1.41935   1.42691
 Alpha virt. eigenvalues --    1.43958   1.44759   1.45978   1.46907   1.49336
 Alpha virt. eigenvalues --    1.49746   1.51306   1.51798   1.55100   1.55298
 Alpha virt. eigenvalues --    1.56221   1.56557   1.58112   1.58571   1.59864
 Alpha virt. eigenvalues --    1.60648   1.61389   1.62775   1.64142   1.65488
 Alpha virt. eigenvalues --    1.65959   1.68095   1.69186   1.69418   1.70627
 Alpha virt. eigenvalues --    1.72681   1.73164   1.74360   1.75430   1.76026
 Alpha virt. eigenvalues --    1.77844   1.78223   1.79030   1.80035   1.80707
 Alpha virt. eigenvalues --    1.81521   1.82103   1.83687   1.84862   1.85100
 Alpha virt. eigenvalues --    1.86005   1.87052   1.88599   1.90433   1.91068
 Alpha virt. eigenvalues --    1.92429   1.93587   1.94491   1.96158   1.96543
 Alpha virt. eigenvalues --    1.97953   2.00751   2.00889   2.01728   2.02975
 Alpha virt. eigenvalues --    2.03641   2.04528   2.05556   2.06697   2.06886
 Alpha virt. eigenvalues --    2.07881   2.08432   2.09822   2.10917   2.11132
 Alpha virt. eigenvalues --    2.11566   2.14336   2.14662   2.15699   2.16309
 Alpha virt. eigenvalues --    2.16823   2.17847   2.18441   2.19825   2.20907
 Alpha virt. eigenvalues --    2.23494   2.23620   2.24982   2.26252   2.27015
 Alpha virt. eigenvalues --    2.28733   2.29899   2.31672   2.33081   2.33901
 Alpha virt. eigenvalues --    2.35107   2.36000   2.36589   2.37325   2.39878
 Alpha virt. eigenvalues --    2.40134   2.42129   2.43455   2.45608   2.45856
 Alpha virt. eigenvalues --    2.47529   2.48523   2.49981   2.50213   2.52144
 Alpha virt. eigenvalues --    2.53509   2.55087   2.56043   2.56785   2.58284
 Alpha virt. eigenvalues --    2.59243   2.61290   2.63857   2.64000   2.65351
 Alpha virt. eigenvalues --    2.68401   2.69848   2.70709   2.71319   2.72750
 Alpha virt. eigenvalues --    2.73595   2.74535   2.76320   2.77606   2.79025
 Alpha virt. eigenvalues --    2.80121   2.81739   2.83548   2.84966   2.86138
 Alpha virt. eigenvalues --    2.87447   2.90115   2.90454   2.93046   2.95440
 Alpha virt. eigenvalues --    2.97893   2.99576   3.00778   3.03984   3.06983
 Alpha virt. eigenvalues --    3.07959   3.09463   3.10697   3.13038   3.14492
 Alpha virt. eigenvalues --    3.22334   3.22778   3.26625   3.30153   3.35174
 Alpha virt. eigenvalues --    3.40732   3.46892   3.54457   3.61932   3.65657
 Alpha virt. eigenvalues --    3.68374   3.69820   3.71046   3.72365   3.76565
 Alpha virt. eigenvalues --    3.78137   3.81229   3.82748   3.84152   3.87585
 Alpha virt. eigenvalues --    3.88323   3.91895   3.96088   3.98219   4.06213
 Alpha virt. eigenvalues --    4.09869   4.20402   4.25421   4.30761   4.38098
          Condensed to atoms (all electrons):
               1          2          3          4          5          6
     1  N    6.454405   0.420015   0.482024   0.206972  -0.192459   0.117212
     2  H    0.420015   0.771569  -0.162641  -0.050328   0.024953  -0.002176
     3  H    0.482024  -0.162641   0.828628  -0.154724   0.012541  -0.019261
     4  C    0.206972  -0.050328  -0.154724   6.425116  -1.354287   0.285909
     5  C   -0.192459   0.024953   0.012541  -1.354287   8.951202  -1.845573
     6  C    0.117212  -0.002176  -0.019261   0.285909  -1.845573   7.670504
     7  H    0.001967   0.001261  -0.002826  -0.078786   0.203646  -0.168286
     8  H   -0.032131  -0.001524   0.008553   0.243328  -0.927640   0.373962
     9  N   -0.131141  -0.027801   0.018838   0.087056   0.090619  -0.007100
    10  C   -0.026351  -0.013859   0.005970  -0.226219   0.327019  -1.001953
    11  O   -0.005054   0.000339   0.000934   0.052536  -0.020152  -0.032109
    12  N    0.009822  -0.005025   0.004820   0.039173  -0.505362   0.450172
    13  C    0.005141  -0.000447   0.000619  -0.025012  -0.203888  -0.556237
    14  O    0.003163  -0.000026   0.000157  -0.024172  -0.023720   0.206402
    15  H   -0.000029  -0.000010  -0.000105   0.002250  -0.028789  -0.020128
    16  C    0.001058   0.000007   0.000427   0.015433  -0.069942   0.066110
    17  H    0.000014  -0.000046   0.000132   0.010274  -0.030979   0.071565
    18  H    0.000171   0.000066  -0.000103  -0.004653   0.017820  -0.016152
    19  C    0.000306  -0.000144   0.000111  -0.006207   0.004217   0.063858
    20  H    0.000064   0.000006   0.000002  -0.000711  -0.001059  -0.025510
    21  H   -0.000040  -0.000018   0.000009   0.000152   0.002786   0.042545
    22  C   -0.000304  -0.000131   0.000084   0.009326  -0.031300  -0.042784
    23  H   -0.000501   0.000001  -0.000042   0.001825   0.026426   0.036003
    24  C    0.000051   0.000006   0.000006   0.001695  -0.016099  -0.007062
    25  H    0.000008  -0.000012   0.000009   0.000144  -0.002438   0.001332
    26  H    0.000009   0.000003  -0.000001   0.000070  -0.000065   0.002942
    27  O    0.000001  -0.000001   0.000000  -0.000177   0.000186  -0.003860
    28  H   -0.000003  -0.000001   0.000001  -0.000062  -0.000476   0.000655
    29  H   -0.033477  -0.000880  -0.008097  -0.159322   0.051226  -0.048442
               7          8          9         10         11         12
     1  N    0.001967  -0.032131  -0.131141  -0.026351  -0.005054   0.009822
     2  H    0.001261  -0.001524  -0.027801  -0.013859   0.000339  -0.005025
     3  H   -0.002826   0.008553   0.018838   0.005970   0.000934   0.004820
     4  C   -0.078786   0.243328   0.087056  -0.226219   0.052536   0.039173
     5  C    0.203646  -0.927640   0.090619   0.327019  -0.020152  -0.505362
     6  C   -0.168286   0.373962  -0.007100  -1.001953  -0.032109   0.450172
     7  H    1.889495  -0.118973   0.007543   0.005047  -0.009098  -0.196649
     8  H   -0.118973   1.803132  -0.039946   0.008477   0.002755   0.137444
     9  N    0.007543  -0.039946   7.369200  -0.005180  -0.231964  -0.019908
    10  C    0.005047   0.008477  -0.005180   6.052602   0.444159  -0.196516
    11  O   -0.009098   0.002755  -0.231964   0.444159   8.544544  -0.172109
    12  N   -0.196649   0.137444  -0.019908  -0.196516  -0.172109   8.375215
    13  C    0.044444   0.035954  -0.022427  -0.100027   0.093895  -0.442760
    14  O   -0.061291  -0.001350   0.003246  -0.065168   0.002863  -0.055449
    15  H    0.022454  -0.001842  -0.014197   0.157141   0.030905  -0.305092
    16  C   -0.036976  -0.000976  -0.001126   0.059771  -0.023611   0.277127
    17  H   -0.008782   0.000221  -0.010367   0.018910   0.010940  -0.173444
    18  H    0.000006  -0.000040   0.005494  -0.013700  -0.000307   0.000982
    19  C   -0.005551   0.000518   0.008821  -0.071196   0.012769   0.089885
    20  H    0.000083  -0.000029   0.000957   0.005979   0.000936  -0.006891
    21  H   -0.002483   0.000146  -0.000813  -0.003897  -0.000258   0.007890
    22  C   -0.005809   0.004281   0.005207  -0.094627   0.000298  -0.048232
    23  H   -0.003520   0.000543  -0.000347   0.018659  -0.000353   0.068650
    24  C   -0.010713  -0.000022  -0.000674   0.017955   0.000313  -0.006977
    25  H    0.003590   0.000228  -0.000160  -0.000790   0.000116  -0.000281
    26  H   -0.001530  -0.000039   0.000047   0.000617   0.000013   0.000060
    27  O    0.002209  -0.000031  -0.000099   0.000315  -0.000047  -0.005447
    28  H   -0.000963   0.000032  -0.000135   0.002011   0.000017   0.006982
    29  H    0.002059   0.003237   0.511635  -0.147476   0.002598   0.025997
              13         14         15         16         17         18
     1  N    0.005141   0.003163  -0.000029   0.001058   0.000014   0.000171
     2  H   -0.000447  -0.000026  -0.000010   0.000007  -0.000046   0.000066
     3  H    0.000619   0.000157  -0.000105   0.000427   0.000132  -0.000103
     4  C   -0.025012  -0.024172   0.002250   0.015433   0.010274  -0.004653
     5  C   -0.203888  -0.023720  -0.028789  -0.069942  -0.030979   0.017820
     6  C   -0.556237   0.206402  -0.020128   0.066110   0.071565  -0.016152
     7  H    0.044444  -0.061291   0.022454  -0.036976  -0.008782   0.000006
     8  H    0.035954  -0.001350  -0.001842  -0.000976   0.000221  -0.000040
     9  N   -0.022427   0.003246  -0.014197  -0.001126  -0.010367   0.005494
    10  C   -0.100027  -0.065168   0.157141   0.059771   0.018910  -0.013700
    11  O    0.093895   0.002863   0.030905  -0.023611   0.010940  -0.000307
    12  N   -0.442760  -0.055449  -0.305092   0.277127  -0.173444   0.000982
    13  C    7.537392  -0.134130  -0.179195  -0.682124  -0.170001   0.183851
    14  O   -0.134130   9.979276  -0.227010  -0.164038   0.025657   0.042778
    15  H   -0.179195  -0.227010   1.807191   0.209922   0.095093  -0.117506
    16  C   -0.682124  -0.164038   0.209922   5.720675   0.067673  -0.079532
    17  H   -0.170001   0.025657   0.095093   0.067673   1.552597  -0.245772
    18  H    0.183851   0.042778  -0.117506  -0.079532  -0.245772   1.397045
    19  C   -0.178092  -0.046236  -0.045684   0.132885   0.015425  -0.050865
    20  H    0.095554   0.015595   0.002350   0.064619  -0.098677   0.006272
    21  H   -0.050506   0.021346   0.021548  -0.084293   0.099500  -0.108373
    22  C   -0.174046  -0.113934  -0.069280  -0.162672  -0.050263   0.118922
    23  H   -0.129455  -0.111168  -0.005030  -0.018149   0.020922   0.006066
    24  C   -0.005386  -0.015908   0.011704   0.052551   0.020749  -0.003222
    25  H   -0.052199  -0.068976   0.001974  -0.001511   0.001167  -0.000777
    26  H    0.017747   0.089430  -0.002261   0.039641   0.001346   0.001576
    27  O    0.014373  -0.047186   0.010112  -0.002930   0.001780  -0.002491
    28  H   -0.022839   0.040534   0.002928   0.003328  -0.001036  -0.000845
    29  H    0.000831  -0.000479   0.003141  -0.003714   0.000099   0.000098
              19         20         21         22         23         24
     1  N    0.000306   0.000064  -0.000040  -0.000304  -0.000501   0.000051
     2  H   -0.000144   0.000006  -0.000018  -0.000131   0.000001   0.000006
     3  H    0.000111   0.000002   0.000009   0.000084  -0.000042   0.000006
     4  C   -0.006207  -0.000711   0.000152   0.009326   0.001825   0.001695
     5  C    0.004217  -0.001059   0.002786  -0.031300   0.026426  -0.016099
     6  C    0.063858  -0.025510   0.042545  -0.042784   0.036003  -0.007062
     7  H   -0.005551   0.000083  -0.002483  -0.005809  -0.003520  -0.010713
     8  H    0.000518  -0.000029   0.000146   0.004281   0.000543  -0.000022
     9  N    0.008821   0.000957  -0.000813   0.005207  -0.000347  -0.000674
    10  C   -0.071196   0.005979  -0.003897  -0.094627   0.018659   0.017955
    11  O    0.012769   0.000936  -0.000258   0.000298  -0.000353   0.000313
    12  N    0.089885  -0.006891   0.007890  -0.048232   0.068650  -0.006977
    13  C   -0.178092   0.095554  -0.050506  -0.174046  -0.129455  -0.005386
    14  O   -0.046236   0.015595   0.021346  -0.113934  -0.111168  -0.015908
    15  H   -0.045684   0.002350   0.021548  -0.069280  -0.005030   0.011704
    16  C    0.132885   0.064619  -0.084293  -0.162672  -0.018149   0.052551
    17  H    0.015425  -0.098677   0.099500  -0.050263   0.020922   0.020749
    18  H   -0.050865   0.006272  -0.108373   0.118922   0.006066  -0.003222
    19  C    5.270709  -0.110123   0.308703  -0.025255   0.179292  -0.059844
    20  H   -0.110123   1.295359  -0.243621   0.201555  -0.115463  -0.008052
    21  H    0.308703  -0.243621   1.386681  -0.351429   0.091919  -0.016322
    22  C   -0.025255   0.201555  -0.351429   7.418592  -0.590295  -0.129565
    23  H    0.179292  -0.115463   0.091919  -0.590295   1.909670  -0.032212
    24  C   -0.059844  -0.008052  -0.016322  -0.129565  -0.032212   4.434382
    25  H    0.010248  -0.000883   0.009832   0.190188  -0.029082   0.191470
    26  H   -0.046281   0.003098  -0.009466  -0.129759  -0.055693   0.240380
    27  O   -0.055273  -0.002483   0.016386   0.129006   0.017135   0.019203
    28  H    0.015915   0.002630  -0.005729  -0.044352   0.011907  -0.025938
    29  H   -0.000849  -0.000029   0.000030  -0.001011   0.000272   0.000194
              25         26         27         28         29
     1  N    0.000008   0.000009   0.000001  -0.000003  -0.033477
     2  H   -0.000012   0.000003  -0.000001  -0.000001  -0.000880
     3  H    0.000009  -0.000001   0.000000   0.000001  -0.008097
     4  C    0.000144   0.000070  -0.000177  -0.000062  -0.159322
     5  C   -0.002438  -0.000065   0.000186  -0.000476   0.051226
     6  C    0.001332   0.002942  -0.003860   0.000655  -0.048442
     7  H    0.003590  -0.001530   0.002209  -0.000963   0.002059
     8  H    0.000228  -0.000039  -0.000031   0.000032   0.003237
     9  N   -0.000160   0.000047  -0.000099  -0.000135   0.511635
    10  C   -0.000790   0.000617   0.000315   0.002011  -0.147476
    11  O    0.000116   0.000013  -0.000047   0.000017   0.002598
    12  N   -0.000281   0.000060  -0.005447   0.006982   0.025997
    13  C   -0.052199   0.017747   0.014373  -0.022839   0.000831
    14  O   -0.068976   0.089430  -0.047186   0.040534  -0.000479
    15  H    0.001974  -0.002261   0.010112   0.002928   0.003141
    16  C   -0.001511   0.039641  -0.002930   0.003328  -0.003714
    17  H    0.001167   0.001346   0.001780  -0.001036   0.000099
    18  H   -0.000777   0.001576  -0.002491  -0.000845   0.000098
    19  C    0.010248  -0.046281  -0.055273   0.015915  -0.000849
    20  H   -0.000883   0.003098  -0.002483   0.002630  -0.000029
    21  H    0.009832  -0.009466   0.016386  -0.005729   0.000030
    22  C    0.190188  -0.129759   0.129006  -0.044352  -0.001011
    23  H   -0.029082  -0.055693   0.017135   0.011907   0.000272
    24  C    0.191470   0.240380   0.019203  -0.025938   0.000194
    25  H    1.131782  -0.250774  -0.023882  -0.042167  -0.000014
    26  H   -0.250774   1.330591  -0.127414   0.018933   0.000001
    27  O   -0.023882  -0.127414   8.445722   0.313559   0.000000
    28  H   -0.042167   0.018933   0.313559   0.527954   0.000026
    29  H   -0.000014   0.000001   0.000000   0.000026   0.865254
 Mulliken charges:
               1
     1  N   -0.280910
     2  H    0.046844
     3  H   -0.016063
     4  C    0.703400
     5  C    1.541585
     6  C    0.407463
     7  H   -0.471566
     8  H   -0.498268
     9  N   -0.595276
    10  C    0.842328
    11  O   -0.705868
    12  N   -0.354077
    13  C    1.098971
    14  O   -1.270207
    15  H   -0.362552
    16  C    0.620368
    17  H   -0.224694
    18  H   -0.136810
    19  C    0.587940
    20  H   -0.081529
    21  H   -0.132224
    22  C   -0.012412
    23  H   -0.297981
    24  C    1.347337
    25  H   -0.068143
    26  H   -0.123221
    27  O   -0.698665
    28  H    0.197135
    29  H   -0.062907
 Sum of Mulliken charges =   1.00000
 Mulliken charges with hydrogens summed into heavy atoms:
               1
     1  N   -0.250128
     4  C    0.703400
     5  C    1.043317
     6  C   -0.064102
     9  N   -0.658183
    10  C    0.842328
    11  O   -0.705868
    12  N   -0.354077
    13  C    0.736419
    14  O   -1.270207
    16  C    0.258865
    19  C    0.374186
    22  C   -0.310393
    24  C    1.155973
    27  O   -0.501530
 Electronic spatial extent (au):  <R**2>=           3886.1898
 Charge=              1.0000 electrons
 Dipole moment (field-independent basis, Debye):
    X=            -12.0805    Y=             -4.2301    Z=              2.1714  Tot=             12.9825
 Quadrupole moment (field-independent basis, Debye-Ang):
   XX=            -22.5924   YY=            -79.0733   ZZ=            -84.5692
   XY=              7.9776   XZ=              5.3467   YZ=             -1.0699
 Traceless Quadrupole moment (field-independent basis, Debye-Ang):
   XX=             39.4859   YY=            -16.9951   ZZ=            -22.4909
   XY=              7.9776   XZ=              5.3467   YZ=             -1.0699
 Octapole moment (field-independent basis, Debye-Ang**2):
  XXX=           -353.9144  YYY=            -36.2933  ZZZ=            -11.4152  XYY=            -16.6860
  XXY=            -42.0210  XXZ=             31.0403  XZZ=             15.2136  YZZ=              4.1826
  YYZ=              7.4177  XYZ=              4.3435
 Hexadecapole moment (field-independent basis, Debye-Ang**3):
 XXXX=          -2520.6430 YYYY=           -721.3922 ZZZZ=           -266.8102 XXXY=             94.8870
 XXXZ=            120.0352 YYYX=             73.2326 YYYZ=              0.0582 ZZZX=            -22.4937
 ZZZY=             -0.2794 XXYY=           -596.4038 XXZZ=           -706.5647 YYZZ=           -176.6882
 XXYZ=            -39.9592 YYXZ=            -22.0547 ZZXY=             -6.1951
 N-N= 1.049558297113D+03 E-N=-3.809092476324D+03  KE= 7.357421825632D+02
 Leave Link  601 at Mon Jul 12 14:32:52 2021, MaxMem=   262144000 cpu:               0.4 elap:               0.3
 (Enter /dades/curu/g16A03_MST/g16/l9999.exe)
 1\1\GINC-PIRINEUS23\SP\RMP2-FC\Aug-CC-pVDZ\C9H14N3O3(1+)\UBATOR02\12-J
 ul-2021\0\\#p mp2/aug-cc-pVDZ scf=tight maxdisk=180GB geom=allcheck\\S
 ET_328_BBB304_conf1.geo_210_060 geometry\\1,1\N,0,1.6481977942,4.13777
 37505,2.298538449\H,0,2.6055835251,4.4008817603,2.0987263909\H,0,1.107
 6022013,4.7560045678,2.8923627263\C,0,1.1457529933,3.0114591172,1.8100
 405351\C,0,1.883671573,2.1219746299,0.988417487\C,0,1.2591554589,0.995
 2380931,0.5388783157\H,0,1.7577067935,0.2526099213,-0.0695281149\H,0,2
 .9128524246,2.3271563141,0.7369991153\N,0,-0.1389441419,2.6772542141,2
 .1037136836\C,0,-0.8027030998,1.5351188612,1.6498606377\O,0,-1.9547389
 812,1.2880116894,1.9449141013\N,0,-0.0321618046,0.7100502476,0.8342800
 911\C,0,-0.7103184038,-0.5382745108,0.344233496\O,0,0.2646525273,-1.40
 81338285,-0.161415075\H,0,-1.1796528127,-0.9674294255,1.2309445181\C,0
 ,-1.7179256912,-0.2591067189,-0.7835705013\H,0,-1.4444357877,0.6673228
 021,-1.2965762481\H,0,-2.7312024149,-0.1490821281,-0.3993539243\C,0,-1
 .5219955629,-1.470099537,-1.7005987172\H,0,-1.7988773635,-1.2661599584
 ,-2.7373782339\H,0,-2.0920387111,-2.3320194695,-1.3459121464\C,0,-0.03
 54448664,-1.779425112,-1.5436789444\H,0,0.5833125566,-1.1662629051,-2.
 2119018243\C,0,0.343820679,-3.2461665986,-1.6981001735\H,0,1.419456627
 6,-3.3639161095,-1.5111434592\H,0,0.1489086248,-3.5553134674,-2.728442
 4793\O,0,-0.42297931,-4.0931389869,-0.8624232022\H,0,-0.2216417261,-3.
 8380542303,0.0528715556\H,0,-0.7036131013,3.277727018,2.7062419413\\Ve
 rsion=ES64L-G16RevA.03\State=1-A\HF=-736.8279127\MP2=-739.1648876\RMSD
 =8.933e-09\PG=C01 [X(C9H14N3O3)]\\@


 FROM THE ASHES OF OUR DESPAIR GROW THE FLOWERS OF TOMORROW.
 Job cpu time:       0 days  1 hours 22 minutes 49.8 seconds.
 Elapsed time:       0 days  0 hours 25 minutes 23.5 seconds.
 File lengths (MBytes):  RWF=  38087 Int=      0 D2E=      0 Chk=     19 Scr=      1
 Normal termination of Gaussian 16 at Mon Jul 12 14:32:53 2021.
