 Entering Gaussian System, Link 0=g16
 Input=SET_328_BBB286_conf1.geo_000_150_OCTANOL.dat
 Output=SET_328_BBB286_conf1.geo_000_150_OCTANOL.log
 Initial command:
 /dades/curu/g16A03_MST/g16/l1.exe "/tmp/ubator02/1835295/Gau-2640.inp" -scrdir="/tmp/ubator02/1835295/"
 Entering Link 1 = /dades/curu/g16A03_MST/g16/l1.exe PID=      2653.
  
 Copyright (c) 1988,1990,1992,1993,1995,1998,2003,2009,2016,
            Gaussian, Inc.  All Rights Reserved.
  
 This is part of the Gaussian(R) 16 program.  It is based on
 the Gaussian(R) 09 system (copyright 2009, Gaussian, Inc.),
 the Gaussian(R) 03 system (copyright 2003, Gaussian, Inc.),
 the Gaussian(R) 98 system (copyright 1998, Gaussian, Inc.),
 the Gaussian(R) 94 system (copyright 1995, Gaussian, Inc.),
 the Gaussian 92(TM) system (copyright 1992, Gaussian, Inc.),
 the Gaussian 90(TM) system (copyright 1990, Gaussian, Inc.),
 the Gaussian 88(TM) system (copyright 1988, Gaussian, Inc.),
 the Gaussian 86(TM) system (copyright 1986, Carnegie Mellon
 University), and the Gaussian 82(TM) system (copyright 1983,
 Carnegie Mellon University). Gaussian is a federally registered
 trademark of Gaussian, Inc.
  
 This software contains proprietary and confidential information,
 including trade secrets, belonging to Gaussian, Inc.
  
 This software is provided under written license and may be
 used, copied, transmitted, or stored only in accord with that
 written license.
  
 The following legend is applicable only to US Government
 contracts under FAR:
  
                    RESTRICTED RIGHTS LEGEND
  
 Use, reproduction and disclosure by the US Government is
 subject to restrictions as set forth in subparagraphs (a)
 and (c) of the Commercial Computer Software - Restricted
 Rights clause in FAR 52.227-19.
  
 Gaussian, Inc.
 340 Quinnipiac St., Bldg. 40, Wallingford CT 06492
  
  
 ---------------------------------------------------------------
 Warning -- This program may not be used in any manner that
 competes with the business of Gaussian, Inc. or will provide
 assistance to any competitor of Gaussian, Inc.  The licensee
 of this program is prohibited from giving any competitor of
 Gaussian, Inc. access to this program.  By using this program,
 the user acknowledges that Gaussian, Inc. is engaged in the
 business of creating and licensing software in the field of
 computational chemistry and represents and warrants to the
 licensee that it is not a competitor of Gaussian, Inc. and that
 it will not use this program in any manner prohibited above.
 ---------------------------------------------------------------
  

 Cite this work as:
 Gaussian 16, Revision A.03,
 M. J. Frisch, G. W. Trucks, H. B. Schlegel, G. E. Scuseria, 
 M. A. Robb, J. R. Cheeseman, G. Scalmani, V. Barone, 
 G. A. Petersson, H. Nakatsuji, X. Li, M. Caricato, A. V. Marenich, 
 J. Bloino, B. G. Janesko, R. Gomperts, B. Mennucci, H. P. Hratchian, 
 J. V. Ortiz, A. F. Izmaylov, J. L. Sonnenberg, D. Williams-Young, 
 F. Ding, F. Lipparini, F. Egidi, J. Goings, B. Peng, A. Petrone, 
 T. Henderson, D. Ranasinghe, V. G. Zakrzewski, J. Gao, N. Rega, 
 G. Zheng, W. Liang, M. Hada, M. Ehara, K. Toyota, R. Fukuda, 
 J. Hasegawa, M. Ishida, T. Nakajima, Y. Honda, O. Kitao, H. Nakai, 
 T. Vreven, K. Throssell, J. A. Montgomery, Jr., J. E. Peralta, 
 F. Ogliaro, M. J. Bearpark, J. J. Heyd, E. N. Brothers, K. N. Kudin, 
 V. N. Staroverov, T. A. Keith, R. Kobayashi, J. Normand, 
 K. Raghavachari, A. P. Rendell, J. C. Burant, S. S. Iyengar, 
 J. Tomasi, M. Cossi, J. M. Millam, M. Klene, C. Adamo, R. Cammi, 
 J. W. Ochterski, R. L. Martin, K. Morokuma, O. Farkas, 
 J. B. Foresman, and D. J. Fox, Gaussian, Inc., Wallingford CT, 2016.
 
 ******************************************
 Gaussian 16:  ES64L-G16RevA.03 25-Dec-2016
                12-Jul-2021 
 ******************************************
 %mem=800MB
 %nproc=4
 Will use up to    4 processors via shared memory.
 %chk=SET_328_BBB286_conf1.geo_000_150.chk
 ---------------------------------------------------------------
 #p b3lyp/6-31G(d) opt freq scrf=(iefpcm,read,solvent=n-octanol)
 ---------------------------------------------------------------
 1/18=20,19=15,26=3,38=1,40=2/1,3;
 2/9=110,12=2,17=6,18=5,40=1/2;
 3/5=1,6=6,7=1,11=2,25=1,30=1,70=2203,71=1,72=25,74=-5/1,2,3;
 4//1;
 5/5=2,38=5,53=25/2;
 6/7=2,8=2,9=2,10=2,28=1/1;
 7//1,2,3,16;
 1/18=20,19=15,26=3/3(2);
 2/9=110/2;
 99//99;
 2/9=110/2;
 3/5=1,6=6,7=1,11=2,25=1,30=1,70=2205,71=1,72=25,74=-5/1,2,3;
 4/5=5,16=3,69=1/1;
 5/5=2,38=5,53=25/2;
 7//1,2,3,16;
 1/18=20,19=15,26=3/3(-5);
 2/9=110/2;
 6/7=2,8=2,9=2,10=2,19=2,28=1/1;
 99/9=1/99;
 Leave Link    1 at Mon Jul 12 12:44:38 2021, MaxMem=   104857600 cpu:               0.0 elap:               0.0
 (Enter /dades/curu/g16A03_MST/g16/l101.exe)
 -----------------------------------------
 SET_328_BBB286_conf1.geo_000_150 geometry
 -----------------------------------------
 Symbolic Z-matrix:
 Charge =  1 Multiplicity = 1
 C                     3.244    -0.743    -3.517 
 H                     3.13     -0.813    -4.602 
 H                     2.724    -1.641    -3.174 
 H                     4.267    -0.613    -3.156 
 N                     2.378     0.324    -2.992 
 C                     2.163     1.56     -3.442 
 C                     1.08      2.021    -2.819 
 C                     0.574     3.278    -3.154 
 C                     1.254     3.991    -4.157 
 C                     2.46      3.529    -4.71 
 C                     2.873     2.253    -4.42 
 H                     3.747     1.821    -4.901 
 H                     2.87      4.037    -5.579 
 H                     0.868     4.95     -4.493 
 H                    -0.279     3.654    -2.595 
 N                     1.513    -0.056    -1.981 
 C                     0.688     1.037    -1.837 
 C                    -0.451     1.16     -0.896 
 O                    -1.151     2.183    -0.748 
 N                    -0.609     0.02     -0.144 
 H                     0.018    -0.766    -0.233 
 C                    -1.75     -0.16      0.749 
 C                    -1.648     0.592     2.134 
 H                    -0.972     1.45      2.118 
 H                    -2.605     0.972     2.498 
 H                    -2.618     0.188     0.182 
 C                    -2.161    -1.622     0.917 
 H                    -1.993    -2.204     0.009 
 H                    -3.251    -1.584     0.972 
 C                    -1.727    -2.353     2.196 
 H                    -2.316    -3.261     2.35 
 C                    -0.273    -2.799     2.034 
 H                    -0.18     -3.515     1.215 
 H                    -0.217    -3.333     2.985 
 C                     0.801    -1.717     2.121 
 H                     0.866    -1.221     1.151 
 H                     1.742    -2.167     2.444 
 C                     0.454    -0.567     3.06 
 H                     1.11      0.3       2.956 
 H                     0.704    -1.011     4.025 
 C                    -1.121    -0.245     3.287 
 H                    -1.126     0.189     4.29 
 N                    -1.868    -1.537     3.362 
 C                    -3.113    -1.434     3.994 
 H                    -2.798    -1.151     5.002 
 H                    -3.676    -2.371     4.017 
 H                    -3.626    -0.618     3.481 
 H                    -1.338    -2.051     4.037 
 
 ITRead=  0  0  0  0  0  0  0  0  0  0  0  0  0  0  0  0  0  0  0  0
 ITRead=  0  0  0  0  0  0  0  0  0  0  0  0  0  0  0  0  0  0  0  0
 ITRead=  0  0  0  0  0  0  0  0
 MicOpt= -1 -1 -1 -1 -1 -1 -1 -1 -1 -1 -1 -1 -1 -1 -1 -1 -1 -1 -1 -1
 MicOpt= -1 -1 -1 -1 -1 -1 -1 -1 -1 -1 -1 -1 -1 -1 -1 -1 -1 -1 -1 -1
 MicOpt= -1 -1 -1 -1 -1 -1 -1 -1
 NAtoms=     48 NQM=       48 NQMF=       0 NMMI=      0 NMMIF=      0
                NMic=       0 NMicF=      0.
                    Isotopes and Nuclear Properties:
 (Nuclear quadrupole moments (NQMom) in fm**2, nuclear magnetic moments (NMagM)
  in nuclear magnetons)

  Atom         1           2           3           4           5           6           7           8           9          10
 IAtWgt=          12           1           1           1          14          12          12          12          12          12
 AtmWgt=  12.0000000   1.0078250   1.0078250   1.0078250  14.0030740  12.0000000  12.0000000  12.0000000  12.0000000  12.0000000
 NucSpn=           0           1           1           1           2           0           0           0           0           0
 AtZEff=  -0.0000000  -0.0000000  -0.0000000  -0.0000000  -0.0000000  -0.0000000  -0.0000000  -0.0000000  -0.0000000  -0.0000000
 NQMom=    0.0000000   0.0000000   0.0000000   0.0000000   2.0440000   0.0000000   0.0000000   0.0000000   0.0000000   0.0000000
 NMagM=    0.0000000   2.7928460   2.7928460   2.7928460   0.4037610   0.0000000   0.0000000   0.0000000   0.0000000   0.0000000
 AtZNuc=   6.0000000   1.0000000   1.0000000   1.0000000   7.0000000   6.0000000   6.0000000   6.0000000   6.0000000   6.0000000

  Atom        11          12          13          14          15          16          17          18          19          20
 IAtWgt=          12           1           1           1           1          14          12          12          16          14
 AtmWgt=  12.0000000   1.0078250   1.0078250   1.0078250   1.0078250  14.0030740  12.0000000  12.0000000  15.9949146  14.0030740
 NucSpn=           0           1           1           1           1           2           0           0           0           2
 AtZEff=  -0.0000000  -0.0000000  -0.0000000  -0.0000000  -0.0000000  -0.0000000  -0.0000000  -0.0000000  -0.0000000  -0.0000000
 NQMom=    0.0000000   0.0000000   0.0000000   0.0000000   0.0000000   2.0440000   0.0000000   0.0000000   0.0000000   2.0440000
 NMagM=    0.0000000   2.7928460   2.7928460   2.7928460   2.7928460   0.4037610   0.0000000   0.0000000   0.0000000   0.4037610
 AtZNuc=   6.0000000   1.0000000   1.0000000   1.0000000   1.0000000   7.0000000   6.0000000   6.0000000   8.0000000   7.0000000

  Atom        21          22          23          24          25          26          27          28          29          30
 IAtWgt=           1          12          12           1           1           1          12           1           1          12
 AtmWgt=   1.0078250  12.0000000  12.0000000   1.0078250   1.0078250   1.0078250  12.0000000   1.0078250   1.0078250  12.0000000
 NucSpn=           1           0           0           1           1           1           0           1           1           0
 AtZEff=  -0.0000000  -0.0000000  -0.0000000  -0.0000000  -0.0000000  -0.0000000  -0.0000000  -0.0000000  -0.0000000  -0.0000000
 NQMom=    0.0000000   0.0000000   0.0000000   0.0000000   0.0000000   0.0000000   0.0000000   0.0000000   0.0000000   0.0000000
 NMagM=    2.7928460   0.0000000   0.0000000   2.7928460   2.7928460   2.7928460   0.0000000   2.7928460   2.7928460   0.0000000
 AtZNuc=   1.0000000   6.0000000   6.0000000   1.0000000   1.0000000   1.0000000   6.0000000   1.0000000   1.0000000   6.0000000

  Atom        31          32          33          34          35          36          37          38          39          40
 IAtWgt=           1          12           1           1          12           1           1          12           1           1
 AtmWgt=   1.0078250  12.0000000   1.0078250   1.0078250  12.0000000   1.0078250   1.0078250  12.0000000   1.0078250   1.0078250
 NucSpn=           1           0           1           1           0           1           1           0           1           1
 AtZEff=  -0.0000000  -0.0000000  -0.0000000  -0.0000000  -0.0000000  -0.0000000  -0.0000000  -0.0000000  -0.0000000  -0.0000000
 NQMom=    0.0000000   0.0000000   0.0000000   0.0000000   0.0000000   0.0000000   0.0000000   0.0000000   0.0000000   0.0000000
 NMagM=    2.7928460   0.0000000   2.7928460   2.7928460   0.0000000   2.7928460   2.7928460   0.0000000   2.7928460   2.7928460
 AtZNuc=   1.0000000   6.0000000   1.0000000   1.0000000   6.0000000   1.0000000   1.0000000   6.0000000   1.0000000   1.0000000

  Atom        41          42          43          44          45          46          47          48
 IAtWgt=          12           1          14          12           1           1           1           1
 AtmWgt=  12.0000000   1.0078250  14.0030740  12.0000000   1.0078250   1.0078250   1.0078250   1.0078250
 NucSpn=           0           1           2           0           1           1           1           1
 AtZEff=  -0.0000000  -0.0000000  -0.0000000  -0.0000000  -0.0000000  -0.0000000  -0.0000000  -0.0000000
 NQMom=    0.0000000   0.0000000   2.0440000   0.0000000   0.0000000   0.0000000   0.0000000   0.0000000
 NMagM=    0.0000000   2.7928460   0.4037610   0.0000000   2.7928460   2.7928460   2.7928460   2.7928460
 AtZNuc=   6.0000000   1.0000000   7.0000000   6.0000000   1.0000000   1.0000000   1.0000000   1.0000000
 Leave Link  101 at Mon Jul 12 12:44:39 2021, MaxMem=   104857600 cpu:               0.1 elap:               0.2
 (Enter /dades/curu/g16A03_MST/g16/l103.exe)

 GradGradGradGradGradGradGradGradGradGradGradGradGradGradGradGradGradGrad
 Berny optimization.
 Initialization pass.
                           ----------------------------
                           !    Initial Parameters    !
                           ! (Angstroms and Degrees)  !
 --------------------------                            --------------------------
 ! Name  Definition              Value          Derivative Info.                !
 --------------------------------------------------------------------------------
 ! R1    R(1,2)                  1.0932         estimate D2E/DX2                !
 ! R2    R(1,3)                  1.0929         estimate D2E/DX2                !
 ! R3    R(1,4)                  1.0926         estimate D2E/DX2                !
 ! R4    R(1,5)                  1.4711         estimate D2E/DX2                !
 ! R5    R(5,6)                  1.3328         estimate D2E/DX2                !
 ! R6    R(5,16)                 1.3837         estimate D2E/DX2                !
 ! R7    R(6,7)                  1.3317         estimate D2E/DX2                !
 ! R8    R(6,11)                 1.3931         estimate D2E/DX2                !
 ! R9    R(7,8)                  1.3958         estimate D2E/DX2                !
 ! R10   R(7,17)                 1.4444         estimate D2E/DX2                !
 ! R11   R(8,9)                  1.406          estimate D2E/DX2                !
 ! R12   R(8,15)                 1.087          estimate D2E/DX2                !
 ! R13   R(9,10)                 1.4049         estimate D2E/DX2                !
 ! R14   R(9,14)                 1.087          estimate D2E/DX2                !
 ! R15   R(10,11)                1.3722         estimate D2E/DX2                !
 ! R16   R(10,13)                1.0869         estimate D2E/DX2                !
 ! R17   R(11,12)                1.0871         estimate D2E/DX2                !
 ! R18   R(16,17)                1.377          estimate D2E/DX2                !
 ! R19   R(17,18)                1.4825         estimate D2E/DX2                !
 ! R20   R(18,19)                1.2484         estimate D2E/DX2                !
 ! R21   R(18,20)                1.3748         estimate D2E/DX2                !
 ! R22   R(20,21)                1.0094         estimate D2E/DX2                !
 ! R23   R(20,22)                1.46           estimate D2E/DX2                !
 ! R24   R(22,23)                1.5793         estimate D2E/DX2                !
 ! R25   R(22,26)                1.0936         estimate D2E/DX2                !
 ! R26   R(22,27)                1.5279         estimate D2E/DX2                !
 ! R27   R(23,24)                1.0924         estimate D2E/DX2                !
 ! R28   R(23,25)                1.0921         estimate D2E/DX2                !
 ! R29   R(23,41)                1.5191         estimate D2E/DX2                !
 ! R30   R(27,28)                1.0915         estimate D2E/DX2                !
 ! R31   R(27,29)                1.092          estimate D2E/DX2                !
 ! R32   R(27,30)                1.5358         estimate D2E/DX2                !
 ! R33   R(30,31)                1.0932         estimate D2E/DX2                !
 ! R34   R(30,32)                1.5295         estimate D2E/DX2                !
 ! R35   R(30,43)                1.4301         estimate D2E/DX2                !
 ! R36   R(32,33)                1.0918         estimate D2E/DX2                !
 ! R37   R(32,34)                1.0921         estimate D2E/DX2                !
 ! R38   R(32,35)                1.527          estimate D2E/DX2                !
 ! R39   R(35,36)                1.0914         estimate D2E/DX2                !
 ! R40   R(35,37)                1.0919         estimate D2E/DX2                !
 ! R41   R(35,38)                1.5247         estimate D2E/DX2                !
 ! R42   R(38,39)                1.0922         estimate D2E/DX2                !
 ! R43   R(38,40)                1.0913         estimate D2E/DX2                !
 ! R44   R(38,41)                1.6235         estimate D2E/DX2                !
 ! R45   R(41,42)                1.0929         estimate D2E/DX2                !
 ! R46   R(41,43)                1.4943         estimate D2E/DX2                !
 ! R47   R(43,44)                1.4            estimate D2E/DX2                !
 ! R48   R(43,48)                1.0004         estimate D2E/DX2                !
 ! R49   R(44,45)                1.0933         estimate D2E/DX2                !
 ! R50   R(44,46)                1.0934         estimate D2E/DX2                !
 ! R51   R(44,47)                1.0919         estimate D2E/DX2                !
 ! A1    A(2,1,3)              102.0787         estimate D2E/DX2                !
 ! A2    A(2,1,4)              115.6696         estimate D2E/DX2                !
 ! A3    A(2,1,5)              109.8315         estimate D2E/DX2                !
 ! A4    A(3,1,4)              116.0757         estimate D2E/DX2                !
 ! A5    A(3,1,5)              101.7633         estimate D2E/DX2                !
 ! A6    A(4,1,5)              110.3023         estimate D2E/DX2                !
 ! A7    A(1,5,6)              130.3229         estimate D2E/DX2                !
 ! A8    A(1,5,16)             115.4395         estimate D2E/DX2                !
 ! A9    A(6,5,16)             113.6101         estimate D2E/DX2                !
 ! A10   A(5,6,7)              107.1127         estimate D2E/DX2                !
 ! A11   A(5,6,11)             128.0326         estimate D2E/DX2                !
 ! A12   A(7,6,11)             124.7964         estimate D2E/DX2                !
 ! A13   A(6,7,8)              119.6211         estimate D2E/DX2                !
 ! A14   A(6,7,17)             107.6336         estimate D2E/DX2                !
 ! A15   A(8,7,17)             132.7104         estimate D2E/DX2                !
 ! A16   A(7,8,9)              116.9087         estimate D2E/DX2                !
 ! A17   A(7,8,15)             118.2016         estimate D2E/DX2                !
 ! A18   A(9,8,15)             124.8204         estimate D2E/DX2                !
 ! A19   A(8,9,10)             121.9528         estimate D2E/DX2                !
 ! A20   A(8,9,14)             119.7468         estimate D2E/DX2                !
 ! A21   A(10,9,14)            118.2481         estimate D2E/DX2                !
 ! A22   A(9,10,11)            118.7501         estimate D2E/DX2                !
 ! A23   A(9,10,13)            119.0018         estimate D2E/DX2                !
 ! A24   A(11,10,13)           119.3452         estimate D2E/DX2                !
 ! A25   A(6,11,10)            117.229          estimate D2E/DX2                !
 ! A26   A(6,11,12)            121.5108         estimate D2E/DX2                !
 ! A27   A(10,11,12)           121.1976         estimate D2E/DX2                !
 ! A28   A(5,16,17)            103.4713         estimate D2E/DX2                !
 ! A29   A(7,17,16)            107.8823         estimate D2E/DX2                !
 ! A30   A(7,17,18)            125.6982         estimate D2E/DX2                !
 ! A31   A(16,17,18)           126.3378         estimate D2E/DX2                !
 ! A32   A(17,18,19)           125.0318         estimate D2E/DX2                !
 ! A33   A(17,18,20)           111.5113         estimate D2E/DX2                !
 ! A34   A(19,18,20)           123.3823         estimate D2E/DX2                !
 ! A35   A(18,20,21)           121.7414         estimate D2E/DX2                !
 ! A36   A(18,20,22)           121.7756         estimate D2E/DX2                !
 ! A37   A(21,20,22)           116.3188         estimate D2E/DX2                !
 ! A38   A(20,22,23)           115.2904         estimate D2E/DX2                !
 ! A39   A(20,22,26)           105.303          estimate D2E/DX2                !
 ! A40   A(20,22,27)           113.2925         estimate D2E/DX2                !
 ! A41   A(23,22,26)           110.7579         estimate D2E/DX2                !
 ! A42   A(23,22,27)           112.121          estimate D2E/DX2                !
 ! A43   A(26,22,27)            98.5103         estimate D2E/DX2                !
 ! A44   A(22,23,24)           113.6473         estimate D2E/DX2                !
 ! A45   A(22,23,25)           113.6643         estimate D2E/DX2                !
 ! A46   A(22,23,41)           115.1932         estimate D2E/DX2                !
 ! A47   A(24,23,25)           105.8932         estimate D2E/DX2                !
 ! A48   A(24,23,41)           103.2493         estimate D2E/DX2                !
 ! A49   A(25,23,41)           104.0478         estimate D2E/DX2                !
 ! A50   A(22,27,28)           112.1681         estimate D2E/DX2                !
 ! A51   A(22,27,29)           103.9295         estimate D2E/DX2                !
 ! A52   A(22,27,30)           118.0992         estimate D2E/DX2                !
 ! A53   A(28,27,29)           102.3613         estimate D2E/DX2                !
 ! A54   A(28,27,30)           113.2971         estimate D2E/DX2                !
 ! A55   A(29,27,30)           104.8735         estimate D2E/DX2                !
 ! A56   A(27,30,31)           111.1252         estimate D2E/DX2                !
 ! A57   A(27,30,32)           108.617          estimate D2E/DX2                !
 ! A58   A(27,30,43)           112.3058         estimate D2E/DX2                !
 ! A59   A(31,30,32)           106.5538         estimate D2E/DX2                !
 ! A60   A(31,30,43)           107.8146         estimate D2E/DX2                !
 ! A61   A(32,30,43)           110.2713         estimate D2E/DX2                !
 ! A62   A(30,32,33)           110.5888         estimate D2E/DX2                !
 ! A63   A(30,32,34)            95.6872         estimate D2E/DX2                !
 ! A64   A(30,32,35)           117.1275         estimate D2E/DX2                !
 ! A65   A(33,32,34)           109.1584         estimate D2E/DX2                !
 ! A66   A(33,32,35)           116.5835         estimate D2E/DX2                !
 ! A67   A(34,32,35)           105.1169         estimate D2E/DX2                !
 ! A68   A(32,35,36)           108.2566         estimate D2E/DX2                !
 ! A69   A(32,35,37)           109.3269         estimate D2E/DX2                !
 ! A70   A(32,35,38)           114.1712         estimate D2E/DX2                !
 ! A71   A(36,35,37)           113.5076         estimate D2E/DX2                !
 ! A72   A(36,35,38)           102.5997         estimate D2E/DX2                !
 ! A73   A(37,35,38)           108.9531         estimate D2E/DX2                !
 ! A74   A(35,38,39)           113.7916         estimate D2E/DX2                !
 ! A75   A(35,38,40)           100.6954         estimate D2E/DX2                !
 ! A76   A(35,38,41)           117.161          estimate D2E/DX2                !
 ! A77   A(39,38,40)           105.6397         estimate D2E/DX2                !
 ! A78   A(39,38,41)           116.0118         estimate D2E/DX2                !
 ! A79   A(40,38,41)           100.3289         estimate D2E/DX2                !
 ! A80   A(23,41,38)           109.8586         estimate D2E/DX2                !
 ! A81   A(23,41,42)           118.4365         estimate D2E/DX2                !
 ! A82   A(23,41,43)           109.9416         estimate D2E/DX2                !
 ! A83   A(38,41,42)           102.2114         estimate D2E/DX2                !
 ! A84   A(38,41,43)           108.6929         estimate D2E/DX2                !
 ! A85   A(42,41,43)           107.1579         estimate D2E/DX2                !
 ! A86   A(30,43,41)           113.7737         estimate D2E/DX2                !
 ! A87   A(30,43,44)           119.8479         estimate D2E/DX2                !
 ! A88   A(30,43,48)           101.8136         estimate D2E/DX2                !
 ! A89   A(41,43,44)           113.8032         estimate D2E/DX2                !
 ! A90   A(41,43,48)           102.3141         estimate D2E/DX2                !
 ! A91   A(44,43,48)           101.7912         estimate D2E/DX2                !
 ! A92   A(43,44,45)           100.3129         estimate D2E/DX2                !
 ! A93   A(43,44,46)           113.8505         estimate D2E/DX2                !
 ! A94   A(43,44,47)           105.1115         estimate D2E/DX2                !
 ! A95   A(45,44,46)           110.5351         estimate D2E/DX2                !
 ! A96   A(45,44,47)           112.0296         estimate D2E/DX2                !
 ! A97   A(46,44,47)           114.105          estimate D2E/DX2                !
 ! D1    D(2,1,5,6)            -44.4402         estimate D2E/DX2                !
 ! D2    D(2,1,5,16)           125.777          estimate D2E/DX2                !
 ! D3    D(3,1,5,6)           -152.0372         estimate D2E/DX2                !
 ! D4    D(3,1,5,16)            18.18           estimate D2E/DX2                !
 ! D5    D(4,1,5,6)             84.1991         estimate D2E/DX2                !
 ! D6    D(4,1,5,16)          -105.5837         estimate D2E/DX2                !
 ! D7    D(1,5,6,7)            165.7869         estimate D2E/DX2                !
 ! D8    D(1,5,6,11)           -11.5147         estimate D2E/DX2                !
 ! D9    D(16,5,6,7)            -4.5732         estimate D2E/DX2                !
 ! D10   D(16,5,6,11)          178.1252         estimate D2E/DX2                !
 ! D11   D(1,5,16,17)         -170.3254         estimate D2E/DX2                !
 ! D12   D(6,5,16,17)            1.547          estimate D2E/DX2                !
 ! D13   D(5,6,7,8)           -176.4109         estimate D2E/DX2                !
 ! D14   D(5,6,7,17)             5.4711         estimate D2E/DX2                !
 ! D15   D(11,6,7,8)             1.0009         estimate D2E/DX2                !
 ! D16   D(11,6,7,17)         -177.1172         estimate D2E/DX2                !
 ! D17   D(5,6,11,10)         -179.7482         estimate D2E/DX2                !
 ! D18   D(5,6,11,12)           -2.5923         estimate D2E/DX2                !
 ! D19   D(7,6,11,10)            3.3928         estimate D2E/DX2                !
 ! D20   D(7,6,11,12)         -179.4513         estimate D2E/DX2                !
 ! D21   D(6,7,8,9)              0.2962         estimate D2E/DX2                !
 ! D22   D(6,7,8,15)          -176.8223         estimate D2E/DX2                !
 ! D23   D(17,7,8,9)           177.8551         estimate D2E/DX2                !
 ! D24   D(17,7,8,15)            0.7365         estimate D2E/DX2                !
 ! D25   D(6,7,17,16)           -4.6736         estimate D2E/DX2                !
 ! D26   D(6,7,17,18)          178.4487         estimate D2E/DX2                !
 ! D27   D(8,7,17,16)          177.553          estimate D2E/DX2                !
 ! D28   D(8,7,17,18)            0.6753         estimate D2E/DX2                !
 ! D29   D(7,8,9,10)            -6.0682         estimate D2E/DX2                !
 ! D30   D(7,8,9,14)           176.6083         estimate D2E/DX2                !
 ! D31   D(15,8,9,10)          170.8383         estimate D2E/DX2                !
 ! D32   D(15,8,9,14)           -6.4851         estimate D2E/DX2                !
 ! D33   D(8,9,10,11)           10.5443         estimate D2E/DX2                !
 ! D34   D(8,9,10,13)          171.1489         estimate D2E/DX2                !
 ! D35   D(14,9,10,11)        -172.0937         estimate D2E/DX2                !
 ! D36   D(14,9,10,13)         -11.4891         estimate D2E/DX2                !
 ! D37   D(9,10,11,6)           -8.837          estimate D2E/DX2                !
 ! D38   D(9,10,11,12)         173.9976         estimate D2E/DX2                !
 ! D39   D(13,10,11,6)        -169.374          estimate D2E/DX2                !
 ! D40   D(13,10,11,12)         13.4606         estimate D2E/DX2                !
 ! D41   D(5,16,17,7)            1.8787         estimate D2E/DX2                !
 ! D42   D(5,16,17,18)         178.7309         estimate D2E/DX2                !
 ! D43   D(7,17,18,19)          -6.6926         estimate D2E/DX2                !
 ! D44   D(7,17,18,20)         176.3687         estimate D2E/DX2                !
 ! D45   D(16,17,18,19)        176.997          estimate D2E/DX2                !
 ! D46   D(16,17,18,20)          0.0582         estimate D2E/DX2                !
 ! D47   D(17,18,20,21)          2.0047         estimate D2E/DX2                !
 ! D48   D(17,18,20,22)       -173.1659         estimate D2E/DX2                !
 ! D49   D(19,18,20,21)       -174.9935         estimate D2E/DX2                !
 ! D50   D(19,18,20,22)          9.836          estimate D2E/DX2                !
 ! D51   D(18,20,22,23)        -78.9341         estimate D2E/DX2                !
 ! D52   D(18,20,22,26)         43.4564         estimate D2E/DX2                !
 ! D53   D(18,20,22,27)        150.0056         estimate D2E/DX2                !
 ! D54   D(21,20,22,23)        105.6474         estimate D2E/DX2                !
 ! D55   D(21,20,22,26)       -131.9621         estimate D2E/DX2                !
 ! D56   D(21,20,22,27)        -25.4129         estimate D2E/DX2                !
 ! D57   D(20,22,23,24)         23.2931         estimate D2E/DX2                !
 ! D58   D(20,22,23,25)        144.51           estimate D2E/DX2                !
 ! D59   D(20,22,23,41)        -95.5545         estimate D2E/DX2                !
 ! D60   D(26,22,23,24)        -96.1297         estimate D2E/DX2                !
 ! D61   D(26,22,23,25)         25.0872         estimate D2E/DX2                !
 ! D62   D(26,22,23,41)        145.0227         estimate D2E/DX2                !
 ! D63   D(27,22,23,24)        154.9106         estimate D2E/DX2                !
 ! D64   D(27,22,23,25)        -83.8725         estimate D2E/DX2                !
 ! D65   D(27,22,23,41)         36.063          estimate D2E/DX2                !
 ! D66   D(20,22,27,28)        -33.1031         estimate D2E/DX2                !
 ! D67   D(20,22,27,29)       -142.9325         estimate D2E/DX2                !
 ! D68   D(20,22,27,30)        101.4586         estimate D2E/DX2                !
 ! D69   D(23,22,27,28)       -165.7181         estimate D2E/DX2                !
 ! D70   D(23,22,27,29)         84.4525         estimate D2E/DX2                !
 ! D71   D(23,22,27,30)        -31.1564         estimate D2E/DX2                !
 ! D72   D(26,22,27,28)         77.6879         estimate D2E/DX2                !
 ! D73   D(26,22,27,29)        -32.1415         estimate D2E/DX2                !
 ! D74   D(26,22,27,30)       -147.7504         estimate D2E/DX2                !
 ! D75   D(22,23,41,38)         69.4315         estimate D2E/DX2                !
 ! D76   D(22,23,41,42)       -173.7391         estimate D2E/DX2                !
 ! D77   D(22,23,41,43)        -50.1417         estimate D2E/DX2                !
 ! D78   D(24,23,41,38)        -55.0511         estimate D2E/DX2                !
 ! D79   D(24,23,41,42)         61.7783         estimate D2E/DX2                !
 ! D80   D(24,23,41,43)       -174.6242         estimate D2E/DX2                !
 ! D81   D(25,23,41,38)       -165.4724         estimate D2E/DX2                !
 ! D82   D(25,23,41,42)        -48.643          estimate D2E/DX2                !
 ! D83   D(25,23,41,43)         74.9545         estimate D2E/DX2                !
 ! D84   D(22,27,30,31)        162.6488         estimate D2E/DX2                !
 ! D85   D(22,27,30,32)        -80.4493         estimate D2E/DX2                !
 ! D86   D(22,27,30,43)         41.7838         estimate D2E/DX2                !
 ! D87   D(28,27,30,31)        -63.2739         estimate D2E/DX2                !
 ! D88   D(28,27,30,32)         53.628          estimate D2E/DX2                !
 ! D89   D(28,27,30,43)        175.8611         estimate D2E/DX2                !
 ! D90   D(29,27,30,31)         47.5515         estimate D2E/DX2                !
 ! D91   D(29,27,30,32)        164.4534         estimate D2E/DX2                !
 ! D92   D(29,27,30,43)        -73.3135         estimate D2E/DX2                !
 ! D93   D(27,30,32,33)        -63.1444         estimate D2E/DX2                !
 ! D94   D(27,30,32,34)       -176.0814         estimate D2E/DX2                !
 ! D95   D(27,30,32,35)         73.7066         estimate D2E/DX2                !
 ! D96   D(31,30,32,33)         56.6494         estimate D2E/DX2                !
 ! D97   D(31,30,32,34)        -56.2876         estimate D2E/DX2                !
 ! D98   D(31,30,32,35)       -166.4996         estimate D2E/DX2                !
 ! D99   D(43,30,32,33)        173.3944         estimate D2E/DX2                !
 ! D100  D(43,30,32,34)         60.4575         estimate D2E/DX2                !
 ! D101  D(43,30,32,35)        -49.7545         estimate D2E/DX2                !
 ! D102  D(27,30,43,41)        -56.6801         estimate D2E/DX2                !
 ! D103  D(27,30,43,44)         82.8934         estimate D2E/DX2                !
 ! D104  D(27,30,43,48)       -165.9625         estimate D2E/DX2                !
 ! D105  D(31,30,43,41)       -179.4324         estimate D2E/DX2                !
 ! D106  D(31,30,43,44)        -39.8589         estimate D2E/DX2                !
 ! D107  D(31,30,43,48)         71.2852         estimate D2E/DX2                !
 ! D108  D(32,30,43,41)         64.6097         estimate D2E/DX2                !
 ! D109  D(32,30,43,44)       -155.8168         estimate D2E/DX2                !
 ! D110  D(32,30,43,48)        -44.6727         estimate D2E/DX2                !
 ! D111  D(30,32,35,36)        -81.5217         estimate D2E/DX2                !
 ! D112  D(30,32,35,37)        154.3677         estimate D2E/DX2                !
 ! D113  D(30,32,35,38)         32.0457         estimate D2E/DX2                !
 ! D114  D(33,32,35,36)         52.7615         estimate D2E/DX2                !
 ! D115  D(33,32,35,37)        -71.3491         estimate D2E/DX2                !
 ! D116  D(33,32,35,38)        166.3289         estimate D2E/DX2                !
 ! D117  D(34,32,35,36)        173.7796         estimate D2E/DX2                !
 ! D118  D(34,32,35,37)         49.669          estimate D2E/DX2                !
 ! D119  D(34,32,35,38)        -72.653          estimate D2E/DX2                !
 ! D120  D(32,35,38,39)       -167.2863         estimate D2E/DX2                !
 ! D121  D(32,35,38,40)         80.1878         estimate D2E/DX2                !
 ! D122  D(32,35,38,41)        -27.3891         estimate D2E/DX2                !
 ! D123  D(36,35,38,39)        -50.4032         estimate D2E/DX2                !
 ! D124  D(36,35,38,40)       -162.9292         estimate D2E/DX2                !
 ! D125  D(36,35,38,41)         89.4939         estimate D2E/DX2                !
 ! D126  D(37,35,38,39)         70.1875         estimate D2E/DX2                !
 ! D127  D(37,35,38,40)        -42.3384         estimate D2E/DX2                !
 ! D128  D(37,35,38,41)       -149.9154         estimate D2E/DX2                !
 ! D129  D(35,38,41,23)        -81.2031         estimate D2E/DX2                !
 ! D130  D(35,38,41,42)        152.2004         estimate D2E/DX2                !
 ! D131  D(35,38,41,43)         39.1297         estimate D2E/DX2                !
 ! D132  D(39,38,41,23)         57.8123         estimate D2E/DX2                !
 ! D133  D(39,38,41,42)        -68.7842         estimate D2E/DX2                !
 ! D134  D(39,38,41,43)        178.1451         estimate D2E/DX2                !
 ! D135  D(40,38,41,23)        171.0067         estimate D2E/DX2                !
 ! D136  D(40,38,41,42)         44.4101         estimate D2E/DX2                !
 ! D137  D(40,38,41,43)        -68.6605         estimate D2E/DX2                !
 ! D138  D(23,41,43,30)         61.7089         estimate D2E/DX2                !
 ! D139  D(23,41,43,44)        -80.3577         estimate D2E/DX2                !
 ! D140  D(23,41,43,48)        170.683          estimate D2E/DX2                !
 ! D141  D(38,41,43,30)        -58.5724         estimate D2E/DX2                !
 ! D142  D(38,41,43,44)        159.361          estimate D2E/DX2                !
 ! D143  D(38,41,43,48)         50.4016         estimate D2E/DX2                !
 ! D144  D(42,41,43,30)       -168.3373         estimate D2E/DX2                !
 ! D145  D(42,41,43,44)         49.5961         estimate D2E/DX2                !
 ! D146  D(42,41,43,48)        -59.3633         estimate D2E/DX2                !
 ! D147  D(30,43,44,45)        156.3814         estimate D2E/DX2                !
 ! D148  D(30,43,44,46)         38.329          estimate D2E/DX2                !
 ! D149  D(30,43,44,47)        -87.2569         estimate D2E/DX2                !
 ! D150  D(41,43,44,45)        -64.0563         estimate D2E/DX2                !
 ! D151  D(41,43,44,46)        177.8913         estimate D2E/DX2                !
 ! D152  D(41,43,44,47)         52.3055         estimate D2E/DX2                !
 ! D153  D(48,43,44,45)         45.2251         estimate D2E/DX2                !
 ! D154  D(48,43,44,46)        -72.8273         estimate D2E/DX2                !
 ! D155  D(48,43,44,47)        161.5869         estimate D2E/DX2                !
 --------------------------------------------------------------------------------
 Trust Radius=3.00D-01 FncErr=1.00D-07 GrdErr=1.00D-06 EigMax=2.50D+02 EigMin=1.00D-04
 Number of steps in this run=    288 maximum allowed number of steps=    288.
 GradGradGradGradGradGradGradGradGradGradGradGradGradGradGradGradGradGrad

 Leave Link  103 at Mon Jul 12 12:44:39 2021, MaxMem=   104857600 cpu:               0.0 elap:               0.1
 (Enter /dades/curu/g16A03_MST/g16/l202.exe)
                          Input orientation:                          
 ---------------------------------------------------------------------
 Center     Atomic      Atomic             Coordinates (Angstroms)
 Number     Number       Type             X           Y           Z
 ---------------------------------------------------------------------
      1          6           0        3.244000   -0.743000   -3.517000
      2          1           0        3.130000   -0.813000   -4.602000
      3          1           0        2.724000   -1.641000   -3.174000
      4          1           0        4.267000   -0.613000   -3.156000
      5          7           0        2.378000    0.324000   -2.992000
      6          6           0        2.163000    1.560000   -3.442000
      7          6           0        1.080000    2.021000   -2.819000
      8          6           0        0.574000    3.278000   -3.154000
      9          6           0        1.254000    3.991000   -4.157000
     10          6           0        2.460000    3.529000   -4.710000
     11          6           0        2.873000    2.253000   -4.420000
     12          1           0        3.747000    1.821000   -4.901000
     13          1           0        2.870000    4.037000   -5.579000
     14          1           0        0.868000    4.950000   -4.493000
     15          1           0       -0.279000    3.654000   -2.595000
     16          7           0        1.513000   -0.056000   -1.981000
     17          6           0        0.688000    1.037000   -1.837000
     18          6           0       -0.451000    1.160000   -0.896000
     19          8           0       -1.151000    2.183000   -0.748000
     20          7           0       -0.609000    0.020000   -0.144000
     21          1           0        0.018000   -0.766000   -0.233000
     22          6           0       -1.750000   -0.160000    0.749000
     23          6           0       -1.648000    0.592000    2.134000
     24          1           0       -0.972000    1.450000    2.118000
     25          1           0       -2.605000    0.972000    2.498000
     26          1           0       -2.618000    0.188000    0.182000
     27          6           0       -2.161000   -1.622000    0.917000
     28          1           0       -1.993000   -2.204000    0.009000
     29          1           0       -3.251000   -1.584000    0.972000
     30          6           0       -1.727000   -2.353000    2.196000
     31          1           0       -2.316000   -3.261000    2.350000
     32          6           0       -0.273000   -2.799000    2.034000
     33          1           0       -0.180000   -3.515000    1.215000
     34          1           0       -0.217000   -3.333000    2.985000
     35          6           0        0.801000   -1.717000    2.121000
     36          1           0        0.866000   -1.221000    1.151000
     37          1           0        1.742000   -2.167000    2.444000
     38          6           0        0.454000   -0.567000    3.060000
     39          1           0        1.110000    0.300000    2.956000
     40          1           0        0.704000   -1.011000    4.025000
     41          6           0       -1.121000   -0.245000    3.287000
     42          1           0       -1.126000    0.189000    4.290000
     43          7           0       -1.868000   -1.537000    3.362000
     44          6           0       -3.113000   -1.434000    3.994000
     45          1           0       -2.798000   -1.151000    5.002000
     46          1           0       -3.676000   -2.371000    4.017000
     47          1           0       -3.626000   -0.618000    3.481000
     48          1           0       -1.338000   -2.051000    4.037000
 ---------------------------------------------------------------------
                    Distance matrix (angstroms):
                    1          2          3          4          5
     1  C    0.000000
     2  H    1.093216   0.000000
     3  H    1.092910   1.699884   0.000000
     4  H    1.092589   1.850320   1.854173   0.000000
     5  N    1.471078   2.109591   2.003513   2.114991   0.000000
     6  C    2.545191   2.812795   3.260820   3.038181   1.332824
     7  C    3.579078   3.925958   4.029765   4.148312   2.143488
     8  C    4.840363   5.036479   5.368376   5.364526   3.465080
     9  C    5.174984   5.176468   5.903102   5.592583   4.008427
    10  C    4.504208   4.394716   5.399805   4.778737   3.637344
    11  C    3.151042   3.082131   4.091204   3.428540   2.450561
    12  H    2.956782   2.721773   4.001812   3.039701   2.785579
    13  H    5.219207   4.954254   6.168065   5.426328   4.552033
    14  H    6.245655   6.191986   6.973219   6.654903   5.092443
    15  H    5.709223   5.966860   6.114759   6.260042   4.278570
    16  N    2.414048   3.171337   2.324219   3.045552   1.383743
    17  C    3.538917   4.126874   3.620021   4.155900   2.167601
    18  C    4.913662   5.518218   4.807859   5.523645   3.618750
    19  O    5.961951   6.492788   5.960208   6.555212   4.576599
    20  N    5.177346   5.877735   4.800907   5.766126   4.138320
    21  H    4.603505   5.364225   4.091154   5.159587   3.790749
    22  C    6.593837   7.271452   6.131881   7.187386   5.591934
    23  C    7.592608   8.377172   7.230182   8.026416   6.523525
    24  H    7.371372   8.191824   7.156812   7.714802   6.213089
    25  H    8.563425   9.299809   8.209604   9.039044   7.442466
    26  H    6.993740   7.545075   6.568481   7.693313   5.920540
    27  C    7.046064   7.688207   6.371802   7.676366   6.298390
    28  H    6.480229   7.031453   5.718264   7.192782   5.873877
    29  H    7.939989   8.507707   7.272770   8.631544   7.144187
    30  C    7.742177   8.495578   7.011080   8.221894   7.136715
    31  H    8.466145   9.164165   7.651181   8.981304   7.963845
    32  C    6.885494   7.717584   6.119333   7.233692   6.483950
    33  H    6.465260   7.217645   5.586449   6.877722   6.243407
    34  H    7.807857   8.666913   7.031758   8.075676   7.472095
    35  C    6.221251   7.172181   5.633891   6.409267   5.726725
    36  H    5.260570   6.195899   4.725906   5.521478   4.673074
    37  H    6.310095   7.307939   5.727384   6.336445   6.013291
    38  C    7.146468   8.119590   6.720798   7.292444   6.412672
    39  H    6.895037   7.902059   6.629433   6.939507   6.081702
    40  H    7.962737   8.963805   7.503526   8.026215   7.336402
    41  C    8.099114   8.979418   7.647049   8.407034   7.210590
    42  H    8.995264   9.908845   8.595504   9.228790   8.082312
    43  N    8.607184   9.430243   7.988528   8.998685   7.865440
    44  C    9.864282  10.641988   9.246277  10.308295   9.057916
    45  H   10.452061  11.291246   9.878237  10.805398   9.636941
    46  H   10.358472  11.092167   9.654190  10.845909   9.645726
    47  H    9.807371  10.536434   9.255164  10.312577   8.878914
    48  H    8.931322   9.804488   8.286523   9.231637   8.297959
                    6          7          8          9         10
     6  C    0.000000
     7  C    1.331743   0.000000
     8  C    2.357836   1.395819   0.000000
     9  C    2.692075   2.387765   1.405979   0.000000
    10  C    2.360719   2.784662   2.457872   1.404880   0.000000
    11  C    1.393138   2.414927   2.817584   2.389764   1.372168
    12  H    2.169299   3.389338   3.904201   3.387844   2.147118
    13  H    3.346961   3.858232   3.424664   2.153057   1.086888
    14  H    3.778058   3.380275   2.162161   1.087002   2.144946
    15  H    3.326501   2.136293   1.086953   2.214385   3.462798
    16  N    2.273428   2.281154   3.656939   4.602202   4.603963
    17  C    2.241691   1.444384   2.601839   3.798536   4.195733
    18  C    3.670846   2.604460   3.261152   4.642812   5.350951
    19  O    4.316059   3.048384   3.156499   4.546886   5.527068
    20  N    4.575193   3.743307   4.590659   5.945063   6.525350
    21  H    4.506549   3.947481   5.019493   6.289239   6.667377
    22  C    5.986188   5.049385   5.696861   7.093917   7.818792
    23  C    6.822941   5.832344   6.333626   7.716961   8.505408
    24  H    6.383880   5.376868   5.790137   7.126527   7.919751
    25  H    7.639579   6.553634   6.882498   8.264095   9.173208
    26  H    6.154163   5.103048   5.555705   6.948533   7.802566
    27  C    6.915416   6.142738   6.932768   8.301414   8.919057
    28  H    6.584029   5.940668   6.829816   8.141044   8.658260
    29  H    7.660256   6.791559   7.435963   8.813756   9.541667
    30  C    7.888645   7.222281   8.100942   9.460090   9.991082
    31  H    8.766456   8.133320   9.022452  10.376775  10.897609
    32  C    7.410908   6.972418   8.035091   9.314736   9.643361
    33  H    7.275502   6.964772   8.111814   9.341026   9.575655
    34  H    8.420937   8.002121   9.056397  10.335037  10.652061
    35  C    6.598541   6.201136   7.268231   8.497044   8.771280
    36  H    5.523750   5.130035   6.233722   7.449185   7.710685
    37  H    6.979453   6.758458   7.896192   9.040592   9.172767
    38  C    7.051299   6.453856   7.308367   8.573241   9.009670
    39  H    6.605362   6.026057   6.818202   8.014923   8.427129
    40  H    8.030866   7.494981   8.363639   9.605604   9.999768
    41  C    7.702086   6.874765   7.534656   8.888051   9.540369
    42  H    8.513577   7.665542   8.236811   9.564069  10.247682
    43  N    8.493220   7.717178   8.462024   9.840784  10.466763
    44  C    9.596578   8.714083   9.321524  10.721013  11.465135
    45  H   10.161800   9.288084   9.874551  11.258159  11.994662
    46  H   10.255894   9.414887  10.069605  11.471452  12.191022
    47  H    9.283541   8.294622   8.765959  10.168398  11.014966
    48  H    9.012867   8.332625   9.152293  10.505516  11.048584
                   11         12         13         14         15
    11  C    0.000000
    12  H    1.087134   0.000000
    13  H    2.127427   2.477795   0.000000
    14  H    3.361423   4.271504   2.453766   0.000000
    15  H    3.902375   4.988607   4.355129   2.568585   0.000000
    16  N    3.623507   4.127988   5.616022   5.637926   4.165616
    17  C    3.595104   4.400026   5.269126   4.732685   2.891080
    18  C    4.966105   5.839533   6.421578   5.389088   3.022618
    19  O    5.448033   6.431863   6.553191   5.075202   2.517069
    20  N    5.949352   6.696819   7.601247   6.737969   4.395709
    21  H    5.898844   6.510625   7.731910   7.179328   5.020324
    22  C    7.342565   8.127968   8.888352   7.774612   5.281361
    23  C    8.133467   8.950290   9.579703   8.321031   5.797710
    24  H    7.627206   8.465989   8.983170   7.703306   5.248832
    25  H    8.916735   9.788458  10.227794   8.761295   6.208224
    26  H    7.456119   8.307635   8.838669   7.528909   5.019542
    27  C    8.297008   8.978187   9.976636   9.035160   6.611524
    28  H    7.947254   8.558991   9.686310   8.923735   6.635870
    29  H    9.016630   9.749777  10.581960   9.461794   6.999494
    30  C    9.281524   9.887081  11.064137  10.237703   7.818851
    31  H   10.156910  10.731435  11.959283  11.152804   8.741832
    32  C    8.779188   9.251974  10.703603  10.195617   7.941592
    33  H    8.622288   9.016634  10.606302  10.263323   8.119142
    34  H    9.776785  10.220861  11.712752  11.211860   8.941947
    35  C    7.927091   8.396716   9.832562   9.391399   7.228741
    36  H    6.865331   7.360749   8.772427   8.362774   6.253732
    37  H    8.241969   8.594952  10.204437   9.976850   7.959900
    38  C    8.351908   8.940018  10.082965   9.362505   7.094586
    39  H    7.831204   8.426130   9.482035   8.784570   6.632664
    40  H    9.310010   9.846499  11.063936  10.397920   8.157997
    41  C    9.032712   9.747262  10.624009   9.564128   7.106975
    42  H    9.803887  10.530149  11.321320  10.187455   7.754151
    43  N    9.869180  10.539524  11.552472  10.548360   8.059606
    44  C   10.964559  11.695112  12.544738  11.341648   8.793988
    45  H   11.511800  12.236798  13.076664  11.866625   9.335298
    46  H   11.638460  12.337119  13.266341  12.110536   9.568635
    47  H   10.625697  11.426626  12.081003  10.713699   8.146789
    48  H   10.381608  10.988060  12.134186  11.253503   8.812033
                   16         17         18         19         20
    16  N    0.000000
    17  C    1.376957   0.000000
    18  C    2.552093   1.482542   0.000000
    19  O    3.691924   2.425110   1.248372   0.000000
    20  N    2.807709   2.362784   1.374797   2.310227   0.000000
    21  H    2.407204   2.504501   2.090217   3.213781   1.009379
    22  C    4.255689   3.750207   2.477060   2.844197   1.460045
    23  C    5.229249   4.628581   3.307013   3.329296   2.568266
    24  H    5.024446   4.309083   3.072415   2.963661   2.700613
    25  H    6.170587   5.444290   4.024214   3.757280   3.445357
    26  H    4.669397   3.965703   2.608210   2.645187   2.042200
    27  C    4.934474   4.771960   3.735049   4.274383   2.496115
    28  H    4.567936   4.593426   3.809631   4.530760   2.623936
    29  H    5.809534   5.502349   4.342690   4.643134   3.286097
    30  C    5.763778   5.795637   4.850753   5.438217   3.515203
    31  H    6.609904   6.710275   5.793098   6.371182   4.460812
    32  C    5.180161   5.533810   4.928515   5.773277   3.578176
    33  H    5.004533   5.548769   5.136671   6.104377   3.811449
    34  H    6.196191   6.570206   5.941714   6.725615   4.602925
    35  C    4.482440   4.823178   4.352806   5.220294   3.183629
    36  H    3.403712   3.749452   3.404976   4.388816   2.322225
    37  H    4.908094   5.450091   5.199402   6.122158   4.124065
    38  C    5.176319   5.158312   4.410384   4.963808   3.426391
    39  H    4.966197   4.867659   4.244317   4.730478   3.555750
    40  H    6.135026   6.209477   5.501228   6.035246   4.490823
    41  C    5.892835   5.583134   4.463229   4.709279   3.479099
    42  H    6.808068   6.445916   5.319122   5.418312   4.467237
    43  N    6.494010   6.339417   5.235672   5.589686   4.037495
    44  C    7.681106   7.386068   6.142246   6.278431   5.050463
    45  H    8.279253   7.981946   6.755408   6.847676   5.713517
    46  H    8.262019   8.057808   6.856103   7.058312   5.695375
    47  H    7.520546   7.044909   5.692103   5.644082   4.759197
    48  H    6.951586   6.938609   5.952460   6.392022   4.722419
                   21         22         23         24         25
    21  H    0.000000
    22  C    2.111252   0.000000
    23  C    3.197250   1.579282   0.000000
    24  H    3.379047   2.252009   1.092427   0.000000
    25  H    4.166429   2.251988   1.092129   1.743437   0.000000
    26  H    2.833873   1.093626   2.216849   2.837262   2.445134
    27  C    2.608309   1.527936   2.577994   3.506181   3.070103
    28  H    2.484055   2.187369   3.528777   4.340742   4.081255
    29  H    3.578758   2.080987   2.941909   3.963876   3.046166
    30  C    3.385799   2.627468   2.946712   3.878004   3.452204
    31  H    4.283044   3.535500   3.916438   4.904455   4.245434
    32  C    3.058931   3.285890   3.660534   4.306931   4.458022
    33  H    3.113344   3.733374   4.457245   5.108219   5.259266
    34  H    4.123134   4.173453   4.263518   4.919228   4.946993
    35  C    2.656841   3.288500   3.365895   3.629522   4.355879
    36  H    1.685700   2.851452   3.251685   3.383426   4.321053
    37  H    3.478693   4.369798   4.381813   4.533736   5.362149
    38  C    3.327694   3.219315   2.572773   2.643696   3.470136
    39  H    3.535328   3.641710   2.892665   2.521799   3.802969
    40  H    4.319859   4.180729   3.417220   3.535837   4.148915
    41  C    3.736196   2.616163   1.519114   2.064410   2.075058
    42  H    4.762173   3.612459   2.254602   2.516232   2.451896
    43  N    4.132247   2.955981   2.467595   3.357458   2.754042
    44  C    5.302538   3.743110   3.116168   4.052248   2.878353
    45  H    5.956787   4.490924   3.547671   4.291495   3.288525
    46  H    5.855268   4.390652   4.054361   5.051520   3.824925
    47  H    5.205232   3.345589   2.681603   3.630167   2.129984
    48  H    4.660779   3.815307   3.271538   4.009179   3.621096
                   26         27         28         29         30
    26  H    0.000000
    27  C    2.006284   0.000000
    28  H    2.478350   1.091518   0.000000
    29  H    2.040778   1.092048   1.701274   0.000000
    30  C    3.362552   1.535760   2.208150   2.100503   0.000000
    31  H    4.084976   2.182621   2.588795   2.363353   1.093207
    32  C    4.225056   2.489490   2.722692   3.387116   1.529469
    33  H    4.552268   2.756196   2.541678   3.635774   2.169289
    34  H    5.100887   3.314103   3.644913   4.039347   1.965457
    35  C    4.367872   3.198763   3.536121   4.213857   2.607854
    36  H    3.881043   3.062399   3.231769   4.136847   3.016140
    37  H    5.447226   4.226365   4.458791   5.238007   3.482824
    38  C    4.276692   3.541708   4.239832   4.372763   2.948398
    39  H    4.648183   4.307093   4.958168   5.148207   3.957850
    40  H    5.219381   4.270973   4.982501   5.029032   3.325051
    41  C    3.474122   2.931660   3.917059   3.418925   2.449731
    42  H    4.370552   3.965864   4.980472   4.320680   3.347805
    43  N    3.694662   2.463960   3.420983   2.761702   1.430137
    44  C    4.172200   3.226388   4.210407   3.028866   2.449155
    45  H    5.005769   4.161110   5.165935   4.078431   3.235040
    46  H    4.730229   3.530754   4.350223   3.173644   2.667389
    47  H    3.542471   3.119028   4.151731   2.714565   2.875352
    48  H    4.638162   3.255114   4.083775   3.643060   1.905730
                   31         32         33         34         35
    31  H    0.000000
    32  C    2.118289   0.000000
    33  H    2.432126   1.091818   0.000000
    34  H    2.194131   1.092105   1.779717   0.000000
    35  C    3.485981   1.527013   2.239643   2.096253   0.000000
    36  H    3.965391   2.137076   2.522033   2.999498   1.091394
    37  H    4.203931   2.151220   2.649836   2.343057   1.091929
    38  C    3.928694   2.561841   3.535065   2.847213   1.524674
    39  H    4.978497   3.516614   4.387415   3.867875   2.204766
    40  H    4.121714   2.848781   3.866209   2.705832   2.032993
    41  C    3.376722   2.968506   3.983913   3.231743   2.687085
    42  H    4.133062   3.839960   4.906135   3.864426   3.471416
    43  N    2.048664   2.429044   3.372156   2.468511   2.948905
    44  C    2.583771   3.710852   4.544875   3.607090   4.348289
    45  H    3.423087   4.230905   5.175306   3.935857   4.644709
    46  H    2.328216   3.961803   4.624063   3.735659   4.905717
    47  H    3.159226   4.253608   5.040068   4.386174   4.759804
    48  H    2.294897   2.388669   3.383481   2.001717   2.891009
                   36         37         38         39         40
    36  H    0.000000
    37  H    1.825963   0.000000
    38  C    2.059549   2.144388   0.000000
    39  H    2.372973   2.597625   1.092173   0.000000
    40  H    2.886212   2.216606   1.091266   1.739632   0.000000
    41  C    3.076238   3.549859   1.623526   2.320333   2.112351
    42  H    3.976114   4.145344   2.140289   2.606065   2.204342
    43  N    3.530316   3.777794   2.534519   3.522483   2.707661
    44  C    4.894942   5.148865   3.787814   4.681659   3.840492
    45  H    5.316013   5.309164   3.832483   4.643703   3.638425
    46  H    5.492378   5.645411   4.607295   5.582630   4.586291
    47  H    5.096133   5.682446   4.101980   4.852633   4.381699
    48  H    3.724985   3.469511   2.523499   3.562087   2.291617
                   41         42         43         44         45
    41  C    0.000000
    42  H    1.092882   0.000000
    43  N    1.494288   2.095429   0.000000
    44  C    2.425208   2.582618   1.400021   0.000000
    45  H    2.564057   2.257903   1.924447   1.093333   0.000000
    46  H    3.403058   3.623621   2.096055   1.093374   1.797083
    47  H    2.540037   2.748769   1.987281   1.091876   1.811937
    48  H    1.967543   2.264189   1.000360   1.879671   1.967949
                   46         47         48
    46  H    0.000000
    47  H    1.833795   0.000000
    48  H    2.359882   2.756369   0.000000
 Stoichiometry    C18H25N4O(1+)
 Framework group  C1[X(C18H25N4O)]
 Deg. of freedom   138
 Full point group                 C1      NOp   1
 Largest Abelian subgroup         C1      NOp   1
 Largest concise Abelian subgroup C1      NOp   1
                         Standard orientation:                         
 ---------------------------------------------------------------------
 Center     Atomic      Atomic             Coordinates (Angstroms)
 Number     Number       Type             X           Y           Z
 ---------------------------------------------------------------------
      1          6           0       -3.469068    2.999999   -0.357151
      2          1           0       -4.253355    3.062868   -1.116138
      3          1           0       -2.589365    3.341475   -0.908486
      4          1           0       -3.677377    3.516890    0.582626
      5          7           0       -3.134135    1.590618   -0.101150
      6          6           0       -3.927016    0.532872    0.068955
      7          6           0       -3.162217   -0.551834   -0.040736
      8          6           0       -3.747393   -1.817604    0.020134
      9          6           0       -5.142061   -1.866285    0.191330
     10          6           0       -5.903653   -0.708544    0.422206
     11          6           0       -5.306166    0.516694    0.265208
     12          1           0       -5.880467    1.436824    0.338694
     13          1           0       -6.988108   -0.778676    0.403169
     14          1           0       -5.652506   -2.825981    0.189441
     15          1           0       -3.096178   -2.686997   -0.019135
     16          7           0       -1.795604    1.264709   -0.231005
     17          6           0       -1.792512   -0.110680   -0.165383
     18          6           0       -0.606422   -0.992891   -0.278628
     19          8           0       -0.624050   -2.235732   -0.162579
     20          7           0        0.546207   -0.266681   -0.463385
     21          1           0        0.541055    0.742548   -0.480009
     22          6           0        1.824250   -0.912289   -0.748911
     23          6           0        2.561384   -1.532347    0.502605
     24          1           0        1.891796   -1.768925    1.332712
     25          1           0        3.100492   -2.455851    0.280686
     26          1           0        1.598054   -1.685904   -1.488082
     27          6           0        2.758480   -0.053064   -1.599520
     28          1           0        2.212158    0.570162   -2.309825
     29          1           0        3.254886   -0.772931   -2.253692
     30          6           0        3.901218    0.690565   -0.892608
     31          1           0        4.664505    1.010350   -1.606913
     32          6           0        3.337190    1.963085   -0.258700
     33          1           0        2.951108    2.636093   -1.026858
     34          1           0        4.297526    2.340689    0.098881
     35          6           0        2.482773    1.796282    0.995859
     36          1           0        1.471486    1.525670    0.687298
     37          1           0        2.526969    2.712850    1.587687
     38          6           0        2.888409    0.618821    1.875446
     39          1           0        2.153574    0.369220    2.643923
     40          1           0        3.738034    1.047959    2.409150
     41          6           0        3.609103   -0.638836    1.144189
     42          1           0        4.224037   -1.052024    1.947633
     43          7           0        4.541343   -0.115751    0.100059
     44          6           0        5.535733   -1.026313   -0.276935
     45          1           0        6.081422   -1.121597    0.665679
     46          1           0        6.195990   -0.658008   -1.066795
     47          1           0        5.000115   -1.942270   -0.534481
     48          1           0        5.069678    0.565362    0.607669
 ---------------------------------------------------------------------
 Rotational constants (GHZ):           0.6485008           0.1253524           0.1133169
 Leave Link  202 at Mon Jul 12 12:44:40 2021, MaxMem=   104857600 cpu:               0.1 elap:               0.0
 (Enter /dades/curu/g16A03_MST/g16/l301.exe)
 Standard basis: 6-31G(d) (6D, 7F)
 Ernie: Thresh=  0.10000D-02 Tol=  0.10000D-05 Strict=F.
 There are   395 symmetry adapted cartesian basis functions of A   symmetry.
 There are   395 symmetry adapted basis functions of A   symmetry.
   395 basis functions,   744 primitive gaussians,   395 cartesian basis functions
    84 alpha electrons       84 beta electrons
       nuclear repulsion energy      1985.0842404883 Hartrees.
 IExCor=  402 DFT=T Ex+Corr=B3LYP ExCW=0 ScaHFX=  0.200000
 ScaDFX=  0.800000  0.720000  1.000000  0.810000 ScalE2=  1.000000  1.000000
 IRadAn=      5 IRanWt=     -1 IRanGd=            0 ICorTp=0 IEmpDi=  4
 NAtoms=   48 NActive=   48 NUniq=   48 SFac= 1.00D+00 NAtFMM=   60 NAOKFM=F Big=F
 Integral buffers will be    131072 words long.
 Raffenetti 2 integral format.
 Two-electron integral symmetry is turned on.
 Using the following non-standard input for PCM:
 MSTModel=DFT cav MSTCharged
 --- end of non-standard input.
 MST model for solvation energy: B3LYP parametrization.
 MST cavity parameters:
 ISph   IAn     Re0     Alpha   Atom Type   QCorr
 ------------------------------------------------
   1      6     1.50     1.50      CH3        F
   2      1     1.20     1.50      CH3        F
   3      1     1.20     1.50      CH3        F
   4      1     1.20     1.50      CH3        F
   5      7     1.50     1.50      Nc         F
   6      6     1.50     1.50      C          F
   7      6     1.50     1.50      C          F
   8      6     1.50     1.50      CH         F
   9      6     1.50     1.50      CH         F
  10      6     1.50     1.50      CH         F
  11      6     1.50     1.50      CH         F
  12      1     1.20     1.50      CH         F
  13      1     1.20     1.50      CH         F
  14      1     1.20     1.50      CH         F
  15      1     1.20     1.50      CH         F
  16      7     1.50     1.50      Nc         F
  17      6     1.50     1.50      C          F
  18      6     1.50     1.50      C          F
  19      8     1.40     1.50      O          F
  20      7     1.50     1.50      NH         F
  21      1     0.90     1.50      NH         F
  22      6     1.50     1.50      CH         F
  23      6     1.50     1.50      CH2        F
  24      1     1.20     1.50      CH2        F
  25      1     1.20     1.50      CH2        F
  26      1     1.20     1.50      CH         F
  27      6     1.50     1.50      CH2        F
  28      1     1.20     1.50      CH2        F
  29      1     1.20     1.50      CH2        F
  30      6     1.50     1.50      CN+        F
  31      1     1.20     1.50      CN+        F
  32      6     1.50     1.50      CH2        F
  33      1     1.20     1.50      CH2        F
  34      1     1.20     1.50      CH2        F
  35      6     1.50     1.50      CH2        F
  36      1     1.20     1.50      CH2        F
  37      1     1.20     1.50      CH2        F
  38      6     1.50     1.50      CH2        F
  39      1     1.20     1.50      CH2        F
  40      1     1.20     1.50      CH2        F
  41      6     1.50     1.50      CN+        F
  42      1     1.20     1.50      CN+        F
  43      7     1.50     1.15      NH+        T
  44      6     1.50     1.50      CN+        F
  45      1     1.20     1.50      CN+        F
  46      1     1.20     1.50      CN+        F
  47      1     1.20     1.50      CN+        F
  48      1     0.90     1.15      NH+        T
 ------------------------------------------------------------------------------
 Polarizable Continuum Model (PCM)
 =================================
 Model                : PCM.
 Atomic radii         : MST.
 Polarization charges : Total charges.
 Charge compensation  : None.
 Solution method      : On-the-fly selection.
 Cavity type          : Scaled VdW (van der Waals Surface) (Alpha=1.500).
 Cavity algorithm     : GePol (No added spheres)
                        Default sphere list used, NSphG=   48.
                        Lebedev-Laikov grids with approx.  5.0 points / Ang**2.
                        Smoothing algorithm: York/Karplus (Gamma=1.0000).
                        Polarization charges: spherical gaussians, with
                                              point-specific exponents (IZeta= 3).
                        Self-potential: point-specific (ISelfS= 7).
                        Self-field    : sphere-specific E.n sum rule (ISelfD= 2).
 1st derivatives      : Analytical E(r).r(x)/FMM algorithm (CHGder, D1EAlg=3).
                        Cavity 1st derivative terms included.
 Solvent              : n-Octanol, Eps=   9.862900 Eps(inf)=   2.043470
 ------------------------------------------------------------------------------
 GePol: Number of generator spheres                  =      48
 GePol: Total number of spheres                      =      48
 GePol: Number of exposed spheres                    =      48 (100.00%)
 GePol: Number of points                             =    4078
 GePol: Average weight of points                     =       0.10
 GePol: Minimum weight of points                     =   0.48D-10
 GePol: Maximum weight of points                     =    0.20228
 GePol: Number of points with low weight             =     230
 GePol: Fraction of low-weight points (<1% of avg)   =       5.64%
 GePol: Cavity surface area                          =    426.295 Ang**2
 GePol: Cavity volume                                =    520.772 Ang**3
 Surface areas from nonelectrostatic (unscaled) cavity and vdw tensions:
 Sphere =    1 Type =  CH3 Surf =        5.475 Tension =       -0.183
 Sphere =    2 Type =  CH3 Surf =       10.087 Tension =       -0.183
 Sphere =    3 Type =  CH3 Surf =        9.363 Tension =       -0.183
 Sphere =    4 Type =  CH3 Surf =       10.211 Tension =       -0.183
 Sphere =    5 Type =  Nc  Surf =        5.853 Tension =       -0.161
 Sphere =    6 Type =  C   Surf =        5.735 Tension =       -0.205
 Sphere =    7 Type =  C   Surf =        6.179 Tension =       -0.205
 Sphere =    8 Type =  CH  Surf =        7.955 Tension =       -0.195
 Sphere =    9 Type =  CH  Surf =        7.797 Tension =       -0.195
 Sphere =   10 Type =  CH  Surf =        7.803 Tension =       -0.195
 Sphere =   11 Type =  CH  Surf =        7.752 Tension =       -0.195
 Sphere =   12 Type =  CH  Surf =       10.254 Tension =       -0.195
 Sphere =   13 Type =  CH  Surf =       10.220 Tension =       -0.195
 Sphere =   14 Type =  CH  Surf =       10.228 Tension =       -0.195
 Sphere =   15 Type =  CH  Surf =        9.916 Tension =       -0.195
 Sphere =   16 Type =  Nc  Surf =       12.657 Tension =       -0.161
 Sphere =   17 Type =  C   Surf =        6.487 Tension =       -0.205
 Sphere =   18 Type =  C   Surf =        6.783 Tension =       -0.205
 Sphere =   19 Type =  O   Surf =       16.168 Tension =       -0.185
 Sphere =   20 Type =  NH  Surf =        8.475 Tension =       -0.234
 Sphere =   21 Type =  NH  Surf =        2.996 Tension =       -0.234
 Sphere =   22 Type =  CH  Surf =        2.893 Tension =       -0.195
 Sphere =   23 Type =  CH2 Surf =        3.803 Tension =       -0.194
 Sphere =   24 Type =  CH2 Surf =        9.859 Tension =       -0.194
 Sphere =   25 Type =  CH2 Surf =        9.030 Tension =       -0.194
 Sphere =   26 Type =  CH  Surf =        9.234 Tension =       -0.195
 Sphere =   27 Type =  CH2 Surf =        3.416 Tension =       -0.194
 Sphere =   28 Type =  CH2 Surf =        9.996 Tension =       -0.194
 Sphere =   29 Type =  CH2 Surf =        9.454 Tension =       -0.194
 Sphere =   30 Type =  CN+ Surf =        2.095 Tension =       -0.227
 Sphere =   31 Type =  CN+ Surf =        9.534 Tension =       -0.227
 Sphere =   32 Type =  CH2 Surf =        3.658 Tension =       -0.194
 Sphere =   33 Type =  CH2 Surf =       10.136 Tension =       -0.194
 Sphere =   34 Type =  CH2 Surf =        9.139 Tension =       -0.194
 Sphere =   35 Type =  CH2 Surf =        3.891 Tension =       -0.194
 Sphere =   36 Type =  CH2 Surf =        7.778 Tension =       -0.194
 Sphere =   37 Type =  CH2 Surf =        9.985 Tension =       -0.194
 Sphere =   38 Type =  CH2 Surf =        3.887 Tension =       -0.194
 Sphere =   39 Type =  CH2 Surf =       10.165 Tension =       -0.194
 Sphere =   40 Type =  CH2 Surf =        9.434 Tension =       -0.194
 Sphere =   41 Type =  CN+ Surf =        2.352 Tension =       -0.227
 Sphere =   42 Type =  CN+ Surf =        9.417 Tension =       -0.227
 Sphere =   43 Type =  NH+ Surf =        2.615 Tension =       -0.274
 Sphere =   44 Type =  CN+ Surf =        4.938 Tension =       -0.227
 Sphere =   45 Type =  CN+ Surf =        9.456 Tension =       -0.227
 Sphere =   46 Type =  CN+ Surf =        9.993 Tension =       -0.227
 Sphere =   47 Type =  CN+ Surf =        8.862 Tension =       -0.227
 Sphere =   48 Type =  NH+ Surf =        3.542 Tension =       -0.274
 PCM non-electrostatic energy =        -0.0198278397 Hartrees.
 Nuclear repulsion after PCM non-electrostatic terms =     1985.0644126486 Hartrees.
 Leave Link  301 at Mon Jul 12 12:44:40 2021, MaxMem=   104857600 cpu:               0.1 elap:               0.5
 (Enter /dades/curu/g16A03_MST/g16/l302.exe)
 NPDir=0 NMtPBC=     1 NCelOv=     1 NCel=       1 NClECP=     1 NCelD=      1
         NCelK=      1 NCelE2=     1 NClLst=     1 CellRange=     0.0.
 One-electron integrals computed using PRISM.
 One-electron integral symmetry used in STVInt
 NBasis=   395 RedAO= T EigKep=  4.47D-04  NBF=   395
 NBsUse=   395 1.00D-06 EigRej= -1.00D+00 NBFU=   395
 Precomputing XC quadrature grid using
 IXCGrd= 4 IRadAn=           5 IRanWt=          -1 IRanGd=           0 AccXCQ= 0.00D+00.
 Generated NRdTot=       0 NPtTot=           0 NUsed=           0 NTot=          32
 NSgBfM=   391   391   391   391   391 MxSgAt=    48 MxSgA2=    48.
 Leave Link  302 at Mon Jul 12 12:44:43 2021, MaxMem=   104857600 cpu:               8.5 elap:               2.5
 (Enter /dades/curu/g16A03_MST/g16/l303.exe)
 DipDrv:  MaxL=1.
 Leave Link  303 at Mon Jul 12 12:44:44 2021, MaxMem=   104857600 cpu:               0.1 elap:               0.1
 (Enter /dades/curu/g16A03_MST/g16/l401.exe)
 ExpMin= 1.61D-01 ExpMax= 5.48D+03 ExpMxC= 8.25D+02 IAcc=3 IRadAn=         5 AccDes= 0.00D+00
 Harris functional with IExCor=  402 and IRadAn=       5 diagonalized for initial guess.
 HarFok:  IExCor=  402 AccDes= 0.00D+00 IRadAn=         5 IDoV= 1 UseB2=F ITyADJ=14
 ICtDFT=  3500011 ScaDFX=  1.000000  1.000000  1.000000  1.000000
 FoFCou: FMM=F IPFlag=           0 FMFlag=      100000 FMFlg1=           0
         NFxFlg=           0 DoJE=T BraDBF=F KetDBF=T FulRan=T
         wScrn=  0.000000 ICntrl=       500 IOpCl=  0 I1Cent=   200000004 NGrid=           0
         NMat0=    1 NMatS0=      1 NMatT0=    0 NMatD0=    1 NMtDS0=    0 NMtDT0=    0
 Petite list used in FoFCou.
 Harris En= -994.912907684492    
 JPrj=0 DoOrth=F DoCkMO=F.
 Leave Link  401 at Mon Jul 12 12:44:58 2021, MaxMem=   104857600 cpu:              52.8 elap:              13.7
 (Enter /dades/curu/g16A03_MST/g16/l502.exe)
 Integral symmetry usage will be decided dynamically.
 Closed shell SCF:
 Using DIIS extrapolation, IDIIS=  1040.
 NGot=   104857600 LenX=   104538613 LenY=   104382147
 Requested convergence on RMS density matrix=1.00D-08 within 128 cycles.
 Requested convergence on MAX density matrix=1.00D-06.
 Requested convergence on             energy=1.00D-06.
 No special actions if energy rises.
 Fock matrices will be formed incrementally for  20 cycles.

 Cycle   1  Pass 1  IDiag  1:
 FoFJK:  IHMeth= 1 ICntrl=       0 DoSepK=F KAlg= 0 I1Cent=           0 FoldK=F
 IRaf= 740000000 NMat=       1 IRICut=       1 DoRegI=T DoRafI=F ISym2E= 0 IDoP0=0 IntGTp=1.
 FoFCou: FMM=F IPFlag=           0 FMFlag=      100000 FMFlg1=           0
         NFxFlg=           0 DoJE=F BraDBF=F KetDBF=F FulRan=T
         wScrn=  0.000000 ICntrl=         0 IOpCl=  0 I1Cent=           0 NGrid=           0
         NMat0=    1 NMatS0=      1 NMatT0=    0 NMatD0=    1 NMtDS0=    0 NMtDT0=    0
 Symmetry not used in FoFCou.
 Inv3:  Mode=1 IEnd=    49890252.
 Iteration    1 A*A^-1 deviation from unit magnitude is 8.66D-15 for   4078.
 Iteration    1 A*A^-1 deviation from orthogonality  is 2.33D-15 for   4078   1476.
 Iteration    1 A^-1*A deviation from unit magnitude is 8.44D-15 for   4078.
 Iteration    1 A^-1*A deviation from orthogonality  is 1.88D-15 for   4020   1016.
 E= -994.480214111210    
 DIIS: error= 2.85D-02 at cycle   1 NSaved=   1.
 NSaved= 1 IEnMin= 1 EnMin= -994.480214111210     IErMin= 1 ErrMin= 2.85D-02
 ErrMax= 2.85D-02  0.00D+00 EMaxC= 1.00D-01 BMatC= 5.27D-01 BMatP= 5.27D-01
 IDIUse=3 WtCom= 7.15D-01 WtEn= 2.85D-01
 Coeff-Com:  0.100D+01
 Coeff-En:   0.100D+01
 Coeff:      0.100D+01
 Gap=     0.211 Goal=   None    Shift=    0.000
 GapD=    0.211 DampG=1.000 DampE=0.500 DampFc=0.5000 IDamp=-1.
 Damping current iteration by 5.00D-01
 RMSDP=4.74D-03 MaxDP=2.31D-01              OVMax= 3.22D-01

 Cycle   2  Pass 1  IDiag  1:
 RMSU=  2.35D-03    CP:  9.80D-01
 E= -994.656420376194     Delta-E=       -0.176206264984 Rises=F Damp=T
 DIIS: error= 1.07D-02 at cycle   2 NSaved=   2.
 NSaved= 2 IEnMin= 2 EnMin= -994.656420376194     IErMin= 2 ErrMin= 1.07D-02
 ErrMax= 1.07D-02  0.00D+00 EMaxC= 1.00D-01 BMatC= 7.65D-02 BMatP= 5.27D-01
 IDIUse=3 WtCom= 8.93D-01 WtEn= 1.07D-01
 Coeff-Com:  0.166D+00 0.834D+00
 Coeff-En:   0.263D+00 0.737D+00
 Coeff:      0.177D+00 0.823D+00
 Gap=     0.252 Goal=   None    Shift=    0.000
 RMSDP=1.84D-03 MaxDP=9.83D-02 DE=-1.76D-01 OVMax= 2.34D-01

 Cycle   3  Pass 1  IDiag  1:
 RMSU=  1.67D-03    CP:  9.64D-01  6.90D-01
 E= -994.922834928391     Delta-E=       -0.266414552198 Rises=F Damp=F
 DIIS: error= 1.65D-02 at cycle   3 NSaved=   3.
 NSaved= 3 IEnMin= 3 EnMin= -994.922834928391     IErMin= 2 ErrMin= 1.07D-02
 ErrMax= 1.65D-02  0.00D+00 EMaxC= 1.00D-01 BMatC= 8.46D-02 BMatP= 7.65D-02
 IDIUse=2 WtCom= 0.00D+00 WtEn= 1.00D+00
 Coeff-En:   0.000D+00 0.000D+00 0.100D+01
 Coeff:      0.000D+00 0.000D+00 0.100D+01
 Gap=     0.163 Goal=   None    Shift=    0.000
 RMSDP=2.73D-03 MaxDP=1.96D-01 DE=-2.66D-01 OVMax= 2.70D-01

 Cycle   4  Pass 1  IDiag  1:
 RMSU=  1.37D-03    CP:  9.74D-01  1.31D+00 -1.07D-01
 E= -994.571845431078     Delta-E=        0.350989497314 Rises=F Damp=F
 DIIS: error= 4.29D-02 at cycle   4 NSaved=   4.
 NSaved= 4 IEnMin= 3 EnMin= -994.922834928391     IErMin= 2 ErrMin= 1.07D-02
 ErrMax= 4.29D-02  0.00D+00 EMaxC= 1.00D-01 BMatC= 4.93D-01 BMatP= 7.65D-02
 IDIUse=2 WtCom= 0.00D+00 WtEn= 1.00D+00
 Coeff-En:   0.000D+00 0.000D+00 0.799D+00 0.201D+00
 Coeff:      0.000D+00 0.000D+00 0.799D+00 0.201D+00
 Gap=     0.169 Goal=   None    Shift=    0.000
 RMSDP=1.53D-03 MaxDP=1.06D-01 DE= 3.51D-01 OVMax= 1.89D-01

 Cycle   5  Pass 1  IDiag  1:
 RMSU=  3.29D-04    CP:  9.70D-01  9.16D-01  4.50D-01  4.66D-01
 E= -994.966849882432     Delta-E=       -0.395004451354 Rises=F Damp=F
 DIIS: error= 9.87D-03 at cycle   5 NSaved=   5.
 NSaved= 5 IEnMin= 5 EnMin= -994.966849882432     IErMin= 5 ErrMin= 9.87D-03
 ErrMax= 9.87D-03  0.00D+00 EMaxC= 1.00D-01 BMatC= 3.46D-02 BMatP= 7.65D-02
 IDIUse=3 WtCom= 9.01D-01 WtEn= 9.87D-02
 Coeff-Com:  0.262D-02 0.198D-01 0.332D+00-0.554D-01 0.701D+00
 Coeff-En:   0.000D+00 0.000D+00 0.333D+00 0.000D+00 0.667D+00
 Coeff:      0.237D-02 0.178D-01 0.332D+00-0.499D-01 0.698D+00
 Gap=     0.165 Goal=   None    Shift=    0.000
 RMSDP=5.25D-04 MaxDP=3.61D-02 DE=-3.95D-01 OVMax= 5.17D-02

 Cycle   6  Pass 1  IDiag  1:
 RMSU=  1.16D-04    CP:  9.68D-01  8.14D-01  6.64D-01  2.86D-01  6.35D-01
 E= -994.996270387247     Delta-E=       -0.029420504816 Rises=F Damp=F
 DIIS: error= 1.31D-03 at cycle   6 NSaved=   6.
 NSaved= 6 IEnMin= 6 EnMin= -994.996270387247     IErMin= 6 ErrMin= 1.31D-03
 ErrMax= 1.31D-03  0.00D+00 EMaxC= 1.00D-01 BMatC= 7.68D-04 BMatP= 3.46D-02
 IDIUse=3 WtCom= 9.87D-01 WtEn= 1.31D-02
 Coeff-Com: -0.176D-02 0.924D-02 0.175D+00-0.577D-01 0.482D+00 0.393D+00
 Coeff-En:   0.000D+00 0.000D+00 0.000D+00 0.000D+00 0.000D+00 0.100D+01
 Coeff:     -0.174D-02 0.912D-02 0.173D+00-0.570D-01 0.476D+00 0.401D+00
 Gap=     0.162 Goal=   None    Shift=    0.000
 RMSDP=8.03D-05 MaxDP=7.03D-03 DE=-2.94D-02 OVMax= 1.13D-02

 Cycle   7  Pass 1  IDiag  1:
 RMSU=  3.18D-05    CP:  9.68D-01  8.22D-01  6.54D-01  2.89D-01  7.39D-01
                    CP:  4.79D-01
 E= -994.996952587501     Delta-E=       -0.000682200254 Rises=F Damp=F
 DIIS: error= 4.32D-04 at cycle   7 NSaved=   7.
[...]
    19  O    0.051518   0.016569  -0.022344   0.006445  -0.000853  -0.005655
    20  N    0.180560  -0.879806   0.544231  -0.555331   0.375441  -0.055597
    21  H    0.009591   0.024033  -0.200216   0.006308   0.006732   0.122174
    22  C    0.162867  -0.316714  -1.602650   0.382860  -0.095155   0.072659
    23  C    0.090522   0.066886   0.533628   0.061586  -0.003878  -0.475537
    24  H   -0.770113   0.261569   0.001305   0.019468  -0.028813   0.077120
    25  H    1.683158  -0.328965  -0.023528  -0.010520   0.044710  -0.120083
    26  H   -0.328965   2.407089  -0.051328   0.202390  -0.324727   0.114680
    27  C   -0.023528  -0.051328   7.193530  -0.085629   0.163839  -1.015457
    28  H   -0.010520   0.202390  -0.085629   2.142652  -0.710175  -0.464253
    29  H    0.044710  -0.324727   0.163839  -0.710175   1.684323   0.292982
    30  C   -0.120083   0.114680  -1.015457  -0.464253   0.292982  10.337008
    31  H   -0.013004   0.012874   0.106840  -0.009840  -0.065577  -0.716818
    32  C    0.017443   0.023277   0.333377   0.093339  -0.048966  -0.772145
    33  H   -0.001040  -0.003388   0.002930  -0.004097   0.019573  -0.114030
    34  H    0.002608   0.002553   0.006810   0.016409  -0.011458   0.256342
    35  C    0.001167   0.029282  -0.031105  -0.026837  -0.008005  -0.064513
    36  H   -0.029650   0.047886  -0.082919   0.052738  -0.044220   0.074208
    37  H    0.001482  -0.000490   0.033541  -0.000008   0.002790  -0.036250
    38  C   -0.038378  -0.002102   0.082426  -0.034858   0.032759  -0.129133
    39  H    0.012989  -0.005008  -0.003804  -0.000959   0.002650   0.074168
    40  H   -0.008302   0.000404  -0.007994  -0.002660   0.001888  -0.024738
    41  C    0.419621   0.151223  -0.384324   0.113196  -0.159823   0.149674
    42  H   -0.090306   0.013051  -0.005077   0.004585  -0.011223   0.055186
    43  N   -0.150809  -0.035575   0.168192   0.155570  -0.113884  -2.194036
    44  C    0.030871  -0.047872   0.051345  -0.027857   0.046932  -0.209829
    45  H   -0.027255  -0.000288  -0.035606  -0.007693   0.009562   0.020246
    46  H    0.010098  -0.001853   0.065046   0.014969  -0.030025  -0.033598
    47  H   -0.030926   0.024684  -0.095520   0.014482  -0.010089   0.083411
    48  H    0.006763  -0.000421   0.023444  -0.000778   0.008108   0.168845
              31         32         33         34         35         36
     1  C   -0.000052   0.000745   0.000236   0.000140   0.001880  -0.006221
     2  H    0.000005   0.000048   0.000024  -0.000023  -0.000100   0.000639
     3  H    0.000135  -0.000390  -0.002478   0.000413   0.001455   0.000372
     4  H   -0.000022   0.000364   0.000476   0.000001  -0.000227  -0.001595
     5  N    0.000708  -0.006280  -0.009972   0.000290   0.000960   0.061989
     6  C    0.000660  -0.000764   0.000126   0.000040   0.000239   0.004894
     7  C   -0.000489  -0.003563  -0.003517  -0.000084   0.013439   0.033973
     8  C   -0.000264  -0.002095   0.000448   0.000104   0.000781  -0.026147
     9  C    0.000000  -0.000416  -0.000404  -0.000045   0.000946   0.004487
    10  C   -0.000018   0.000184   0.000373   0.000006  -0.000105  -0.002202
    11  C    0.000095   0.000453   0.000063  -0.000046   0.003135  -0.008804
    12  H    0.000005  -0.000052  -0.000090  -0.000000   0.000014   0.000536
    13  H   -0.000001   0.000005   0.000010  -0.000000   0.000028  -0.000133
    14  H    0.000002  -0.000001  -0.000008  -0.000001  -0.000006   0.000322
    15  H   -0.000055   0.000246   0.000051   0.000031   0.000472  -0.003713
    16  N    0.003232  -0.031750   0.006661  -0.001167   0.024901  -0.017243
    17  C   -0.002001  -0.014922  -0.000012   0.001689   0.019814  -0.080118
    18  C    0.015514  -0.050734   0.023427  -0.011083   0.011001   0.009887
    19  O   -0.000668  -0.000124  -0.000534   0.000189   0.005558  -0.000820
    20  N    0.046296   0.041415   0.014254   0.001779  -0.181993  -0.102043
    21  H    0.002474  -0.066125   0.015566  -0.006496   0.051461  -0.018200
    22  C    0.006735  -0.261049  -0.018979   0.043156  -0.228345   0.090616
    23  C   -0.020396   0.317410   0.002892  -0.018371  -0.130653  -0.141575
    24  H    0.006841  -0.007488   0.003979  -0.005066  -0.040647   0.038242
    25  H   -0.013004   0.017443  -0.001040   0.002608   0.001167  -0.029650
    26  H    0.012874   0.023277  -0.003388   0.002553   0.029282   0.047886
    27  C    0.106840   0.333377   0.002930   0.006810  -0.031105  -0.082919
    28  H   -0.009840   0.093339  -0.004097   0.016409  -0.026837   0.052738
    29  H   -0.065577  -0.048966   0.019573  -0.011458  -0.008005  -0.044220
    30  C   -0.716818  -0.772145  -0.114030   0.256342  -0.064513   0.074208
    31  H    1.892227   0.036501   0.000059  -0.042904   0.070488   0.017120
    32  C    0.036501   6.076568  -0.119920   0.186798  -0.376144  -0.080294
    33  H    0.000059  -0.119920   1.589449  -0.425258   0.098906  -0.113709
    34  H   -0.042904   0.186798  -0.425258   1.340424  -0.040549   0.078944
    35  C    0.070488  -0.376144   0.098906  -0.040549   6.544220   0.194528
    36  H    0.017120  -0.080294  -0.113709   0.078944   0.194528   1.599124
    37  H   -0.005482   0.074156   0.067848  -0.112939  -0.203640  -0.379380
    38  C    0.014190   0.278858   0.025037  -0.026947  -0.455965  -0.145646
    39  H   -0.002220   0.029270  -0.005413   0.006420   0.096550  -0.103585
    40  H    0.006294  -0.039559   0.005842   0.006029  -0.088848   0.083133
    41  C    0.078476  -0.283689   0.063257  -0.031271   0.171844   0.198569
    42  H    0.012830   0.025645  -0.001654   0.005473   0.063777   0.015812
    43  N   -0.101080   0.140522   0.035684  -0.150640  -0.175024  -0.034966
    44  C    0.022673  -0.000267   0.000105   0.006293  -0.078153  -0.001501
    45  H    0.008417  -0.043348  -0.000735  -0.000766  -0.009145  -0.001909
    46  H    0.026437   0.020769  -0.001076   0.010008   0.002094   0.002805
    47  H    0.007718   0.048743   0.000442  -0.001645  -0.013373   0.002495
    48  H   -0.032582  -0.100506   0.004732   0.007176   0.097904   0.005698
              37         38         39         40         41         42
     1  C    0.000116   0.000157   0.000179  -0.000103   0.001144   0.000046
     2  H    0.000160  -0.000038   0.000017  -0.000013  -0.000041   0.000000
     3  H   -0.000838  -0.000263  -0.000001   0.000004   0.000629   0.000011
     4  H   -0.000104   0.000207   0.000047   0.000008  -0.000103  -0.000009
     5  N   -0.006602  -0.020979  -0.005667   0.000569   0.023979   0.000930
     6  C   -0.001824   0.001686   0.001832  -0.000168  -0.000922  -0.000056
     7  C    0.001265  -0.005967  -0.005533  -0.000104   0.010385  -0.000777
     8  C    0.000945  -0.002267   0.005057  -0.001009   0.004317   0.000847
     9  C    0.000164  -0.000991  -0.001858   0.000121   0.001020   0.000134
    10  C   -0.000072   0.000058   0.000293  -0.000040   0.000197   0.000028
    11  C    0.000495   0.001135   0.000649   0.000068  -0.002620  -0.000127
    12  H   -0.000023   0.000042  -0.000020   0.000002  -0.000088   0.000001
    13  H    0.000009   0.000001   0.000019  -0.000002   0.000002  -0.000001
    14  H   -0.000009  -0.000006  -0.000112   0.000009   0.000095   0.000011
    15  H    0.000206   0.000377   0.000918  -0.000246  -0.002210  -0.000101
    16  N    0.003933  -0.009344  -0.001312   0.002589   0.016182   0.000689
    17  C    0.007644   0.031661   0.029527  -0.007055  -0.109017  -0.000964
    18  C    0.008606  -0.005394  -0.017655   0.003243   0.088643   0.011077
    19  O   -0.000703  -0.013997  -0.000960   0.000270   0.029812  -0.001812
    20  N    0.034667   0.079070  -0.018057   0.026517  -0.255703   0.023535
    21  H   -0.009859   0.002191  -0.000666   0.000806  -0.019685  -0.000494
    22  C   -0.003366  -0.045960   0.048978  -0.003152  -0.130848   0.024799
    23  C    0.037092   0.318159  -0.044163   0.049817  -1.524425   0.179416
    24  H    0.001699   0.041106   0.007276   0.013749  -0.557698   0.006367
    25  H    0.001482  -0.038378   0.012989  -0.008302   0.419621  -0.090306
    26  H   -0.000490  -0.002102  -0.005008   0.000404   0.151223   0.013051
    27  C    0.033541   0.082426  -0.003804  -0.007994  -0.384324  -0.005077
    28  H   -0.000008  -0.034858  -0.000959  -0.002660   0.113196   0.004585
    29  H    0.002790   0.032759   0.002650   0.001888  -0.159823  -0.011223
    30  C   -0.036250  -0.129133   0.074168  -0.024738   0.149674   0.055186
    31  H   -0.005482   0.014190  -0.002220   0.006294   0.078476   0.012830
    32  C    0.074156   0.278858   0.029270  -0.039559  -0.283689   0.025645
    33  H    0.067848   0.025037  -0.005413   0.005842   0.063257  -0.001654
    34  H   -0.112939  -0.026947   0.006420   0.006029  -0.031271   0.005473
    35  C   -0.203640  -0.455965   0.096550  -0.088848   0.171844   0.063777
    36  H   -0.379380  -0.145646  -0.103585   0.083133   0.198569   0.015812
    37  H    1.636265   0.028863   0.061920  -0.119267  -0.029078  -0.004076
    38  C    0.028863   6.318876  -0.139864   0.250166  -1.163778   0.057366
    39  H    0.061920  -0.139864   1.544428  -0.439899  -0.024621  -0.003332
    40  H   -0.119267   0.250166  -0.439899   1.427204   0.147810  -0.034608
    41  C   -0.029078  -1.163778  -0.024621   0.147810  12.013083  -0.903306
    42  H   -0.004076   0.057366  -0.003332  -0.034608  -0.903306   2.017209
    43  N    0.070688   0.204856   0.033279  -0.148111  -2.759352  -0.101501
    44  C    0.002908  -0.009590   0.003644   0.003620  -0.230009   0.029217
    45  H   -0.000139   0.020052  -0.000120   0.010546  -0.056328   0.031608
    46  H   -0.000239  -0.051114  -0.001561  -0.001278   0.063657   0.010918
    47  H    0.000111   0.055385   0.001291  -0.001313   0.064269  -0.000729
    48  H    0.000011  -0.118960   0.007521   0.002373   0.201476  -0.026732
              43         44         45         46         47         48
     1  C   -0.000244  -0.000006  -0.000002   0.000003   0.000008   0.000001
     2  H   -0.000029  -0.000008  -0.000000   0.000000  -0.000002   0.000002
     3  H    0.000107   0.000056   0.000007  -0.000003   0.000001  -0.000022
     4  H    0.000001   0.000000   0.000000  -0.000000   0.000004   0.000000
     5  N   -0.002901  -0.000003  -0.000037   0.000066  -0.000225  -0.000238
     6  C   -0.000905  -0.000654   0.000034  -0.000095  -0.000086  -0.000016
     7  C    0.005021  -0.000794  -0.000169   0.000047   0.000768   0.000096
     8  C   -0.000523   0.000358  -0.000065   0.000078  -0.000071   0.000072
     9  C   -0.000131  -0.000010  -0.000013   0.000012  -0.000147  -0.000007
    10  C    0.000034   0.000024   0.000000   0.000001   0.000036   0.000003
    11  C   -0.000154  -0.000103   0.000001  -0.000012  -0.000096   0.000004
    12  H    0.000001  -0.000003  -0.000000  -0.000000  -0.000003  -0.000000
    13  H    0.000000   0.000000   0.000000   0.000000   0.000000   0.000000
    14  H   -0.000007  -0.000006  -0.000002  -0.000000  -0.000001  -0.000000
    15  H    0.000236   0.000084   0.000026   0.000001  -0.000076   0.000006
    16  N   -0.014874  -0.000579   0.000055   0.000161  -0.001565  -0.000290
    17  C    0.002839  -0.000424   0.000309  -0.001076  -0.002066   0.001806
    18  C   -0.046861  -0.021379   0.005756  -0.000261  -0.005694  -0.003156
    19  O   -0.003118  -0.000566  -0.000616   0.000275  -0.000357  -0.000011
    20  N   -0.267108   0.049515   0.014210   0.004338  -0.060805   0.005991
    21  H    0.027856  -0.007358  -0.000328  -0.002703   0.002164  -0.000160
    22  C    0.249338   0.139507   0.040007   0.031275   0.035754  -0.060268
    23  C    0.505494   0.007730   0.064725  -0.040781  -0.065238  -0.008728
    24  H    0.203394  -0.023055   0.010973  -0.006438   0.027229  -0.002520
    25  H   -0.150809   0.030871  -0.027255   0.010098  -0.030926   0.006763
    26  H   -0.035575  -0.047872  -0.000288  -0.001853   0.024684  -0.000421
    27  C    0.168192   0.051345  -0.035606   0.065046  -0.095520   0.023444
    28  H    0.155570  -0.027857  -0.007693   0.014969   0.014482  -0.000778
    29  H   -0.113884   0.046932   0.009562  -0.030025  -0.010089   0.008108
    30  C   -2.194036  -0.209829   0.020246  -0.033598   0.083411   0.168845
    31  H   -0.101080   0.022673   0.008417   0.026437   0.007718  -0.032582
    32  C    0.140522  -0.000267  -0.043348   0.020769   0.048743  -0.100506
    33  H    0.035684   0.000105  -0.000735  -0.001076   0.000442   0.004732
    34  H   -0.150640   0.006293  -0.000766   0.010008  -0.001645   0.007176
    35  C   -0.175024  -0.078153  -0.009145   0.002094  -0.013373   0.097904
    36  H   -0.034966  -0.001501  -0.001909   0.002805   0.002495   0.005698
    37  H    0.070688   0.002908  -0.000139  -0.000239   0.000111   0.000011
    38  C    0.204856  -0.009590   0.020052  -0.051114   0.055385  -0.118960
    39  H    0.033279   0.003644  -0.000120  -0.001561   0.001291   0.007521
    40  H   -0.148111   0.003620   0.010546  -0.001278  -0.001313   0.002373
    41  C   -2.759352  -0.230009  -0.056328   0.063657   0.064269   0.201476
    42  H   -0.101501   0.029217   0.031608   0.010918  -0.000729  -0.026732
    43  N   12.233200   0.407371  -0.240061  -0.239310   0.260086   0.049467
    44  C    0.407371   4.255330   0.397297   0.363228   0.117934  -0.065546
    45  H   -0.240061   0.397297   1.409413  -0.304872  -0.218964  -0.011303
    46  H   -0.239310   0.363228  -0.304872   1.404055  -0.219789  -0.010050
    47  H    0.260086   0.117934  -0.218964  -0.219789   1.064062   0.005788
    48  H    0.049467  -0.065546  -0.011303  -0.010050   0.005788   0.622953
 Mulliken charges:
               1
     1  C    0.849333
     2  H   -0.092414
     3  H   -0.262120
     4  H   -0.099727
     5  N   -0.740120
     6  C   -0.211648
     7  C    0.475312
     8  C    1.352103
     9  C    0.284473
    10  C    0.526959
    11  C    0.988073
    12  H   -0.573116
    13  H   -0.464108
    14  H   -0.485200
    15  H   -0.527420
    16  N   -0.943796
    17  C    0.361201
    18  C    0.196102
    19  O   -0.852390
    20  N    0.287247
    21  H   -0.091080
    22  C   -0.038267
    23  C    0.528563
    24  H   -0.293511
    25  H   -0.012386
    26  H   -0.484305
    27  C    0.633531
    28  H   -0.311090
    29  H   -0.013631
    30  C    0.473767
    31  H   -0.382373
    32  C    0.564453
    33  H   -0.156138
    34  H   -0.093364
    35  C    0.646537
    36  H   -0.192425
    37  H   -0.163196
    38  C    0.576856
    39  H   -0.142532
    40  H   -0.114615
    41  C    0.616378
    42  H   -0.403685
    43  N   -0.972032
    44  C    0.789525
    45  H   -0.083483
    46  H   -0.084211
    47  H   -0.088085
    48  H    0.222055
 Sum of Mulliken charges =   1.00000
 Mulliken charges with hydrogens summed into heavy atoms:
               1
     1  C    0.395072
     5  N   -0.740120
     6  C   -0.211648
     7  C    0.475312
     8  C    0.824683
     9  C   -0.200727
    10  C    0.062851
    11  C    0.414957
    16  N   -0.943796
    17  C    0.361201
    18  C    0.196102
    19  O   -0.852390
    20  N    0.196168
    22  C   -0.522572
    23  C    0.222666
    27  C    0.308811
    30  C    0.091394
    32  C    0.314951
    35  C    0.290916
    38  C    0.319709
    41  C    0.212693
    43  N   -0.749977
    44  C    0.533746
 Electronic spatial extent (au):  <R**2>=           9213.9452
 Charge=              1.0000 electrons
 Dipole moment (field-independent basis, Debye):
    X=             14.6346    Y=              3.7516    Z=              0.5484  Tot=             15.1178
 Quadrupole moment (field-independent basis, Debye-Ang):
   XX=            -20.4612   YY=           -122.4862   ZZ=           -130.0298
   XY=             -9.8535   XZ=             -1.1127   YZ=             -2.6337
 Traceless Quadrupole moment (field-independent basis, Debye-Ang):
   XX=             70.5312   YY=            -31.4938   ZZ=            -39.0374
   XY=             -9.8535   XZ=             -1.1127   YZ=             -2.6337
 Octapole moment (field-independent basis, Debye-Ang**2):
  XXX=            289.8716  YYY=             37.3417  ZZZ=             -2.5451  XYY=             -3.1021
  XXY=              0.4557  XXZ=             18.9347  XZZ=             60.8526  YZZ=              4.5146
  YYZ=              3.0770  XYZ=             11.1918
 Hexadecapole moment (field-independent basis, Debye-Ang**3):
 XXXX=          -6791.0085 YYYY=          -1620.6522 ZZZZ=           -751.8140 XXXY=           -181.1088
 XXXZ=           -117.2201 YYYX=            -87.4740 YYYZ=            -24.9660 ZZZX=             31.7140
 ZZZY=             11.3715 XXYY=          -1613.9282 XXZZ=          -1758.5972 YYZZ=           -408.5887
 XXYZ=            -34.0026 YYXZ=             -5.6884 ZZXY=            -28.8138
 N-N= 1.989209076080D+03 E-N=-6.265414957931D+03  KE= 9.875591270513D+02
 Leave Link  601 at Mon Jul 12 21:48:15 2021, MaxMem=   262144000 cpu:               0.8 elap:               0.6
 (Enter /dades/curu/g16A03_MST/g16/l9999.exe)
 1\1\GINC-PIRINEUS18\SP\RMP2-FC\Aug-CC-pVDZ\C18H25N4O1(1+)\UBATOR02\12-
 Jul-2021\0\\#p mp2/aug-cc-pVDZ scf=tight maxdisk=180GB geom=allcheck\\
 SET_328_BBB286_conf1.geo_000_150 geometry\\1,1\C,0,2.8312469654,-0.977
 4719475,-3.7770632745\H,0,2.6069875407,-1.0755865274,-4.8423097716\H,0
 ,2.5753016287,-1.9024781968,-3.2647638907\H,0,3.8976945425,-0.77215135
 82,-3.6503777624\N,0,2.0370164479,0.0808457615,-3.1835024074\C,0,2.053
 0281882,1.4199577296,-3.4907235304\C,0,1.0922410577,2.0350661479,-2.65
 21241546\C,0,0.8774929595,3.4217999277,-2.7339727584\C,0,1.6270744762,
 4.1439535839,-3.646143569\C,0,2.5845831416,3.5130318446,-4.4773891163\
 C,0,2.8155132273,2.148486421,-4.4176021687\H,0,3.5487648325,1.67123650
 11,-5.0554098806\H,0,3.1515509263,4.1147541411,-5.1793109746\H,0,1.482
 492045,5.2155854265,-3.7309892137\H,0,0.1426960426,3.893831932,-2.0948
 571076\N,0,1.1420821707,-0.1966913695,-2.2175790608\C,0,0.5641576336,0
 .9549920966,-1.8820412944\C,0,-0.4801953585,1.007033593,-0.8385867158\
 O,0,-1.0537059394,2.0572846611,-0.5363351975\N,0,-0.7421871585,-0.1850
 187982,-0.2227980741\H,0,-0.3550627983,-1.0068356132,-0.6718091849\C,0
 ,-1.8802177041,-0.3343874881,0.6806394906\C,0,-1.7504791966,0.52017909
 98,1.9682779822\H,0,-1.218427992,1.4386827904,1.720059629\H,0,-2.75926
 73374,0.8322637893,2.2536403765\H,0,-2.7585997143,0.0529928693,0.15447
 21567\C,0,-2.1477356603,-1.820635499,0.9957603323\H,0,-1.8822736668,-2
 .4455811345,0.1384621313\H,0,-3.226013778,-1.9463468792,1.1188927177\C
 ,0,-1.4555887818,-2.4078064541,2.2377236774\H,0,-1.9460389518,-3.35367
 07229,2.47674984\C,0,0.0613610444,-2.647682509,2.1634187362\H,0,0.2599
 054583,-3.2519853065,1.2737391809\H,0,0.346837519,-3.2731516863,3.0183
 574155\C,0,0.9102638665,-1.3682648864,2.1465950759\H,0,0.8899236907,-0
 .9192218735,1.154557929\H,0,1.95234593,-1.6288206041,2.3543758307\C,0,
 0.431678661,-0.3351999484,3.1733381999\H,0,0.8969952783,0.6347848957,2
 .9798381474\H,0,0.7518024937,-0.6292456209,4.180378616\C,0,-1.09142614
 68,-0.130955915,3.1941726043\H,0,-1.3548013365,0.458880464,4.074984284
 \N,0,-1.7361615202,-1.5006363178,3.4353492368\C,0,-3.1887226753,-1.421
 9899713,3.7957594337\H,0,-3.2828963672,-0.8041803296,4.6875518245\H,0,
 -3.5463441618,-2.4314674416,3.9936984188\H,0,-3.745338975,-0.979431907
 3,2.976156703\H,0,-1.2685525479,-1.9127473696,4.2547391379\\Version=ES
 64L-G16RevA.03\State=1-A\HF=-988.7678225\MP2=-992.1945155\RMSD=5.175e-
 09\PG=C01 [X(C18H25N4O1)]\\@


 IT IS A QUALITY OF REVOLUTIONS NOT TO GO BY OLD LINES OR OLD LAWS,
 BUT TO BREAK UP BOTH, AND MAKE NEW ONES.
                                              -- A. LINCOLN (1848)
 Job cpu time:       0 days 10 hours 54 minutes 29.2 seconds.
 Elapsed time:       0 days  3 hours 24 minutes 59.4 seconds.
 File lengths (MBytes):  RWF= 132334 Int=      0 D2E=      0 Chk=     45 Scr=      1
 Normal termination of Gaussian 16 at Mon Jul 12 21:48:17 2021.
