 Entering Gaussian System, Link 0=g16
 Input=SET_328_BBB299_conf1.geo_000_180_OCTANOL.dat
 Output=SET_328_BBB299_conf1.geo_000_180_OCTANOL.log
 Initial command:
 /dades/curu/g16A03_MST/g16/l1.exe "/tmp/ubator02/1835306/Gau-2685.inp" -scrdir="/tmp/ubator02/1835306/"
 Entering Link 1 = /dades/curu/g16A03_MST/g16/l1.exe PID=      2687.
  
 Copyright (c) 1988,1990,1992,1993,1995,1998,2003,2009,2016,
            Gaussian, Inc.  All Rights Reserved.
  
 This is part of the Gaussian(R) 16 program.  It is based on
 the Gaussian(R) 09 system (copyright 2009, Gaussian, Inc.),
 the Gaussian(R) 03 system (copyright 2003, Gaussian, Inc.),
 the Gaussian(R) 98 system (copyright 1998, Gaussian, Inc.),
 the Gaussian(R) 94 system (copyright 1995, Gaussian, Inc.),
 the Gaussian 92(TM) system (copyright 1992, Gaussian, Inc.),
 the Gaussian 90(TM) system (copyright 1990, Gaussian, Inc.),
 the Gaussian 88(TM) system (copyright 1988, Gaussian, Inc.),
 the Gaussian 86(TM) system (copyright 1986, Carnegie Mellon
 University), and the Gaussian 82(TM) system (copyright 1983,
 Carnegie Mellon University). Gaussian is a federally registered
 trademark of Gaussian, Inc.
  
 This software contains proprietary and confidential information,
 including trade secrets, belonging to Gaussian, Inc.
  
 This software is provided under written license and may be
 used, copied, transmitted, or stored only in accord with that
 written license.
  
 The following legend is applicable only to US Government
 contracts under FAR:
  
                    RESTRICTED RIGHTS LEGEND
  
 Use, reproduction and disclosure by the US Government is
 subject to restrictions as set forth in subparagraphs (a)
 and (c) of the Commercial Computer Software - Restricted
 Rights clause in FAR 52.227-19.
  
 Gaussian, Inc.
 340 Quinnipiac St., Bldg. 40, Wallingford CT 06492
  
  
 ---------------------------------------------------------------
 Warning -- This program may not be used in any manner that
 competes with the business of Gaussian, Inc. or will provide
 assistance to any competitor of Gaussian, Inc.  The licensee
 of this program is prohibited from giving any competitor of
 Gaussian, Inc. access to this program.  By using this program,
 the user acknowledges that Gaussian, Inc. is engaged in the
 business of creating and licensing software in the field of
 computational chemistry and represents and warrants to the
 licensee that it is not a competitor of Gaussian, Inc. and that
 it will not use this program in any manner prohibited above.
 ---------------------------------------------------------------
  

 Cite this work as:
 Gaussian 16, Revision A.03,
 M. J. Frisch, G. W. Trucks, H. B. Schlegel, G. E. Scuseria, 
 M. A. Robb, J. R. Cheeseman, G. Scalmani, V. Barone, 
 G. A. Petersson, H. Nakatsuji, X. Li, M. Caricato, A. V. Marenich, 
 J. Bloino, B. G. Janesko, R. Gomperts, B. Mennucci, H. P. Hratchian, 
 J. V. Ortiz, A. F. Izmaylov, J. L. Sonnenberg, D. Williams-Young, 
 F. Ding, F. Lipparini, F. Egidi, J. Goings, B. Peng, A. Petrone, 
 T. Henderson, D. Ranasinghe, V. G. Zakrzewski, J. Gao, N. Rega, 
 G. Zheng, W. Liang, M. Hada, M. Ehara, K. Toyota, R. Fukuda, 
 J. Hasegawa, M. Ishida, T. Nakajima, Y. Honda, O. Kitao, H. Nakai, 
 T. Vreven, K. Throssell, J. A. Montgomery, Jr., J. E. Peralta, 
 F. Ogliaro, M. J. Bearpark, J. J. Heyd, E. N. Brothers, K. N. Kudin, 
 V. N. Staroverov, T. A. Keith, R. Kobayashi, J. Normand, 
 K. Raghavachari, A. P. Rendell, J. C. Burant, S. S. Iyengar, 
 J. Tomasi, M. Cossi, J. M. Millam, M. Klene, C. Adamo, R. Cammi, 
 J. W. Ochterski, R. L. Martin, K. Morokuma, O. Farkas, 
 J. B. Foresman, and D. J. Fox, Gaussian, Inc., Wallingford CT, 2016.
 
 ******************************************
 Gaussian 16:  ES64L-G16RevA.03 25-Dec-2016
                12-Jul-2021 
 ******************************************
 %mem=800MB
 %nproc=4
 Will use up to    4 processors via shared memory.
 %chk=SET_328_BBB299_conf1.geo_000_180.chk
 ---------------------------------------------------------------
 #p b3lyp/6-31G(d) opt freq scrf=(iefpcm,read,solvent=n-octanol)
 ---------------------------------------------------------------
 1/18=20,19=15,26=3,38=1,40=2/1,3;
 2/9=110,12=2,17=6,18=5,40=1/2;
 3/5=1,6=6,7=1,11=2,25=1,30=1,70=2203,71=1,72=25,74=-5/1,2,3;
 4//1;
 5/5=2,38=5,53=25/2;
 6/7=2,8=2,9=2,10=2,28=1/1;
 7//1,2,3,16;
 1/18=20,19=15,26=3/3(2);
 2/9=110/2;
 99//99;
 2/9=110/2;
 3/5=1,6=6,7=1,11=2,25=1,30=1,70=2205,71=1,72=25,74=-5/1,2,3;
 4/5=5,16=3,69=1/1;
 5/5=2,38=5,53=25/2;
 7//1,2,3,16;
 1/18=20,19=15,26=3/3(-5);
 2/9=110/2;
 6/7=2,8=2,9=2,10=2,19=2,28=1/1;
 99/9=1/99;
 Leave Link    1 at Mon Jul 12 12:45:57 2021, MaxMem=   104857600 cpu:               0.0 elap:               0.0
 (Enter /dades/curu/g16A03_MST/g16/l101.exe)
 -----------------------------------------
 SET_328_BBB299_conf1.geo_000_180 geometry
 -----------------------------------------
 Symbolic Z-matrix:
 Charge = -1 Multiplicity = 1
 O                    -1.895    -1.247     1.793 
 C                    -1.21     -1.692     0.772 
 O                    -1.394    -2.882     0.488 
 C                    -0.413    -0.665     0.071 
 C                    -0.382     0.699     0.465 
 O                    -1.319     1.179     1.341 
 H                    -1.048     2.112     1.412 
 C                     0.52      1.539    -0.153 
 H                     0.577     2.524     0.303 
 C                     1.455     1.103    -1.1 
 H                     2.12      1.8      -1.602 
 C                     1.492    -0.223    -1.431 
 H                     2.223    -0.693    -2.085 
 C                     0.483    -1.096    -0.908 
 H                     0.544    -2.169    -1.073 
 
 ITRead=  0  0  0  0  0  0  0  0  0  0  0  0  0  0  0
 MicOpt= -1 -1 -1 -1 -1 -1 -1 -1 -1 -1 -1 -1 -1 -1 -1
 NAtoms=     15 NQM=       15 NQMF=       0 NMMI=      0 NMMIF=      0
                NMic=       0 NMicF=      0.
                    Isotopes and Nuclear Properties:
 (Nuclear quadrupole moments (NQMom) in fm**2, nuclear magnetic moments (NMagM)
  in nuclear magnetons)

  Atom         1           2           3           4           5           6           7           8           9          10
 IAtWgt=          16          12          16          12          12          16           1          12           1          12
 AtmWgt=  15.9949146  12.0000000  15.9949146  12.0000000  12.0000000  15.9949146   1.0078250  12.0000000   1.0078250  12.0000000
 NucSpn=           0           0           0           0           0           0           1           0           1           0
 AtZEff=  -0.0000000  -0.0000000  -0.0000000  -0.0000000  -0.0000000  -0.0000000  -0.0000000  -0.0000000  -0.0000000  -0.0000000
 NQMom=    0.0000000   0.0000000   0.0000000   0.0000000   0.0000000   0.0000000   0.0000000   0.0000000   0.0000000   0.0000000
 NMagM=    0.0000000   0.0000000   0.0000000   0.0000000   0.0000000   0.0000000   2.7928460   0.0000000   2.7928460   0.0000000
 AtZNuc=   8.0000000   6.0000000   8.0000000   6.0000000   6.0000000   8.0000000   1.0000000   6.0000000   1.0000000   6.0000000

  Atom        11          12          13          14          15
 IAtWgt=           1          12           1          12           1
 AtmWgt=   1.0078250  12.0000000   1.0078250  12.0000000   1.0078250
 NucSpn=           1           0           1           0           1
 AtZEff=  -0.0000000  -0.0000000  -0.0000000  -0.0000000  -0.0000000
 NQMom=    0.0000000   0.0000000   0.0000000   0.0000000   0.0000000
 NMagM=    2.7928460   0.0000000   2.7928460   0.0000000   2.7928460
 AtZNuc=   1.0000000   6.0000000   1.0000000   6.0000000   1.0000000
 Leave Link  101 at Mon Jul 12 12:45:57 2021, MaxMem=   104857600 cpu:               0.1 elap:               0.1
 (Enter /dades/curu/g16A03_MST/g16/l103.exe)

 GradGradGradGradGradGradGradGradGradGradGradGradGradGradGradGradGradGrad
 Berny optimization.
 Initialization pass.
                           ----------------------------
                           !    Initial Parameters    !
                           ! (Angstroms and Degrees)  !
 --------------------------                            --------------------------
 ! Name  Definition              Value          Derivative Info.                !
 --------------------------------------------------------------------------------
 ! R1    R(1,2)                  1.3076         estimate D2E/DX2                !
 ! R2    R(2,3)                  1.2372         estimate D2E/DX2                !
 ! R3    R(2,4)                  1.4769         estimate D2E/DX2                !
 ! R4    R(4,5)                  1.4201         estimate D2E/DX2                !
 ! R5    R(4,14)                 1.3954         estimate D2E/DX2                !
 ! R6    R(5,6)                  1.3696         estimate D2E/DX2                !
 ! R7    R(5,8)                  1.3788         estimate D2E/DX2                !
 ! R8    R(6,7)                  0.9742         estimate D2E/DX2                !
 ! R9    R(8,9)                  1.0869         estimate D2E/DX2                !
 ! R10   R(8,10)                 1.4004         estimate D2E/DX2                !
 ! R11   R(10,11)                1.0863         estimate D2E/DX2                !
 ! R12   R(10,12)                1.3672         estimate D2E/DX2                !
 ! R13   R(12,13)                1.0876         estimate D2E/DX2                !
 ! R14   R(12,14)                1.4331         estimate D2E/DX2                !
 ! R15   R(14,15)                1.0873         estimate D2E/DX2                !
 ! A1    A(1,2,3)              115.3842         estimate D2E/DX2                !
 ! A2    A(1,2,4)              114.6242         estimate D2E/DX2                !
 ! A3    A(3,2,4)              129.8026         estimate D2E/DX2                !
 ! A4    A(2,4,5)              123.2288         estimate D2E/DX2                !
 ! A5    A(2,4,14)             117.6932         estimate D2E/DX2                !
 ! A6    A(5,4,14)             118.5105         estimate D2E/DX2                !
 ! A7    A(4,5,6)              119.9437         estimate D2E/DX2                !
 ! A8    A(4,5,8)              118.3644         estimate D2E/DX2                !
 ! A9    A(6,5,8)              121.3812         estimate D2E/DX2                !
 ! A10   A(5,6,7)              101.0672         estimate D2E/DX2                !
 ! A11   A(5,8,9)              113.4755         estimate D2E/DX2                !
 ! A12   A(5,8,10)             123.3806         estimate D2E/DX2                !
 ! A13   A(9,8,10)             122.0616         estimate D2E/DX2                !
 ! A14   A(8,10,11)            121.4305         estimate D2E/DX2                !
 ! A15   A(8,10,12)            118.9303         estimate D2E/DX2                !
 ! A16   A(11,10,12)           119.5941         estimate D2E/DX2                !
 ! A17   A(10,12,13)           125.6527         estimate D2E/DX2                !
 ! A18   A(10,12,14)           118.9086         estimate D2E/DX2                !
 ! A19   A(13,12,14)           115.4298         estimate D2E/DX2                !
 ! A20   A(4,14,12)            121.332          estimate D2E/DX2                !
 ! A21   A(4,14,15)            116.5709         estimate D2E/DX2                !
 ! A22   A(12,14,15)           120.4157         estimate D2E/DX2                !
 ! D1    D(1,2,4,5)              0.1134         estimate D2E/DX2                !
 ! D2    D(1,2,4,14)           171.3333         estimate D2E/DX2                !
 ! D3    D(3,2,4,5)            174.8204         estimate D2E/DX2                !
 ! D4    D(3,2,4,14)           -13.9597         estimate D2E/DX2                !
 ! D5    D(2,4,5,6)            -14.2299         estimate D2E/DX2                !
 ! D6    D(2,4,5,8)            172.0813         estimate D2E/DX2                !
 ! D7    D(14,4,5,6)           174.6178         estimate D2E/DX2                !
 ! D8    D(14,4,5,8)             0.9291         estimate D2E/DX2                !
 ! D9    D(2,4,14,12)         -166.3911         estimate D2E/DX2                !
 ! D10   D(2,4,14,15)           -1.1148         estimate D2E/DX2                !
 ! D11   D(5,4,14,12)            5.254          estimate D2E/DX2                !
 ! D12   D(5,4,14,15)          170.5302         estimate D2E/DX2                !
 ! D13   D(4,5,6,7)           -179.8071         estimate D2E/DX2                !
 ! D14   D(8,5,6,7)             -6.3131         estimate D2E/DX2                !
 ! D15   D(4,5,8,9)           -171.7279         estimate D2E/DX2                !
 ! D16   D(4,5,8,10)            -3.4273         estimate D2E/DX2                !
 ! D17   D(6,5,8,9)             14.6784         estimate D2E/DX2                !
 ! D18   D(6,5,8,10)          -177.021          estimate D2E/DX2                !
 ! D19   D(5,8,10,11)          177.0796         estimate D2E/DX2                !
 ! D20   D(5,8,10,12)           -0.4669         estimate D2E/DX2                !
 ! D21   D(9,8,10,11)          -15.5981         estimate D2E/DX2                !
 ! D22   D(9,8,10,12)          166.8554         estimate D2E/DX2                !
 ! D23   D(8,10,12,13)        -174.5311         estimate D2E/DX2                !
 ! D24   D(8,10,12,14)           6.6059         estimate D2E/DX2                !
 ! D25   D(11,10,12,13)          7.8764         estimate D2E/DX2                !
 ! D26   D(11,10,12,14)       -170.9865         estimate D2E/DX2                !
 ! D27   D(10,12,14,4)          -9.1641         estimate D2E/DX2                !
 ! D28   D(10,12,14,15)       -173.8808         estimate D2E/DX2                !
 ! D29   D(13,12,14,4)         171.859          estimate D2E/DX2                !
 ! D30   D(13,12,14,15)          7.1422         estimate D2E/DX2                !
 --------------------------------------------------------------------------------
 Trust Radius=3.00D-01 FncErr=1.00D-07 GrdErr=1.00D-06 EigMax=2.50D+02 EigMin=1.00D-04
 Number of steps in this run=     77 maximum allowed number of steps=    100.
 GradGradGradGradGradGradGradGradGradGradGradGradGradGradGradGradGradGrad

 Leave Link  103 at Mon Jul 12 12:45:57 2021, MaxMem=   104857600 cpu:               0.0 elap:               0.2
 (Enter /dades/curu/g16A03_MST/g16/l202.exe)
                          Input orientation:                          
 ---------------------------------------------------------------------
 Center     Atomic      Atomic             Coordinates (Angstroms)
 Number     Number       Type             X           Y           Z
 ---------------------------------------------------------------------
      1          8           0       -1.895000   -1.247000    1.793000
      2          6           0       -1.210000   -1.692000    0.772000
      3          8           0       -1.394000   -2.882000    0.488000
      4          6           0       -0.413000   -0.665000    0.071000
      5          6           0       -0.382000    0.699000    0.465000
      6          8           0       -1.319000    1.179000    1.341000
      7          1           0       -1.048000    2.112000    1.412000
      8          6           0        0.520000    1.539000   -0.153000
      9          1           0        0.577000    2.524000    0.303000
     10          6           0        1.455000    1.103000   -1.100000
     11          1           0        2.120000    1.800000   -1.602000
     12          6           0        1.492000   -0.223000   -1.431000
     13          1           0        2.223000   -0.693000   -2.085000
     14          6           0        0.483000   -1.096000   -0.908000
     15          1           0        0.544000   -2.169000   -1.073000
 ---------------------------------------------------------------------
                    Distance matrix (angstroms):
                    1          2          3          4          5
     1  O    0.000000
     2  C    1.307552   0.000000
     3  O    2.151105   1.237179   0.000000
     4  C    2.345279   1.476936   2.459947   0.000000
     5  C    2.799941   2.548865   3.721322   1.420103   0.000000
     6  O    2.534079   2.928871   4.150296   2.415382   1.369578
     7  H    3.485032   3.860863   5.090533   3.148529   1.826728
     8  C    4.169045   3.779932   4.859992   2.403806   1.378814
     9  H    4.748824   4.603041   5.757074   3.347185   2.067982
    10  C    5.011432   4.291694   5.149638   2.826038   2.446837
    11  H    6.077044   5.377624   6.215901   3.910402   3.427053
    12  C    4.786911   3.783117   4.368276   2.465845   2.820776
    13  H    5.683637   4.576673   4.949216   3.405527   3.902075
    14  C    3.601817   2.458427   2.943084   1.395356   2.419789
    15  H    3.874630   2.589994   2.588616   2.118160   3.383540
                    6          7          8          9         10
     6  O    0.000000
     7  H    0.974151   0.000000
     8  C    2.396572   2.288270   0.000000
     9  H    2.545837   2.010037   1.086927   0.000000
    10  C    3.695853   3.686900   1.400404   2.181406   0.000000
    11  H    4.568765   4.383807   2.174333   2.556179   1.086296
    12  C    4.189428   4.470623   2.383844   3.374906   1.367189
    13  H    5.271397   5.549457   3.408028   4.331391   2.187616
    14  C    3.671625   4.244717   2.741281   3.818345   2.411897
    15  H    4.528495   5.199678   3.820503   4.890676   3.396562
                   11         12         13         14         15
    11  H    0.000000
    12  C    2.125124   0.000000
    13  H    2.541446   1.087647   0.000000
    14  C    3.398267   1.433087   2.139004   0.000000
    15  H    4.303089   2.194034   2.453928   1.087325   0.000000
 Stoichiometry    C7H5O3(1-)
 Framework group  C1[X(C7H5O3)]
 Deg. of freedom    39
 Full point group                 C1      NOp   1
 Largest Abelian subgroup         C1      NOp   1
 Largest concise Abelian subgroup C1      NOp   1
                         Standard orientation:                         
 ---------------------------------------------------------------------
 Center     Atomic      Atomic             Coordinates (Angstroms)
 Number     Number       Type             X           Y           Z
 ---------------------------------------------------------------------
      1          8           0       -2.334899    0.757637    0.214489
      2          6           0       -1.721147   -0.382902    0.035129
      3          8           0       -2.458756   -1.368496   -0.087949
      4          6           0       -0.253512   -0.278446   -0.093236
      5          6           0        0.447674    0.954677   -0.026617
      6          8           0       -0.236716    2.136622   -0.128415
      7          1           0        0.490189    2.780722   -0.052818
      8          6           0        1.825709    0.923602    0.007764
      9          1           0        2.275992    1.893785    0.201154
     10          6           0        2.568834   -0.262605    0.050292
     11          1           0        3.654874   -0.251731    0.029415
     12          6           0        1.905803   -1.458126    0.068333
     13          1           0        2.366108   -2.436638    0.184998
     14          6           0        0.482758   -1.463716   -0.100929
     15          1           0       -0.080917   -2.387141    0.007848
 ---------------------------------------------------------------------
 Rotational constants (GHZ):           2.3749154           1.2187807           0.8094004
 Leave Link  202 at Mon Jul 12 12:45:57 2021, MaxMem=   104857600 cpu:               0.1 elap:               0.1
 (Enter /dades/curu/g16A03_MST/g16/l301.exe)
 Standard basis: 6-31G(d) (6D, 7F)
 Ernie: Thresh=  0.10000D-02 Tol=  0.10000D-05 Strict=F.
 There are   160 symmetry adapted cartesian basis functions of A   symmetry.
 There are   160 symmetry adapted basis functions of A   symmetry.
   160 basis functions,   300 primitive gaussians,   160 cartesian basis functions
    36 alpha electrons       36 beta electrons
       nuclear repulsion energy       486.9638626807 Hartrees.
 IExCor=  402 DFT=T Ex+Corr=B3LYP ExCW=0 ScaHFX=  0.200000
 ScaDFX=  0.800000  0.720000  1.000000  0.810000 ScalE2=  1.000000  1.000000
 IRadAn=      5 IRanWt=     -1 IRanGd=            0 ICorTp=0 IEmpDi=  4
 NAtoms=   15 NActive=   15 NUniq=   15 SFac= 1.00D+00 NAtFMM=   60 NAOKFM=F Big=F
 Integral buffers will be    131072 words long.
 Raffenetti 2 integral format.
 Two-electron integral symmetry is turned on.
 Using the following non-standard input for PCM:
 MSTModel=DFT cav MSTCharged
 --- end of non-standard input.
 MST model for solvation energy: B3LYP parametrization.
 MST cavity parameters:
 ISph   IAn     Re0     Alpha   Atom Type   QCorr
 ------------------------------------------------
   1      8     1.40     1.15      O          T
   2      6     1.50     1.15      C          T
   3      8     1.40     1.15      O          T
   4      6     1.50     1.50      C          F
   5      6     1.50     1.50      C          F
   6      8     1.40     1.50      OH         F
   7      1     0.90     1.50      OH         F
   8      6     1.50     1.50      CH         F
   9      1     1.20     1.50      CH         F
  10      6     1.50     1.50      CH         F
  11      1     1.20     1.50      CH         F
  12      6     1.50     1.50      CH         F
  13      1     1.20     1.50      CH         F
  14      6     1.50     1.50      CH         F
  15      1     1.20     1.50      CH         F
 ------------------------------------------------------------------------------
 Polarizable Continuum Model (PCM)
 =================================
 Model                : PCM.
 Atomic radii         : MST.
 Polarization charges : Total charges.
 Charge compensation  : None.
 Solution method      : On-the-fly selection.
 Cavity type          : Scaled VdW (van der Waals Surface) (Alpha=1.500).
 Cavity algorithm     : GePol (No added spheres)
                        Default sphere list used, NSphG=   15.
                        Lebedev-Laikov grids with approx.  5.0 points / Ang**2.
                        Smoothing algorithm: York/Karplus (Gamma=1.0000).
                        Polarization charges: spherical gaussians, with
                                              point-specific exponents (IZeta= 3).
                        Self-potential: point-specific (ISelfS= 7).
                        Self-field    : sphere-specific E.n sum rule (ISelfD= 2).
 1st derivatives      : Analytical E(r).r(x)/FMM algorithm (CHGder, D1EAlg=3).
                        Cavity 1st derivative terms included.
 Solvent              : n-Octanol, Eps=   9.862900 Eps(inf)=   2.043470
 ------------------------------------------------------------------------------
 Spheres list:
 ISph  on   Nord     Re0    Alpha      Xe            Ye            Ze
    1   O      1    1.4000  1.150     -2.334899      0.757637      0.214489
    2   C      2    1.5000  1.150     -1.721147     -0.382902      0.035129
    3   O      3    1.4000  1.150     -2.458756     -1.368496     -0.087949
    4   C      4    1.5000  1.500     -0.253512     -0.278446     -0.093236
    5   C      5    1.5000  1.500      0.447674      0.954677     -0.026617
    6   O      6    1.4000  1.500     -0.236716      2.136622     -0.128415
    7   H      7    0.9000  1.500      0.490189      2.780722     -0.052818
    8   C      8    1.5000  1.500      1.825709      0.923602      0.007764
    9   H      9    1.2000  1.500      2.275992      1.893785      0.201154
   10   C     10    1.5000  1.500      2.568834     -0.262605      0.050292
   11   H     11    1.2000  1.500      3.654874     -0.251731      0.029415
   12   C     12    1.5000  1.500      1.905803     -1.458126      0.068333
   13   H     13    1.2000  1.500      2.366108     -2.436638      0.184998
   14   C     14    1.5000  1.500      0.482758     -1.463716     -0.100929
   15   H     15    1.2000  1.500     -0.080917     -2.387141      0.007848
 ------------------------------------------------------------------------------
 GePol: Number of generator spheres                  =      15
 GePol: Total number of spheres                      =      15
 GePol: Number of exposed spheres                    =      15 (100.00%)
 GePol: Number of points                             =    1602
 GePol: Average weight of points                     =       0.12
 GePol: Minimum weight of points                     =   0.12D-09
 GePol: Maximum weight of points                     =    0.20790
 GePol: Number of points with low weight             =      95
 GePol: Fraction of low-weight points (<1% of avg)   =       5.93%
 GePol: Cavity surface area                          =    185.709 Ang**2
 GePol: Cavity volume                                =    188.519 Ang**3
 Surface areas from nonelectrostatic (unscaled) cavity and vdw tensions:
 Sphere =    1 Type =  O   Surf =       15.588 Tension =       -0.185
 Sphere =    2 Type =  C   Surf =        7.189 Tension =       -0.205
 Sphere =    3 Type =  O   Surf =       16.407 Tension =       -0.185
 Sphere =    4 Type =  C   Surf =        6.327 Tension =       -0.205
 Sphere =    5 Type =  C   Surf =        6.613 Tension =       -0.205
 Sphere =    6 Type =  OH  Surf =       13.519 Tension =       -0.238
 Sphere =    7 Type =  OH  Surf =        4.148 Tension =       -0.238
 Sphere =    8 Type =  CH  Surf =        7.611 Tension =       -0.195
 Sphere =    9 Type =  CH  Surf =        9.977 Tension =       -0.195
 Sphere =   10 Type =  CH  Surf =        7.796 Tension =       -0.195
 Sphere =   11 Type =  CH  Surf =       10.244 Tension =       -0.195
 Sphere =   12 Type =  CH  Surf =        7.876 Tension =       -0.195
 Sphere =   13 Type =  CH  Surf =       10.240 Tension =       -0.195
 Sphere =   14 Type =  CH  Surf =        7.742 Tension =       -0.195
 Sphere =   15 Type =  CH  Surf =       10.013 Tension =       -0.195
 PCM non-electrostatic energy =        -0.0087677859 Hartrees.
 Nuclear repulsion after PCM non-electrostatic terms =      486.9550948948 Hartrees.
 Leave Link  301 at Mon Jul 12 12:45:58 2021, MaxMem=   104857600 cpu:               0.1 elap:               0.2
 (Enter /dades/curu/g16A03_MST/g16/l302.exe)
 NPDir=0 NMtPBC=     1 NCelOv=     1 NCel=       1 NClECP=     1 NCelD=      1
         NCelK=      1 NCelE2=     1 NClLst=     1 CellRange=     0.0.
 One-electron integrals computed using PRISM.
 One-electron integral symmetry used in STVInt
 NBasis=   160 RedAO= T EigKep=  5.17D-04  NBF=   160
 NBsUse=   160 1.00D-06 EigRej= -1.00D+00 NBFU=   160
 Precomputing XC quadrature grid using
 IXCGrd= 4 IRadAn=           5 IRanWt=          -1 IRanGd=           0 AccXCQ= 0.00D+00.
 Generated NRdTot=       0 NPtTot=           0 NUsed=           0 NTot=          32
 NSgBfM=   160   160   160   160   160 MxSgAt=    15 MxSgA2=    15.
 Leave Link  302 at Mon Jul 12 12:45:59 2021, MaxMem=   104857600 cpu:               0.9 elap:               0.4
 (Enter /dades/curu/g16A03_MST/g16/l303.exe)
 DipDrv:  MaxL=1.
 Leave Link  303 at Mon Jul 12 12:45:59 2021, MaxMem=   104857600 cpu:               0.1 elap:               0.1
 (Enter /dades/curu/g16A03_MST/g16/l401.exe)
 ExpMin= 1.61D-01 ExpMax= 5.48D+03 ExpMxC= 8.25D+02 IAcc=3 IRadAn=         5 AccDes= 0.00D+00
 Harris functional with IExCor=  402 and IRadAn=       5 diagonalized for initial guess.
 HarFok:  IExCor=  402 AccDes= 0.00D+00 IRadAn=         5 IDoV= 1 UseB2=F ITyADJ=14
 ICtDFT=  3500011 ScaDFX=  1.000000  1.000000  1.000000  1.000000
 FoFCou: FMM=F IPFlag=           0 FMFlag=      100000 FMFlg1=           0
         NFxFlg=           0 DoJE=T BraDBF=F KetDBF=T FulRan=T
         wScrn=  0.000000 ICntrl=       500 IOpCl=  0 I1Cent=   200000004 NGrid=           0
         NMat0=    1 NMatS0=      1 NMatT0=    0 NMatD0=    1 NMtDS0=    0 NMtDT0=    0
 Petite list used in FoFCou.
 Harris En= -495.670603434708    
 JPrj=0 DoOrth=F DoCkMO=F.
 Leave Link  401 at Mon Jul 12 12:46:01 2021, MaxMem=   104857600 cpu:               8.0 elap:               2.2
 (Enter /dades/curu/g16A03_MST/g16/l502.exe)
 Keep R1 ints in memory in canonical form, NReq=86904867.
 FoFCou: FMM=F IPFlag=           0 FMFlag=           0 FMFlg1=           0
         NFxFlg=           0 DoJE=F BraDBF=F KetDBF=F FulRan=T
         wScrn=  0.000000 ICntrl=       600 IOpCl=  0 I1Cent=           0 NGrid=           0
         NMat0=    1 NMatS0=  12880 NMatT0=    0 NMatD0=    1 NMtDS0=    0 NMtDT0=    0
 Symmetry not used in FoFCou.
 Two-electron integral symmetry not used.
 Closed shell SCF:
 Using DIIS extrapolation, IDIIS=  1040.
 NGot=   104857600 LenX=    21850023 LenY=    21823982
 Requested convergence on RMS density matrix=1.00D-08 within 128 cycles.
 Requested convergence on MAX density matrix=1.00D-06.
 Requested convergence on             energy=1.00D-06.
 No special actions if energy rises.

 Cycle   1  Pass 1  IDiag  1:
 Inv3:  Mode=1 IEnd=     7699212.
 Iteration    1 A*A^-1 deviation from unit magnitude is 4.22D-15 for    401.
 Iteration    1 A*A^-1 deviation from orthogonality  is 1.55D-15 for   1326    891.
 Iteration    1 A^-1*A deviation from unit magnitude is 4.00D-15 for    401.
 Iteration    1 A^-1*A deviation from orthogonality  is 2.34D-15 for   1599   1345.
 E= -495.236362925570    
 DIIS: error= 3.73D-02 at cycle   1 NSaved=   1.
 NSaved= 1 IEnMin= 1 EnMin= -495.236362925570     IErMin= 1 ErrMin= 3.73D-02
 ErrMax= 3.73D-02  0.00D+00 EMaxC= 1.00D-01 BMatC= 3.58D-01 BMatP= 3.58D-01
 IDIUse=3 WtCom= 6.27D-01 WtEn= 3.73D-01
 Coeff-Com:  0.100D+01
 Coeff-En:   0.100D+01
 Coeff:      0.100D+01
 Gap=     0.201 Goal=   None    Shift=    0.000
 GapD=    0.201 DampG=1.000 DampE=0.500 DampFc=0.5000 IDamp=-1.
 Damping current iteration by 5.00D-01
 RMSDP=1.07D-02 MaxDP=2.11D-01              OVMax= 2.20D-01

 Cycle   2  Pass 1  IDiag  1:
 E= -495.352085468406     Delta-E=       -0.115722542836 Rises=F Damp=T
 DIIS: error= 1.02D-02 at cycle   2 NSaved=   2.
 NSaved= 2 IEnMin= 2 EnMin= -495.352085468406     IErMin= 2 ErrMin= 1.02D-02
 ErrMax= 1.02D-02  0.00D+00 EMaxC= 1.00D-01 BMatC= 3.09D-02 BMatP= 3.58D-01
 IDIUse=3 WtCom= 8.98D-01 WtEn= 1.02D-01
 Coeff-Com:  0.147D+00 0.853D+00
 Coeff-En:   0.221D+00 0.779D+00
 Coeff:      0.155D+00 0.845D+00
 Gap=     0.168 Goal=   None    Shift=    0.000
 RMSDP=2.80D-03 MaxDP=5.18D-02 DE=-1.16D-01 OVMax= 1.78D-01

 Cycle   3  Pass 1  IDiag  1:
 E= -495.518076397935     Delta-E=       -0.165990929529 Rises=F Damp=F
 DIIS: error= 9.77D-03 at cycle   3 NSaved=   3.
 NSaved= 3 IEnMin= 3 EnMin= -495.518076397935     IErMin= 3 ErrMin= 9.77D-03
 ErrMax= 9.77D-03  0.00D+00 EMaxC= 1.00D-01 BMatC= 2.37D-02 BMatP= 3.09D-02
 IDIUse=3 WtCom= 9.02D-01 WtEn= 9.77D-02
 Coeff-Com:  0.342D-01 0.466D+00 0.500D+00
 Coeff-En:   0.000D+00 0.000D+00 0.100D+01
 Coeff:      0.309D-01 0.420D+00 0.549D+00
 Gap=     0.151 Goal=   None    Shift=    0.000
 RMSDP=1.45D-03 MaxDP=3.95D-02 DE=-1.66D-01 OVMax= 6.59D-02

 Cycle   4  Pass 1  IDiag  1:
 E= -495.535642979664     Delta-E=       -0.017566581729 Rises=F Damp=F
 DIIS: error= 5.82D-03 at cycle   4 NSaved=   4.
 NSaved= 4 IEnMin= 4 EnMin= -495.535642979664     IErMin= 4 ErrMin= 5.82D-03
 ErrMax= 5.82D-03  0.00D+00 EMaxC= 1.00D-01 BMatC= 4.77D-03 BMatP= 2.37D-02
 IDIUse=3 WtCom= 9.42D-01 WtEn= 5.82D-02
 Coeff-Com:  0.565D-02 0.110D+00 0.323D+00 0.561D+00
 Coeff-En:   0.000D+00 0.000D+00 0.167D+00 0.833D+00
 Coeff:      0.532D-02 0.104D+00 0.314D+00 0.577D+00
 Gap=     0.156 Goal=   None    Shift=    0.000
 RMSDP=5.73D-04 MaxDP=1.73D-02 DE=-1.76D-02 OVMax= 3.47D-02

 Cycle   5  Pass 1  IDiag  1:
 E= -495.538970075971     Delta-E=       -0.003327096306 Rises=F Damp=F
 DIIS: error= 2.62D-03 at cycle   5 NSaved=   5.
 NSaved= 5 IEnMin= 5 EnMin= -495.538970075971     IErMin= 5 ErrMin= 2.62D-03
 ErrMax= 2.62D-03  0.00D+00 EMaxC= 1.00D-01 BMatC= 8.32D-04 BMatP= 4.77D-03
 IDIUse=3 WtCom= 9.74D-01 WtEn= 2.62D-02
 Coeff-Com:  0.104D-02 0.136D-01 0.146D+00 0.390D+00 0.450D+00
 Coeff-En:   0.000D+00 0.000D+00 0.000D+00 0.117D+00 0.883D+00
 Coeff:      0.101D-02 0.133D-01 0.142D+00 0.382D+00 0.461D+00
 Gap=     0.155 Goal=   None    Shift=    0.000
 RMSDP=2.04D-04 MaxDP=6.55D-03 DE=-3.33D-03 OVMax= 1.18D-02

 Cycle   6  Pass 1  IDiag  1:
 E= -495.539589070772     Delta-E=       -0.000618994801 Rises=F Damp=F
 DIIS: error= 3.70D-04 at cycle   6 NSaved=   6.
 NSaved= 6 IEnMin= 6 EnMin= -495.539589070772     IErMin= 6 ErrMin= 3.70D-04
 ErrMax= 3.70D-04  0.00D+00 EMaxC= 1.00D-01 BMatC= 3.31D-05 BMatP= 8.32D-04
 IDIUse=3 WtCom= 9.96D-01 WtEn= 3.70D-03
 Coeff-Com:  0.121D-03-0.203D-03 0.508D-01 0.156D+00 0.247D+00 0.547D+00
 Coeff-En:   0.000D+00 0.000D+00 0.000D+00 0.000D+00 0.000D+00 0.100D+01
 Coeff:      0.120D-03-0.202D-03 0.506D-01 0.155D+00 0.246D+00 0.548D+00
 Gap=     0.154 Goal=   None    Shift=    0.000
 RMSDP=4.57D-05 MaxDP=1.27D-03 DE=-6.19D-04 OVMax= 1.99D-03

 Cycle   7  Pass 1  IDiag  1:
 E= -495.539614940688     Delta-E=       -0.000025869916 Rises=F Damp=F
 DIIS: error= 8.85D-05 at cycle   7 NSaved=   7.
 NSaved= 7 IEnMin= 7 EnMin= -495.539614940688     IErMin= 7 ErrMin= 8.85D-05
 ErrMax= 8.85D-05  0.00D+00 EMaxC= 1.00D-01 BMatC= 3.15D-06 BMatP= 3.31D-05
 IDIUse=1 WtCom= 1.00D+00 WtEn= 0.00D+00
 Coeff-Com:  0.292D-04-0.130D-02 0.161D-01 0.537D-01 0.988D-01 0.307D+00
 Coeff-Com:  0.525D+00
 Coeff:      0.292D-04-0.130D-02 0.161D-01 0.537D-01 0.988D-01 0.307D+00
 Coeff:      0.525D+00
 Gap=     0.154 Goal=   None    Shift=    0.000
 RMSDP=1.31D-05 MaxDP=4.27D-04 DE=-2.59D-05 OVMax= 7.71D-04

 Cycle   8  Pass 1  IDiag  1:
 E= -495.539618015868     Delta-E=       -0.000003075180 Rises=F Damp=F
 DIIS: error= 2.10D-05 at cycle   8 NSaved=   8.
 NSaved= 8 IEnMin= 8 EnMin= -495.539618015868     IErMin= 8 ErrMin= 2.10D-05
 ErrMax= 2.10D-05  0.00D+00 EMaxC= 1.00D-01 BMatC= 1.55D-07 BMatP= 3.15D-06
 IDIUse=1 WtCom= 1.00D+00 WtEn= 0.00D+00
 Coeff-Com:  0.173D-04-0.627D-03 0.404D-02 0.145D-01 0.297D-01 0.106D+00
 Coeff-Com:  0.254D+00 0.593D+00
 Coeff:      0.173D-04-0.627D-03 0.404D-02 0.145D-01 0.297D-01 0.106D+00
 Coeff:      0.254D+00 0.593D+00
 Gap=     0.154 Goal=   None    Shift=    0.000
 RMSDP=3.75D-06 MaxDP=7.28D-05 DE=-3.08D-06 OVMax= 1.54D-04

 Cycle   9  Pass 1  IDiag  1:
 E= -495.539618162810     Delta-E=       -0.000000146942 Rises=F Damp=F
 DIIS: error= 8.11D-06 at cycle   9 NSaved=   9.
 NSaved= 9 IEnMin= 9 EnMin= -495.539618162810     IErMin= 9 ErrMin= 8.11D-06
 ErrMax= 8.11D-06  0.00D+00 EMaxC= 1.00D-01 BMatC= 1.96D-08 BMatP= 1.55D-07
 IDIUse=1 WtCom= 1.00D+00 WtEn= 0.00D+00
 Coeff-Com:  0.853D-05-0.131D-03-0.284D-03-0.513D-03 0.401D-03 0.747D-02
 Coeff-Com:  0.539D-01 0.301D+00 0.638D+00
 Coeff:      0.853D-05-0.131D-03-0.284D-03-0.513D-03 0.401D-03 0.747D-02
 Coeff:      0.539D-01 0.301D+00 0.638D+00
 Gap=     0.154 Goal=   None    Shift=    0.000
 RMSDP=1.06D-06 MaxDP=2.86D-05 DE=-1.47D-07 OVMax= 5.39D-05

 Cycle  10  Pass 1  IDiag  1:
 E= -495.539618181159     Delta-E=       -0.000000018350 Rises=F Damp=F
 DIIS: error= 2.73D-06 at cycle  10 NSaved=  10.
 NSaved=10 IEnMin=10 EnMin= -495.539618181159     IErMin=10 ErrMin= 2.73D-06
 ErrMax= 2.73D-06  0.00D+00 EMaxC= 1.00D-01 BMatC= 1.71D-09 BMatP= 1.96D-08
 IDIUse=1 WtCom= 1.00D+00 WtEn= 0.00D+00
 Coeff-Com:  0.377D-05-0.347D-04-0.332D-03-0.936D-03-0.136D-02-0.193D-02
 Coeff-Com:  0.136D-01 0.115D+00 0.316D+00 0.560D+00
 Coeff:      0.377D-05-0.347D-04-0.332D-03-0.936D-03-0.136D-02-0.193D-02
 Coeff:      0.136D-01 0.115D+00 0.316D+00 0.560D+00
 Gap=     0.154 Goal=   None    Shift=    0.000
 RMSDP=3.20D-07 MaxDP=9.73D-06 DE=-1.83D-08 OVMax= 1.46D-05

 Cycle  11  Pass 1  IDiag  1:
 E= -495.539618182662     Delta-E=       -0.000000001503 Rises=F Damp=F
 DIIS: error= 8.03D-07 at cycle  11 NSaved=  11.
 NSaved=11 IEnMin=11 EnMin= -495.539618182662     IErMin=11 ErrMin= 8.03D-07
 ErrMax= 8.03D-07  0.00D+00 EMaxC= 1.00D-01 BMatC= 1.50D-10 BMatP= 1.71D-09
 IDIUse=1 WtCom= 1.00D+00 WtEn= 0.00D+00
 Coeff-Com: -0.261D-06 0.612D-05-0.127D-03-0.392D-03-0.810D-03-0.215D-02
 Coeff-Com: -0.807D-03 0.108D-01 0.522D-01 0.248D+00 0.694D+00
 Coeff:     -0.261D-06 0.612D-05-0.127D-03-0.392D-03-0.810D-03-0.215D-02
 Coeff:     -0.807D-03 0.108D-01 0.522D-01 0.248D+00 0.694D+00
 Gap=     0.154 Goal=   None    Shift=    0.000
 RMSDP=1.14D-07 MaxDP=2.28D-06 DE=-1.50D-09 OVMax= 6.41D-06

 Cycle  12  Pass 1  IDiag  1:
 E= -495.539618182798     Delta-E=       -0.000000000136 Rises=F Damp=F
 DIIS: error= 1.87D-07 at cycle  12 NSaved=  12.
 NSaved=12 IEnMin=12 EnMin= -495.539618182798     IErMin=12 ErrMin= 1.87D-07
 ErrMax= 1.87D-07  0.00D+00 EMaxC= 1.00D-01 BMatC= 1.57D-11 BMatP= 1.50D-10
 IDIUse=1 WtCom= 1.00D+00 WtEn= 0.00D+00
 Coeff-Com: -0.450D-06 0.452D-05-0.345D-04-0.105D-03-0.281D-03-0.819D-03
 Coeff-Com: -0.101D-02-0.225D-02 0.197D-02 0.840D-01 0.337D+00 0.582D+00
 Coeff:     -0.450D-06 0.452D-05-0.345D-04-0.105D-03-0.281D-03-0.819D-03
 Coeff:     -0.101D-02-0.225D-02 0.197D-02 0.840D-01 0.337D+00 0.582D+00
 Gap=     0.154 Goal=   None    Shift=    0.000
 RMSDP=3.27D-08 MaxDP=7.94D-07 DE=-1.36D-10 OVMax= 1.83D-06

 Cycle  13  Pass 1  IDiag  1:
 E= -495.539618182801     Delta-E=       -0.000000000003 Rises=F Damp=F
 DIIS: error= 7.79D-08 at cycle  13 NSaved=  13.
 NSaved=13 IEnMin=13 EnMin= -495.539618182801     IErMin=13 ErrMin= 7.79D-08
 ErrMax= 7.79D-08  0.00D+00 EMaxC= 1.00D-01 BMatC= 2.15D-12 BMatP= 1.57D-11
 IDIUse=1 WtCom= 1.00D+00 WtEn= 0.00D+00
 Coeff-Com: -0.219D-06 0.113D-05 0.593D-05 0.214D-04 0.435D-05-0.285D-04
 Coeff-Com: -0.367D-03-0.330D-02-0.998D-02-0.648D-02 0.270D-01 0.288D+00
 Coeff-Com:  0.705D+00
 Coeff:     -0.219D-06 0.113D-05 0.593D-05 0.214D-04 0.435D-05-0.285D-04
 Coeff:     -0.367D-03-0.330D-02-0.998D-02-0.648D-02 0.270D-01 0.288D+00
 Coeff:      0.705D+00
 Gap=     0.154 Goal=   None    Shift=    0.000
 RMSDP=1.42D-08 MaxDP=2.41D-07 DE=-3.24D-12 OVMax= 1.17D-06

 Cycle  14  Pass 1  IDiag  1:
 E= -495.539618182805     Delta-E=       -0.000000000003 Rises=F Damp=F
 DIIS: error= 1.09D-08 at cycle  14 NSaved=  14.
 NSaved=14 IEnMin=14 EnMin= -495.539618182805     IErMin=14 ErrMin= 1.09D-08
 ErrMax= 1.09D-08  0.00D+00 EMaxC= 1.00D-01 BMatC= 4.00D-14 BMatP= 2.15D-12
 IDIUse=1 WtCom= 1.00D+00 WtEn= 0.00D+00
 Coeff-Com:  0.762D-09 0.246D-08 0.305D-05 0.971D-05 0.157D-04 0.309D-04
 Coeff-Com: -0.199D-04-0.566D-03-0.221D-02-0.628D-02-0.144D-01 0.272D-01
 Coeff-Com:  0.144D+00 0.852D+00
 Coeff:      0.762D-09 0.246D-08 0.305D-05 0.971D-05 0.157D-04 0.309D-04
 Coeff:     -0.199D-04-0.566D-03-0.221D-02-0.628D-02-0.144D-01 0.272D-01
 Coeff:      0.144D+00 0.852D+00
 Gap=     0.154 Goal=   None    Shift=    0.000
 RMSDP=3.78D-09 MaxDP=5.91D-08 DE=-3.47D-12 OVMax= 3.23D-07

 Error on total polarization charges =  0.00634
 SCF Done:  E(RB3LYP) =  -495.539618183     A.U. after   14 cycles
            NFock= 14  Conv=0.38D-08     -V/T= 2.0086
 KE= 4.912992410476D+02 PE=-2.146230365583D+03 EE= 6.724364114578D+02
 Leave Link  502 at Mon Jul 12 12:46:50 2021, MaxMem=   104857600 cpu:             182.6 elap:              48.5
 (Enter /dades/curu/g16A03_MST/g16/l601.exe)
 Copying SCF densities to generalized density rwf, IOpCl= 0 IROHF=0.

 **********************************************************************

            Population analysis using the SCF density.

 **********************************************************************

 Orbital symmetries:
       Occupied  (A) (A) (A) (A) (A) (A) (A) (A) (A) (A) (A) (A)
                 (A) (A) (A) (A) (A) (A) (A) (A) (A) (A) (A) (A)
                 (A) (A) (A) (A) (A) (A) (A) (A) (A) (A) (A) (A)
       Virtual   (A) (A) (A) (A) (A) (A) (A) (A) (A) (A) (A) (A)
                 (A) (A) (A) (A) (A) (A) (A) (A) (A) (A) (A) (A)
                 (A) (A) (A) (A) (A) (A) (A) (A) (A) (A) (A) (A)
                 (A) (A) (A) (A) (A) (A) (A) (A) (A) (A) (A) (A)
                 (A) (A) (A) (A) (A) (A) (A) (A) (A) (A) (A) (A)
                 (A) (A) (A) (A) (A) (A) (A) (A) (A) (A) (A) (A)
                 (A) (A) (A) (A) (A) (A) (A) (A) (A) (A) (A) (A)
                 (A) (A) (A) (A) (A) (A) (A) (A) (A) (A) (A) (A)
                 (A) (A) (A) (A) (A) (A) (A) (A) (A) (A) (A) (A)
                 (A) (A) (A) (A) (A) (A) (A) (A) (A) (A) (A) (A)
                 (A) (A) (A) (A)
 The electronic state is 1-A.
 Alpha  occ. eigenvalues --  -19.15851 -19.04420 -19.01823 -10.23367 -10.22633
 Alpha  occ. eigenvalues --  -10.18151 -10.17332 -10.17273 -10.17099 -10.16767
 Alpha  occ. eigenvalues --   -1.04166  -0.97755  -0.85925  -0.83296  -0.73718
 Alpha  occ. eigenvalues --   -0.71962  -0.60727  -0.59382  -0.52167  -0.50828
 Alpha  occ. eigenvalues --   -0.45493  -0.44091  -0.40921  -0.39796  -0.39367
 Alpha  occ. eigenvalues --   -0.37504  -0.35127  -0.34647  -0.33647  -0.32664
 Alpha  occ. eigenvalues --   -0.31405  -0.23220  -0.20925  -0.20592  -0.19029
 Alpha  occ. eigenvalues --   -0.15884
 Alpha virt. eigenvalues --   -0.00449   0.02314   0.09416   0.11225   0.12391
 Alpha virt. eigenvalues --    0.16700   0.18924   0.19794   0.21888   0.25401
 Alpha virt. eigenvalues --    0.29333   0.31054   0.34789   0.35286   0.35665
 Alpha virt. eigenvalues --    0.42931   0.44676   0.52336   0.53067   0.55770
 Alpha virt. eigenvalues --    0.57230   0.57876   0.59389   0.61277   0.62185
 Alpha virt. eigenvalues --    0.62706   0.64291   0.65567   0.66064   0.66240
 Alpha virt. eigenvalues --    0.67449   0.72267   0.72891   0.76548   0.79018
 Alpha virt. eigenvalues --    0.80544   0.84779   0.85130   0.86293   0.87406
 Alpha virt. eigenvalues --    0.91736   0.93123   0.95661   0.96338   0.97526
 Alpha virt. eigenvalues --    1.00195   1.03125   1.03579   1.05698   1.07410
 Alpha virt. eigenvalues --    1.09930   1.10344   1.13441   1.15732   1.21077
 Alpha virt. eigenvalues --    1.22723   1.26978   1.29335   1.30974   1.36652
 Alpha virt. eigenvalues --    1.41244   1.43302   1.44846   1.50324   1.50983
 Alpha virt. eigenvalues --    1.53880   1.55661   1.58647   1.72345   1.73696
 Alpha virt. eigenvalues --    1.75443   1.77036   1.77711   1.82618   1.85390
 Alpha virt. eigenvalues --    1.88595   1.89872   1.91531   1.92131   1.94347
 Alpha virt. eigenvalues --    1.97507   1.98460   2.01120   2.04808   2.07368
 Alpha virt. eigenvalues --    2.09498   2.12473   2.16654   2.18069   2.19764
 Alpha virt. eigenvalues --    2.25860   2.29533   2.31637   2.35769   2.38152
 Alpha virt. eigenvalues --    2.47288   2.47877   2.50783   2.58345   2.61382
 Alpha virt. eigenvalues --    2.63733   2.66211   2.69046   2.72717   2.76347
 Alpha virt. eigenvalues --    2.76890   2.83967   2.89462   2.92026   2.98448
 Alpha virt. eigenvalues --    3.05181   3.15133   3.27858   3.43449   3.89332
 Alpha virt. eigenvalues --    4.01024   4.10294   4.13351   4.18809   4.32840
 Alpha virt. eigenvalues --    4.39379   4.44399   4.53094   4.79631
          Condensed to atoms (all electrons):
               1          2          3          4          5          6
     1  O    8.490679   0.501483  -0.152703  -0.126472   0.000325  -0.016430
     2  C    0.501483   4.451488   0.532508   0.155361  -0.027582  -0.003416
     3  O   -0.152703   0.532508   8.385104  -0.132356   0.002866  -0.000025
     4  C   -0.126472   0.155361  -0.132356   5.358050   0.424913  -0.052714
     5  C    0.000325  -0.027582   0.002866   0.424913   4.766103   0.286501
     6  O   -0.016430  -0.003416  -0.000025  -0.052714   0.286501   8.232147
     7  H    0.001651   0.000353   0.000007   0.007900  -0.036050   0.227547
     8  C    0.000950   0.009671  -0.000037  -0.036617   0.448947  -0.071705
     9  H    0.000018  -0.000100   0.000000   0.006384  -0.043609  -0.007040
    10  C   -0.000032  -0.000810  -0.000009  -0.042484  -0.002094   0.004600
    11  H   -0.000000   0.000004   0.000000   0.000305   0.003809  -0.000040
    12  C   -0.000044   0.006077   0.000551  -0.018136  -0.041837  -0.000086
    13  H    0.000001  -0.000068  -0.000000   0.004567   0.000445   0.000001
    14  C    0.006176  -0.034761   0.003825   0.449904  -0.068322   0.004612
    15  H    0.000547  -0.006428   0.017984  -0.058298   0.007033  -0.000040
               7          8          9         10         11         12
     1  O    0.001651   0.000950   0.000018  -0.000032  -0.000000  -0.000044
     2  C    0.000353   0.009671  -0.000100  -0.000810   0.000004   0.006077
     3  O    0.000007  -0.000037   0.000000  -0.000009   0.000000   0.000551
     4  C    0.007900  -0.036617   0.006384  -0.042484   0.000305  -0.018136
     5  C   -0.036050   0.448947  -0.043609  -0.002094   0.003809  -0.041837
     6  O    0.227547  -0.071705  -0.007040   0.004600  -0.000040  -0.000086
     7  H    0.379692  -0.003325   0.012676   0.000706  -0.000030  -0.000010
     8  C   -0.003325   5.189079   0.337797   0.465751  -0.038775  -0.020706
     9  H    0.012676   0.337797   0.606399  -0.035244  -0.005406   0.004263
    10  C    0.000706   0.465751  -0.035244   4.902186   0.360619   0.542474
    11  H   -0.000030  -0.038775  -0.005406   0.360619   0.587706  -0.044604
    12  C   -0.000010  -0.020706   0.004263   0.542474  -0.044604   4.953795
    13  H   -0.000001   0.005460  -0.000157  -0.044746  -0.005285   0.358569
    14  C   -0.000242  -0.063781   0.000843  -0.018598   0.004752   0.453858
    15  H    0.000005  -0.000283   0.000015   0.005721  -0.000170  -0.040519
              13         14         15
     1  O    0.000001   0.006176   0.000547
     2  C   -0.000068  -0.034761  -0.006428
     3  O   -0.000000   0.003825   0.017984
     4  C    0.004567   0.449904  -0.058298
     5  C    0.000445  -0.068322   0.007033
     6  O    0.000001   0.004612  -0.000040
     7  H   -0.000001  -0.000242   0.000005
     8  C    0.005460  -0.063781  -0.000283
     9  H   -0.000157   0.000843   0.000015
    10  C   -0.044746  -0.018598   0.005721
    11  H   -0.005285   0.004752  -0.000170
    12  C    0.358569   0.453858  -0.040519
    13  H    0.600829  -0.041701  -0.005484
    14  C   -0.041701   5.159448   0.345082
    15  H   -0.005484   0.345082   0.603281
 Mulliken charges:
               1
     1  O   -0.706150
     2  C    0.416219
     3  O   -0.657715
     4  C    0.059693
     5  C    0.278553
     6  O   -0.603912
     7  H    0.409121
     8  C   -0.222425
     9  H    0.123161
    10  C   -0.138040
    11  H    0.137115
    12  C   -0.153644
    13  H    0.127569
    14  C   -0.201095
    15  H    0.131551
 Sum of Mulliken charges =  -1.00000
 Mulliken charges with hydrogens summed into heavy atoms:
               1
     1  O   -0.706150
     2  C    0.416219
     3  O   -0.657715
     4  C    0.059693
     5  C    0.278553
     6  O   -0.194791
     8  C   -0.099265
    10  C   -0.000925
    12  C   -0.026075
    14  C   -0.069544
 Electronic spatial extent (au):  <R**2>=           1355.5187
 Charge=             -1.0000 electrons
 Dipole moment (field-independent basis, Debye):
    X=             13.7612    Y=              1.8835    Z=             -0.0073  Tot=             13.8895
 Quadrupole moment (field-independent basis, Debye-Ang):
   XX=            -87.4421   YY=            -58.4440   ZZ=            -59.4479
   XY=              0.4397   XZ=              1.4452   YZ=             -0.8959
 Traceless Quadrupole moment (field-independent basis, Debye-Ang):
   XX=            -18.9974   YY=             10.0007   ZZ=              8.9967
   XY=              0.4397   XZ=              1.4452   YZ=             -0.8959
 Octapole moment (field-independent basis, Debye-Ang**2):
  XXX=             84.0851  YYY=             29.7024  ZZZ=              0.0042  XYY=             29.9280
  XXY=             13.3771  XXZ=             -1.7558  XZZ=             -8.4493  YZZ=              3.7423
  YYZ=              2.3625  XYZ=              2.4823
 Hexadecapole moment (field-independent basis, Debye-Ang**3):
 XXXX=          -1260.4504 YYYY=           -504.0032 ZZZZ=            -59.3891 XXXY=            -28.9082
 XXXZ=              9.3129 YYYX=              8.3241 YYYZ=             -2.6237 ZZZX=             -0.2563
 ZZZY=             -0.7580 XXYY=           -316.2686 XXZZ=           -201.6688 YYZZ=           -110.6274
 XXYZ=             -6.3061 YYXZ=              1.8857 ZZXY=              3.4540
 N-N= 4.869550948948D+02 E-N=-2.146230365405D+03  KE= 4.912992410476D+02
 No NMR shielding tensors so no spin-rotation constants.
 Leave Link  601 at Mon Jul 12 12:46:50 2021, MaxMem=   104857600 cpu:               0.3 elap:               0.1
 (Enter /dades/curu/g16A03_MST/g16/l701.exe)
 ... and contract with generalized density number  0.
 Compute integral first derivatives.
 D1PCM: PCM CHGder 1st derivatives, ID1Alg=3 FixD1E=F DoIter=F DoCFld=F I1PDM=0.
 GePol: Maximum number of non-zero 1st derivatives   =     229
 Leave Link  701 at Mon Jul 12 12:46:51 2021, MaxMem=   104857600 cpu:               4.9 elap:               1.3
 (Enter /dades/curu/g16A03_MST/g16/l702.exe)
 L702 exits ... SP integral derivatives will be done elsewhere.
 Leave Link  702 at Mon Jul 12 12:46:51 2021, MaxMem=   104857600 cpu:               0.1 elap:               0.0
 (Enter /dades/curu/g16A03_MST/g16/l703.exe)
 Integral derivatives from FoFJK, PRISM(SPDF).
 Compute integral first derivatives, UseDBF=F ICtDFT=           0.
 Calling FoFJK, ICntrl=      2127 FMM=F ISym2X=0 I1Cent= 0 IOpClX= 0 NMat=1 NMatS=1 NMatT=0.
 FoFJK:  IHMeth= 1 ICntrl=    2127 DoSepK=F KAlg= 0 I1Cent=           0 FoldK=F
 IRaf=         0 NMat=       1 IRICut=       1 DoRegI=T DoRafI=F ISym2E= 0 IDoP0=0 IntGTp=1.
 FoFCou: FMM=F IPFlag=           0 FMFlag=      100000 FMFlg1=         800
         NFxFlg=           0 DoJE=F BraDBF=F KetDBF=F FulRan=T
         wScrn=  0.000000 ICntrl=      2127 IOpCl=  0 I1Cent=           0 NGrid=           0
         NMat0=    1 NMatS0=      1 NMatT0=    0 NMatD0=    1 NMtDS0=    0 NMtDT0=    0
 Symmetry not used in FoFCou.
 Leave Link  703 at Mon Jul 12 12:46:58 2021, MaxMem=   104857600 cpu:              27.0 elap:               6.8
 (Enter /dades/curu/g16A03_MST/g16/l716.exe)
 Dipole        = 5.41406945D+00 7.41017158D-01-2.85536053D-03
 ***** Axes restored to original set *****
 -------------------------------------------------------------------
 Center     Atomic                   Forces (Hartrees/Bohr)
 Number     Number              X              Y              Z
 -------------------------------------------------------------------
      1        8           0.023196153    0.008612882   -0.014037143
      2        6          -0.077200396    0.023248738    0.075067374
      3        8           0.031658764   -0.034167653   -0.045960022
      4        6           0.014762095   -0.008626457   -0.011750924
      5        6          -0.019910819   -0.026395283   -0.009079851
      6        8           0.021476080    0.009932028   -0.006137869
      7        1          -0.009633791    0.006040205    0.007287192
      8        6           0.010069387    0.016170940    0.009257683
      9        1           0.001639382    0.007979047   -0.011093997
     10        6           0.001052160    0.012383009    0.002148305
     11        1           0.002266074    0.002038820    0.006912491
     12        6          -0.025739504   -0.043936896   -0.005938632
     13        1           0.000728766    0.009486427   -0.003142921
     14        6           0.029351602    0.014642908    0.010737741
     15        1          -0.003715951    0.002591284   -0.004269426
 -------------------------------------------------------------------
 Cartesian Forces:  Max     0.077200396 RMS     0.023297862
 Leave Link  716 at Mon Jul 12 12:46:58 2021, MaxMem=   104857600 cpu:               0.1 elap:               0.0
 (Enter /dades/curu/g16A03_MST/g16/l103.exe)

 GradGradGradGradGradGradGradGradGradGradGradGradGradGradGradGradGradGrad
 Berny optimization.
 FormGI is forming the generalized inverse of G from B-inverse, IUseBI=4.
 Internal  Forces:  Max     0.065765806 RMS     0.014363924
 Search for a local minimum.
 Step number   1 out of a maximum of   77
 All quantities printed in internal units (Hartrees-Bohrs-Radians)
 RMS Force = .14364D-01 SwitMx=.10000D-02 MixMth= 1
 Mixed Optimization -- RFO/linear search
 Second derivative matrix not updated -- first step.
 ITU=  0
     Eigenvalues ---    0.01071   0.01112   0.01733   0.01922   0.01966
     Eigenvalues ---    0.02094   0.02123   0.02128   0.02139   0.02255
     Eigenvalues ---    0.02305   0.02377   0.15510   0.15704   0.15987
     Eigenvalues ---    0.15998   0.16000   0.21935   0.22481   0.24326
     Eigenvalues ---    0.24676   0.24861   0.25000   0.25000   0.34923
     Eigenvalues ---    0.35086   0.35124   0.35170   0.35244   0.38852
     Eigenvalues ---    0.40773   0.43485   0.46020   0.47997   0.50451
     Eigenvalues ---    0.51058   0.52538   0.65139   0.88159
 RFO step:  Lambda=-4.71042063D-02 EMin= 1.07104427D-02
 Linear search not attempted -- first point.
 Maximum step size (   0.300) exceeded in Quadratic search.
    -- Step size scaled by   0.819
 Iteration  1 RMS(Cart)=  0.08281841 RMS(Int)=  0.00799502
 Iteration  2 RMS(Cart)=  0.00886361 RMS(Int)=  0.00101479
 Iteration  3 RMS(Cart)=  0.00011795 RMS(Int)=  0.00101030
 Iteration  4 RMS(Cart)=  0.00000026 RMS(Int)=  0.00101030
 ITry= 1 IFail=0 DXMaxC= 3.42D-01 DCOld= 1.00D+10 DXMaxT= 3.00D-01 DXLimC= 3.00D+00 Rises=F
 Variable       Old X    -DE/DX   Delta X   Delta X   Delta X     New X
                                 (Linear)    (Quad)   (Total)
    R1        2.47091  -0.02021   0.00000  -0.02370  -0.02370   2.44722
    R2        2.33793   0.03873   0.00000   0.03415   0.03415   2.37208
    R3        2.79100   0.02082   0.00000   0.04301   0.04301   2.83401
    R4        2.68361   0.00933   0.00000   0.01644   0.01657   2.70018
    R5        2.63684   0.00256   0.00000   0.00280   0.00293   2.63978
    R6        2.58813  -0.00174   0.00000  -0.00256  -0.00256   2.58557
    R7        2.60558   0.01828   0.00000   0.02913   0.02912   2.63470
    R8        1.84088   0.00361   0.00000   0.00516   0.00516   1.84604
    R9        2.05399   0.00267   0.00000   0.00549   0.00549   2.05949
   R10        2.64638  -0.00368   0.00000  -0.00466  -0.00480   2.64158
   R11        2.05280  -0.00049   0.00000  -0.00101  -0.00101   2.05179
   R12        2.58361   0.01739   0.00000   0.02514   0.02500   2.60862
   R13        2.05536  -0.00173   0.00000  -0.00356  -0.00356   2.05179
   R14        2.70814  -0.02274   0.00000  -0.04283  -0.04282   2.66532
   R15        2.05475  -0.00213   0.00000  -0.00438  -0.00438   2.05036
    A1        2.01383   0.05605   0.00000   0.15803   0.15359   2.16743
    A2        2.00057   0.01041   0.00000   0.03223   0.02781   2.02838
    A3        2.26548  -0.06577   0.00000  -0.17772  -0.18214   2.08334
    A4        2.15075   0.02006   0.00000   0.05797   0.05778   2.20853
    A5        2.05413  -0.01320   0.00000  -0.03452  -0.03487   2.01926
    A6        2.06840  -0.00653   0.00000  -0.01925  -0.01914   2.04925
    A7        2.09341   0.01146   0.00000   0.03101   0.03085   2.12426
    A8        2.06585   0.00272   0.00000   0.01088   0.01090   2.07675
    A9        2.11850  -0.01393   0.00000  -0.03918  -0.03939   2.07911
   A10        1.76396   0.02381   0.00000   0.09416   0.09416   1.85812
   A11        1.98052   0.01400   0.00000   0.05210   0.05198   2.03251
   A12        2.15340  -0.00797   0.00000  -0.01778  -0.01820   2.13520
   A13        2.13038  -0.00546   0.00000  -0.02590  -0.02624   2.10413
   A14        2.11936  -0.00560   0.00000  -0.02215  -0.02203   2.09733
   A15        2.07573   0.00226   0.00000   0.00868   0.00840   2.08412
   A16        2.08731   0.00330   0.00000   0.01313   0.01326   2.10057
   A17        2.19305  -0.00968   0.00000  -0.03636  -0.03634   2.15671
   A18        2.07535   0.00053   0.00000  -0.00153  -0.00164   2.07370
   A19        2.01463   0.00916   0.00000   0.03811   0.03813   2.05276
   A20        2.11764   0.00966   0.00000   0.02707   0.02610   2.14374
   A21        2.03455  -0.00383   0.00000  -0.00286  -0.00403   2.03052
   A22        2.10165  -0.00402   0.00000  -0.00460  -0.00585   2.09580
    D1        0.00198  -0.00783   0.00000  -0.11222  -0.11224  -0.11026
    D2        2.99033  -0.00599   0.00000  -0.08213  -0.08173   2.90860
    D3        3.05119   0.00534   0.00000   0.07296   0.07255   3.12374
    D4       -0.24364   0.00718   0.00000   0.10305   0.10307  -0.14058
    D5       -0.24836   0.00255   0.00000   0.04282   0.04347  -0.20489
    D6        3.00339   0.00091   0.00000   0.01800   0.01817   3.02155
    D7        3.04766   0.00122   0.00000   0.01369   0.01363   3.06129
    D8        0.01622  -0.00041   0.00000  -0.01113  -0.01167   0.00455
    D9       -2.90407  -0.00643   0.00000  -0.06472  -0.06411  -2.96818
   D10       -0.01946   0.00068   0.00000   0.01853   0.01926  -0.00019
   D11        0.09170  -0.00223   0.00000  -0.02900  -0.02931   0.06239
   D12        2.97631   0.00488   0.00000   0.05425   0.05406   3.03037
   D13       -3.13823  -0.00004   0.00000   0.00201   0.00221  -3.13602
   D14       -0.11018   0.00278   0.00000   0.03099   0.03079  -0.07939
   D15       -2.99722  -0.00063   0.00000  -0.01934  -0.02034  -3.01755
   D16       -0.05982   0.00202   0.00000   0.02322   0.02320  -0.03661
   D17        0.25619  -0.00399   0.00000  -0.04923  -0.04952   0.20666
   D18       -3.08960  -0.00133   0.00000  -0.00666  -0.00598  -3.09558
   D19        3.09062   0.00011   0.00000   0.00119   0.00150   3.09212
   D20       -0.00815   0.00097   0.00000   0.01028   0.01035   0.00220
   D21       -0.27224   0.00513   0.00000   0.05616   0.05568  -0.21656
   D22        2.91218   0.00599   0.00000   0.06526   0.06453   2.97671
   D23       -3.04614  -0.00344   0.00000  -0.03732  -0.03739  -3.08353
   D24        0.11530  -0.00443   0.00000  -0.05263  -0.05261   0.06268
   D25        0.13747  -0.00237   0.00000  -0.02751  -0.02764   0.10983
   D26       -2.98428  -0.00336   0.00000  -0.04282  -0.04286  -3.02714
   D27       -0.15994   0.00484   0.00000   0.06220   0.06260  -0.09734
   D28       -3.03479  -0.00267   0.00000  -0.02472  -0.02428  -3.05908
   D29        2.99950   0.00415   0.00000   0.04921   0.04909   3.04860
   D30        0.12466  -0.00336   0.00000  -0.03770  -0.03779   0.08687
         Item               Value     Threshold  Converged?
 Maximum Force            0.065766     0.000450     NO 
 RMS     Force            0.014364     0.000300     NO 
 Maximum Displacement     0.341707     0.001800     NO 
 RMS     Displacement     0.083265     0.001200     NO 
 Predicted change in Energy=-2.660094D-02
 Lowest energy point so far.  Saving SCF results.
 GradGradGradGradGradGradGradGradGradGradGradGradGradGradGradGradGradGrad

 Leave Link  103 at Mon Jul 12 12:46:58 2021, MaxMem=   104857600 cpu:               0.1 elap:               0.0
 (Enter /dades/curu/g16A03_MST/g16/l202.exe)
                          Input orientation:                          
 ---------------------------------------------------------------------
 Center     Atomic      Atomic             Coordinates (Angstroms)
 Number     Number       Type             X           Y           Z
 ---------------------------------------------------------------------
      1          8           0       -1.905987   -1.376760    1.834731
      2          6           0       -1.262798   -1.724847    0.765995
      3          8           0       -1.213176   -2.898475    0.323513
      4          6           0       -0.438997   -0.656475    0.110999
      5          6           0       -0.394064    0.725029    0.473089
      6          8           0       -1.301713    1.271476    1.338884
      7          1           0       -1.069867    2.216726    1.422822
      8          6           0        0.536335    1.556616   -0.148748
      9          1           0        0.617513    2.571159    0.240931
     10          6           0        1.458054    1.078996   -1.084876
     11          1           0        2.136631    1.765613   -1.581829
     12          6           0        1.455537   -0.261155   -1.415856
     13          1           0        2.173229   -0.713589   -2.093424
     14          6           0        0.468954   -1.098200   -0.854328
     15          1           0        0.493348   -2.167113   -1.038905
 ---------------------------------------------------------------------
                    Distance matrix (angstroms):
                    1          2          3          4          5
     1  O    0.000000
     2  C    1.295011   0.000000
     3  O    2.253749   1.255251   0.000000
     4  C    2.375315   1.499696   2.381403   0.000000
     5  C    2.925321   2.615796   3.717943   1.428874   0.000000
     6  O    2.761189   3.050847   4.292704   2.443148   1.368223
     7  H    3.712399   4.000580   5.233956   3.220894   1.893109
     8  C    4.301607   3.852484   4.809538   2.432388   1.394224
     9  H    4.949173   4.718785   5.768461   3.398634   2.117871
    10  C    5.086415   4.323227   4.993927   2.835626   2.445994
    11  H    6.155498   5.408485   6.050228   3.919954   3.421976
    12  C    4.807362   3.780504   4.135564   2.465121   2.821647
    13  H    5.701772   4.583143   4.699261   3.418548   3.904818
    14  C    3.598469   2.452978   2.730908   1.396909   2.414746
    15  H    3.826128   2.556817   2.302889   2.115083   3.382028
                    6          7          8          9         10
     6  O    0.000000
     7  H    0.976881   0.000000
     8  C    2.381759   2.342107   0.000000
     9  H    2.564782   2.090393   1.089833   0.000000
    10  C    3.678040   3.738096   1.397863   2.165831   0.000000
    11  H    4.538386   4.417359   2.158321   2.505809   1.085759
    12  C    4.188076   4.536040   2.398914   3.386625   1.380420
    13  H    5.272234   5.609671   3.408082   4.319611   2.177615
    14  C    3.682500   4.306056   2.747805   3.832213   2.402427
    15  H    4.549728   5.265148   3.828889   4.909645   3.386738
                   11         12         13         14         15
    11  H    0.000000
    12  C    2.144581   0.000000
    13  H    2.531702   1.085761   0.000000
    14  C    3.392909   1.410427   2.141924   0.000000
    15  H    4.296682   2.168081   2.459012   1.085006   0.000000
 Stoichiometry    C7H5O3(1-)
 Framework group  C1[X(C7H5O3)]
 Deg. of freedom    39
 Full point group                 C1      NOp   1
 RotChk:  IX=0 Diff= 6.94D-02
 Largest Abelian subgroup         C1      NOp   1
 Largest concise Abelian subgroup C1      NOp   1
                         Standard orientation:                         
 ---------------------------------------------------------------------
 Center     Atomic      Atomic             Coordinates (Angstroms)
 Number     Number       Type             X           Y           Z
 ---------------------------------------------------------------------
      1          8           0       -2.408714    0.816161    0.245688
      2          6           0       -1.791067   -0.292435   -0.012344
      3          8           0       -2.354545   -1.411083   -0.094653
      4          6           0       -0.295479   -0.214707   -0.091462
      5          6           0        0.498828    0.971762   -0.036254
      6          8           0       -0.059954    2.216643   -0.136596
      7          1           0        0.676144    2.856107   -0.077083
      8          6           0        1.886856    0.853603    0.020968
      9          1           0        2.446299    1.774881    0.182232
     10          6           0        2.530363   -0.386382    0.069549
     11          1           0        3.614854   -0.438778    0.067052
     12          6           0        1.776093   -1.542459    0.058504
     13          1           0        2.201321   -2.537627    0.146246
     14          6           0        0.376171   -1.439488   -0.079040
     15          1           0       -0.243503   -2.327713   -0.013483
 ---------------------------------------------------------------------
 Rotational constants (GHZ):           2.2636329           1.2356347           0.8038096
 Leave Link  202 at Mon Jul 12 12:46:58 2021, MaxMem=   104857600 cpu:               0.0 elap:               0.0
 (Enter /dades/curu/g16A03_MST/g16/l301.exe)
 Standard basis: 6-31G(d) (6D, 7F)
 Ernie: Thresh=  0.10000D-02 Tol=  0.10000D-05 Strict=F.
 There are   160 symmetry adapted cartesian basis functions of A   symmetry.
 There are   160 symmetry adapted basis functions of A   symmetry.
   160 basis functions,   300 primitive gaussians,   160 cartesian basis functions
    36 alpha electrons       36 beta electrons
       nuclear repulsion energy       484.2791948141 Hartrees.
 IExCor=  402 DFT=T Ex+Corr=B3LYP ExCW=0 ScaHFX=  0.200000
 ScaDFX=  0.800000  0.720000  1.000000  0.810000 ScalE2=  1.000000  1.000000
 IRadAn=      5 IRanWt=     -1 IRanGd=            0 ICorTp=0 IEmpDi=  4
 NAtoms=   15 NActive=   15 NUniq=   15 SFac= 1.00D+00 NAtFMM=   60 NAOKFM=F Big=F
 Integral buffers will be    131072 words long.
 Raffenetti 2 integral format.
 Two-electron integral symmetry is turned on.
 ------------------------------------------------------------------------------
 Polarizable Continuum Model (PCM)
 =================================
 Model                : PCM.
 Atomic radii         : MST.
 Polarization charges : Total charges.
 Charge compensation  : None.
 Solution method      : On-the-fly selection.
 Cavity type          : Scaled VdW (van der Waals Surface) (Alpha=1.500).
 Cavity algorithm     : GePol (No added spheres)
                        Default sphere list used, NSphG=   15.
                        Lebedev-Laikov grids with approx.  5.0 points / Ang**2.
                        Smoothing algorithm: York/Karplus (Gamma=1.0000).
                        Polarization charges: spherical gaussians, with
                                              point-specific exponents (IZeta= 3).
                        Self-potential: point-specific (ISelfS= 7).
                        Self-field    : sphere-specific E.n sum rule (ISelfD= 2).
 1st derivatives      : Analytical E(r).r(x)/FMM algorithm (CHGder, D1EAlg=3).
                        Cavity 1st derivative terms included.
 Solvent              : n-Octanol, Eps=   9.862900 Eps(inf)=   2.043470
 ------------------------------------------------------------------------------
 Spheres list:
 ISph  on   Nord     Re0    Alpha      Xe            Ye            Ze
    1   O      1    1.4000  1.150     -2.408714      0.816161      0.245688
    2   C      2    1.5000  1.150     -1.791067     -0.292435     -0.012344
    3   O      3    1.4000  1.150     -2.354545     -1.411083     -0.094653
    4   C      4    1.5000  1.500     -0.295479     -0.214707     -0.091462
    5   C      5    1.5000  1.500      0.498828      0.971762     -0.036254
    6   O      6    1.4000  1.500     -0.059954      2.216643     -0.136596
    7   H      7    0.9000  1.500      0.676144      2.856107     -0.077083
    8   C      8    1.5000  1.500      1.886856      0.853603      0.020968
    9   H      9    1.2000  1.500      2.446299      1.774881      0.182232
   10   C     10    1.5000  1.500      2.530363     -0.386382      0.069549
   11   H     11    1.2000  1.500      3.614854     -0.438778      0.067052
   12   C     12    1.5000  1.500      1.776093     -1.542459      0.058504
   13   H     13    1.2000  1.500      2.201321     -2.537627      0.146246
   14   C     14    1.5000  1.500      0.376171     -1.439488     -0.079040
   15   H     15    1.2000  1.500     -0.243503     -2.327713     -0.013483
 ------------------------------------------------------------------------------
 GePol: Number of generator spheres                  =      15
 GePol: Total number of spheres                      =      15
 GePol: Number of exposed spheres                    =      15 (100.00%)
 GePol: Number of points                             =    1605
 GePol: Average weight of points                     =       0.12
 GePol: Minimum weight of points                     =   0.30D-10
 GePol: Maximum weight of points                     =    0.21095
 GePol: Number of points with low weight             =      98
 GePol: Fraction of low-weight points (<1% of avg)   =       6.11%
 GePol: Cavity surface area                          =    186.024 Ang**2
 GePol: Cavity volume                                =    189.090 Ang**3
 Surface areas from nonelectrostatic (unscaled) cavity and vdw tensions:
 Sphere =    1 Type =  O   Surf =       16.552 Tension =       -0.185
 Sphere =    2 Type =  C   Surf =        7.321 Tension =       -0.205
 Sphere =    3 Type =  O   Surf =       15.617 Tension =       -0.185
 Sphere =    4 Type =  C   Surf =        6.505 Tension =       -0.205
 Sphere =    5 Type =  C   Surf =        6.827 Tension =       -0.205
 Sphere =    6 Type =  OH  Surf =       14.259 Tension =       -0.238
 Sphere =    7 Type =  OH  Surf =        4.362 Tension =       -0.238
 Sphere =    8 Type =  CH  Surf =        7.658 Tension =       -0.195
 Sphere =    9 Type =  CH  Surf =       10.135 Tension =       -0.195
 Sphere =   10 Type =  CH  Surf =        7.800 Tension =       -0.195
 Sphere =   11 Type =  CH  Surf =       10.238 Tension =       -0.195
 Sphere =   12 Type =  CH  Surf =        7.847 Tension =       -0.195
 Sphere =   13 Type =  CH  Surf =       10.237 Tension =       -0.195
 Sphere =   14 Type =  CH  Surf =        7.543 Tension =       -0.195
 Sphere =   15 Type =  CH  Surf =        9.205 Tension =       -0.195
 PCM non-electrostatic energy =        -0.0088898200 Hartrees.
 Nuclear repulsion after PCM non-electrostatic terms =      484.2703049941 Hartrees.
 Leave Link  301 at Mon Jul 12 12:46:58 2021, MaxMem=   104857600 cpu:               0.1 elap:               0.1
 (Enter /dades/curu/g16A03_MST/g16/l302.exe)
 NPDir=0 NMtPBC=     1 NCelOv=     1 NCel=       1 NClECP=     1 NCelD=      1
         NCelK=      1 NCelE2=     1 NClLst=     1 CellRange=     0.0.
 One-electron integrals computed using PRISM.
 One-electron integral symmetry used in STVInt
 NBasis=   160 RedAO= T EigKep=  4.80D-04  NBF=   160
 NBsUse=   160 1.00D-06 EigRej= -1.00D+00 NBFU=   160
 Precomputing XC quadrature grid using
 IXCGrd= 4 IRadAn=           5 IRanWt=          -1 IRanGd=           0 AccXCQ= 0.00D+00.
 Generated NRdTot=       0 NPtTot=           0 NUsed=           0 NTot=          32
 NSgBfM=   160   160   160   160   160 MxSgAt=    15 MxSgA2=    15.
 Leave Link  302 at Mon Jul 12 12:46:58 2021, MaxMem=   104857600 cpu:               0.9 elap:               0.3
 (Enter /dades/curu/g16A03_MST/g16/l303.exe)
 DipDrv:  MaxL=1.
 Leave Link  303 at Mon Jul 12 12:46:58 2021, MaxMem=   104857600 cpu:               0.1 elap:               0.0
 (Enter /dades/curu/g16A03_MST/g16/l401.exe)
 Initial guess from the checkpoint file:  "SET_328_BBB299_conf1.geo_000_180.chk"
 B after Tr=    -0.000000   -0.000000   -0.000000
         Rot=    0.999834   -0.001058    0.001831    0.018095 Ang=  -2.09 deg.
 Guess basis will be translated and rotated to current coordinates.
 JPrj=2 DoOrth=T DoCkMO=T.
 Generating alternative initial guess.
 ExpMin= 1.61D-01 ExpMax= 5.48D+03 ExpMxC= 8.25D+02 IAcc=2 IRadAn=         4 AccDes= 0.00D+00
 Harris functional with IExCor=  402 and IRadAn=       4 diagonalized for initial guess.
 HarFok:  IExCor=  402 AccDes= 0.00D+00 IRadAn=         4 IDoV= 1 UseB2=F ITyADJ=14
 ICtDFT=  3500011 ScaDFX=  1.000000  1.000000  1.000000  1.000000
 FoFCou: FMM=F IPFlag=           0 FMFlag=      100000 FMFlg1=           0
         NFxFlg=           0 DoJE=T BraDBF=F KetDBF=T FulRan=T
         wScrn=  0.000000 ICntrl=       500 IOpCl=  0 I1Cent=   200000004 NGrid=           0
         NMat0=    1 NMatS0=      1 NMatT0=    0 NMatD0=    1 NMtDS0=    0 NMtDT0=    0
 Petite list used in FoFCou.
 Harris En= -495.685515750266    
 Leave Link  401 at Mon Jul 12 12:46:59 2021, MaxMem=   104857600 cpu:               3.5 elap:               0.9
 (Enter /dades/curu/g16A03_MST/g16/l502.exe)
 Keep R1 ints in memory in canonical form, NReq=86904867.
 FoFCou: FMM=F IPFlag=           0 FMFlag=           0 FMFlg1=           0
         NFxFlg=           0 DoJE=F BraDBF=F KetDBF=F FulRan=T
         wScrn=  0.000000 ICntrl=       600 IOpCl=  0 I1Cent=           0 NGrid=           0
         NMat0=    1 NMatS0=  12880 NMatT0=    0 NMatD0=    1 NMtDS0=    0 NMtDT0=    0
 Symmetry not used in FoFCou.
 Two-electron integral symmetry not used.
 Closed shell SCF:
 Using DIIS extrapolation, IDIIS=  1040.
 NGot=   104857600 LenX=    21850023 LenY=    21823982
 Requested convergence on RMS density matrix=1.00D-08 within 128 cycles.
 Requested convergence on MAX density matrix=1.00D-06.
 Requested convergence on             energy=1.00D-06.
 No special actions if energy rises.

 Cycle   1  Pass 1  IDiag  1:
 Inv3:  Mode=1 IEnd=     7728075.
 Iteration    1 A*A^-1 deviation from unit magnitude is 3.77D-15 for   1579.
 Iteration    1 A*A^-1 deviation from orthogonality  is 1.97D-15 for   1569   1381.
 Iteration    1 A^-1*A deviation from unit magnitude is 3.55D-15 for   1579.
 Iteration    1 A^-1*A deviation from orthogonality  is 1.80D-15 for   1603   1569.
 E= -495.531702353889    
 DIIS: error= 6.67D-03 at cycle   1 NSaved=   1.
 NSaved= 1 IEnMin= 1 EnMin= -495.531702353889     IErMin= 1 ErrMin= 6.67D-03
 ErrMax= 6.67D-03  0.00D+00 EMaxC= 1.00D-01 BMatC= 1.94D-02 BMatP= 1.94D-02
 IDIUse=3 WtCom= 9.33D-01 WtEn= 6.67D-02
 Coeff-Com:  0.100D+01
 Coeff-En:   0.100D+01
 Coeff:      0.100D+01
 Gap=     1.852 Goal=   None    Shift=    0.000
 GapD=    1.852 DampG=2.000 DampE=1.000 DampFc=2.0000 IDamp=-1.
 RMSDP=2.22D-03 MaxDP=4.12D-02              OVMax= 4.58D-02

 Cycle   2  Pass 1  IDiag  1:
 E= -495.560577441113     Delta-E=       -0.028875087224 Rises=F Damp=F
 DIIS: error= 4.27D-03 at cycle   2 NSaved=   2.
 NSaved= 2 IEnMin= 2 EnMin= -495.560577441113     IErMin= 2 ErrMin= 4.27D-03
 ErrMax= 4.27D-03  0.00D+00 EMaxC= 1.00D-01 BMatC= 1.99D-03 BMatP= 1.94D-02
 IDIUse=3 WtCom= 9.57D-01 WtEn= 4.27D-02
 Coeff-Com:  0.774D-01 0.923D+00
 Coeff-En:   0.000D+00 0.100D+01
 Coeff:      0.741D-01 0.926D+00
 Gap=     0.178 Goal=   None    Shift=    0.000
 RMSDP=7.28D-04 MaxDP=2.40D-02 DE=-2.89D-02 OVMax= 3.68D-02

 Cycle   3  Pass 1  IDiag  1:
 E= -495.557176348551     Delta-E=        0.003401092563 Rises=F Damp=F
 DIIS: error= 8.39D-03 at cycle   3 NSaved=   3.
 NSaved= 3 IEnMin= 2 EnMin= -495.560577441113     IErMin= 2 ErrMin= 4.27D-03
 ErrMax= 8.39D-03  0.00D+00 EMaxC= 1.00D-01 BMatC= 6.62D-03 BMatP= 1.99D-03
 IDIUse=3 WtCom= 9.84D-02 WtEn= 9.02D-01
 Coeff-Com: -0.422D-01 0.674D+00 0.368D+00
 Coeff-En:   0.000D+00 0.716D+00 0.284D+00
 Coeff:     -0.415D-02 0.712D+00 0.292D+00
 Gap=     0.180 Goal=   None    Shift=    0.000
 RMSDP=4.10D-04 MaxDP=1.37D-02 DE= 3.40D-03 OVMax= 2.01D-02

 Cycle   4  Pass 1  IDiag  1:
 E= -495.562064207819     Delta-E=       -0.004887859268 Rises=F Damp=F
 DIIS: error= 1.15D-03 at cycle   4 NSaved=   4.
 NSaved= 4 IEnMin= 4 EnMin= -495.562064207819     IErMin= 4 ErrMin= 1.15D-03
 ErrMax= 1.15D-03  0.00D+00 EMaxC= 1.00D-01 BMatC= 1.79D-04 BMatP= 1.99D-03
 IDIUse=3 WtCom= 9.88D-01 WtEn= 1.15D-02
 Coeff-Com: -0.171D-01 0.222D+00-0.533D-02 0.800D+00
 Coeff-En:   0.000D+00 0.232D-01 0.000D+00 0.977D+00
 Coeff:     -0.169D-01 0.220D+00-0.527D-02 0.802D+00
 Gap=     0.181 Goal=   None    Shift=    0.000
 RMSDP=8.56D-05 MaxDP=2.13D-03 DE=-4.89D-03 OVMax= 3.33D-03

 Cycle   5  Pass 1  IDiag  1:
 E= -495.562193024486     Delta-E=       -0.000128816668 Rises=F Damp=F
 DIIS: error= 2.32D-04 at cycle   5 NSaved=   5.
 NSaved= 5 IEnMin= 5 EnMin= -495.562193024486     IErMin= 5 ErrMin= 2.32D-04
 ErrMax= 2.32D-04  0.00D+00 EMaxC= 1.00D-01 BMatC= 1.23D-05 BMatP= 1.79D-04
 IDIUse=3 WtCom= 9.98D-01 WtEn= 2.32D-03
 Coeff-Com: -0.577D-02 0.617D-01-0.440D-01 0.502D+00 0.486D+00
 Coeff-En:   0.000D+00 0.000D+00 0.000D+00 0.000D+00 0.100D+01
 Coeff:     -0.576D-02 0.616D-01-0.439D-01 0.501D+00 0.487D+00
 Gap=     0.181 Goal=   None    Shift=    0.000
 RMSDP=2.00D-05 MaxDP=7.18D-04 DE=-1.29D-04 OVMax= 7.42D-04

 Cycle   6  Pass 1  IDiag  1:
 E= -495.562202605348     Delta-E=       -0.000009580862 Rises=F Damp=F
 DIIS: error= 2.27D-05 at cycle   6 NSaved=   6.
 NSaved= 6 IEnMin= 6 EnMin= -495.562202605348     IErMin= 6 ErrMin= 2.27D-05
 ErrMax= 2.27D-05  0.00D+00 EMaxC= 1.00D-01 BMatC= 1.29D-07 BMatP= 1.23D-05
 IDIUse=1 WtCom= 1.00D+00 WtEn= 0.00D+00
 Coeff-Com: -0.356D-03 0.282D-03-0.129D-01 0.852D-01 0.137D+00 0.791D+00
 Coeff:     -0.356D-03 0.282D-03-0.129D-01 0.852D-01 0.137D+00 0.791D+00
 Gap=     0.181 Goal=   None    Shift=    0.000
 RMSDP=3.50D-06 MaxDP=7.51D-05 DE=-9.58D-06 OVMax= 1.57D-04

 Cycle   7  Pass 1  IDiag  1:
 E= -495.562202712930     Delta-E=       -0.000000107582 Rises=F Damp=F
 DIIS: error= 9.36D-06 at cycle   7 NSaved=   7.
 NSaved= 7 IEnMin= 7 EnMin= -495.562202712930     IErMin= 7 ErrMin= 9.36D-06
 ErrMax= 9.36D-06  0.00D+00 EMaxC= 1.00D-01 BMatC= 3.43D-08 BMatP= 1.29D-07
 IDIUse=1 WtCom= 1.00D+00 WtEn= 0.00D+00
 Coeff-Com:  0.222D-03-0.463D-02-0.446D-02 0.127D-01 0.407D-01 0.420D+00
 Coeff-Com:  0.535D+00
 Coeff:      0.222D-03-0.463D-02-0.446D-02 0.127D-01 0.407D-01 0.420D+00
 Coeff:      0.535D+00
 Gap=     0.181 Goal=   None    Shift=    0.000
 RMSDP=1.38D-06 MaxDP=3.99D-05 DE=-1.08D-07 OVMax= 9.00D-05

 Cycle   8  Pass 1  IDiag  1:
 E= -495.562202746152     Delta-E=       -0.000000033223 Rises=F Damp=F
 DIIS: error= 3.68D-06 at cycle   8 NSaved=   8.
 NSaved= 8 IEnMin= 8 EnMin= -495.562202746152     IErMin= 8 ErrMin= 3.68D-06
 ErrMax= 3.68D-06  0.00D+00 EMaxC= 1.00D-01 BMatC= 2.33D-09 BMatP= 3.43D-08
 IDIUse=1 WtCom= 1.00D+00 WtEn= 0.00D+00
 Coeff-Com:  0.114D-03-0.176D-02-0.388D-03-0.390D-02 0.200D-03 0.746D-01
 Coeff-Com:  0.235D+00 0.697D+00
 Coeff:      0.114D-03-0.176D-02-0.388D-03-0.390D-02 0.200D-03 0.746D-01
 Coeff:      0.235D+00 0.697D+00
 Gap=     0.181 Goal=   None    Shift=    0.000
 RMSDP=4.83D-07 MaxDP=1.18D-05 DE=-3.32D-08 OVMax= 2.56D-05

 Cycle   9  Pass 1  IDiag  1:
 E= -495.562202748746     Delta-E=       -0.000000002594 Rises=F Damp=F
 DIIS: error= 7.90D-07 at cycle   9 NSaved=   9.
 NSaved= 9 IEnMin= 9 EnMin= -495.562202748746     IErMin= 9 ErrMin= 7.90D-07
 ErrMax= 7.90D-07  0.00D+00 EMaxC= 1.00D-01 BMatC= 2.96D-10 BMatP= 2.33D-09
 IDIUse=1 WtCom= 1.00D+00 WtEn= 0.00D+00
 Coeff-Com:  0.354D-04-0.391D-03 0.216D-03-0.296D-02-0.389D-02-0.751D-02
 Coeff-Com:  0.570D-01 0.328D+00 0.629D+00
 Coeff:      0.354D-04-0.391D-03 0.216D-03-0.296D-02-0.389D-02-0.751D-02
 Coeff:      0.570D-01 0.328D+00 0.629D+00
 Gap=     0.181 Goal=   None    Shift=    0.000
 RMSDP=1.67D-07 MaxDP=4.60D-06 DE=-2.59D-09 OVMax= 7.78D-06

 Cycle  10  Pass 1  IDiag  1:
 E= -495.562202749054     Delta-E=       -0.000000000308 Rises=F Damp=F
 DIIS: error= 3.36D-07 at cycle  10 NSaved=  10.
 NSaved=10 IEnMin=10 EnMin= -495.562202749054     IErMin=10 ErrMin= 3.36D-07
 ErrMax= 3.36D-07  0.00D+00 EMaxC= 1.00D-01 BMatC= 5.12D-11 BMatP= 2.96D-10
 IDIUse=1 WtCom= 1.00D+00 WtEn= 0.00D+00
 Coeff-Com:  0.347D-06 0.821D-04 0.182D-03-0.968D-03-0.219D-02-0.163D-01
 Coeff-Com: -0.388D-02 0.845D-01 0.339D+00 0.600D+00
 Coeff:      0.347D-06 0.821D-04 0.182D-03-0.968D-03-0.219D-02-0.163D-01
 Coeff:     -0.388D-02 0.845D-01 0.339D+00 0.600D+00
 Gap=     0.181 Goal=   None    Shift=    0.000
 RMSDP=6.07D-08 MaxDP=1.98D-06 DE=-3.08D-10 OVMax= 3.30D-06

 Cycle  11  Pass 1  IDiag  1:
 E= -495.562202749094     Delta-E=       -0.000000000040 Rises=F Damp=F
 DIIS: error= 8.73D-08 at cycle  11 NSaved=  11.
 NSaved=11 IEnMin=11 EnMin= -495.562202749094     IErMin=11 ErrMin= 8.73D-08
 ErrMax= 8.73D-08  0.00D+00 EMaxC= 1.00D-01 BMatC= 3.81D-12 BMatP= 5.12D-11
 IDIUse=1 WtCom= 1.00D+00 WtEn= 0.00D+00
 Coeff-Com: -0.269D-05 0.711D-04 0.680D-04-0.205D-03-0.675D-03-0.708D-02
 Coeff-Com: -0.770D-02 0.961D-02 0.964D-01 0.287D+00 0.623D+00
 Coeff:     -0.269D-05 0.711D-04 0.680D-04-0.205D-03-0.675D-03-0.708D-02
[...]

 Cycle  10  Pass 1  IDiag  1:
 RMSU=  2.41D-06    CP:  1.00D+00
 E= -492.673852444075     Delta-E=       -0.000000014382 Rises=F Damp=F
 DIIS: error= 3.34D-06 at cycle   2 NSaved=   2.
 NSaved= 2 IEnMin= 2 EnMin= -492.673852444075     IErMin= 2 ErrMin= 3.34D-06
 ErrMax= 3.34D-06  0.00D+00 EMaxC= 1.00D-01 BMatC= 2.70D-09 BMatP= 6.95D-09
 IDIUse=1 WtCom= 1.00D+00 WtEn= 0.00D+00
 Coeff-Com:  0.307D+00 0.693D+00
 Coeff:      0.307D+00 0.693D+00
 Gap=     0.294 Goal=   None    Shift=    0.000
 RMSDP=7.20D-07 MaxDP=1.65D-05 DE=-1.44D-08 OVMax= 2.63D-05

 Cycle  11  Pass 1  IDiag  1:
 RMSU=  6.95D-07    CP:  1.00D+00  1.03D+00
 E= -492.673852449003     Delta-E=       -0.000000004928 Rises=F Damp=F
 DIIS: error= 2.19D-06 at cycle   3 NSaved=   3.
 NSaved= 3 IEnMin= 3 EnMin= -492.673852449003     IErMin= 3 ErrMin= 2.19D-06
 ErrMax= 2.19D-06  0.00D+00 EMaxC= 1.00D-01 BMatC= 7.44D-10 BMatP= 2.70D-09
 IDIUse=1 WtCom= 1.00D+00 WtEn= 0.00D+00
 Coeff-Com: -0.419D+00-0.148D+00 0.157D+01
 Coeff:     -0.419D+00-0.148D+00 0.157D+01
 Gap=     0.294 Goal=   None    Shift=    0.000
 RMSDP=1.24D-06 MaxDP=3.35D-05 DE=-4.93D-09 OVMax= 4.52D-05

 Cycle  12  Pass 1  IDiag  1:
 RMSU=  4.34D-07    CP:  1.00D+00  1.42D+00  1.97D+00
 E= -492.673852452986     Delta-E=       -0.000000003982 Rises=F Damp=F
 DIIS: error= 8.07D-07 at cycle   4 NSaved=   4.
 NSaved= 4 IEnMin= 4 EnMin= -492.673852452986     IErMin= 4 ErrMin= 8.07D-07
 ErrMax= 8.07D-07  0.00D+00 EMaxC= 1.00D-01 BMatC= 9.36D-11 BMatP= 7.44D-10
 IDIUse=1 WtCom= 1.00D+00 WtEn= 0.00D+00
 Coeff-Com: -0.178D+00-0.137D+00 0.472D+00 0.843D+00
 Coeff:     -0.178D+00-0.137D+00 0.472D+00 0.843D+00
 Gap=     0.294 Goal=   None    Shift=    0.000
 RMSDP=3.34D-07 MaxDP=9.12D-06 DE=-3.98D-09 OVMax= 1.42D-05

 Cycle  13  Pass 1  IDiag  1:
 RMSU=  1.55D-07    CP:  1.00D+00  1.52D+00  2.20D+00  1.23D+00
 E= -492.673852453416     Delta-E=       -0.000000000431 Rises=F Damp=F
 DIIS: error= 3.21D-07 at cycle   5 NSaved=   5.
 NSaved= 5 IEnMin= 5 EnMin= -492.673852453416     IErMin= 5 ErrMin= 3.21D-07
 ErrMax= 3.21D-07  0.00D+00 EMaxC= 1.00D-01 BMatC= 1.42D-11 BMatP= 9.36D-11
 IDIUse=1 WtCom= 1.00D+00 WtEn= 0.00D+00
 Coeff-Com:  0.126D+00 0.769D-01-0.429D+00-0.240D+00 0.147D+01
 Coeff:      0.126D+00 0.769D-01-0.429D+00-0.240D+00 0.147D+01
 Gap=     0.294 Goal=   None    Shift=    0.000
 RMSDP=2.09D-07 MaxDP=6.83D-06 DE=-4.31D-10 OVMax= 8.06D-06

 Cycle  14  Pass 1  IDiag  1:
 RMSU=  6.38D-08    CP:  1.00D+00  1.52D+00  2.35D+00  1.55D+00  1.61D+00
 E= -492.673852453456     Delta-E=       -0.000000000039 Rises=F Damp=F
 DIIS: error= 9.89D-08 at cycle   6 NSaved=   6.
 NSaved= 6 IEnMin= 6 EnMin= -492.673852453456     IErMin= 6 ErrMin= 9.89D-08
 ErrMax= 9.89D-08  0.00D+00 EMaxC= 1.00D-01 BMatC= 2.24D-12 BMatP= 1.42D-11
 IDIUse=1 WtCom= 1.00D+00 WtEn= 0.00D+00
 Coeff-Com:  0.658D-01 0.443D-01-0.207D+00-0.196D+00 0.475D+00 0.817D+00
 Coeff:      0.658D-01 0.443D-01-0.207D+00-0.196D+00 0.475D+00 0.817D+00
 Gap=     0.294 Goal=   None    Shift=    0.000
 RMSDP=4.81D-08 MaxDP=1.36D-06 DE=-3.92D-11 OVMax= 1.96D-06

 Cycle  15  Pass 1  IDiag  1:
 RMSU=  2.56D-08    CP:  1.00D+00  1.52D+00  2.37D+00  1.62D+00  1.75D+00
                    CP:  9.90D-01
 E= -492.673852453490     Delta-E=       -0.000000000034 Rises=F Damp=F
 DIIS: error= 3.75D-08 at cycle   7 NSaved=   7.
 NSaved= 7 IEnMin= 7 EnMin= -492.673852453490     IErMin= 7 ErrMin= 3.75D-08
 ErrMax= 3.75D-08  0.00D+00 EMaxC= 1.00D-01 BMatC= 1.98D-13 BMatP= 2.24D-12
 IDIUse=1 WtCom= 1.00D+00 WtEn= 0.00D+00
 Coeff-Com: -0.266D-01-0.170D-01 0.908D-01 0.564D-01-0.264D+00-0.140D+00
 Coeff-Com:  0.130D+01
 Coeff:     -0.266D-01-0.170D-01 0.908D-01 0.564D-01-0.264D+00-0.140D+00
 Coeff:      0.130D+01
 Gap=     0.294 Goal=   None    Shift=    0.000
 RMSDP=2.19D-08 MaxDP=9.84D-07 DE=-3.40D-11 OVMax= 7.16D-07

 Cycle  16  Pass 1  IDiag  1:
 RMSU=  1.11D-08    CP:  1.00D+00  1.52D+00  2.37D+00  1.62D+00  1.78D+00
                    CP:  1.04D+00  1.43D+00
 E= -492.673852453494     Delta-E=       -0.000000000004 Rises=F Damp=F
 DIIS: error= 1.03D-08 at cycle   8 NSaved=   8.
 NSaved= 8 IEnMin= 8 EnMin= -492.673852453494     IErMin= 8 ErrMin= 1.03D-08
 ErrMax= 1.03D-08  0.00D+00 EMaxC= 1.00D-01 BMatC= 2.63D-14 BMatP= 1.98D-13
 IDIUse=1 WtCom= 1.00D+00 WtEn= 0.00D+00
 Coeff-Com: -0.107D-01-0.768D-02 0.348D-01 0.281D-01-0.789D-01-0.126D+00
 Coeff-Com:  0.133D+00 0.103D+01
 Coeff:     -0.107D-01-0.768D-02 0.348D-01 0.281D-01-0.789D-01-0.126D+00
 Coeff:      0.133D+00 0.103D+01
 Gap=     0.294 Goal=   None    Shift=    0.000
 RMSDP=7.27D-09 MaxDP=2.98D-07 DE=-4.09D-12 OVMax= 2.15D-07

 SCF Done:  E(RHF) =  -492.673852453     A.U. after   16 cycles
            NFock= 16  Conv=0.73D-08     -V/T= 2.0013
 KE= 4.920527188258D+02 PE=-2.138483279466D+03 EE= 6.695035181607D+02
 Leave Link  502 at Mon Jul 12 13:05:33 2021, MaxMem=   262144000 cpu:             550.3 elap:             138.9
 (Enter /dades/curu/g16A03_MST/g16/l801.exe)
 ExpMin= 2.97D-02 ExpMax= 1.17D+04 ExpMxC= 4.01D+02 IAcc=3 IRadAn=         5 AccDes= 0.00D+00
 HarFok:  IExCor=  205 AccDes= 0.00D+00 IRadAn=         5 IDoV=-2 UseB2=F ITyADJ=14
 ICtDFT= 12500011 ScaDFX=  1.000000  1.000000  1.000000  1.000000
 Largest valence mixing into a core orbital is  1.18D-04
 Largest core mixing into a valence orbital is  4.24D-05
 Range of M.O.s used for correlation:    11   275
 NBasis=   275 NAE=    36 NBE=    36 NFC=    10 NFV=     0
 NROrb=    265 NOA=    26 NOB=    26 NVA=   239 NVB=   239

 **** Warning!!: The largest alpha MO coefficient is  0.13142910D+03

 Leave Link  801 at Mon Jul 12 13:05:33 2021, MaxMem=   262144000 cpu:               0.8 elap:               0.2
 (Enter /dades/curu/g16A03_MST/g16/l906.exe)
 FulOut=F Deriv=F AODrv=F NAtomX=    15
   MMem=          33  MDisk=          26 MDiskD=          26
  W3Min=     1833130 MinDsk=     2275006 NBas6D=         295
 NBas2D=       44080    NTT=       43660    LW2=     2000000
    MDV=   261550037 MDiskM=       12219 NBas2p=       43193
 Fully direct method using O(OVN) memory.
 IMap=   1   2   3   4   5   6   7   8   9  10  11  12  13  14  15  16  17  18  19  20
 IMap=  21  22  23  24  25  26
 JobTyp=1 Pass  1:  I=   1 to  26 NPSUse=  4 ParTrn=T ParDer=T DoDerP=F.
 Spin components of T(2) and E(2):
     alpha-alpha T2 =       0.7615304668D-01 E2=     -0.2131545235D+00
     alpha-beta  T2 =       0.3761786586D+00 E2=     -0.1115289806D+01
     beta-beta   T2 =       0.7615304668D-01 E2=     -0.2131545235D+00
 The integrals were generated   1 times.
 ANorm=    0.1236319033D+01
 E2 =    -0.1541598853D+01 EUMP2 =    -0.49421545130661D+03
 Leave Link  906 at Mon Jul 12 13:06:25 2021, MaxMem=   262144000 cpu:             206.0 elap:              51.6
 (Enter /dades/curu/g16A03_MST/g16/l601.exe)
 Copying SCF densities to generalized density rwf, IOpCl= 0 IROHF=0.

 **********************************************************************

            Population analysis using the SCF density.

 **********************************************************************

 Orbital symmetries:
       Occupied  (A) (A) (A) (A) (A) (A) (A) (A) (A) (A) (A) (A)
                 (A) (A) (A) (A) (A) (A) (A) (A) (A) (A) (A) (A)
                 (A) (A) (A) (A) (A) (A) (A) (A) (A) (A) (A) (A)
       Virtual   (A) (A) (A) (A) (A) (A) (A) (A) (A) (A) (A) (A)
                 (A) (A) (A) (A) (A) (A) (A) (A) (A) (A) (A) (A)
                 (A) (A) (A) (A) (A) (A) (A) (A) (A) (A) (A) (A)
                 (A) (A) (A) (A) (A) (A) (A) (A) (A) (A) (A) (A)
                 (A) (A) (A) (A) (A) (A) (A) (A) (A) (A) (A) (A)
                 (A) (A) (A) (A) (A) (A) (A) (A) (A) (A) (A) (A)
                 (A) (A) (A) (A) (A) (A) (A) (A) (A) (A) (A) (A)
                 (A) (A) (A) (A) (A) (A) (A) (A) (A) (A) (A) (A)
                 (A) (A) (A) (A) (A) (A) (A) (A) (A) (A) (A) (A)
                 (A) (A) (A) (A) (A) (A) (A) (A) (A) (A) (A) (A)
                 (A) (A) (A) (A) (A) (A) (A) (A) (A) (A) (A) (A)
                 (A) (A) (A) (A) (A) (A) (A) (A) (A) (A) (A) (A)
                 (A) (A) (A) (A) (A) (A) (A) (A) (A) (A) (A) (A)
                 (A) (A) (A) (A) (A) (A) (A) (A) (A) (A) (A) (A)
                 (A) (A) (A) (A) (A) (A) (A) (A) (A) (A) (A) (A)
                 (A) (A) (A) (A) (A) (A) (A) (A) (A) (A) (A) (A)
                 (A) (A) (A) (A) (A) (A) (A) (A) (A) (A) (A) (A)
                 (A) (A) (A) (A) (A) (A) (A) (A) (A) (A) (A) (A)
                 (A) (A) (A) (A) (A) (A) (A) (A) (A) (A) (A) (A)
                 (A) (A) (A) (A) (A) (A) (A) (A) (A) (A) (A)
 The electronic state is 1-A.
 Alpha  occ. eigenvalues --  -20.47013 -20.30765 -20.30621 -11.18643 -11.15967
 Alpha  occ. eigenvalues --  -11.13275 -11.12017 -11.11151 -11.10803 -11.09751
 Alpha  occ. eigenvalues --   -1.27691  -1.17754  -1.07260  -1.02115  -0.89467
 Alpha  occ. eigenvalues --   -0.87922  -0.71877  -0.70628  -0.60448  -0.59058
 Alpha  occ. eigenvalues --   -0.53337  -0.51339  -0.46939  -0.46355  -0.45899
 Alpha  occ. eigenvalues --   -0.43134  -0.40287  -0.38902  -0.37352  -0.36748
 Alpha  occ. eigenvalues --   -0.34610  -0.22069  -0.21004  -0.20938  -0.19411
 Alpha  occ. eigenvalues --   -0.18626
 Alpha virt. eigenvalues --    0.10763   0.11530   0.12634   0.14807   0.16021
 Alpha virt. eigenvalues --    0.20825   0.21122   0.21443   0.21795   0.22443
 Alpha virt. eigenvalues --    0.22574   0.22797   0.23301   0.24146   0.24664
 Alpha virt. eigenvalues --    0.25091   0.25502   0.26166   0.27117   0.28305
 Alpha virt. eigenvalues --    0.28356   0.29089   0.29838   0.30047   0.31409
 Alpha virt. eigenvalues --    0.32055   0.33613   0.33782   0.34897   0.36220
 Alpha virt. eigenvalues --    0.38587   0.40268   0.40716   0.41086   0.41768
 Alpha virt. eigenvalues --    0.43286   0.43381   0.44138   0.44247   0.44881
 Alpha virt. eigenvalues --    0.46175   0.46575   0.48204   0.48808   0.48920
 Alpha virt. eigenvalues --    0.49566   0.49655   0.50349   0.51224   0.52752
 Alpha virt. eigenvalues --    0.53060   0.54311   0.55301   0.55353   0.56892
 Alpha virt. eigenvalues --    0.58128   0.58592   0.60083   0.60343   0.60961
 Alpha virt. eigenvalues --    0.61227   0.64791   0.66063   0.66605   0.67833
 Alpha virt. eigenvalues --    0.69315   0.71027   0.71281   0.71562   0.72473
 Alpha virt. eigenvalues --    0.73080   0.74125   0.75942   0.77483   0.78623
 Alpha virt. eigenvalues --    0.78639   0.78990   0.80411   0.80883   0.81822
 Alpha virt. eigenvalues --    0.82410   0.83138   0.83150   0.85565   0.86739
 Alpha virt. eigenvalues --    0.86878   0.87342   0.88909   0.91579   0.92336
 Alpha virt. eigenvalues --    0.94165   0.96605   0.96998   0.97473   0.98588
 Alpha virt. eigenvalues --    0.99922   1.01386   1.02877   1.03925   1.04845
 Alpha virt. eigenvalues --    1.05026   1.06172   1.06873   1.08020   1.09290
 Alpha virt. eigenvalues --    1.10511   1.11001   1.11916   1.12074   1.13209
 Alpha virt. eigenvalues --    1.14788   1.17294   1.18509   1.19276   1.20445
 Alpha virt. eigenvalues --    1.21426   1.22110   1.25167   1.27771   1.29752
 Alpha virt. eigenvalues --    1.30301   1.34163   1.36786   1.37498   1.38444
 Alpha virt. eigenvalues --    1.41128   1.43563   1.44949   1.45916   1.51175
 Alpha virt. eigenvalues --    1.52964   1.55573   1.57015   1.58459   1.58713
 Alpha virt. eigenvalues --    1.61783   1.63103   1.63483   1.64588   1.64717
 Alpha virt. eigenvalues --    1.66336   1.67372   1.69657   1.70791   1.71444
 Alpha virt. eigenvalues --    1.73424   1.75127   1.77473   1.80140   1.80832
 Alpha virt. eigenvalues --    1.82643   1.83550   1.84026   1.86610   1.87292
 Alpha virt. eigenvalues --    1.88080   1.89157   1.90845   1.94621   1.94975
 Alpha virt. eigenvalues --    1.96858   1.99093   2.00393   2.03599   2.05536
 Alpha virt. eigenvalues --    2.06192   2.06794   2.07009   2.08533   2.09301
 Alpha virt. eigenvalues --    2.10634   2.12570   2.13150   2.17107   2.17520
 Alpha virt. eigenvalues --    2.21662   2.22080   2.24087   2.25923   2.26045
 Alpha virt. eigenvalues --    2.29302   2.30524   2.34700   2.35406   2.36152
 Alpha virt. eigenvalues --    2.37325   2.39610   2.42873   2.44311   2.45773
 Alpha virt. eigenvalues --    2.46575   2.48356   2.48679   2.48873   2.50878
 Alpha virt. eigenvalues --    2.54442   2.58113   2.59987   2.64076   2.71179
 Alpha virt. eigenvalues --    2.74376   2.74704   2.77329   2.85033   2.90831
 Alpha virt. eigenvalues --    2.93011   2.93530   2.98769   3.07472   3.09803
 Alpha virt. eigenvalues --    3.12483   3.14772   3.22084   3.28780   3.33782
 Alpha virt. eigenvalues --    3.39341   3.41217   3.45407   3.48156   3.52348
 Alpha virt. eigenvalues --    3.74229   3.77682   3.87944   3.89998   3.92036
 Alpha virt. eigenvalues --    3.96046   3.99621   4.01191   4.03403   4.05645
 Alpha virt. eigenvalues --    4.08832   4.13026   4.16581   4.17079   4.23257
 Alpha virt. eigenvalues --    4.37678   4.42990   4.55559   4.84549
          Condensed to atoms (all electrons):
               1          2          3          4          5          6
     1  O    8.913085   0.241850  -0.113955   0.060668   0.118367  -0.074613
     2  C    0.241850   7.202121   0.141153  -0.890698  -0.514953  -0.015723
     3  O   -0.113955   0.141153   9.007583   0.082476  -0.029390  -0.009153
     4  C    0.060668  -0.890698   0.082476  11.297753  -2.993713   0.225057
     5  C    0.118367  -0.514953  -0.029390  -2.993713  13.729837  -0.863343
     6  O   -0.074613  -0.015723  -0.009153   0.225057  -0.863343   9.157452
     7  H    0.012416   0.006733   0.002019   0.068379  -0.017842   0.288677
     8  C   -0.085421  -0.219599  -0.024368   1.445529  -5.017571   0.471990
     9  H   -0.000397   0.012696  -0.000186  -0.215176   0.935116  -0.140993
    10  C   -0.014791   0.236812  -0.003518  -2.349484   1.962944  -0.154494
    11  H   -0.000074  -0.008663   0.000219   0.057285  -0.124941  -0.001526
    12  C   -0.011973  -0.398542  -0.132236   1.305520  -3.086047   0.138464
    13  H    0.000561   0.009904   0.000853  -0.055509   0.078250   0.001986
    14  C   -0.111578  -0.771599   0.104521  -3.138538   0.961725  -0.087210
    15  H    0.002399   0.112202  -0.041506   0.519603  -0.130600  -0.000028
               7          8          9         10         11         12
     1  O    0.012416  -0.085421  -0.000397  -0.014791  -0.000074  -0.011973
     2  C    0.006733  -0.219599   0.012696   0.236812  -0.008663  -0.398542
     3  O    0.002019  -0.024368  -0.000186  -0.003518   0.000219  -0.132236
     4  C    0.068379   1.445529  -0.215176  -2.349484   0.057285   1.305520
     5  C   -0.017842  -5.017571   0.935116   1.962944  -0.124941  -3.086047
     6  O    0.288677   0.471990  -0.140993  -0.154494  -0.001526   0.138464
     7  H    0.611248  -0.170759   0.002266   0.011179  -0.001985  -0.011545
     8  C   -0.170759  12.923116  -1.146530  -2.611050   0.424594   3.202861
     9  H    0.002266  -1.146530   1.994713   0.407555  -0.064293  -0.291140
    10  C    0.011179  -2.611050   0.407555   9.071803  -0.648510  -2.640284
    11  H   -0.001985   0.424594  -0.064293  -0.648510   1.649790   0.391097
    12  C   -0.011545   3.202861  -0.291140  -2.640284   0.391097  11.512192
    13  H    0.000414  -0.197924  -0.019469   0.259015  -0.052747  -0.810148
    14  C    0.024222  -3.822076   0.184118   2.363098  -0.150501  -3.717337
    15  H   -0.002558   0.129232   0.012781  -0.143051  -0.012513   0.302567
              13         14         15
     1  O    0.000561  -0.111578   0.002399
     2  C    0.009904  -0.771599   0.112202
     3  O    0.000853   0.104521  -0.041506
     4  C   -0.055509  -3.138538   0.519603
     5  C    0.078250   0.961725  -0.130600
     6  O    0.001986  -0.087210  -0.000028
     7  H    0.000414   0.024222  -0.002558
     8  C   -0.197924  -3.822076   0.129232
     9  H   -0.019469   0.184118   0.012781
    10  C    0.259015   2.363098  -0.143051
    11  H   -0.052747  -0.150501  -0.012513
    12  C   -0.810148  -3.717337   0.302567
    13  H    1.670032   0.650593  -0.079814
    14  C    0.650593  14.159270  -0.925711
    15  H   -0.079814  -0.925711   1.895862
 Mulliken charges:
               1
     1  O   -0.936546
     2  C    0.856304
     3  O   -0.984512
     4  C    0.580848
     5  C    0.992160
     6  O   -0.936543
     7  H    0.177136
     8  C    0.697977
     9  H   -0.671061
    10  C    0.252775
    11  H   -0.457231
    12  C    0.246549
    13  H   -0.455995
    14  C    0.277003
    15  H   -0.638865
 Sum of Mulliken charges =  -1.00000
 Mulliken charges with hydrogens summed into heavy atoms:
               1
     1  O   -0.936546
     2  C    0.856304
     3  O   -0.984512
     4  C    0.580848
     5  C    0.992160
     6  O   -0.759407
     8  C    0.026916
    10  C   -0.204457
    12  C   -0.209446
    14  C   -0.361862
 Electronic spatial extent (au):  <R**2>=           1379.3369
 Charge=             -1.0000 electrons
 Dipole moment (field-independent basis, Debye):
    X=             11.2499    Y=              1.9246    Z=             -0.0000  Tot=             11.4134
 Quadrupole moment (field-independent basis, Debye-Ang):
   XX=            -91.7942   YY=            -64.1046   ZZ=            -63.4357
   XY=              0.8542   XZ=             -0.0017   YZ=             -0.0028
 Traceless Quadrupole moment (field-independent basis, Debye-Ang):
   XX=            -18.6827   YY=              9.0069   ZZ=              9.6758
   XY=              0.8542   XZ=             -0.0017   YZ=             -0.0028
 Octapole moment (field-independent basis, Debye-Ang**2):
  XXX=             72.7132  YYY=             31.1776  ZZZ=             -0.0009  XYY=             30.3882
  XXY=             14.4428  XXZ=              0.0012  XZZ=            -11.2725  YZZ=              4.9526
  YYZ=             -0.0037  XYZ=              0.0031
 Hexadecapole moment (field-independent basis, Debye-Ang**3):
 XXXX=          -1365.3443 YYYY=           -561.1277 ZZZZ=            -73.8243 XXXY=            -16.1189
 XXXZ=             -0.0137 YYYX=             12.9958 YYYZ=             -0.0206 ZZZX=              0.0011
 ZZZY=              0.0006 XXYY=           -346.2958 XXZZ=           -223.2974 YYZZ=           -126.2113
 XXYZ=             -0.0051 YYXZ=             -0.0036 ZZXY=              3.8229
 N-N= 4.842531900260D+02 E-N=-2.138483280966D+03  KE= 4.920527188258D+02
 Leave Link  601 at Mon Jul 12 13:06:25 2021, MaxMem=   262144000 cpu:               0.2 elap:               0.1
 (Enter /dades/curu/g16A03_MST/g16/l9999.exe)
 1\1\GINC-PIRINEUS23\SP\RMP2-FC\Aug-CC-pVDZ\C7H5O3(1-)\UBATOR02\12-Jul-
 2021\0\\#p mp2/aug-cc-pVDZ scf=tight maxdisk=180GB geom=allcheck\\SET_
 328_BBB299_conf1.geo_000_180 geometry\\-1,1\O,0,-2.1360255574,-1.34434
 366,1.6645208986\C,0,-1.306161426,-1.7185134786,0.7956952868\O,0,-1.15
 87066522,-2.9003030086,0.3690182403\C,0,-0.3713913865,-0.6684751489,0.
 1761511088\C,0,-0.3520393885,0.7083407157,0.4937023186\O,0,-1.21231393
 04,1.2192806287,1.4242104775\H,0,-1.0423206126,2.1747363247,1.49746702
 8\C,0,0.5570181874,1.5656808608,-0.1491550313\H,0,0.5579026196,2.62268
 67203,0.108062542\C,0,1.4492401066,1.084211831,-1.102503755\H,0,2.1408
 135341,1.7692894294,-1.5836574258\C,0,1.4457124141,-0.2718136164,-1.42
 96908608\H,0,2.1345734404,-0.6643551139,-2.1707565362\C,0,0.5422113083
 ,-1.1142238249,-0.7885485443\H,0,0.5044873433,-2.1731986592,-1.0115157
 473\\Version=ES64L-G16RevA.03\State=1-A\HF=-492.6738525\MP2=-494.21545
 13\RMSD=7.274e-09\PG=C01 [X(C7H5O3)]\\@


 ERWIN WITH HIS PSI CAN DO
 CALCULATIONS QUITE A FEW.
 BUT ONE THING HAS NOT BEEN SEEN
 JUST WHAT DOES PSI REALLY MEAN.
 -- WALTER HUCKEL, TRANS. BY FELIX BLOCH
 Job cpu time:       0 days  0 hours 12 minutes 49.2 seconds.
 Elapsed time:       0 days  0 hours  3 minutes 14.1 seconds.
 File lengths (MBytes):  RWF=     46 Int=      0 D2E=      0 Chk=      9 Scr=      1
 Normal termination of Gaussian 16 at Mon Jul 12 13:06:25 2021.
