 Entering Gaussian System, Link 0=g16
 Input=SET_328_BBB299_conf1.geo_180_000_OCTANOL.dat
 Output=SET_328_BBB299_conf1.geo_180_000_OCTANOL.log
 Initial command:
 /dades/curu/g16A03_MST/g16/l1.exe "/tmp/ubator02/1835308/Gau-2860.inp" -scrdir="/tmp/ubator02/1835308/"
 Entering Link 1 = /dades/curu/g16A03_MST/g16/l1.exe PID=      2865.
  
 Copyright (c) 1988,1990,1992,1993,1995,1998,2003,2009,2016,
            Gaussian, Inc.  All Rights Reserved.
  
 This is part of the Gaussian(R) 16 program.  It is based on
 the Gaussian(R) 09 system (copyright 2009, Gaussian, Inc.),
 the Gaussian(R) 03 system (copyright 2003, Gaussian, Inc.),
 the Gaussian(R) 98 system (copyright 1998, Gaussian, Inc.),
 the Gaussian(R) 94 system (copyright 1995, Gaussian, Inc.),
 the Gaussian 92(TM) system (copyright 1992, Gaussian, Inc.),
 the Gaussian 90(TM) system (copyright 1990, Gaussian, Inc.),
 the Gaussian 88(TM) system (copyright 1988, Gaussian, Inc.),
 the Gaussian 86(TM) system (copyright 1986, Carnegie Mellon
 University), and the Gaussian 82(TM) system (copyright 1983,
 Carnegie Mellon University). Gaussian is a federally registered
 trademark of Gaussian, Inc.
  
 This software contains proprietary and confidential information,
 including trade secrets, belonging to Gaussian, Inc.
  
 This software is provided under written license and may be
 used, copied, transmitted, or stored only in accord with that
 written license.
  
 The following legend is applicable only to US Government
 contracts under FAR:
  
                    RESTRICTED RIGHTS LEGEND
  
 Use, reproduction and disclosure by the US Government is
 subject to restrictions as set forth in subparagraphs (a)
 and (c) of the Commercial Computer Software - Restricted
 Rights clause in FAR 52.227-19.
  
 Gaussian, Inc.
 340 Quinnipiac St., Bldg. 40, Wallingford CT 06492
  
  
 ---------------------------------------------------------------
 Warning -- This program may not be used in any manner that
 competes with the business of Gaussian, Inc. or will provide
 assistance to any competitor of Gaussian, Inc.  The licensee
 of this program is prohibited from giving any competitor of
 Gaussian, Inc. access to this program.  By using this program,
 the user acknowledges that Gaussian, Inc. is engaged in the
 business of creating and licensing software in the field of
 computational chemistry and represents and warrants to the
 licensee that it is not a competitor of Gaussian, Inc. and that
 it will not use this program in any manner prohibited above.
 ---------------------------------------------------------------
  

 Cite this work as:
 Gaussian 16, Revision A.03,
 M. J. Frisch, G. W. Trucks, H. B. Schlegel, G. E. Scuseria, 
 M. A. Robb, J. R. Cheeseman, G. Scalmani, V. Barone, 
 G. A. Petersson, H. Nakatsuji, X. Li, M. Caricato, A. V. Marenich, 
 J. Bloino, B. G. Janesko, R. Gomperts, B. Mennucci, H. P. Hratchian, 
 J. V. Ortiz, A. F. Izmaylov, J. L. Sonnenberg, D. Williams-Young, 
 F. Ding, F. Lipparini, F. Egidi, J. Goings, B. Peng, A. Petrone, 
 T. Henderson, D. Ranasinghe, V. G. Zakrzewski, J. Gao, N. Rega, 
 G. Zheng, W. Liang, M. Hada, M. Ehara, K. Toyota, R. Fukuda, 
 J. Hasegawa, M. Ishida, T. Nakajima, Y. Honda, O. Kitao, H. Nakai, 
 T. Vreven, K. Throssell, J. A. Montgomery, Jr., J. E. Peralta, 
 F. Ogliaro, M. J. Bearpark, J. J. Heyd, E. N. Brothers, K. N. Kudin, 
 V. N. Staroverov, T. A. Keith, R. Kobayashi, J. Normand, 
 K. Raghavachari, A. P. Rendell, J. C. Burant, S. S. Iyengar, 
 J. Tomasi, M. Cossi, J. M. Millam, M. Klene, C. Adamo, R. Cammi, 
 J. W. Ochterski, R. L. Martin, K. Morokuma, O. Farkas, 
 J. B. Foresman, and D. J. Fox, Gaussian, Inc., Wallingford CT, 2016.
 
 ******************************************
 Gaussian 16:  ES64L-G16RevA.03 25-Dec-2016
                12-Jul-2021 
 ******************************************
 %mem=800MB
 %nproc=4
 Will use up to    4 processors via shared memory.
 %chk=SET_328_BBB299_conf1.geo_180_000.chk
 ---------------------------------------------------------------
 #p b3lyp/6-31G(d) opt freq scrf=(iefpcm,read,solvent=n-octanol)
 ---------------------------------------------------------------
 1/18=20,19=15,26=3,38=1,40=2/1,3;
 2/9=110,12=2,17=6,18=5,40=1/2;
 3/5=1,6=6,7=1,11=2,25=1,30=1,70=2203,71=1,72=25,74=-5/1,2,3;
 4//1;
 5/5=2,38=5,53=25/2;
 6/7=2,8=2,9=2,10=2,28=1/1;
 7//1,2,3,16;
 1/18=20,19=15,26=3/3(2);
 2/9=110/2;
 99//99;
 2/9=110/2;
 3/5=1,6=6,7=1,11=2,25=1,30=1,70=2205,71=1,72=25,74=-5/1,2,3;
 4/5=5,16=3,69=1/1;
 5/5=2,38=5,53=25/2;
 7//1,2,3,16;
 1/18=20,19=15,26=3/3(-5);
 2/9=110/2;
 6/7=2,8=2,9=2,10=2,19=2,28=1/1;
 99/9=1/99;
 Leave Link    1 at Mon Jul 12 12:45:59 2021, MaxMem=   104857600 cpu:               0.0 elap:               0.0
 (Enter /dades/curu/g16A03_MST/g16/l101.exe)
 -----------------------------------------
 SET_328_BBB299_conf1.geo_180_000 geometry
 -----------------------------------------
 Symbolic Z-matrix:
 Charge = -1 Multiplicity = 1
 O                    -1.161    -0.887    -2.407 
 C                    -1.43     -0.752    -1.192 
 O                    -2.47     -1.164    -0.746 
 C                    -0.344    -0.137    -0.357 
 C                    -0.528     0.063     0.999 
 O                    -1.637    -0.419     1.596 
 H                    -2.17     -0.869     0.917 
 C                     0.446     0.632     1.8 
 H                     0.293     0.83      2.858 
 C                     1.746     0.844     1.248 
 H                     2.617     1.135     1.83 
 C                     1.94      0.632    -0.163 
 H                     2.877     0.74     -0.702 
 C                     0.848     0.303    -0.933 
 H                     0.983     0.278    -2.011 
 
 ITRead=  0  0  0  0  0  0  0  0  0  0  0  0  0  0  0
 MicOpt= -1 -1 -1 -1 -1 -1 -1 -1 -1 -1 -1 -1 -1 -1 -1
 NAtoms=     15 NQM=       15 NQMF=       0 NMMI=      0 NMMIF=      0
                NMic=       0 NMicF=      0.
                    Isotopes and Nuclear Properties:
 (Nuclear quadrupole moments (NQMom) in fm**2, nuclear magnetic moments (NMagM)
  in nuclear magnetons)

  Atom         1           2           3           4           5           6           7           8           9          10
 IAtWgt=          16          12          16          12          12          16           1          12           1          12
 AtmWgt=  15.9949146  12.0000000  15.9949146  12.0000000  12.0000000  15.9949146   1.0078250  12.0000000   1.0078250  12.0000000
 NucSpn=           0           0           0           0           0           0           1           0           1           0
 AtZEff=  -0.0000000  -0.0000000  -0.0000000  -0.0000000  -0.0000000  -0.0000000  -0.0000000  -0.0000000  -0.0000000  -0.0000000
 NQMom=    0.0000000   0.0000000   0.0000000   0.0000000   0.0000000   0.0000000   0.0000000   0.0000000   0.0000000   0.0000000
 NMagM=    0.0000000   0.0000000   0.0000000   0.0000000   0.0000000   0.0000000   2.7928460   0.0000000   2.7928460   0.0000000
 AtZNuc=   8.0000000   6.0000000   8.0000000   6.0000000   6.0000000   8.0000000   1.0000000   6.0000000   1.0000000   6.0000000

  Atom        11          12          13          14          15
 IAtWgt=           1          12           1          12           1
 AtmWgt=   1.0078250  12.0000000   1.0078250  12.0000000   1.0078250
 NucSpn=           1           0           1           0           1
 AtZEff=  -0.0000000  -0.0000000  -0.0000000  -0.0000000  -0.0000000
 NQMom=    0.0000000   0.0000000   0.0000000   0.0000000   0.0000000
 NMagM=    2.7928460   0.0000000   2.7928460   0.0000000   2.7928460
 AtZNuc=   1.0000000   6.0000000   1.0000000   6.0000000   1.0000000
 Leave Link  101 at Mon Jul 12 12:46:00 2021, MaxMem=   104857600 cpu:               0.1 elap:               0.1
 (Enter /dades/curu/g16A03_MST/g16/l103.exe)

 GradGradGradGradGradGradGradGradGradGradGradGradGradGradGradGradGradGrad
 Berny optimization.
 Initialization pass.
                           ----------------------------
                           !    Initial Parameters    !
                           ! (Angstroms and Degrees)  !
 --------------------------                            --------------------------
 ! Name  Definition              Value          Derivative Info.                !
 --------------------------------------------------------------------------------
 ! R1    R(1,2)                  1.2517         estimate D2E/DX2                !
 ! R2    R(2,3)                  1.2043         estimate D2E/DX2                !
 ! R3    R(2,4)                  1.5016         estimate D2E/DX2                !
 ! R4    R(4,5)                  1.383          estimate D2E/DX2                !
 ! R5    R(4,14)                 1.3951         estimate D2E/DX2                !
 ! R6    R(5,6)                  1.3486         estimate D2E/DX2                !
 ! R7    R(5,8)                  1.3835         estimate D2E/DX2                !
 ! R8    R(6,7)                  0.9735         estimate D2E/DX2                !
 ! R9    R(8,9)                  1.0872         estimate D2E/DX2                !
 ! R10   R(8,10)                 1.4282         estimate D2E/DX2                !
 ! R11   R(10,11)                1.0872         estimate D2E/DX2                !
 ! R12   R(10,12)                1.44           estimate D2E/DX2                !
 ! R13   R(12,13)                1.0863         estimate D2E/DX2                !
 ! R14   R(12,14)                1.3761         estimate D2E/DX2                !
 ! R15   R(14,15)                1.0867         estimate D2E/DX2                !
 ! A1    A(1,2,3)              120.5424         estimate D2E/DX2                !
 ! A2    A(1,2,4)              115.3726         estimate D2E/DX2                !
 ! A3    A(3,2,4)              123.9693         estimate D2E/DX2                !
 ! A4    A(2,4,5)              120.5462         estimate D2E/DX2                !
 ! A5    A(2,4,14)             121.1666         estimate D2E/DX2                !
 ! A6    A(5,4,14)             118.2226         estimate D2E/DX2                !
 ! A7    A(4,5,6)              119.4581         estimate D2E/DX2                !
 ! A8    A(4,5,8)              122.2418         estimate D2E/DX2                !
 ! A9    A(6,5,8)              118.0114         estimate D2E/DX2                !
 ! A10   A(5,6,7)              107.8608         estimate D2E/DX2                !
 ! A11   A(5,8,9)              122.6329         estimate D2E/DX2                !
 ! A12   A(5,8,10)             118.5622         estimate D2E/DX2                !
 ! A13   A(9,8,10)             118.5027         estimate D2E/DX2                !
 ! A14   A(8,10,11)            124.1985         estimate D2E/DX2                !
 ! A15   A(8,10,12)            118.6538         estimate D2E/DX2                !
 ! A16   A(11,10,12)           117.1303         estimate D2E/DX2                !
 ! A17   A(10,12,13)           125.9971         estimate D2E/DX2                !
 ! A18   A(10,12,14)           118.463          estimate D2E/DX2                !
 ! A19   A(13,12,14)           115.5056         estimate D2E/DX2                !
 ! A20   A(4,14,12)            121.4945         estimate D2E/DX2                !
 ! A21   A(4,14,15)            120.5614         estimate D2E/DX2                !
 ! A22   A(12,14,15)           117.5158         estimate D2E/DX2                !
 ! D1    D(1,2,4,5)            179.931          estimate D2E/DX2                !
 ! D2    D(1,2,4,14)             2.9072         estimate D2E/DX2                !
 ! D3    D(3,2,4,5)             -3.9723         estimate D2E/DX2                !
 ! D4    D(3,2,4,14)           179.0038         estimate D2E/DX2                !
 ! D5    D(2,4,5,6)              6.6019         estimate D2E/DX2                !
 ! D6    D(2,4,5,8)           -179.6955         estimate D2E/DX2                !
 ! D7    D(14,4,5,6)          -176.2882         estimate D2E/DX2                !
 ! D8    D(14,4,5,8)            -2.5856         estimate D2E/DX2                !
 ! D9    D(2,4,14,12)         -167.6096         estimate D2E/DX2                !
 ! D10   D(2,4,14,15)            4.692          estimate D2E/DX2                !
 ! D11   D(5,4,14,12)           15.2993         estimate D2E/DX2                !
 ! D12   D(5,4,14,15)         -172.3991         estimate D2E/DX2                !
 ! D13   D(4,5,6,7)              0.1696         estimate D2E/DX2                !
 ! D14   D(8,5,6,7)           -173.7982         estimate D2E/DX2                !
 ! D15   D(4,5,8,9)            177.3942         estimate D2E/DX2                !
 ! D16   D(4,5,8,10)            -9.0189         estimate D2E/DX2                !
 ! D17   D(6,5,8,9)             -8.8163         estimate D2E/DX2                !
 ! D18   D(6,5,8,10)           164.7706         estimate D2E/DX2                !
 ! D19   D(5,8,10,11)         -169.9496         estimate D2E/DX2                !
 ! D20   D(5,8,10,12)            8.4901         estimate D2E/DX2                !
 ! D21   D(9,8,10,11)            3.9058         estimate D2E/DX2                !
 ! D22   D(9,8,10,12)         -177.6545         estimate D2E/DX2                !
 ! D23   D(8,10,12,13)        -178.8193         estimate D2E/DX2                !
 ! D24   D(8,10,12,14)           3.4156         estimate D2E/DX2                !
 ! D25   D(11,10,12,13)         -0.2694         estimate D2E/DX2                !
 ! D26   D(11,10,12,14)       -178.0345         estimate D2E/DX2                !
 ! D27   D(10,12,14,4)         -15.5358         estimate D2E/DX2                !
 ! D28   D(10,12,14,15)        171.9373         estimate D2E/DX2                !
 ! D29   D(13,12,14,4)         166.4675         estimate D2E/DX2                !
 ! D30   D(13,12,14,15)         -6.0594         estimate D2E/DX2                !
 --------------------------------------------------------------------------------
 Trust Radius=3.00D-01 FncErr=1.00D-07 GrdErr=1.00D-06 EigMax=2.50D+02 EigMin=1.00D-04
 Number of steps in this run=     77 maximum allowed number of steps=    100.
 GradGradGradGradGradGradGradGradGradGradGradGradGradGradGradGradGradGrad

 Leave Link  103 at Mon Jul 12 12:46:00 2021, MaxMem=   104857600 cpu:               0.0 elap:               0.0
 (Enter /dades/curu/g16A03_MST/g16/l202.exe)
                          Input orientation:                          
 ---------------------------------------------------------------------
 Center     Atomic      Atomic             Coordinates (Angstroms)
 Number     Number       Type             X           Y           Z
 ---------------------------------------------------------------------
      1          8           0       -1.161000   -0.887000   -2.407000
      2          6           0       -1.430000   -0.752000   -1.192000
      3          8           0       -2.470000   -1.164000   -0.746000
      4          6           0       -0.344000   -0.137000   -0.357000
      5          6           0       -0.528000    0.063000    0.999000
      6          8           0       -1.637000   -0.419000    1.596000
      7          1           0       -2.170000   -0.869000    0.917000
      8          6           0        0.446000    0.632000    1.800000
      9          1           0        0.293000    0.830000    2.858000
     10          6           0        1.746000    0.844000    1.248000
     11          1           0        2.617000    1.135000    1.830000
     12          6           0        1.940000    0.632000   -0.163000
     13          1           0        2.877000    0.740000   -0.702000
     14          6           0        0.848000    0.303000   -0.933000
     15          1           0        0.983000    0.278000   -2.011000
 ---------------------------------------------------------------------
                    Distance matrix (angstroms):
                    1          2          3          4          5
     1  O    0.000000
     2  C    1.251723   0.000000
     3  O    2.132869   1.204267   0.000000
     4  C    2.330770   1.501614   2.392891   0.000000
     5  C    3.592217   2.505656   2.884773   1.382965   0.000000
     6  O    4.058277   2.815436   2.594972   2.359149   1.348560
     7  H    3.473814   2.238118   1.715399   2.343753   1.889844
     8  C    4.752753   3.793006   4.267410   2.422418   1.383488
     9  H    5.725594   4.676960   4.959740   3.417175   2.172144
    10  C    4.980566   4.311356   5.077672   2.811847   2.417238
    11  H    6.026105   5.391796   6.148068   3.894673   3.425021
    12  C    4.118143   3.785657   4.797250   2.417779   2.786580
    13  H    4.675425   4.584366   5.676052   3.356039   3.865974
    14  C    2.761314   2.523765   3.632655   1.395077   2.384030
    15  H    2.471999   2.748496   3.950038   2.160757   3.374825
                    6          7          8          9         10
     6  O    0.000000
     7  H    0.973463   0.000000
     8  C    2.342030   3.142634   0.000000
     9  H    2.622507   3.566574   1.087188   0.000000
    10  C    3.627804   4.287072   1.428162   2.168757   0.000000
    11  H    4.534996   5.269246   2.228710   2.559450   1.087219
    12  C    4.122331   4.506828   2.466861   3.446484   1.439966
    13  H    5.196179   5.539156   3.490190   4.399859   2.256652
    14  C    3.618335   3.728861   2.781930   3.867484   2.419886
    15  H    4.512279   4.453111   3.864894   4.948532   3.394644
                   11         12         13         14         15
    11  H    0.000000
    12  C    2.164113   0.000000
    13  H    2.575781   1.086349   0.000000
    14  C    3.384635   1.376083   2.088342   0.000000
    15  H    4.261184   2.110988   2.348225   1.086708   0.000000
 Stoichiometry    C7H5O3(1-)
 Framework group  C1[X(C7H5O3)]
 Deg. of freedom    39
 Full point group                 C1      NOp   1
 Largest Abelian subgroup         C1      NOp   1
 Largest concise Abelian subgroup C1      NOp   1
                         Standard orientation:                         
 ---------------------------------------------------------------------
 Center     Atomic      Atomic             Coordinates (Angstroms)
 Number     Number       Type             X           Y           Z
 ---------------------------------------------------------------------
      1          8           0       -2.206336   -1.476992    0.007256
      2          6           0       -1.718899   -0.324307   -0.015848
      3          8           0       -2.432035    0.643297    0.057901
      4          6           0       -0.219031   -0.260514   -0.050111
      5          6           0        0.432116    0.959225   -0.079024
      6          8           0       -0.281326    2.095306    0.058580
      7          1           0       -1.216819    1.849055    0.167410
      8          6           0        1.811486    1.058805   -0.117237
      9          1           0        2.328847    2.012827   -0.181711
     10          6           0        2.587040   -0.125803    0.069494
     11          1           0        3.664676   -0.134342    0.213274
     12          6           0        1.909874   -1.396139    0.104067
     13          1           0        2.377226   -2.364865    0.256732
     14          6           0        0.551684   -1.421523   -0.115657
     15          1           0        0.078027   -2.394024   -0.219709
 ---------------------------------------------------------------------
 Rotational constants (GHZ):           2.4537395           1.2448662           0.8284484
 Leave Link  202 at Mon Jul 12 12:46:00 2021, MaxMem=   104857600 cpu:               0.0 elap:               0.0
 (Enter /dades/curu/g16A03_MST/g16/l301.exe)
 Standard basis: 6-31G(d) (6D, 7F)
 Ernie: Thresh=  0.10000D-02 Tol=  0.10000D-05 Strict=F.
 There are   160 symmetry adapted cartesian basis functions of A   symmetry.
 There are   160 symmetry adapted basis functions of A   symmetry.
   160 basis functions,   300 primitive gaussians,   160 cartesian basis functions
    36 alpha electrons       36 beta electrons
       nuclear repulsion energy       492.5615940169 Hartrees.
 IExCor=  402 DFT=T Ex+Corr=B3LYP ExCW=0 ScaHFX=  0.200000
 ScaDFX=  0.800000  0.720000  1.000000  0.810000 ScalE2=  1.000000  1.000000
 IRadAn=      5 IRanWt=     -1 IRanGd=            0 ICorTp=0 IEmpDi=  4
 NAtoms=   15 NActive=   15 NUniq=   15 SFac= 1.00D+00 NAtFMM=   60 NAOKFM=F Big=F
 Integral buffers will be    131072 words long.
 Raffenetti 2 integral format.
 Two-electron integral symmetry is turned on.
 Using the following non-standard input for PCM:
 MSTModel=DFT cav MSTCharged
 --- end of non-standard input.
 MST model for solvation energy: B3LYP parametrization.
 MST cavity parameters:
 ISph   IAn     Re0     Alpha   Atom Type   QCorr
 ------------------------------------------------
   1      8     1.40     1.15      O          T
   2      6     1.50     1.15      C          T
   3      8     1.40     1.15      O          T
   4      6     1.50     1.50      C          F
   5      6     1.50     1.50      C          F
   6      8     1.40     1.50      OH         F
   7      1     0.90     1.50      OH         F
   8      6     1.50     1.50      CH         F
   9      1     1.20     1.50      CH         F
  10      6     1.50     1.50      CH         F
  11      1     1.20     1.50      CH         F
  12      6     1.50     1.50      CH         F
  13      1     1.20     1.50      CH         F
  14      6     1.50     1.50      CH         F
  15      1     1.20     1.50      CH         F
 ------------------------------------------------------------------------------
 Polarizable Continuum Model (PCM)
 =================================
 Model                : PCM.
 Atomic radii         : MST.
 Polarization charges : Total charges.
 Charge compensation  : None.
 Solution method      : On-the-fly selection.
 Cavity type          : Scaled VdW (van der Waals Surface) (Alpha=1.500).
 Cavity algorithm     : GePol (No added spheres)
                        Default sphere list used, NSphG=   15.
                        Lebedev-Laikov grids with approx.  5.0 points / Ang**2.
                        Smoothing algorithm: York/Karplus (Gamma=1.0000).
                        Polarization charges: spherical gaussians, with
                                              point-specific exponents (IZeta= 3).
                        Self-potential: point-specific (ISelfS= 7).
                        Self-field    : sphere-specific E.n sum rule (ISelfD= 2).
 1st derivatives      : Analytical E(r).r(x)/FMM algorithm (CHGder, D1EAlg=3).
                        Cavity 1st derivative terms included.
 Solvent              : n-Octanol, Eps=   9.862900 Eps(inf)=   2.043470
 ------------------------------------------------------------------------------
 Spheres list:
 ISph  on   Nord     Re0    Alpha      Xe            Ye            Ze
    1   O      1    1.4000  1.150     -2.206336     -1.476992      0.007256
    2   C      2    1.5000  1.150     -1.718899     -0.324307     -0.015848
    3   O      3    1.4000  1.150     -2.432035      0.643297      0.057901
    4   C      4    1.5000  1.500     -0.219031     -0.260514     -0.050111
    5   C      5    1.5000  1.500      0.432116      0.959225     -0.079024
    6   O      6    1.4000  1.500     -0.281326      2.095306      0.058580
    7   H      7    0.9000  1.500     -1.216819      1.849055      0.167410
    8   C      8    1.5000  1.500      1.811486      1.058805     -0.117237
    9   H      9    1.2000  1.500      2.328847      2.012827     -0.181711
   10   C     10    1.5000  1.500      2.587040     -0.125803      0.069494
   11   H     11    1.2000  1.500      3.664676     -0.134342      0.213274
   12   C     12    1.5000  1.500      1.909874     -1.396139      0.104067
   13   H     13    1.2000  1.500      2.377226     -2.364865      0.256732
   14   C     14    1.5000  1.500      0.551684     -1.421523     -0.115657
   15   H     15    1.2000  1.500      0.078027     -2.394024     -0.219709
 ------------------------------------------------------------------------------
 GePol: Number of generator spheres                  =      15
 GePol: Total number of spheres                      =      15
 GePol: Number of exposed spheres                    =      15 (100.00%)
 GePol: Number of points                             =    1584
 GePol: Average weight of points                     =       0.12
 GePol: Minimum weight of points                     =   0.21D-08
 GePol: Maximum weight of points                     =    0.20790
 GePol: Number of points with low weight             =      80
 GePol: Fraction of low-weight points (<1% of avg)   =       5.05%
 GePol: Cavity surface area                          =    184.069 Ang**2
 GePol: Cavity volume                                =    187.456 Ang**3
 Surface areas from nonelectrostatic (unscaled) cavity and vdw tensions:
 Sphere =    1 Type =  O   Surf =       15.918 Tension =       -0.185
 Sphere =    2 Type =  C   Surf =        6.988 Tension =       -0.205
 Sphere =    3 Type =  O   Surf =       14.589 Tension =       -0.185
 Sphere =    4 Type =  C   Surf =        6.255 Tension =       -0.205
 Sphere =    5 Type =  C   Surf =        6.479 Tension =       -0.205
 Sphere =    6 Type =  OH  Surf =       14.142 Tension =       -0.238
 Sphere =    7 Type =  OH  Surf =        2.466 Tension =       -0.238
 Sphere =    8 Type =  CH  Surf =        7.861 Tension =       -0.195
 Sphere =    9 Type =  CH  Surf =       10.247 Tension =       -0.195
 Sphere =   10 Type =  CH  Surf =        8.126 Tension =       -0.195
 Sphere =   11 Type =  CH  Surf =       10.264 Tension =       -0.195
 Sphere =   12 Type =  CH  Surf =        7.926 Tension =       -0.195
 Sphere =   13 Type =  CH  Surf =       10.212 Tension =       -0.195
 Sphere =   14 Type =  CH  Surf =        7.447 Tension =       -0.195
 Sphere =   15 Type =  CH  Surf =        9.813 Tension =       -0.195
 PCM non-electrostatic energy =        -0.0087233853 Hartrees.
 Nuclear repulsion after PCM non-electrostatic terms =      492.5528706316 Hartrees.
 Leave Link  301 at Mon Jul 12 12:46:00 2021, MaxMem=   104857600 cpu:               0.1 elap:               0.1
 (Enter /dades/curu/g16A03_MST/g16/l302.exe)
 NPDir=0 NMtPBC=     1 NCelOv=     1 NCel=       1 NClECP=     1 NCelD=      1
         NCelK=      1 NCelE2=     1 NClLst=     1 CellRange=     0.0.
 One-electron integrals computed using PRISM.
 One-electron integral symmetry used in STVInt
 NBasis=   160 RedAO= T EigKep=  5.05D-04  NBF=   160
 NBsUse=   160 1.00D-06 EigRej= -1.00D+00 NBFU=   160
 Precomputing XC quadrature grid using
 IXCGrd= 4 IRadAn=           5 IRanWt=          -1 IRanGd=           0 AccXCQ= 0.00D+00.
 Generated NRdTot=       0 NPtTot=           0 NUsed=           0 NTot=          32
 NSgBfM=   160   160   160   160   160 MxSgAt=    15 MxSgA2=    15.
 Leave Link  302 at Mon Jul 12 12:46:00 2021, MaxMem=   104857600 cpu:               0.8 elap:               0.2
 (Enter /dades/curu/g16A03_MST/g16/l303.exe)
 DipDrv:  MaxL=1.
 Leave Link  303 at Mon Jul 12 12:46:00 2021, MaxMem=   104857600 cpu:               0.1 elap:               0.0
 (Enter /dades/curu/g16A03_MST/g16/l401.exe)
 ExpMin= 1.61D-01 ExpMax= 5.48D+03 ExpMxC= 8.25D+02 IAcc=3 IRadAn=         5 AccDes= 0.00D+00
 Harris functional with IExCor=  402 and IRadAn=       5 diagonalized for initial guess.
 HarFok:  IExCor=  402 AccDes= 0.00D+00 IRadAn=         5 IDoV= 1 UseB2=F ITyADJ=14
 ICtDFT=  3500011 ScaDFX=  1.000000  1.000000  1.000000  1.000000
 FoFCou: FMM=F IPFlag=           0 FMFlag=      100000 FMFlg1=           0
         NFxFlg=           0 DoJE=T BraDBF=F KetDBF=T FulRan=T
         wScrn=  0.000000 ICntrl=       500 IOpCl=  0 I1Cent=   200000004 NGrid=           0
         NMat0=    1 NMatS0=      1 NMatT0=    0 NMatD0=    1 NMtDS0=    0 NMtDT0=    0
 Petite list used in FoFCou.
 Harris En= -495.683251237715    
 JPrj=0 DoOrth=F DoCkMO=F.
 Leave Link  401 at Mon Jul 12 12:46:02 2021, MaxMem=   104857600 cpu:               7.3 elap:               1.8
 (Enter /dades/curu/g16A03_MST/g16/l502.exe)
 Keep R1 ints in memory in canonical form, NReq=86904867.
 FoFCou: FMM=F IPFlag=           0 FMFlag=           0 FMFlg1=           0
         NFxFlg=           0 DoJE=F BraDBF=F KetDBF=F FulRan=T
         wScrn=  0.000000 ICntrl=       600 IOpCl=  0 I1Cent=           0 NGrid=           0
         NMat0=    1 NMatS0=  12880 NMatT0=    0 NMatD0=    1 NMtDS0=    0 NMtDT0=    0
 Symmetry not used in FoFCou.
 Two-electron integral symmetry not used.
 Closed shell SCF:
 Using DIIS extrapolation, IDIIS=  1040.
 NGot=   104857600 LenX=    21850023 LenY=    21823982
 Requested convergence on RMS density matrix=1.00D-08 within 128 cycles.
 Requested convergence on MAX density matrix=1.00D-06.
 Requested convergence on             energy=1.00D-06.
 No special actions if energy rises.

 Cycle   1  Pass 1  IDiag  1:
 Inv3:  Mode=1 IEnd=     7527168.
 Iteration    1 A*A^-1 deviation from unit magnitude is 3.11D-15 for   1565.
 Iteration    1 A*A^-1 deviation from orthogonality  is 2.26D-15 for    214     69.
 Iteration    1 A^-1*A deviation from unit magnitude is 3.11D-15 for   1565.
 Iteration    1 A^-1*A deviation from orthogonality  is 2.19D-15 for   1455   1251.
 E= -495.282866606955    
 DIIS: error= 4.24D-02 at cycle   1 NSaved=   1.
 NSaved= 1 IEnMin= 1 EnMin= -495.282866606955     IErMin= 1 ErrMin= 4.24D-02
 ErrMax= 4.24D-02  0.00D+00 EMaxC= 1.00D-01 BMatC= 3.40D-01 BMatP= 3.40D-01
 IDIUse=3 WtCom= 5.76D-01 WtEn= 4.24D-01
 Coeff-Com:  0.100D+01
 Coeff-En:   0.100D+01
 Coeff:      0.100D+01
 Gap=     0.193 Goal=   None    Shift=    0.000
 GapD=    0.193 DampG=1.000 DampE=0.500 DampFc=0.5000 IDamp=-1.
 Damping current iteration by 5.00D-01
 RMSDP=9.08D-03 MaxDP=2.08D-01              OVMax= 1.85D-01

 Cycle   2  Pass 1  IDiag  1:
 E= -495.404536030308     Delta-E=       -0.121669423353 Rises=F Damp=T
 DIIS: error= 8.72D-03 at cycle   2 NSaved=   2.
 NSaved= 2 IEnMin= 2 EnMin= -495.404536030308     IErMin= 2 ErrMin= 8.72D-03
 ErrMax= 8.72D-03  0.00D+00 EMaxC= 1.00D-01 BMatC= 2.20D-02 BMatP= 3.40D-01
 IDIUse=3 WtCom= 9.13D-01 WtEn= 8.72D-02
 Coeff-Com:  0.107D+00 0.893D+00
 Coeff-En:   0.149D+00 0.851D+00
 Coeff:      0.111D+00 0.889D+00
 Gap=     0.207 Goal=   None    Shift=    0.000
 RMSDP=2.02D-03 MaxDP=5.80D-02 DE=-1.22D-01 OVMax= 1.14D-01

 Cycle   3  Pass 1  IDiag  1:
 E= -495.554820724679     Delta-E=       -0.150284694371 Rises=F Damp=F
 DIIS: error= 9.00D-03 at cycle   3 NSaved=   3.
 NSaved= 3 IEnMin= 3 EnMin= -495.554820724679     IErMin= 2 ErrMin= 8.72D-03
 ErrMax= 9.00D-03  0.00D+00 EMaxC= 1.00D-01 BMatC= 1.64D-02 BMatP= 2.20D-02
 IDIUse=3 WtCom= 9.10D-01 WtEn= 9.00D-02
 Coeff-Com:  0.139D-01 0.459D+00 0.527D+00
 Coeff-En:   0.000D+00 0.000D+00 0.100D+01
 Coeff:      0.126D-01 0.418D+00 0.570D+00
 Gap=     0.196 Goal=   None    Shift=    0.000
 RMSDP=1.18D-03 MaxDP=3.18D-02 DE=-1.50D-01 OVMax= 3.95D-02

 Cycle   4  Pass 1  IDiag  1:
 E= -495.566343245389     Delta-E=       -0.011522520710 Rises=F Damp=F
 DIIS: error= 3.86D-03 at cycle   4 NSaved=   4.
 NSaved= 4 IEnMin= 4 EnMin= -495.566343245389     IErMin= 4 ErrMin= 3.86D-03
 ErrMax= 3.86D-03  0.00D+00 EMaxC= 1.00D-01 BMatC= 3.37D-03 BMatP= 1.64D-02
 IDIUse=3 WtCom= 9.61D-01 WtEn= 3.86D-02
 Coeff-Com: -0.187D-03 0.959D-01 0.326D+00 0.578D+00
 Coeff-En:   0.000D+00 0.000D+00 0.176D+00 0.824D+00
 Coeff:     -0.180D-03 0.922D-01 0.320D+00 0.588D+00
 Gap=     0.192 Goal=   None    Shift=    0.000
 RMSDP=4.65D-04 MaxDP=1.29D-02 DE=-1.15D-02 OVMax= 2.06D-02

 Cycle   5  Pass 1  IDiag  1:
 E= -495.568840673083     Delta-E=       -0.002497427694 Rises=F Damp=F
 DIIS: error= 1.69D-03 at cycle   5 NSaved=   5.
 NSaved= 5 IEnMin= 5 EnMin= -495.568840673083     IErMin= 5 ErrMin= 1.69D-03
 ErrMax= 1.69D-03  0.00D+00 EMaxC= 1.00D-01 BMatC= 4.54D-04 BMatP= 3.37D-03
 IDIUse=3 WtCom= 9.83D-01 WtEn= 1.69D-02
 Coeff-Com: -0.386D-03 0.140D-01 0.149D+00 0.373D+00 0.465D+00
 Coeff-En:   0.000D+00 0.000D+00 0.000D+00 0.606D-01 0.939D+00
 Coeff:     -0.379D-03 0.137D-01 0.146D+00 0.368D+00 0.473D+00
 Gap=     0.191 Goal=   None    Shift=    0.000
 RMSDP=1.41D-04 MaxDP=4.86D-03 DE=-2.50D-03 OVMax= 6.14D-03

 Cycle   6  Pass 1  IDiag  1:
 E= -495.569187128964     Delta-E=       -0.000346455881 Rises=F Damp=F
 DIIS: error= 2.61D-04 at cycle   6 NSaved=   6.
 NSaved= 6 IEnMin= 6 EnMin= -495.569187128964     IErMin= 6 ErrMin= 2.61D-04
 ErrMax= 2.61D-04  0.00D+00 EMaxC= 1.00D-01 BMatC= 1.66D-05 BMatP= 4.54D-04
 IDIUse=3 WtCom= 9.97D-01 WtEn= 2.61D-03
 Coeff-Com: -0.164D-03 0.621D-03 0.488D-01 0.137D+00 0.238D+00 0.576D+00
 Coeff-En:   0.000D+00 0.000D+00 0.000D+00 0.000D+00 0.000D+00 0.100D+01
 Coeff:     -0.164D-03 0.619D-03 0.487D-01 0.137D+00 0.237D+00 0.577D+00
 Gap=     0.191 Goal=   None    Shift=    0.000
 RMSDP=3.16D-05 MaxDP=8.66D-04 DE=-3.46D-04 OVMax= 1.23D-03

 Cycle   7  Pass 1  IDiag  1:
 E= -495.569198605619     Delta-E=       -0.000011476655 Rises=F Damp=F
 DIIS: error= 6.94D-05 at cycle   7 NSaved=   7.
 NSaved= 7 IEnMin= 7 EnMin= -495.569198605619     IErMin= 7 ErrMin= 6.94D-05
 ErrMax= 6.94D-05  0.00D+00 EMaxC= 1.00D-01 BMatC= 1.84D-06 BMatP= 1.66D-05
 IDIUse=1 WtCom= 1.00D+00 WtEn= 0.00D+00
 Coeff-Com: -0.497D-04-0.637D-03 0.179D-01 0.530D-01 0.105D+00 0.332D+00
 Coeff-Com:  0.493D+00
 Coeff:     -0.497D-04-0.637D-03 0.179D-01 0.530D-01 0.105D+00 0.332D+00
 Coeff:      0.493D+00
 Gap=     0.191 Goal=   None    Shift=    0.000
 RMSDP=9.73D-06 MaxDP=2.82D-04 DE=-1.15D-05 OVMax= 5.19D-04

 Cycle   8  Pass 1  IDiag  1:
 E= -495.569200303314     Delta-E=       -0.000001697695 Rises=F Damp=F
 DIIS: error= 2.06D-05 at cycle   8 NSaved=   8.
 NSaved= 8 IEnMin= 8 EnMin= -495.569200303314     IErMin= 8 ErrMin= 2.06D-05
 ErrMax= 2.06D-05  0.00D+00 EMaxC= 1.00D-01 BMatC= 9.83D-08 BMatP= 1.84D-06
 IDIUse=1 WtCom= 1.00D+00 WtEn= 0.00D+00
 Coeff-Com: -0.818D-05-0.393D-03 0.497D-02 0.154D-01 0.340D-01 0.120D+00
 Coeff-Com:  0.251D+00 0.575D+00
 Coeff:     -0.818D-05-0.393D-03 0.497D-02 0.154D-01 0.340D-01 0.120D+00
 Coeff:      0.251D+00 0.575D+00
 Gap=     0.191 Goal=   None    Shift=    0.000
 RMSDP=2.76D-06 MaxDP=7.30D-05 DE=-1.70D-06 OVMax= 1.28D-04

 Cycle   9  Pass 1  IDiag  1:
 E= -495.569200397086     Delta-E=       -0.000000093772 Rises=F Damp=F
 DIIS: error= 4.79D-06 at cycle   9 NSaved=   9.
 NSaved= 9 IEnMin= 9 EnMin= -495.569200397086     IErMin= 9 ErrMin= 4.79D-06
 ErrMax= 4.79D-06  0.00D+00 EMaxC= 1.00D-01 BMatC= 8.05D-09 BMatP= 9.83D-08
 IDIUse=1 WtCom= 1.00D+00 WtEn= 0.00D+00
 Coeff-Com:  0.526D-05-0.105D-03-0.463D-04 0.121D-03 0.191D-02 0.106D-01
 Coeff-Com:  0.505D-01 0.264D+00 0.673D+00
 Coeff:      0.526D-05-0.105D-03-0.463D-04 0.121D-03 0.191D-02 0.106D-01
 Coeff:      0.505D-01 0.264D+00 0.673D+00
 Gap=     0.191 Goal=   None    Shift=    0.000
 RMSDP=6.21D-07 MaxDP=1.93D-05 DE=-9.38D-08 OVMax= 2.96D-05

 Cycle  10  Pass 1  IDiag  1:
 E= -495.569200404936     Delta-E=       -0.000000007850 Rises=F Damp=F
 DIIS: error= 1.13D-06 at cycle  10 NSaved=  10.
 NSaved=10 IEnMin=10 EnMin= -495.569200404936     IErMin=10 ErrMin= 1.13D-06
 ErrMax= 1.13D-06  0.00D+00 EMaxC= 1.00D-01 BMatC= 4.16D-10 BMatP= 8.05D-09
 IDIUse=1 WtCom= 1.00D+00 WtEn= 0.00D+00
 Coeff-Com:  0.176D-05-0.256D-04-0.228D-03-0.607D-03-0.682D-03-0.548D-03
 Coeff-Com:  0.115D-01 0.873D-01 0.292D+00 0.612D+00
 Coeff:      0.176D-05-0.256D-04-0.228D-03-0.607D-03-0.682D-03-0.548D-03
 Coeff:      0.115D-01 0.873D-01 0.292D+00 0.612D+00
 Gap=     0.191 Goal=   None    Shift=    0.000
 RMSDP=1.65D-07 MaxDP=3.51D-06 DE=-7.85D-09 OVMax= 5.21D-06

 Cycle  11  Pass 1  IDiag  1:
 E= -495.569200405277     Delta-E=       -0.000000000341 Rises=F Damp=F
 DIIS: error= 4.69D-07 at cycle  11 NSaved=  11.
 NSaved=11 IEnMin=11 EnMin= -495.569200405277     IErMin=11 ErrMin= 4.69D-07
 ErrMax= 4.69D-07  0.00D+00 EMaxC= 1.00D-01 BMatC= 6.06D-11 BMatP= 4.16D-10
 IDIUse=1 WtCom= 1.00D+00 WtEn= 0.00D+00
 Coeff-Com:  0.169D-06-0.121D-05-0.944D-04-0.268D-03-0.490D-03-0.118D-02
 Coeff-Com:  0.574D-03 0.123D-01 0.649D-01 0.311D+00 0.613D+00
 Coeff:      0.169D-06-0.121D-05-0.944D-04-0.268D-03-0.490D-03-0.118D-02
 Coeff:      0.574D-03 0.123D-01 0.649D-01 0.311D+00 0.613D+00
 Gap=     0.191 Goal=   None    Shift=    0.000
 RMSDP=5.97D-08 MaxDP=1.43D-06 DE=-3.41D-10 OVMax= 2.74D-06

 Cycle  12  Pass 1  IDiag  1:
 E= -495.569200405330     Delta-E=       -0.000000000053 Rises=F Damp=F
 DIIS: error= 7.69D-08 at cycle  12 NSaved=  12.
 NSaved=12 IEnMin=12 EnMin= -495.569200405330     IErMin=12 ErrMin= 7.69D-08
 ErrMax= 7.69D-08  0.00D+00 EMaxC= 1.00D-01 BMatC= 2.55D-12 BMatP= 6.06D-11
 IDIUse=1 WtCom= 1.00D+00 WtEn= 0.00D+00
 Coeff-Com: -0.143D-06 0.139D-05-0.316D-04-0.924D-04-0.206D-03-0.564D-03
 Coeff-Com: -0.490D-03-0.219D-04 0.101D-01 0.983D-01 0.260D+00 0.633D+00
 Coeff:     -0.143D-06 0.139D-05-0.316D-04-0.924D-04-0.206D-03-0.564D-03
 Coeff:     -0.490D-03-0.219D-04 0.101D-01 0.983D-01 0.260D+00 0.633D+00
 Gap=     0.191 Goal=   None    Shift=    0.000
 RMSDP=1.56D-08 MaxDP=3.26D-07 DE=-5.34D-11 OVMax= 8.08D-07

 Cycle  13  Pass 1  IDiag  1:
 E= -495.569200405339     Delta-E=       -0.000000000008 Rises=F Damp=F
 DIIS: error= 5.60D-08 at cycle  13 NSaved=  13.
 NSaved=13 IEnMin=13 EnMin= -495.569200405339     IErMin=13 ErrMin= 5.60D-08
 ErrMax= 5.60D-08  0.00D+00 EMaxC= 1.00D-01 BMatC= 6.83D-13 BMatP= 2.55D-12
 IDIUse=1 WtCom= 1.00D+00 WtEn= 0.00D+00
 Coeff-Com: -0.105D-06 0.756D-06-0.193D-05-0.567D-05-0.341D-04-0.108D-03
 Coeff-Com: -0.273D-03-0.178D-02-0.412D-02 0.106D-01 0.619D-01 0.369D+00
 Coeff-Com:  0.565D+00
 Coeff:     -0.105D-06 0.756D-06-0.193D-05-0.567D-05-0.341D-04-0.108D-03
 Coeff:     -0.273D-03-0.178D-02-0.412D-02 0.106D-01 0.619D-01 0.369D+00
 Coeff:      0.565D+00
 Gap=     0.191 Goal=   None    Shift=    0.000
 RMSDP=6.26D-09 MaxDP=1.69D-07 DE=-8.47D-12 OVMax= 5.45D-07

 Error on total polarization charges =  0.00674
 SCF Done:  E(RB3LYP) =  -495.569200405     A.U. after   13 cycles
            NFock= 13  Conv=0.63D-08     -V/T= 2.0081
 KE= 4.915766685220D+02 PE=-2.157237452711D+03 EE= 6.775387131524D+02
 Leave Link  502 at Mon Jul 12 12:46:44 2021, MaxMem=   104857600 cpu:             157.2 elap:              41.7
 (Enter /dades/curu/g16A03_MST/g16/l601.exe)
 Copying SCF densities to generalized density rwf, IOpCl= 0 IROHF=0.

 **********************************************************************

            Population analysis using the SCF density.

 **********************************************************************

 Orbital symmetries:
       Occupied  (A) (A) (A) (A) (A) (A) (A) (A) (A) (A) (A) (A)
                 (A) (A) (A) (A) (A) (A) (A) (A) (A) (A) (A) (A)
                 (A) (A) (A) (A) (A) (A) (A) (A) (A) (A) (A) (A)
       Virtual   (A) (A) (A) (A) (A) (A) (A) (A) (A) (A) (A) (A)
                 (A) (A) (A) (A) (A) (A) (A) (A) (A) (A) (A) (A)
                 (A) (A) (A) (A) (A) (A) (A) (A) (A) (A) (A) (A)
                 (A) (A) (A) (A) (A) (A) (A) (A) (A) (A) (A) (A)
                 (A) (A) (A) (A) (A) (A) (A) (A) (A) (A) (A) (A)
                 (A) (A) (A) (A) (A) (A) (A) (A) (A) (A) (A) (A)
                 (A) (A) (A) (A) (A) (A) (A) (A) (A) (A) (A) (A)
                 (A) (A) (A) (A) (A) (A) (A) (A) (A) (A) (A) (A)
                 (A) (A) (A) (A) (A) (A) (A) (A) (A) (A) (A) (A)
                 (A) (A) (A) (A) (A) (A) (A) (A) (A) (A) (A) (A)
                 (A) (A) (A) (A)
 The electronic state is 1-A.
 Alpha  occ. eigenvalues --  -19.12923 -19.06753 -19.03786 -10.23657 -10.22133
 Alpha  occ. eigenvalues --  -10.18357 -10.16887 -10.16423 -10.16316 -10.15479
 Alpha  occ. eigenvalues --   -1.03523  -1.01180  -0.90487  -0.82397  -0.72661
 Alpha  occ. eigenvalues --   -0.71454  -0.61048  -0.57199  -0.53027  -0.49219
 Alpha  occ. eigenvalues --   -0.45942  -0.43328  -0.41109  -0.40990  -0.40064
 Alpha  occ. eigenvalues --   -0.37280  -0.36288  -0.35674  -0.34659  -0.31831
 Alpha  occ. eigenvalues --   -0.30256  -0.23084  -0.22209  -0.21561  -0.19576
 Alpha  occ. eigenvalues --   -0.19193
 Alpha virt. eigenvalues --   -0.00117   0.03534   0.11444   0.12286   0.16166
 Alpha virt. eigenvalues --    0.18524   0.19044   0.20805   0.22155   0.27522
 Alpha virt. eigenvalues --    0.29344   0.32664   0.34963   0.36072   0.38469
 Alpha virt. eigenvalues --    0.43587   0.44428   0.50408   0.53365   0.56223
 Alpha virt. eigenvalues --    0.57651   0.58293   0.59868   0.61180   0.61777
 Alpha virt. eigenvalues --    0.63480   0.64502   0.64983   0.66141   0.68600
 Alpha virt. eigenvalues --    0.69010   0.71445   0.72247   0.74663   0.79143
 Alpha virt. eigenvalues --    0.81478   0.84512   0.85491   0.86799   0.91163
 Alpha virt. eigenvalues --    0.92056   0.93036   0.95645   0.96707   0.98151
 Alpha virt. eigenvalues --    1.01063   1.03463   1.05391   1.06700   1.09116
 Alpha virt. eigenvalues --    1.09895   1.11047   1.17062   1.20264   1.24381
 Alpha virt. eigenvalues --    1.26414   1.27107   1.33309   1.34024   1.37951
 Alpha virt. eigenvalues --    1.40569   1.43433   1.46243   1.48062   1.51284
 Alpha virt. eigenvalues --    1.54087   1.54552   1.62386   1.71510   1.74500
 Alpha virt. eigenvalues --    1.74573   1.78890   1.79049   1.80672   1.83817
 Alpha virt. eigenvalues --    1.87428   1.89690   1.91221   1.92960   1.94981
 Alpha virt. eigenvalues --    1.97148   1.98110   2.02924   2.05842   2.09133
 Alpha virt. eigenvalues --    2.10196   2.13737   2.14171   2.16470   2.19508
 Alpha virt. eigenvalues --    2.26116   2.29310   2.33421   2.36668   2.39371
 Alpha virt. eigenvalues --    2.48605   2.53171   2.55724   2.62265   2.63288
 Alpha virt. eigenvalues --    2.64728   2.65775   2.71651   2.73028   2.79309
 Alpha virt. eigenvalues --    2.81562   2.87849   2.90232   2.97362   2.99539
 Alpha virt. eigenvalues --    3.06384   3.19658   3.31381   3.48039   3.94786
 Alpha virt. eigenvalues --    4.03009   4.09667   4.15346   4.21460   4.32526
 Alpha virt. eigenvalues --    4.43910   4.47967   4.62161   4.76830
          Condensed to atoms (all electrons):
               1          2          3          4          5          6
     1  O    8.370081   0.560871  -0.125443  -0.159482   0.003559  -0.000053
     2  C    0.560871   4.351931   0.465984   0.223887  -0.033419  -0.011771
     3  O   -0.125443   0.465984   8.353437  -0.127224  -0.001815  -0.041595
     4  C   -0.159482   0.223887  -0.127224   5.434830   0.405438  -0.059631
     5  C    0.003559  -0.033419  -0.001815   0.405438   4.662092   0.323845
     6  O   -0.000053  -0.011771  -0.041595  -0.059631   0.323845   8.339230
     7  H    0.001708   0.002036   0.093191  -0.015693  -0.025162   0.192098
     8  C   -0.000113   0.004887   0.000300  -0.054103   0.499083  -0.067258
     9  H    0.000001  -0.000017   0.000010   0.007023  -0.036667  -0.000289
    10  C   -0.000016  -0.000196  -0.000016  -0.040518  -0.011380   0.002757
    11  H    0.000000   0.000004  -0.000000   0.000559   0.003652  -0.000052
    12  C    0.001376   0.006314  -0.000032  -0.028725  -0.040747   0.000174
    13  H   -0.000004  -0.000110   0.000001   0.004446   0.000656   0.000002
    14  C    0.006527  -0.040691   0.005764   0.448400  -0.042209   0.006495
    15  H    0.020643  -0.004412   0.000383  -0.045527   0.004963  -0.000052
               7          8          9         10         11         12
     1  O    0.001708  -0.000113   0.000001  -0.000016   0.000000   0.001376
     2  C    0.002036   0.004887  -0.000017  -0.000196   0.000004   0.006314
     3  O    0.093191   0.000300   0.000010  -0.000016  -0.000000  -0.000032
     4  C   -0.015693  -0.054103   0.007023  -0.040518   0.000559  -0.028725
     5  C   -0.025162   0.499083  -0.036667  -0.011380   0.003652  -0.040747
     6  O    0.192098  -0.067258  -0.000289   0.002757  -0.000052   0.000174
     7  H    0.330983   0.005878  -0.000028  -0.000144   0.000003  -0.000046
     8  C    0.005878   5.044024   0.346549   0.522683  -0.037619  -0.034752
     9  H   -0.000028   0.346549   0.602587  -0.045271  -0.004871   0.004558
    10  C   -0.000144   0.522683  -0.045271   4.934173   0.357481   0.505231
    11  H    0.000003  -0.037619  -0.004871   0.357481   0.591480  -0.042797
    12  C   -0.000046  -0.034752   0.004558   0.505231  -0.042797   4.995321
    13  H    0.000000   0.003646  -0.000120  -0.040935  -0.003836   0.357982
    14  C   -0.000845  -0.040008   0.000015  -0.026669   0.004254   0.477576
    15  H   -0.000051   0.000404   0.000017   0.005748  -0.000206  -0.046922
              13         14         15
     1  O   -0.000004   0.006527   0.020643
     2  C   -0.000110  -0.040691  -0.004412
     3  O    0.000001   0.005764   0.000383
     4  C    0.004446   0.448400  -0.045527
     5  C    0.000656  -0.042209   0.004963
     6  O    0.000002   0.006495  -0.000052
     7  H    0.000000  -0.000845  -0.000051
     8  C    0.003646  -0.040008   0.000404
     9  H   -0.000120   0.000015   0.000017
    10  C   -0.040935  -0.026669   0.005748
    11  H   -0.003836   0.004254  -0.000206
    12  C    0.357982   0.477576  -0.046922
    13  H    0.603979  -0.041174  -0.007423
    14  C   -0.041174   5.096346   0.343968
    15  H   -0.007423   0.343968   0.599715
 Mulliken charges:
               1
     1  O   -0.679656
     2  C    0.474702
     3  O   -0.622945
     4  C    0.006321
     5  C    0.288110
     6  O   -0.683902
     7  H    0.416070
     8  C   -0.193601
     9  H    0.126503
    10  C   -0.162928
    11  H    0.131947
    12  C   -0.154510
    13  H    0.122889
    14  C   -0.197750
    15  H    0.128751
 Sum of Mulliken charges =  -1.00000
 Mulliken charges with hydrogens summed into heavy atoms:
               1
     1  O   -0.679656
     2  C    0.474702
     3  O   -0.622945
     4  C    0.006321
     5  C    0.288110
     6  O   -0.267832
     8  C   -0.067098
    10  C   -0.030981
    12  C   -0.031621
    14  C   -0.068999
 Electronic spatial extent (au):  <R**2>=           1325.8911
 Charge=             -1.0000 electrons
 Dipole moment (field-independent basis, Debye):
    X=              9.4763    Y=              1.0223    Z=             -0.0113  Tot=              9.5313
 Quadrupole moment (field-independent basis, Debye-Ang):
   XX=            -81.0664   YY=            -67.5587   ZZ=            -58.9900
   XY=             -6.5697   XZ=              0.7367   YZ=             -0.1497
 Traceless Quadrupole moment (field-independent basis, Debye-Ang):
   XX=            -11.8614   YY=              1.6463   ZZ=             10.2150
   XY=             -6.5697   XZ=              0.7367   YZ=             -0.1497
 Octapole moment (field-independent basis, Debye-Ang**2):
  XXX=             62.4808  YYY=              0.2312  ZZZ=              0.8793  XYY=             15.1054
  XXY=             18.6647  XXZ=              1.5118  XZZ=            -10.5414  YZZ=              3.1263
  YYZ=              0.2367  XYZ=             -1.7312
 Hexadecapole moment (field-independent basis, Debye-Ang**3):
 XXXX=          -1204.3572 YYYY=           -590.9958 ZZZZ=            -58.2941 XXXY=            -27.6823
 XXXZ=             10.1284 YYYX=            -31.3754 YYYZ=             -0.0460 ZZZX=             -0.4219
 ZZZY=              0.9618 XXYY=           -298.5024 XXZZ=           -196.8401 YYZZ=           -107.3130
 XXYZ=             -2.7562 YYXZ=             -0.3315 ZZXY=              0.9523
 N-N= 4.925528706316D+02 E-N=-2.157237453092D+03  KE= 4.915766685220D+02
 No NMR shielding tensors so no spin-rotation constants.
 Leave Link  601 at Mon Jul 12 12:46:44 2021, MaxMem=   104857600 cpu:               0.4 elap:               0.2
 (Enter /dades/curu/g16A03_MST/g16/l701.exe)
 ... and contract with generalized density number  0.
 Compute integral first derivatives.
 D1PCM: PCM CHGder 1st derivatives, ID1Alg=3 FixD1E=F DoIter=F DoCFld=F I1PDM=0.
 GePol: Maximum number of non-zero 1st derivatives   =     240
 Leave Link  701 at Mon Jul 12 12:46:46 2021, MaxMem=   104857600 cpu:               4.6 elap:               1.4
 (Enter /dades/curu/g16A03_MST/g16/l702.exe)
 L702 exits ... SP integral derivatives will be done elsewhere.
 Leave Link  702 at Mon Jul 12 12:46:46 2021, MaxMem=   104857600 cpu:               0.0 elap:               0.0
 (Enter /dades/curu/g16A03_MST/g16/l703.exe)
 Integral derivatives from FoFJK, PRISM(SPDF).
 Compute integral first derivatives, UseDBF=F ICtDFT=           0.
 Calling FoFJK, ICntrl=      2127 FMM=F ISym2X=0 I1Cent= 0 IOpClX= 0 NMat=1 NMatS=1 NMatT=0.
 FoFJK:  IHMeth= 1 ICntrl=    2127 DoSepK=F KAlg= 0 I1Cent=           0 FoldK=F
 IRaf=         0 NMat=       1 IRICut=       1 DoRegI=T DoRafI=F ISym2E= 0 IDoP0=0 IntGTp=1.
 FoFCou: FMM=F IPFlag=           0 FMFlag=      100000 FMFlg1=         800
         NFxFlg=           0 DoJE=F BraDBF=F KetDBF=F FulRan=T
         wScrn=  0.000000 ICntrl=      2127 IOpCl=  0 I1Cent=           0 NGrid=           0
         NMat0=    1 NMatS0=      1 NMatT0=    0 NMatD0=    1 NMtDS0=    0 NMtDT0=    0
 Symmetry not used in FoFCou.
 Leave Link  703 at Mon Jul 12 12:46:53 2021, MaxMem=   104857600 cpu:              24.8 elap:               6.5
 (Enter /dades/curu/g16A03_MST/g16/l716.exe)
 Dipole        = 3.72826928D+00 4.02196719D-01-4.45137544D-03
 ***** Axes restored to original set *****
 -------------------------------------------------------------------
 Center     Atomic                   Forces (Hartrees/Bohr)
 Number     Number              X              Y              Z
 -------------------------------------------------------------------
      1        8           0.015631699    0.005527583   -0.028997458
      2        6           0.072176508    0.016181331   -0.058503899
      3        8          -0.087069196   -0.026819053    0.068599623
      4        6          -0.003165013    0.013147008   -0.010913268
      5        6          -0.012845347   -0.014847194    0.013053590
      6        8           0.001509272    0.011466984    0.028720640
      7        1          -0.011358950   -0.005093150   -0.018374802
      8        6           0.051481426    0.011699264    0.001603175
      9        1          -0.004138478   -0.004145631   -0.002103283
     10        6          -0.012905943   -0.008678699   -0.027417352
     11        1          -0.006471563    0.001879878    0.005585663
     12        6          -0.003604694    0.013092638    0.028046237
     13        1           0.003931488    0.006516887    0.010204172
     14        6           0.002432492   -0.014052722   -0.010722892
     15        1          -0.005603702   -0.005875126    0.001219854
 -------------------------------------------------------------------
 Cartesian Forces:  Max     0.087069196 RMS     0.026137486
 Leave Link  716 at Mon Jul 12 12:46:53 2021, MaxMem=   104857600 cpu:               0.1 elap:               0.1
 (Enter /dades/curu/g16A03_MST/g16/l103.exe)

 GradGradGradGradGradGradGradGradGradGradGradGradGradGradGradGradGradGrad
 Berny optimization.
 FormGI is forming the generalized inverse of G from B-inverse, IUseBI=4.
 Internal  Forces:  Max     0.109746118 RMS     0.017610541
 Search for a local minimum.
 Step number   1 out of a maximum of   77
 All quantities printed in internal units (Hartrees-Bohrs-Radians)
 RMS Force = .17611D-01 SwitMx=.10000D-02 MixMth= 1
 Mixed Optimization -- RFO/linear search
 Second derivative matrix not updated -- first step.
 ITU=  0
     Eigenvalues ---    0.00745   0.00773   0.01642   0.01704   0.01867
     Eigenvalues ---    0.01928   0.02058   0.02257   0.02299   0.02323
     Eigenvalues ---    0.02346   0.02372   0.15871   0.15901   0.15989
     Eigenvalues ---    0.15995   0.16000   0.21744   0.22466   0.24260
     Eigenvalues ---    0.24863   0.24970   0.25000   0.25000   0.32209
     Eigenvalues ---    0.35136   0.35140   0.35196   0.35238   0.38034
     Eigenvalues ---    0.39706   0.44726   0.45843   0.48127   0.49217
     Eigenvalues ---    0.52676   0.55329   0.82603   1.02708
 RFO step:  Lambda=-4.03568975D-02 EMin= 7.44591255D-03
 Linear search not attempted -- first point.
 Iteration  1 RMS(Cart)=  0.07241617 RMS(Int)=  0.00372186
 Iteration  2 RMS(Cart)=  0.00453029 RMS(Int)=  0.00073226
 Iteration  3 RMS(Cart)=  0.00001675 RMS(Int)=  0.00073212
 Iteration  4 RMS(Cart)=  0.00000001 RMS(Int)=  0.00073212
 ITry= 1 IFail=0 DXMaxC= 2.18D-01 DCOld= 1.00D+10 DXMaxT= 3.00D-01 DXLimC= 3.00D+00 Rises=F
 Variable       Old X    -DE/DX   Delta X   Delta X   Delta X     New X
                                 (Linear)    (Quad)   (Total)
    R1        2.36541   0.03094   0.00000   0.03571   0.03571   2.40112
    R2        2.27574   0.10975   0.00000   0.10281   0.10281   2.37855
    R3        2.83764   0.01206   0.00000   0.03328   0.03328   2.87092
    R4        2.61342   0.02669   0.00000   0.05427   0.05443   2.66785
    R5        2.63631   0.00292   0.00000   0.00950   0.00931   2.64562
    R6        2.54841   0.01040   0.00000   0.01753   0.01753   2.56593
    R7        2.61441   0.01737   0.00000   0.03308   0.03342   2.64783
    R8        1.83958   0.02142   0.00000   0.03778   0.03778   1.87736
    R9        2.05449  -0.00221   0.00000  -0.00564  -0.00564   2.04884
   R10        2.69884  -0.02842   0.00000  -0.06713  -0.06695   2.63189
   R11        2.05455  -0.00169   0.00000  -0.00432  -0.00432   2.05023
   R12        2.72114  -0.02746   0.00000  -0.06721  -0.06736   2.65378
   R13        2.05290  -0.00103   0.00000  -0.00263  -0.00263   2.05027
   R14        2.60042   0.01847   0.00000   0.03472   0.03439   2.63481
   R15        2.05358  -0.00178   0.00000  -0.00454  -0.00454   2.04904
    A1        2.10386   0.03281   0.00000   0.11495   0.11299   2.21686
    A2        2.01363   0.00468   0.00000   0.01805   0.01610   2.02973
    A3        2.16367  -0.03724   0.00000  -0.12633  -0.12829   2.03538
    A4        2.10393   0.00471   0.00000   0.00873   0.00903   2.11296
    A5        2.11476   0.00244   0.00000   0.00122   0.00154   2.11630
    A6        2.06337  -0.00707   0.00000  -0.00870  -0.00967   2.05370
    A7        2.08494   0.01139   0.00000   0.03654   0.03615   2.12109
    A8        2.13352  -0.00996   0.00000  -0.02421  -0.02512   2.10840
    A9        2.05969  -0.00111   0.00000  -0.00643  -0.00684   2.05284
   A10        1.88253  -0.00686   0.00000  -0.03424  -0.03424   1.84828
   A11        2.14035  -0.00935   0.00000  -0.03829  -0.03881   2.10154
   A12        2.06930   0.00767   0.00000   0.02585   0.02505   2.09435
   A13        2.06826   0.00206   0.00000   0.01859   0.01812   2.08638
   A14        2.16767  -0.01268   0.00000  -0.05245  -0.05208   2.11559
   A15        2.07090   0.00837   0.00000   0.02022   0.01944   2.09034
   A16        2.04431   0.00433   0.00000   0.03249   0.03285   2.07716
   A17        2.19906  -0.01493   0.00000  -0.06985  -0.06928   2.12978
   A18        2.06757   0.00516   0.00000   0.01703   0.01570   2.08327
   A19        2.01595   0.00979   0.00000   0.05347   0.05406   2.07001
   A20        2.12048  -0.00209   0.00000   0.00376   0.00154   2.12202
   A21        2.10419  -0.00591   0.00000  -0.03339  -0.03349   2.07070
   A22        2.05104   0.00854   0.00000   0.03797   0.03794   2.08898
    D1        3.14039  -0.00301   0.00000  -0.06629  -0.06614   3.07425
    D2        0.05074  -0.00472   0.00000  -0.09479  -0.09484  -0.04410
    D3       -0.06933   0.00264   0.00000   0.05111   0.05117  -0.01816
    D4        3.12421   0.00092   0.00000   0.02261   0.02246  -3.13652
    D5        0.11523  -0.00482   0.00000  -0.07132  -0.07133   0.04390
    D6       -3.13628  -0.00133   0.00000  -0.00750  -0.00684   3.14006
    D7       -3.07681  -0.00289   0.00000  -0.04337  -0.04331  -3.12012
    D8       -0.04513   0.00060   0.00000   0.02045   0.02117  -0.02396
    D9       -2.92534  -0.00656   0.00000  -0.08688  -0.08579  -3.01112
   D10        0.08189  -0.00100   0.00000  -0.00946  -0.01012   0.07177
   D11        0.26702  -0.00857   0.00000  -0.11523  -0.11408   0.15294
   D12       -3.00893  -0.00301   0.00000  -0.03782  -0.03841  -3.04735
   D13        0.00296  -0.00266   0.00000  -0.03298  -0.03229  -0.02933
   D14       -3.03335  -0.00540   0.00000  -0.09284  -0.09354  -3.12689
   D15        3.09611  -0.00039   0.00000  -0.00592  -0.00501   3.09111
   D16       -0.15741   0.00377   0.00000   0.06049   0.06065  -0.09676
   D17       -0.15387   0.00382   0.00000   0.05963   0.05969  -0.09418
   D18        2.87579   0.00798   0.00000   0.12604   0.12534   3.00113
   D19       -2.96618  -0.00380   0.00000  -0.06770  -0.06857  -3.03475
   D20        0.14818  -0.00266   0.00000  -0.05559  -0.05669   0.09149
   D21        0.06817  -0.00058   0.00000  -0.00782  -0.00720   0.06097
   D22       -3.10066   0.00056   0.00000   0.00429   0.00468  -3.09598
   D23       -3.12099  -0.00047   0.00000  -0.00281  -0.00353  -3.12452
   D24        0.05961  -0.00154   0.00000  -0.02521  -0.02547   0.03414
   D25       -0.00470   0.00032   0.00000   0.00712   0.00676   0.00206
   D26       -3.10729  -0.00076   0.00000  -0.01528  -0.01518  -3.12246
   D27       -0.27115   0.00610   0.00000   0.11035   0.11146  -0.15969
   D28        3.00087   0.00174   0.00000   0.04041   0.04032   3.04120
   D29        2.90541   0.00568   0.00000   0.09294   0.09298   2.99838
   D30       -0.10576   0.00132   0.00000   0.02300   0.02184  -0.08391
         Item               Value     Threshold  Converged?
 Maximum Force            0.109746     0.000450     NO 
 RMS     Force            0.017611     0.000300     NO 
 Maximum Displacement     0.218388     0.001800     NO 
 RMS     Displacement     0.072298     0.001200     NO 
 Predicted change in Energy=-2.401582D-02
 Lowest energy point so far.  Saving SCF results.
 GradGradGradGradGradGradGradGradGradGradGradGradGradGradGradGradGradGrad

 Leave Link  103 at Mon Jul 12 12:46:53 2021, MaxMem=   104857600 cpu:               0.1 elap:               0.3
 (Enter /dades/curu/g16A03_MST/g16/l202.exe)
                          Input orientation:                          
 ---------------------------------------------------------------------
 Center     Atomic      Atomic             Coordinates (Angstroms)
 Number     Number       Type             X           Y           Z
 ---------------------------------------------------------------------
      1          8           0       -1.198478   -0.851542   -2.491057
      2          6           0       -1.428103   -0.792851   -1.242738
      3          8           0       -2.483163   -1.137701   -0.649284
      4          6           0       -0.334661   -0.178437   -0.385463
      5          6           0       -0.516377    0.010657    1.001731
      6          8           0       -1.649874   -0.393097    1.630922
      7          1           0       -2.233600   -0.773316    0.922651
      8          6           0        0.496508    0.576205    1.787546
      9          1           0        0.333156    0.761606    2.843214
     10          6           0        1.740772    0.852773    1.226269
     11          1           0        2.568653    1.198107    1.836548
     12          6           0        1.941251    0.666533   -0.151133
     13          1           0        2.899329    0.855566   -0.623870
     14          6           0        0.876232    0.245045   -0.946181
     15          1           0        0.998356    0.189453   -2.022153
 ---------------------------------------------------------------------
                    Distance matrix (angstroms):
                    1          2          3          4          5
     1  O    0.000000
     2  C    1.270619   0.000000
     3  O    2.263720   1.258674   0.000000
     4  C    2.373348   1.519223   2.367667   0.000000
     5  C    3.661724   2.552354   2.812974   1.411766   0.000000
     6  O    4.171887   2.909795   2.539320   2.416954   1.357834
     7  H    3.568053   2.310436   1.632800   2.381389   1.889371
     8  C    4.818494   3.842012   4.213555   2.445872   1.401172
     9  H    5.779498   4.713106   4.872018   3.428413   2.162565
    10  C    5.036109   4.341179   5.032028   2.822852   2.419565
    11  H    6.092661   5.424019   6.095589   3.906590   3.409453
    12  C    4.199726   3.830659   4.804045   2.438987   2.792705
    13  H    4.815873   4.671932   5.739772   3.403630   3.876016
    14  C    2.809550   2.544628   3.644950   1.400001   2.405962
    15  H    2.475808   2.731321   3.970778   2.142670   3.386777
                    6          7          8          9         10
     6  O    0.000000
     7  H    0.993454   0.000000
     8  C    2.360303   3.165871   0.000000
     9  H    2.595264   3.554263   1.084201   0.000000
    10  C    3.634888   4.304879   1.392736   2.145741   0.000000
    11  H    4.513334   5.270992   2.164013   2.490253   1.084936
    12  C    4.146650   4.544838   2.419487   3.400165   1.404319
    13  H    5.228622   5.602852   3.415629   4.314481   2.182952
    14  C    3.664681   3.768374   2.779769   3.862807   2.415843
    15  H    4.549444   4.477090   3.862025   4.943849   3.397561
                   11         12         13         14         15
    11  H    0.000000
    12  C    2.151065   0.000000
    13  H    2.506061   1.084956   0.000000
    14  C    3.393553   1.394280   2.137649   0.000000
    15  H    4.286350   2.148807   2.452061   1.084307   0.000000
 Stoichiometry    C7H5O3(1-)
 Framework group  C1[X(C7H5O3)]
 Deg. of freedom    39
 Full point group                 C1      NOp   1
 RotChk:  IX=0 Diff= 1.31D-02
 Largest Abelian subgroup         C1      NOp   1
 Largest concise Abelian subgroup C1      NOp   1
                         Standard orientation:                         
 ---------------------------------------------------------------------
 Center     Atomic      Atomic             Coordinates (Angstroms)
 Number     Number       Type             X           Y           Z
 ---------------------------------------------------------------------
      1          8           0       -2.266077   -1.520278   -0.033802
      2          6           0       -1.757550   -0.357234    0.022805
      3          8           0       -2.374999    0.739213    0.051428
      4          6           0       -0.240597   -0.283401   -0.015149
      5          6           0        0.427828    0.959857   -0.039688
      6          8           0       -0.252781    2.133262    0.020362
      7          1           0       -1.215154    1.888471    0.049823
      8          6           0        1.827247    1.021584   -0.072820
      9          1           0        2.332967    1.978349   -0.138702
     10          6           0        2.578483   -0.146245    0.034578
     11          1           0        3.660306   -0.113933    0.110071
     12          6           0        1.930525   -1.391778    0.064775
     13          1           0        2.478320   -2.323102    0.163190
     14          6           0        0.542341   -1.443331   -0.054824
     15          1           0        0.044761   -2.404071   -0.126349
 ---------------------------------------------------------------------
 Rotational constants (GHZ):           2.3823259           1.2382367           0.8156413
 Leave Link  202 at Mon Jul 12 12:46:53 2021, MaxMem=   104857600 cpu:               0.1 elap:               0.0
 (Enter /dades/curu/g16A03_MST/g16/l301.exe)
 Standard basis: 6-31G(d) (6D, 7F)
 Ernie: Thresh=  0.10000D-02 Tol=  0.10000D-05 Strict=F.
 There are   160 symmetry adapted cartesian basis functions of A   symmetry.
 There are   160 symmetry adapted basis functions of A   symmetry.
   160 basis functions,   300 primitive gaussians,   160 cartesian basis functions
    36 alpha electrons       36 beta electrons
       nuclear repulsion energy       488.6555100161 Hartrees.
 IExCor=  402 DFT=T Ex+Corr=B3LYP ExCW=0 ScaHFX=  0.200000
 ScaDFX=  0.800000  0.720000  1.000000  0.810000 ScalE2=  1.000000  1.000000
 IRadAn=      5 IRanWt=     -1 IRanGd=            0 ICorTp=0 IEmpDi=  4
 NAtoms=   15 NActive=   15 NUniq=   15 SFac= 1.00D+00 NAtFMM=   60 NAOKFM=F Big=F
 Integral buffers will be    131072 words long.
 Raffenetti 2 integral format.
 Two-electron integral symmetry is turned on.
 ------------------------------------------------------------------------------
 Polarizable Continuum Model (PCM)
 =================================
 Model                : PCM.
 Atomic radii         : MST.
 Polarization charges : Total charges.
 Charge compensation  : None.
 Solution method      : On-the-fly selection.
 Cavity type          : Scaled VdW (van der Waals Surface) (Alpha=1.500).
 Cavity algorithm     : GePol (No added spheres)
                        Default sphere list used, NSphG=   15.
                        Lebedev-Laikov grids with approx.  5.0 points / Ang**2.
                        Smoothing algorithm: York/Karplus (Gamma=1.0000).
                        Polarization charges: spherical gaussians, with
                                              point-specific exponents (IZeta= 3).
                        Self-potential: point-specific (ISelfS= 7).
                        Self-field    : sphere-specific E.n sum rule (ISelfD= 2).
 1st derivatives      : Analytical E(r).r(x)/FMM algorithm (CHGder, D1EAlg=3).
                        Cavity 1st derivative terms included.
 Solvent              : n-Octanol, Eps=   9.862900 Eps(inf)=   2.043470
 ------------------------------------------------------------------------------
 Spheres list:
 ISph  on   Nord     Re0    Alpha      Xe            Ye            Ze
    1   O      1    1.4000  1.150     -2.266077     -1.520278     -0.033802
    2   C      2    1.5000  1.150     -1.757550     -0.357234      0.022805
    3   O      3    1.4000  1.150     -2.374999      0.739213      0.051428
    4   C      4    1.5000  1.500     -0.240597     -0.283401     -0.015149
    5   C      5    1.5000  1.500      0.427828      0.959857     -0.039688
    6   O      6    1.4000  1.500     -0.252781      2.133262      0.020362
    7   H      7    0.9000  1.500     -1.215154      1.888471      0.049823
    8   C      8    1.5000  1.500      1.827247      1.021584     -0.072820
    9   H      9    1.2000  1.500      2.332967      1.978349     -0.138702
   10   C     10    1.5000  1.500      2.578483     -0.146245      0.034578
   11   H     11    1.2000  1.500      3.660306     -0.113933      0.110071
   12   C     12    1.5000  1.500      1.930525     -1.391778      0.064775
   13   H     13    1.2000  1.500      2.478320     -2.323102      0.163190
   14   C     14    1.5000  1.500      0.542341     -1.443331     -0.054824
   15   H     15    1.2000  1.500      0.044761     -2.404071     -0.126349
 ------------------------------------------------------------------------------
 GePol: Number of generator spheres                  =      15
 GePol: Total number of spheres                      =      15
 GePol: Number of exposed spheres                    =      15 (100.00%)
 GePol: Number of points                             =    1602
 GePol: Average weight of points                     =       0.11
 GePol: Minimum weight of points                     =   0.25D-09
 GePol: Maximum weight of points                     =    0.21373
 GePol: Number of points with low weight             =     103
 GePol: Fraction of low-weight points (<1% of avg)   =       6.43%
 GePol: Cavity surface area                          =    184.083 Ang**2
 GePol: Cavity volume                                =    187.700 Ang**3
 Surface areas from nonelectrostatic (unscaled) cavity and vdw tensions:
 Sphere =    1 Type =  O   Surf =       16.180 Tension =       -0.185
 Sphere =    2 Type =  C   Surf =        7.390 Tension =       -0.205
 Sphere =    3 Type =  O   Surf =       14.543 Tension =       -0.185
 Sphere =    4 Type =  C   Surf =        6.438 Tension =       -0.205
 Sphere =    5 Type =  C   Surf =        6.658 Tension =       -0.205
 Sphere =    6 Type =  OH  Surf =       14.232 Tension =       -0.238
 Sphere =    7 Type =  OH  Surf =        2.322 Tension =       -0.238
 Sphere =    8 Type =  CH  Surf =        7.744 Tension =       -0.195
 Sphere =    9 Type =  CH  Surf =       10.211 Tension =       -0.195
 Sphere =   10 Type =  CH  Surf =        7.833 Tension =       -0.195
 Sphere =   11 Type =  CH  Surf =       10.231 Tension =       -0.195
 Sphere =   12 Type =  CH  Surf =        7.839 Tension =       -0.195
 Sphere =   13 Type =  CH  Surf =       10.230 Tension =       -0.195
 Sphere =   14 Type =  CH  Surf =        7.604 Tension =       -0.195
 Sphere =   15 Type =  CH  Surf =        9.807 Tension =       -0.195
 PCM non-electrostatic energy =        -0.0087819509 Hartrees.
 Nuclear repulsion after PCM non-electrostatic terms =      488.6467280653 Hartrees.
 Leave Link  301 at Mon Jul 12 12:46:54 2021, MaxMem=   104857600 cpu:               0.1 elap:               0.1
 (Enter /dades/curu/g16A03_MST/g16/l302.exe)
 NPDir=0 NMtPBC=     1 NCelOv=     1 NCel=       1 NClECP=     1 NCelD=      1
         NCelK=      1 NCelE2=     1 NClLst=     1 CellRange=     0.0.
 One-electron integrals computed using PRISM.
 One-electron integral symmetry used in STVInt
 NBasis=   160 RedAO= T EigKep=  4.52D-04  NBF=   160
 NBsUse=   160 1.00D-06 EigRej= -1.00D+00 NBFU=   160
 Precomputing XC quadrature grid using
 IXCGrd= 4 IRadAn=           5 IRanWt=          -1 IRanGd=           0 AccXCQ= 0.00D+00.
 Generated NRdTot=       0 NPtTot=           0 NUsed=           0 NTot=          32
 NSgBfM=   160   160   160   160   160 MxSgAt=    15 MxSgA2=    15.
 Leave Link  302 at Mon Jul 12 12:46:54 2021, MaxMem=   104857600 cpu:               0.8 elap:               0.2
 (Enter /dades/curu/g16A03_MST/g16/l303.exe)
 DipDrv:  MaxL=1.
 Leave Link  303 at Mon Jul 12 12:46:54 2021, MaxMem=   104857600 cpu:               0.1 elap:               0.0
 (Enter /dades/curu/g16A03_MST/g16/l401.exe)
 Initial guess from the checkpoint file:  "SET_328_BBB299_conf1.geo_180_000.chk"
 B after Tr=     0.000000    0.000000    0.000000
         Rot=    0.999989    0.001001   -0.000344    0.004461 Ang=   0.53 deg.
 Guess basis will be translated and rotated to current coordinates.
 JPrj=2 DoOrth=T DoCkMO=T.
 Generating alternative initial guess.
 ExpMin= 1.61D-01 ExpMax= 5.48D+03 ExpMxC= 8.25D+02 IAcc=2 IRadAn=         4 AccDes= 0.00D+00
 Harris functional with IExCor=  402 and IRadAn=       4 diagonalized for initial guess.
 HarFok:  IExCor=  402 AccDes= 0.00D+00 IRadAn=         4 IDoV= 1 UseB2=F ITyADJ=14
 ICtDFT=  3500011 ScaDFX=  1.000000  1.000000  1.000000  1.000000
 FoFCou: FMM=F IPFlag=           0 FMFlag=      100000 FMFlg1=           0
         NFxFlg=           0 DoJE=T BraDBF=F KetDBF=T FulRan=T
         wScrn=  0.000000 ICntrl=       500 IOpCl=  0 I1Cent=   200000004 NGrid=           0
         NMat0=    1 NMatS0=      1 NMatT0=    0 NMatD0=    1 NMtDS0=    0 NMtDT0=    0
 Petite list used in FoFCou.
 Harris En= -495.696302515112    
 Leave Link  401 at Mon Jul 12 12:46:55 2021, MaxMem=   104857600 cpu:               3.2 elap:               0.9
 (Enter /dades/curu/g16A03_MST/g16/l502.exe)
 Keep R1 ints in memory in canonical form, NReq=86904867.
 FoFCou: FMM=F IPFlag=           0 FMFlag=           0 FMFlg1=           0
         NFxFlg=           0 DoJE=F BraDBF=F KetDBF=F FulRan=T
         wScrn=  0.000000 ICntrl=       600 IOpCl=  0 I1Cent=           0 NGrid=           0
         NMat0=    1 NMatS0=  12880 NMatT0=    0 NMatD0=    1 NMtDS0=    0 NMtDT0=    0
 Symmetry not used in FoFCou.
 Two-electron integral symmetry not used.
 Closed shell SCF:
 Using DIIS extrapolation, IDIIS=  1040.
 NGot=   104857600 LenX=    21850023 LenY=    21823982
 Requested convergence on RMS density matrix=1.00D-08 within 128 cycles.
 Requested convergence on MAX density matrix=1.00D-06.
 Requested convergence on             energy=1.00D-06.
 No special actions if energy rises.

 Cycle   1  Pass 1  IDiag  1:
 Inv3:  Mode=1 IEnd=     7699212.
 Iteration    1 A*A^-1 deviation from unit magnitude is 5.77D-15 for   1602.
 Iteration    1 A*A^-1 deviation from orthogonality  is 2.00D-15 for    214    124.
 Iteration    1 A^-1*A deviation from unit magnitude is 5.66D-15 for   1602.
 Iteration    1 A^-1*A deviation from orthogonality  is 2.28D-15 for   1255    252.
 E= -495.570994304160    
 DIIS: error= 3.74D-03 at cycle   1 NSaved=   1.
 NSaved= 1 IEnMin= 1 EnMin= -495.570994304160     IErMin= 1 ErrMin= 3.74D-03
 ErrMax= 3.74D-03  0.00D+00 EMaxC= 1.00D-01 BMatC= 1.18D-02 BMatP= 1.18D-02
 IDIUse=3 WtCom= 9.63D-01 WtEn= 3.74D-02
 Coeff-Com:  0.100D+01
 Coeff-En:   0.100D+01
 Coeff:      0.100D+01
 Gap=     1.861 Goal=   None    Shift=    0.000
 GapD=    1.861 DampG=2.000 DampE=1.000 DampFc=2.0000 IDamp=-1.
 RMSDP=1.80D-03 MaxDP=3.14D-02              OVMax= 3.82D-02

 Cycle   2  Pass 1  IDiag  1:
 E= -495.590133911301     Delta-E=       -0.019139607141 Rises=F Damp=F
 DIIS: error= 2.07D-03 at cycle   2 NSaved=   2.
 NSaved= 2 IEnMin= 2 EnMin= -495.590133911301     IErMin= 2 ErrMin= 2.07D-03
 ErrMax= 2.07D-03  0.00D+00 EMaxC= 1.00D-01 BMatC= 1.16D-03 BMatP= 1.18D-02
 IDIUse=3 WtCom= 9.79D-01 WtEn= 2.07D-02
 Coeff-Com:  0.906D-01 0.909D+00
 Coeff-En:   0.000D+00 0.100D+01
 Coeff:      0.887D-01 0.911D+00
 Gap=     0.198 Goal=   None    Shift=    0.000
 RMSDP=4.90D-04 MaxDP=1.00D-02 DE=-1.91D-02 OVMax= 2.63D-02

 Cycle   3  Pass 1  IDiag  1:
 E= -495.589024867700     Delta-E=        0.001109043601 Rises=F Damp=F
 DIIS: error= 3.09D-03 at cycle   3 NSaved=   3.
 NSaved= 3 IEnMin= 2 EnMin= -495.590133911301     IErMin= 2 ErrMin= 2.07D-03
 ErrMax= 3.09D-03  0.00D+00 EMaxC= 1.00D-01 BMatC= 2.45D-03 BMatP= 1.16D-03
 IDIUse=3 WtCom= 1.53D-01 WtEn= 8.47D-01
 Coeff-Com: -0.325D-01 0.610D+00 0.422D+00
 Coeff-En:   0.000D+00 0.644D+00 0.356D+00
 Coeff:     -0.496D-02 0.639D+00 0.366D+00
 Gap=     0.196 Goal=   None    Shift=    0.000
 RMSDP=2.96D-04 MaxDP=7.45D-03 DE= 1.11D-03 OVMax= 1.53D-02

 Cycle   4  Pass 1  IDiag  1:
 E= -495.591250148050     Delta-E=       -0.002225280351 Rises=F Damp=F
 DIIS: error= 2.94D-04 at cycle   4 NSaved=   4.
 NSaved= 4 IEnMin= 4 EnMin= -495.591250148050     IErMin= 4 ErrMin= 2.94D-04
 ErrMax= 2.94D-04  0.00D+00 EMaxC= 1.00D-01 BMatC= 3.21D-05 BMatP= 1.16D-03
 IDIUse=3 WtCom= 9.97D-01 WtEn= 2.94D-03
 Coeff-Com: -0.191D-01 0.241D+00 0.139D+00 0.638D+00
 Coeff-En:   0.000D+00 0.000D+00 0.000D+00 0.100D+01
 Coeff:     -0.190D-01 0.241D+00 0.139D+00 0.640D+00
 Gap=     0.195 Goal=   None    Shift=    0.000
 RMSDP=5.21D-05 MaxDP=1.16D-03 DE=-2.23D-03 OVMax= 2.32D-03

 Cycle   5  Pass 1  IDiag  1:
 E= -495.591270105071     Delta-E=       -0.000019957021 Rises=F Damp=F
 DIIS: error= 2.35D-04 at cycle   5 NSaved=   5.
 NSaved= 5 IEnMin= 5 EnMin= -495.591270105071     IErMin= 5 ErrMin= 2.35D-04
 ErrMax= 2.35D-04  0.00D+00 EMaxC= 1.00D-01 BMatC= 1.14D-05 BMatP= 3.21D-05
 IDIUse=3 WtCom= 9.98D-01 WtEn= 2.35D-03
 Coeff-Com: -0.791D-02 0.772D-01 0.403D-01 0.398D+00 0.493D+00
 Coeff-En:   0.000D+00 0.000D+00 0.000D+00 0.235D+00 0.765D+00
 Coeff:     -0.789D-02 0.770D-01 0.402D-01 0.397D+00 0.494D+00
 Gap=     0.195 Goal=   None    Shift=    0.000
 RMSDP=2.31D-05 MaxDP=5.21D-04 DE=-2.00D-05 OVMax= 1.07D-03

 Cycle   6  Pass 1  IDiag  1:
 E= -495.591279035614     Delta-E=       -0.000008930543 Rises=F Damp=F
 DIIS: error= 5.91D-05 at cycle   6 NSaved=   6.
 NSaved= 6 IEnMin= 6 EnMin= -495.591279035614     IErMin= 6 ErrMin= 5.91D-05
 ErrMax= 5.91D-05  0.00D+00 EMaxC= 1.00D-01 BMatC= 6.61D-07 BMatP= 1.14D-05
 IDIUse=1 WtCom= 1.00D+00 WtEn= 0.00D+00
 Coeff-Com: -0.191D-02 0.133D-01 0.689D-02 0.135D+00 0.253D+00 0.594D+00
 Coeff:     -0.191D-02 0.133D-01 0.689D-02 0.135D+00 0.253D+00 0.594D+00
 Gap=     0.195 Goal=   None    Shift=    0.000
 RMSDP=6.15D-06 MaxDP=1.89D-04 DE=-8.93D-06 OVMax= 2.35D-04

 Cycle   7  Pass 1  IDiag  1:
 E= -495.591279548091     Delta-E=       -0.000000512476 Rises=F Damp=F
 DIIS: error= 1.44D-05 at cycle   7 NSaved=   7.
 NSaved= 7 IEnMin= 7 EnMin= -495.591279548091     IErMin= 7 ErrMin= 1.44D-05
 ErrMax= 1.44D-05  0.00D+00 EMaxC= 1.00D-01 BMatC= 7.10D-08 BMatP= 6.61D-07
 IDIUse=1 WtCom= 1.00D+00 WtEn= 0.00D+00
 Coeff-Com:  0.434D-04-0.381D-02-0.193D-02 0.145D-01 0.616D-01 0.299D+00
 Coeff-Com:  0.631D+00
 Coeff:      0.434D-04-0.381D-02-0.193D-02 0.145D-01 0.616D-01 0.299D+00
 Coeff:      0.631D+00
 Gap=     0.195 Goal=   None    Shift=    0.000
 RMSDP=2.10D-06 MaxDP=5.13D-05 DE=-5.12D-07 OVMax= 7.53D-05

 Cycle   8  Pass 1  IDiag  1:
 E= -495.591279605475     Delta-E=       -0.000000057384 Rises=F Damp=F
 DIIS: error= 8.89D-06 at cycle   8 NSaved=   8.
 NSaved= 8 IEnMin= 8 EnMin= -495.591279605475     IErMin= 8 ErrMin= 8.89D-06
 ErrMax= 8.89D-06  0.00D+00 EMaxC= 1.00D-01 BMatC= 1.00D-08 BMatP= 7.10D-08
 IDIUse=1 WtCom= 1.00D+00 WtEn= 0.00D+00
 Coeff-Com:  0.187D-03-0.330D-02-0.178D-02-0.394D-02 0.992D-02 0.111D+00
 Coeff-Com:  0.351D+00 0.537D+00
 Coeff:      0.187D-03-0.330D-02-0.178D-02-0.394D-02 0.992D-02 0.111D+00
 Coeff:      0.351D+00 0.537D+00
 Gap=     0.195 Goal=   None    Shift=    0.000
 RMSDP=7.00D-07 MaxDP=1.79D-05 DE=-5.74D-08 OVMax= 2.32D-05

 Cycle   9  Pass 1  IDiag  1:
 E= -495.591279614561     Delta-E=       -0.000000009087 Rises=F Damp=F
 DIIS: error= 1.43D-06 at cycle   9 NSaved=   9.
 NSaved= 9 IEnMin= 9 EnMin= -495.591279614561     IErMin= 9 ErrMin= 1.43D-06
 ErrMax= 1.43D-06  0.00D+00 EMaxC= 1.00D-01 BMatC= 5.43D-10 BMatP= 1.00D-08
 IDIUse=1 WtCom= 1.00D+00 WtEn= 0.00D+00
 Coeff-Com:  0.818D-04-0.114D-02-0.682D-03-0.305D-02-0.144D-02 0.243D-01
 Coeff-Com:  0.101D+00 0.239D+00 0.641D+00
 Coeff:      0.818D-04-0.114D-02-0.682D-03-0.305D-02-0.144D-02 0.243D-01
 Coeff:      0.101D+00 0.239D+00 0.641D+00
 Gap=     0.195 Goal=   None    Shift=    0.000
 RMSDP=1.79D-07 MaxDP=4.99D-06 DE=-9.09D-09 OVMax= 6.91D-06

 Cycle  10  Pass 1  IDiag  1:
 E= -495.591279614968     Delta-E=       -0.000000000406 Rises=F Damp=F
 DIIS: error= 4.54D-07 at cycle  10 NSaved=  10.
 NSaved=10 IEnMin=10 EnMin= -495.591279614968     IErMin=10 ErrMin= 4.54D-07
 ErrMax= 4.54D-07  0.00D+00 EMaxC= 1.00D-01 BMatC= 9.05D-11 BMatP= 5.43D-10
 IDIUse=1 WtCom= 1.00D+00 WtEn= 0.00D+00
 Coeff-Com:  0.132D-04-0.724D-04-0.856D-04-0.909D-03-0.225D-02-0.385D-02
 Coeff-Com: -0.580D-03 0.471D-01 0.331D+00 0.629D+00
 Coeff:      0.132D-04-0.724D-04-0.856D-04-0.909D-03-0.225D-02-0.385D-02
 Coeff:     -0.580D-03 0.471D-01 0.331D+00 0.629D+00
 Gap=     0.195 Goal=   None    Shift=    0.000
 RMSDP=6.99D-08 MaxDP=1.86D-06 DE=-4.06D-10 OVMax= 3.71D-06

 Cycle  11  Pass 1  IDiag  1:
 E= -495.591279615043     Delta-E=       -0.000000000075 Rises=F Damp=F
 DIIS: error= 1.07D-07 at cycle  11 NSaved=  11.
 NSaved=11 IEnMin=11 EnMin= -495.591279615043     IErMin=11 ErrMin= 1.07D-07
 ErrMax= 1.07D-07  0.00D+00 EMaxC= 1.00D-01 BMatC= 6.14D-12 BMatP= 9.05D-11
 IDIUse=1 WtCom= 1.00D+00 WtEn= 0.00D+00
 Coeff-Com:  0.649D-06 0.444D-04 0.106D-04-0.210D-03-0.894D-03-0.339D-02
 Coeff-Com: -0.744D-02 0.386D-02 0.993D-01 0.288D+00 0.621D+00
 Coeff:      0.649D-06 0.444D-04 0.106D-04-0.210D-03-0.894D-03-0.339D-02
 Coeff:     -0.744D-02 0.386D-02 0.993D-01 0.288D+00 0.621D+00
 Gap=     0.195 Goal=   None    Shift=    0.000
 RMSDP=2.17D-08 MaxDP=5.13D-07 DE=-7.53D-11 OVMax= 1.05D-06

 Cycle  12  Pass 1  IDiag  1:
 E= -495.591279615053     Delta-E=       -0.000000000010 Rises=F Damp=F
 DIIS: error= 5.64D-08 at cycle  12 NSaved=  12.
 NSaved=12 IEnMin=12 EnMin= -495.591279615053     IErMin=12 ErrMin= 5.64D-08
 ErrMax= 5.64D-08  0.00D+00 EMaxC= 1.00D-01 BMatC= 7.88D-13 BMatP= 6.14D-12
 IDIUse=1 WtCom= 1.00D+00 WtEn= 0.00D+00
 Coeff-Com: -0.138D-05 0.317D-04 0.177D-04 0.935D-06-0.181D-03-0.129D-02
 Coeff-Com: -0.369D-02-0.386D-02 0.104D-01 0.679D-01 0.306D+00 0.624D+00
 Coeff:     -0.138D-05 0.317D-04 0.177D-04 0.935D-06-0.181D-03-0.129D-02
 Coeff:     -0.369D-02-0.386D-02 0.104D-01 0.679D-01 0.306D+00 0.624D+00
 Gap=     0.195 Goal=   None    Shift=    0.000
 RMSDP=7.87D-09 MaxDP=1.75D-07 DE=-1.03D-11 OVMax= 4.97D-07

[...]
 RMSDP=5.25D-06 MaxDP=1.48D-04 DE=-7.30D-08 OVMax= 5.67D-05

 Cycle  11  Pass 1  IDiag  1:
 RMSU=  2.75D-06    CP:  1.00D+00
 E= -492.711822571609     Delta-E=       -0.000000014791 Rises=F Damp=F
 DIIS: error= 3.99D-06 at cycle   2 NSaved=   2.
 NSaved= 2 IEnMin= 2 EnMin= -492.711822571609     IErMin= 2 ErrMin= 3.99D-06
 ErrMax= 3.99D-06  0.00D+00 EMaxC= 1.00D-01 BMatC= 1.88D-09 BMatP= 4.38D-09
 IDIUse=1 WtCom= 1.00D+00 WtEn= 0.00D+00
 Coeff-Com:  0.123D+00 0.877D+00
 Coeff:      0.123D+00 0.877D+00
 Gap=     0.288 Goal=   None    Shift=    0.000
 RMSDP=1.20D-06 MaxDP=3.68D-05 DE=-1.48D-08 OVMax= 3.56D-05

 Cycle  12  Pass 1  IDiag  1:
 RMSU=  5.95D-07    CP:  1.00D+00  1.36D+00
 E= -492.711822577518     Delta-E=       -0.000000005909 Rises=F Damp=F
 DIIS: error= 2.29D-06 at cycle   3 NSaved=   3.
 NSaved= 3 IEnMin= 3 EnMin= -492.711822577518     IErMin= 3 ErrMin= 2.29D-06
 ErrMax= 2.29D-06  0.00D+00 EMaxC= 1.00D-01 BMatC= 8.82D-10 BMatP= 1.88D-09
 IDIUse=1 WtCom= 1.00D+00 WtEn= 0.00D+00
 Coeff-Com: -0.733D+00 0.247D-01 0.171D+01
 Coeff:     -0.733D+00 0.247D-01 0.171D+01
 Gap=     0.288 Goal=   None    Shift=    0.000
 RMSDP=3.03D-06 MaxDP=1.05D-04 DE=-5.91D-09 OVMax= 7.03D-05

 Cycle  13  Pass 1  IDiag  1:
 RMSU=  3.69D-07    CP:  1.00D+00  2.38D+00  1.96D+00
 E= -492.711822583097     Delta-E=       -0.000000005579 Rises=F Damp=F
 DIIS: error= 3.02D-07 at cycle   4 NSaved=   4.
 NSaved= 4 IEnMin= 4 EnMin= -492.711822583097     IErMin= 4 ErrMin= 3.02D-07
 ErrMax= 3.02D-07  0.00D+00 EMaxC= 1.00D-01 BMatC= 3.75D-11 BMatP= 8.82D-10
 IDIUse=1 WtCom= 1.00D+00 WtEn= 0.00D+00
 Coeff-Com: -0.177D+00-0.491D-01 0.392D+00 0.834D+00
 Coeff:     -0.177D+00-0.491D-01 0.392D+00 0.834D+00
 Gap=     0.288 Goal=   None    Shift=    0.000
 RMSDP=3.42D-07 MaxDP=1.17D-05 DE=-5.58D-09 OVMax= 7.04D-06

 Cycle  14  Pass 1  IDiag  1:
 RMSU=  8.72D-08    CP:  1.00D+00  2.49D+00  2.03D+00  1.17D+00
 E= -492.711822583185     Delta-E=       -0.000000000088 Rises=F Damp=F
 DIIS: error= 1.55D-07 at cycle   5 NSaved=   5.
 NSaved= 5 IEnMin= 5 EnMin= -492.711822583185     IErMin= 5 ErrMin= 1.55D-07
 ErrMax= 1.55D-07  0.00D+00 EMaxC= 1.00D-01 BMatC= 5.72D-12 BMatP= 3.75D-11
 IDIUse=1 WtCom= 1.00D+00 WtEn= 0.00D+00
 Coeff-Com:  0.156D+00-0.116D-01-0.355D+00 0.167D-01 0.119D+01
 Coeff:      0.156D+00-0.116D-01-0.355D+00 0.167D-01 0.119D+01
 Gap=     0.288 Goal=   None    Shift=    0.000
 RMSDP=1.22D-07 MaxDP=3.57D-06 DE=-8.84D-11 OVMax= 2.98D-06

 Cycle  15  Pass 1  IDiag  1:
 RMSU=  3.49D-08    CP:  1.00D+00  2.53D+00  2.09D+00  1.32D+00  1.31D+00
 E= -492.711822583202     Delta-E=       -0.000000000017 Rises=F Damp=F
 DIIS: error= 2.87D-08 at cycle   6 NSaved=   6.
 NSaved= 6 IEnMin= 6 EnMin= -492.711822583202     IErMin= 6 ErrMin= 2.87D-08
 ErrMax= 2.87D-08  0.00D+00 EMaxC= 1.00D-01 BMatC= 6.16D-13 BMatP= 5.72D-12
 IDIUse=1 WtCom= 1.00D+00 WtEn= 0.00D+00
 Coeff-Com:  0.459D-01 0.279D-02-0.988D-01-0.854D-01 0.240D+00 0.895D+00
 Coeff:      0.459D-01 0.279D-02-0.988D-01-0.854D-01 0.240D+00 0.895D+00
 Gap=     0.288 Goal=   None    Shift=    0.000
 RMSDP=2.23D-08 MaxDP=8.79D-07 DE=-1.72D-11 OVMax= 3.76D-07

 Cycle  16  Pass 1  IDiag  1:
 RMSU=  1.36D-08    CP:  1.00D+00  2.53D+00  2.09D+00  1.35D+00  1.39D+00
                    CP:  1.20D+00
 E= -492.711822583216     Delta-E=       -0.000000000014 Rises=F Damp=F
 DIIS: error= 1.64D-08 at cycle   7 NSaved=   7.
 NSaved= 7 IEnMin= 7 EnMin= -492.711822583216     IErMin= 7 ErrMin= 1.64D-08
 ErrMax= 1.64D-08  0.00D+00 EMaxC= 1.00D-01 BMatC= 7.33D-14 BMatP= 6.16D-13
 IDIUse=1 WtCom= 1.00D+00 WtEn= 0.00D+00
 Coeff-Com: -0.145D-01-0.271D-04 0.340D-01-0.139D-01-0.110D+00 0.565D-01
 Coeff-Com:  0.105D+01
 Coeff:     -0.145D-01-0.271D-04 0.340D-01-0.139D-01-0.110D+00 0.565D-01
 Coeff:      0.105D+01
 Gap=     0.288 Goal=   None    Shift=    0.000
 RMSDP=1.04D-08 MaxDP=2.82D-07 DE=-1.40D-11 OVMax= 2.26D-07

 Cycle  17  Pass 1  IDiag  1:
 RMSU=  4.37D-09    CP:  1.00D+00  2.53D+00  2.09D+00  1.34D+00  1.40D+00
                    CP:  1.33D+00  1.19D+00
 E= -492.711822583233     Delta-E=       -0.000000000017 Rises=F Damp=F
 DIIS: error= 6.57D-09 at cycle   8 NSaved=   8.
 NSaved= 8 IEnMin= 8 EnMin= -492.711822583233     IErMin= 8 ErrMin= 6.57D-09
 ErrMax= 6.57D-09  0.00D+00 EMaxC= 1.00D-01 BMatC= 1.97D-14 BMatP= 7.33D-14
 IDIUse=1 WtCom= 1.00D+00 WtEn= 0.00D+00
 Coeff-Com: -0.116D-01-0.828D-03 0.268D-01 0.799D-02-0.676D-01-0.140D+00
 Coeff-Com:  0.256D+00 0.929D+00
 Coeff:     -0.116D-01-0.828D-03 0.268D-01 0.799D-02-0.676D-01-0.140D+00
 Coeff:      0.256D+00 0.929D+00
 Gap=     0.288 Goal=   None    Shift=    0.000
 RMSDP=3.94D-09 MaxDP=8.39D-08 DE=-1.66D-11 OVMax= 1.09D-07

 SCF Done:  E(RHF) =  -492.711822583     A.U. after   17 cycles
            NFock= 17  Conv=0.39D-08     -V/T= 2.0013
 KE= 4.920905236740D+02 PE=-2.147189215950D+03 EE= 6.736725806045D+02
 Leave Link  502 at Mon Jul 12 13:03:17 2021, MaxMem=   262144000 cpu:             588.7 elap:             148.7
 (Enter /dades/curu/g16A03_MST/g16/l801.exe)
 ExpMin= 2.97D-02 ExpMax= 1.17D+04 ExpMxC= 4.01D+02 IAcc=3 IRadAn=         5 AccDes= 0.00D+00
 HarFok:  IExCor=  205 AccDes= 0.00D+00 IRadAn=         5 IDoV=-2 UseB2=F ITyADJ=14
 ICtDFT= 12500011 ScaDFX=  1.000000  1.000000  1.000000  1.000000
 Largest valence mixing into a core orbital is  1.18D-04
 Largest core mixing into a valence orbital is  4.39D-05
 Range of M.O.s used for correlation:    11   275
 NBasis=   275 NAE=    36 NBE=    36 NFC=    10 NFV=     0
 NROrb=    265 NOA=    26 NOB=    26 NVA=   239 NVB=   239

 **** Warning!!: The largest alpha MO coefficient is  0.14265605D+03

 Leave Link  801 at Mon Jul 12 13:03:17 2021, MaxMem=   262144000 cpu:               0.8 elap:               0.2
 (Enter /dades/curu/g16A03_MST/g16/l906.exe)
 FulOut=F Deriv=F AODrv=F NAtomX=    15
   MMem=          33  MDisk=          26 MDiskD=          26
  W3Min=     1833130 MinDsk=     2275006 NBas6D=         295
 NBas2D=       44080    NTT=       43660    LW2=     2000000
    MDV=   261548281 MDiskM=       12219 NBas2p=       43203
 Fully direct method using O(OVN) memory.
 IMap=   1   2   3   4   5   6   7   8   9  10  11  12  13  14  15  16  17  18  19  20
 IMap=  21  22  23  24  25  26
 JobTyp=1 Pass  1:  I=   1 to  26 NPSUse=  4 ParTrn=T ParDer=T DoDerP=F.
 Spin components of T(2) and E(2):
     alpha-alpha T2 =       0.7621343023D-01 E2=     -0.2142116923D+00
     alpha-beta  T2 =       0.3747887368D+00 E2=     -0.1115918985D+01
     beta-beta   T2 =       0.7621343023D-01 E2=     -0.2142116923D+00
 The integrals were generated   1 times.
 ANorm=    0.1235805647D+01
 E2 =    -0.1544342370D+01 EUMP2 =    -0.49425616495281D+03
 Leave Link  906 at Mon Jul 12 13:04:08 2021, MaxMem=   262144000 cpu:             201.5 elap:              50.5
 (Enter /dades/curu/g16A03_MST/g16/l601.exe)
 Copying SCF densities to generalized density rwf, IOpCl= 0 IROHF=0.

 **********************************************************************

            Population analysis using the SCF density.

 **********************************************************************

 Orbital symmetries:
       Occupied  (A) (A) (A) (A) (A) (A) (A) (A) (A) (A) (A) (A)
                 (A) (A) (A) (A) (A) (A) (A) (A) (A) (A) (A) (A)
                 (A) (A) (A) (A) (A) (A) (A) (A) (A) (A) (A) (A)
       Virtual   (A) (A) (A) (A) (A) (A) (A) (A) (A) (A) (A) (A)
                 (A) (A) (A) (A) (A) (A) (A) (A) (A) (A) (A) (A)
                 (A) (A) (A) (A) (A) (A) (A) (A) (A) (A) (A) (A)
                 (A) (A) (A) (A) (A) (A) (A) (A) (A) (A) (A) (A)
                 (A) (A) (A) (A) (A) (A) (A) (A) (A) (A) (A) (A)
                 (A) (A) (A) (A) (A) (A) (A) (A) (A) (A) (A) (A)
                 (A) (A) (A) (A) (A) (A) (A) (A) (A) (A) (A) (A)
                 (A) (A) (A) (A) (A) (A) (A) (A) (A) (A) (A) (A)
                 (A) (A) (A) (A) (A) (A) (A) (A) (A) (A) (A) (A)
                 (A) (A) (A) (A) (A) (A) (A) (A) (A) (A) (A) (A)
                 (A) (A) (A) (A) (A) (A) (A) (A) (A) (A) (A) (A)
                 (A) (A) (A) (A) (A) (A) (A) (A) (A) (A) (A) (A)
                 (A) (A) (A) (A) (A) (A) (A) (A) (A) (A) (A) (A)
                 (A) (A) (A) (A) (A) (A) (A) (A) (A) (A) (A) (A)
                 (A) (A) (A) (A) (A) (A) (A) (A) (A) (A) (A) (A)
                 (A) (A) (A) (A) (A) (A) (A) (A) (A) (A) (A) (A)
                 (A) (A) (A) (A) (A) (A) (A) (A) (A) (A) (A) (A)
                 (A) (A) (A) (A) (A) (A) (A) (A) (A) (A) (A) (A)
                 (A) (A) (A) (A) (A) (A) (A) (A) (A) (A) (A) (A)
                 (A) (A) (A) (A) (A) (A) (A) (A) (A) (A) (A)
 The electronic state is 1-A.
 Alpha  occ. eigenvalues --  -20.42925 -20.34604 -20.33708 -11.18734 -11.17656
 Alpha  occ. eigenvalues --  -11.12966 -11.11466 -11.10787 -11.10725 -11.09604
 Alpha  occ. eigenvalues --   -1.25165  -1.20626  -1.10599  -1.01632  -0.89441
 Alpha  occ. eigenvalues --   -0.87203  -0.72478  -0.68765  -0.61708  -0.56563
 Alpha  occ. eigenvalues --   -0.54597  -0.50980  -0.47506  -0.46521  -0.44436
 Alpha  occ. eigenvalues --   -0.43465  -0.41970  -0.40141  -0.38840  -0.36093
 Alpha  occ. eigenvalues --   -0.34430  -0.25007  -0.24466  -0.23344  -0.20941
 Alpha  occ. eigenvalues --   -0.17582
 Alpha virt. eigenvalues --    0.11264   0.12199   0.13372   0.15383   0.16518
 Alpha virt. eigenvalues --    0.20747   0.20863   0.21610   0.21906   0.22814
 Alpha virt. eigenvalues --    0.23199   0.23224   0.23522   0.24020   0.25218
 Alpha virt. eigenvalues --    0.25634   0.26393   0.26479   0.27435   0.27618
 Alpha virt. eigenvalues --    0.28402   0.29418   0.29920   0.30460   0.31335
 Alpha virt. eigenvalues --    0.32463   0.33562   0.33647   0.35114   0.37654
 Alpha virt. eigenvalues --    0.38999   0.39735   0.41101   0.41653   0.41884
 Alpha virt. eigenvalues --    0.41979   0.43306   0.43405   0.43787   0.45506
 Alpha virt. eigenvalues --    0.46285   0.46479   0.48035   0.48618   0.48740
 Alpha virt. eigenvalues --    0.49428   0.49540   0.50355   0.51784   0.52263
 Alpha virt. eigenvalues --    0.52579   0.54294   0.54788   0.55363   0.56425
 Alpha virt. eigenvalues --    0.57804   0.59845   0.60599   0.60890   0.63510
 Alpha virt. eigenvalues --    0.63795   0.64685   0.66693   0.66835   0.68554
 Alpha virt. eigenvalues --    0.70275   0.71598   0.71607   0.72430   0.73638
 Alpha virt. eigenvalues --    0.73943   0.75115   0.75626   0.78393   0.78500
 Alpha virt. eigenvalues --    0.79917   0.80357   0.80697   0.81542   0.81905
 Alpha virt. eigenvalues --    0.82826   0.83923   0.85333   0.85806   0.86848
 Alpha virt. eigenvalues --    0.88015   0.88883   0.90696   0.91049   0.92326
 Alpha virt. eigenvalues --    0.95088   0.97443   0.97875   0.98893   0.99445
 Alpha virt. eigenvalues --    1.01823   1.02202   1.03293   1.04194   1.04306
 Alpha virt. eigenvalues --    1.05706   1.07178   1.07891   1.08265   1.08631
 Alpha virt. eigenvalues --    1.09847   1.10357   1.12125   1.13793   1.14584
 Alpha virt. eigenvalues --    1.15122   1.17903   1.19008   1.19781   1.19828
 Alpha virt. eigenvalues --    1.21736   1.22875   1.24922   1.26776   1.29544
 Alpha virt. eigenvalues --    1.30212   1.32808   1.34794   1.39702   1.39732
 Alpha virt. eigenvalues --    1.40040   1.43936   1.47382   1.49549   1.52057
 Alpha virt. eigenvalues --    1.55271   1.55883   1.56371   1.57088   1.59349
 Alpha virt. eigenvalues --    1.61382   1.63823   1.64421   1.64493   1.66868
 Alpha virt. eigenvalues --    1.67717   1.69674   1.69909   1.70104   1.72281
 Alpha virt. eigenvalues --    1.73965   1.75016   1.77430   1.79704   1.81600
 Alpha virt. eigenvalues --    1.82683   1.83395   1.84002   1.85659   1.86448
 Alpha virt. eigenvalues --    1.88112   1.88257   1.91989   1.95268   1.96933
 Alpha virt. eigenvalues --    1.97066   1.98744   2.00451   2.03567   2.04919
 Alpha virt. eigenvalues --    2.05765   2.05940   2.07515   2.07822   2.10189
 Alpha virt. eigenvalues --    2.11599   2.13297   2.13364   2.16319   2.16571
 Alpha virt. eigenvalues --    2.19108   2.22956   2.25386   2.25604   2.26366
 Alpha virt. eigenvalues --    2.29995   2.30829   2.34595   2.35362   2.37037
 Alpha virt. eigenvalues --    2.39503   2.39683   2.44153   2.44960   2.46704
 Alpha virt. eigenvalues --    2.47187   2.49279   2.49342   2.52266   2.55161
 Alpha virt. eigenvalues --    2.55544   2.57654   2.59985   2.70803   2.75054
 Alpha virt. eigenvalues --    2.76268   2.77697   2.83643   2.85749   2.92941
 Alpha virt. eigenvalues --    2.93265   2.96834   3.01142   3.09574   3.10297
 Alpha virt. eigenvalues --    3.14435   3.21389   3.25543   3.30681   3.36200
 Alpha virt. eigenvalues --    3.37121   3.41977   3.43573   3.54784   3.60753
 Alpha virt. eigenvalues --    3.71668   3.79398   3.90791   3.93892   3.94669
 Alpha virt. eigenvalues --    3.95960   3.96487   4.01935   4.04638   4.04760
 Alpha virt. eigenvalues --    4.06840   4.12565   4.14890   4.21065   4.28060
 Alpha virt. eigenvalues --    4.35332   4.44111   4.65614   4.81952
          Condensed to atoms (all electrons):
               1          2          3          4          5          6
     1  O    8.927226   0.234391  -0.119579   0.062732  -0.026710  -0.007221
     2  C    0.234391   7.326036   0.183900  -0.721130  -0.713483   0.022243
     3  O   -0.119579   0.183900   9.147300   0.093368   0.046873  -0.084152
     4  C    0.062732  -0.721130   0.093368  10.819990  -2.394643   0.245830
     5  C   -0.026710  -0.713483   0.046873  -2.394643  13.143277  -0.505843
     6  O   -0.007221   0.022243  -0.084152   0.245830  -0.505843   9.202679
     7  H    0.006801  -0.068770   0.016820  -0.070454   0.016864   0.302334
     8  C   -0.012483  -0.360003  -0.094833   0.706544  -3.367829  -0.044600
     9  H    0.000321   0.009226   0.003622  -0.108315   0.986559  -0.069442
    10  C   -0.007482   0.224309  -0.011972  -2.247242   1.818357  -0.132174
    11  H    0.000245  -0.009659  -0.000283   0.056425  -0.176286  -0.004236
    12  C   -0.109767  -0.295636  -0.020370   1.109577  -2.699132   0.071482
    13  H    0.000630   0.014104   0.000498  -0.089237   0.072970   0.001996
    14  C    0.041137  -0.752394  -0.077547  -2.822368  -0.302330   0.031311
    15  H   -0.030114   0.064963   0.004106   0.507395  -0.046306  -0.000613
               7          8          9         10         11         12
     1  O    0.006801  -0.012483   0.000321  -0.007482   0.000245  -0.109767
     2  C   -0.068770  -0.360003   0.009226   0.224309  -0.009659  -0.295636
     3  O    0.016820  -0.094833   0.003622  -0.011972  -0.000283  -0.020370
     4  C   -0.070454   0.706544  -0.108315  -2.247242   0.056425   1.109577
     5  C    0.016864  -3.367829   0.986559   1.818357  -0.176286  -2.699132
     6  O    0.302334  -0.044600  -0.069442  -0.132174  -0.004236   0.071482
     7  H    0.489860   0.022201  -0.002094   0.006311  -0.000246  -0.011686
     8  C    0.022201  12.639434  -1.236688  -2.777004   0.445387   2.932322
     9  H   -0.002094  -1.236688   1.795168   0.328691  -0.078785  -0.263677
    10  C    0.006311  -2.777004   0.328691   9.100539  -0.652319  -2.471028
    11  H   -0.000246   0.445387  -0.078785  -0.652319   1.681853   0.414591
    12  C   -0.011686   2.932322  -0.263677  -2.471028   0.414591  10.697315
    13  H    0.000008  -0.187386  -0.014780   0.320921  -0.065465  -0.796524
    14  C    0.001083  -3.599869   0.167709   2.211636  -0.139692  -3.290858
    15  H   -0.002268   0.109784   0.008503  -0.164208  -0.009943   0.287366
              13         14         15
     1  O    0.000630   0.041137  -0.030114
     2  C    0.014104  -0.752394   0.064963
     3  O    0.000498  -0.077547   0.004106
     4  C   -0.089237  -2.822368   0.507395
     5  C    0.072970  -0.302330  -0.046306
     6  O    0.001996   0.031311  -0.000613
     7  H    0.000008   0.001083  -0.002268
     8  C   -0.187386  -3.599869   0.109784
     9  H   -0.014780   0.167709   0.008503
    10  C    0.320921   2.211636  -0.164208
    11  H   -0.065465  -0.139692  -0.009943
    12  C   -0.796524  -3.290858   0.287366
    13  H    1.701720   0.586211  -0.084404
    14  C    0.586211  14.544882  -0.860584
    15  H   -0.084404  -0.860584   1.809690
 Mulliken charges:
               1
     1  O   -0.960127
     2  C    0.841902
     3  O   -1.087751
     4  C    0.851528
     5  C    0.147663
     6  O   -1.029596
     7  H    0.293235
     8  C    0.825022
     9  H   -0.526019
    10  C    0.452663
    11  H   -0.461587
    12  C    0.446024
    13  H   -0.461263
    14  C    0.261672
    15  H   -0.593367
 Sum of Mulliken charges =  -1.00000
 Mulliken charges with hydrogens summed into heavy atoms:
               1
     1  O   -0.960127
     2  C    0.841902
     3  O   -1.087751
     4  C    0.851528
     5  C    0.147663
     6  O   -0.736361
     8  C    0.299003
    10  C   -0.008924
    12  C   -0.015238
    14  C   -0.331695
 Electronic spatial extent (au):  <R**2>=           1354.0689
 Charge=             -1.0000 electrons
 Dipole moment (field-independent basis, Debye):
    X=              8.0734    Y=              0.1680    Z=             -0.0004  Tot=              8.0751
 Quadrupole moment (field-independent basis, Debye-Ang):
   XX=            -86.5510   YY=            -72.4747   ZZ=            -63.3464
   XY=             -4.6396   XZ=              0.0029   YZ=              0.0047
 Traceless Quadrupole moment (field-independent basis, Debye-Ang):
   XX=            -12.4270   YY=              1.6493   ZZ=             10.7777
   XY=             -4.6396   XZ=              0.0029   YZ=              0.0047
 Octapole moment (field-independent basis, Debye-Ang**2):
  XXX=             57.1525  YYY=             -1.5771  ZZZ=              0.0005  XYY=             14.0823
  XXY=             18.9534  XXZ=             -0.0012  XZZ=            -12.5145  YZZ=              3.8513
  YYZ=             -0.0030  XYZ=             -0.0031
 Hexadecapole moment (field-independent basis, Debye-Ang**3):
 XXXX=          -1316.5764 YYYY=           -652.1533 ZZZZ=            -73.6046 XXXY=            -23.8783
 XXXZ=              0.0274 YYYX=            -27.0927 YYYZ=              0.0179 ZZZX=             -0.0021
 ZZZY=             -0.0041 XXYY=           -329.7443 XXZZ=           -221.0541 YYZZ=           -122.4706
 XXYZ=              0.0196 YYXZ=              0.0071 ZZXY=              3.1575
 N-N= 4.887142890884D+02 E-N=-2.147189215841D+03  KE= 4.920905236740D+02
 Leave Link  601 at Mon Jul 12 13:04:08 2021, MaxMem=   262144000 cpu:               0.2 elap:               0.1
 (Enter /dades/curu/g16A03_MST/g16/l9999.exe)
 1\1\GINC-PIRINEUS23\SP\RMP2-FC\Aug-CC-pVDZ\C7H5O3(1-)\UBATOR02\12-Jul-
 2021\0\\#p mp2/aug-cc-pVDZ scf=tight maxdisk=180GB geom=allcheck\\SET_
 328_BBB299_conf1.geo_180_000 geometry\\-1,1\O,0,-1.214588083,-0.889130
 9513,-2.4727648586\C,0,-1.4234185622,-0.7572382018,-1.245679595\O,0,-2
 .5193280294,-1.0723601534,-0.6511704001\C,0,-0.3238296051,-0.188003021
 8,-0.3736519231\C,0,-0.5079549948,-0.0184340255,1.020533564\O,0,-1.664
 9342605,-0.3553545385,1.6239753884\H,0,-2.2409171065,-0.7066026574,0.8
 586028421\C,0,0.5322585414,0.5118309784,1.8012726579\H,0,0.3682920285,
 0.6323376844,2.8670346906\C,0,1.7392901108,0.8704222896,1.2115357332\H
 ,0,2.5339843889,1.2791572013,1.8289686046\C,0,1.9344967985,0.708369012
 2,-0.1652186448\H,0,2.877138239,0.9889858652,-0.6236097625\C,0,0.90242
 0212,0.1825405054,-0.9368955669\H,0,1.0170903222,0.0424800131,-2.00593
 27299\\Version=ES64L-G16RevA.03\State=1-A\HF=-492.7118226\MP2=-494.256
 165\RMSD=3.935e-09\PG=C01 [X(C7H5O3)]\\@


 HO!  SUCH BUGS AND GOBLINS IN MY LIFE!

                            -- HAMLET, ACT 5, SCENE 2
 Job cpu time:       0 days  0 hours 13 minutes 23.1 seconds.
 Elapsed time:       0 days  0 hours  3 minutes 22.7 seconds.
 File lengths (MBytes):  RWF=     46 Int=      0 D2E=      0 Chk=      9 Scr=      1
 Normal termination of Gaussian 16 at Mon Jul 12 13:04:08 2021.
