 Entering Gaussian System, Link 0=g16
 Input=SET_328_BBB87_conf1.geo_285_105_OCTANOL.dat
 Output=SET_328_BBB87_conf1.geo_285_105_OCTANOL.log
 Initial command:
 /dades/curu/g16A03_MST/g16/l1.exe "/tmp/ubator02/1835318/Gau-211899.inp" -scrdir="/tmp/ubator02/1835318/"
 Entering Link 1 = /dades/curu/g16A03_MST/g16/l1.exe PID=    211901.
  
 Copyright (c) 1988,1990,1992,1993,1995,1998,2003,2009,2016,
            Gaussian, Inc.  All Rights Reserved.
  
 This is part of the Gaussian(R) 16 program.  It is based on
 the Gaussian(R) 09 system (copyright 2009, Gaussian, Inc.),
 the Gaussian(R) 03 system (copyright 2003, Gaussian, Inc.),
 the Gaussian(R) 98 system (copyright 1998, Gaussian, Inc.),
 the Gaussian(R) 94 system (copyright 1995, Gaussian, Inc.),
 the Gaussian 92(TM) system (copyright 1992, Gaussian, Inc.),
 the Gaussian 90(TM) system (copyright 1990, Gaussian, Inc.),
 the Gaussian 88(TM) system (copyright 1988, Gaussian, Inc.),
 the Gaussian 86(TM) system (copyright 1986, Carnegie Mellon
 University), and the Gaussian 82(TM) system (copyright 1983,
 Carnegie Mellon University). Gaussian is a federally registered
 trademark of Gaussian, Inc.
  
 This software contains proprietary and confidential information,
 including trade secrets, belonging to Gaussian, Inc.
  
 This software is provided under written license and may be
 used, copied, transmitted, or stored only in accord with that
 written license.
  
 The following legend is applicable only to US Government
 contracts under FAR:
  
                    RESTRICTED RIGHTS LEGEND
  
 Use, reproduction and disclosure by the US Government is
 subject to restrictions as set forth in subparagraphs (a)
 and (c) of the Commercial Computer Software - Restricted
 Rights clause in FAR 52.227-19.
  
 Gaussian, Inc.
 340 Quinnipiac St., Bldg. 40, Wallingford CT 06492
  
  
 ---------------------------------------------------------------
 Warning -- This program may not be used in any manner that
 competes with the business of Gaussian, Inc. or will provide
 assistance to any competitor of Gaussian, Inc.  The licensee
 of this program is prohibited from giving any competitor of
 Gaussian, Inc. access to this program.  By using this program,
 the user acknowledges that Gaussian, Inc. is engaged in the
 business of creating and licensing software in the field of
 computational chemistry and represents and warrants to the
 licensee that it is not a competitor of Gaussian, Inc. and that
 it will not use this program in any manner prohibited above.
 ---------------------------------------------------------------
  

 Cite this work as:
 Gaussian 16, Revision A.03,
 M. J. Frisch, G. W. Trucks, H. B. Schlegel, G. E. Scuseria, 
 M. A. Robb, J. R. Cheeseman, G. Scalmani, V. Barone, 
 G. A. Petersson, H. Nakatsuji, X. Li, M. Caricato, A. V. Marenich, 
 J. Bloino, B. G. Janesko, R. Gomperts, B. Mennucci, H. P. Hratchian, 
 J. V. Ortiz, A. F. Izmaylov, J. L. Sonnenberg, D. Williams-Young, 
 F. Ding, F. Lipparini, F. Egidi, J. Goings, B. Peng, A. Petrone, 
 T. Henderson, D. Ranasinghe, V. G. Zakrzewski, J. Gao, N. Rega, 
 G. Zheng, W. Liang, M. Hada, M. Ehara, K. Toyota, R. Fukuda, 
 J. Hasegawa, M. Ishida, T. Nakajima, Y. Honda, O. Kitao, H. Nakai, 
 T. Vreven, K. Throssell, J. A. Montgomery, Jr., J. E. Peralta, 
 F. Ogliaro, M. J. Bearpark, J. J. Heyd, E. N. Brothers, K. N. Kudin, 
 V. N. Staroverov, T. A. Keith, R. Kobayashi, J. Normand, 
 K. Raghavachari, A. P. Rendell, J. C. Burant, S. S. Iyengar, 
 J. Tomasi, M. Cossi, J. M. Millam, M. Klene, C. Adamo, R. Cammi, 
 J. W. Ochterski, R. L. Martin, K. Morokuma, O. Farkas, 
 J. B. Foresman, and D. J. Fox, Gaussian, Inc., Wallingford CT, 2016.
 
 ******************************************
 Gaussian 16:  ES64L-G16RevA.03 25-Dec-2016
                12-Jul-2021 
 ******************************************
 %mem=800MB
 %nproc=4
 Will use up to    4 processors via shared memory.
 %chk=SET_328_BBB87_conf1.geo_285_105.chk
 ---------------------------------------------------------------
 #p b3lyp/6-31G(d) opt freq scrf=(iefpcm,read,solvent=n-octanol)
 ---------------------------------------------------------------
 1/18=20,19=15,26=3,38=1,40=2/1,3;
 2/9=110,12=2,17=6,18=5,40=1/2;
 3/5=1,6=6,7=1,11=2,25=1,30=1,70=2203,71=1,72=25,74=-5/1,2,3;
 4//1;
 5/5=2,38=5,53=25/2;
 6/7=2,8=2,9=2,10=2,28=1/1;
 7//1,2,3,16;
 1/18=20,19=15,26=3/3(2);
 2/9=110/2;
 99//99;
 2/9=110/2;
 3/5=1,6=6,7=1,11=2,25=1,30=1,70=2205,71=1,72=25,74=-5/1,2,3;
 4/5=5,16=3,69=1/1;
 5/5=2,38=5,53=25/2;
 7//1,2,3,16;
 1/18=20,19=15,26=3/3(-5);
 2/9=110/2;
 6/7=2,8=2,9=2,10=2,19=2,28=1/1;
 99/9=1/99;
 Leave Link    1 at Mon Jul 12 12:51:26 2021, MaxMem=   104857600 cpu:               0.1 elap:               0.0
 (Enter /dades/curu/g16A03_MST/g16/l101.exe)
 ----------------------------------------
 SET_328_BBB87_conf1.geo_285_105 geometry
 ----------------------------------------
 Symbolic Z-matrix:
 Charge =  1 Multiplicity = 1
 N                     2.172     0.245     0.168 
 H                     2.386     0.628     1.067 
 H                     3.017     0.125    -0.352 
 C                     1.305     1.133    -0.533 
 H                     1.154     0.622    -1.487 
 H                     1.721     2.144    -0.531 
 C                     0.012     1.291     0.2 
 H                    -0.493     2.189    -0.164 
 H                     0.206     1.494     1.255 
 C                    -0.811     0.084     0.03 
 N                    -0.911    -0.77      1.087 
 C                    -1.736    -1.814     0.793 
 H                    -1.918    -2.511     1.601 
 C                    -2.068    -1.898    -0.532 
 H                    -2.534    -2.711    -1.075 
 S                    -1.535    -0.511    -1.458 
 H                     1.721    -0.64      0.281 
 
 ITRead=  0  0  0  0  0  0  0  0  0  0  0  0  0  0  0  0  0
 MicOpt= -1 -1 -1 -1 -1 -1 -1 -1 -1 -1 -1 -1 -1 -1 -1 -1 -1
 NAtoms=     17 NQM=       17 NQMF=       0 NMMI=      0 NMMIF=      0
                NMic=       0 NMicF=      0.
                    Isotopes and Nuclear Properties:
 (Nuclear quadrupole moments (NQMom) in fm**2, nuclear magnetic moments (NMagM)
  in nuclear magnetons)

  Atom         1           2           3           4           5           6           7           8           9          10
 IAtWgt=          14           1           1          12           1           1          12           1           1          12
 AtmWgt=  14.0030740   1.0078250   1.0078250  12.0000000   1.0078250   1.0078250  12.0000000   1.0078250   1.0078250  12.0000000
 NucSpn=           2           1           1           0           1           1           0           1           1           0
 AtZEff=  -0.0000000  -0.0000000  -0.0000000  -0.0000000  -0.0000000  -0.0000000  -0.0000000  -0.0000000  -0.0000000  -0.0000000
 NQMom=    2.0440000   0.0000000   0.0000000   0.0000000   0.0000000   0.0000000   0.0000000   0.0000000   0.0000000   0.0000000
 NMagM=    0.4037610   2.7928460   2.7928460   0.0000000   2.7928460   2.7928460   0.0000000   2.7928460   2.7928460   0.0000000
 AtZNuc=   7.0000000   1.0000000   1.0000000   6.0000000   1.0000000   1.0000000   6.0000000   1.0000000   1.0000000   6.0000000

  Atom        11          12          13          14          15          16          17
 IAtWgt=          14          12           1          12           1          32           1
 AtmWgt=  14.0030740  12.0000000   1.0078250  12.0000000   1.0078250  31.9720718   1.0078250
 NucSpn=           2           0           1           0           1           0           1
 AtZEff=  -0.0000000  -0.0000000  -0.0000000  -0.0000000  -0.0000000  -0.0000000  -0.0000000
 NQMom=    2.0440000   0.0000000   0.0000000   0.0000000   0.0000000   0.0000000   0.0000000
 NMagM=    0.4037610   0.0000000   2.7928460   0.0000000   2.7928460   0.0000000   2.7928460
 AtZNuc=   7.0000000   6.0000000   1.0000000   6.0000000   1.0000000  16.0000000   1.0000000
 Leave Link  101 at Mon Jul 12 12:51:26 2021, MaxMem=   104857600 cpu:               0.1 elap:               0.1
 (Enter /dades/curu/g16A03_MST/g16/l103.exe)

 GradGradGradGradGradGradGradGradGradGradGradGradGradGradGradGradGradGrad
 Berny optimization.
 Initialization pass.
                           ----------------------------
                           !    Initial Parameters    !
                           ! (Angstroms and Degrees)  !
 --------------------------                            --------------------------
 ! Name  Definition              Value          Derivative Info.                !
 --------------------------------------------------------------------------------
 ! R1    R(1,2)                  1.0003         estimate D2E/DX2                !
 ! R2    R(1,3)                  0.9994         estimate D2E/DX2                !
 ! R3    R(1,4)                  1.4254         estimate D2E/DX2                !
 ! R4    R(1,17)                 0.9997         estimate D2E/DX2                !
 ! R5    R(4,5)                  1.0927         estimate D2E/DX2                !
 ! R6    R(4,6)                  1.0932         estimate D2E/DX2                !
 ! R7    R(4,7)                  1.4947         estimate D2E/DX2                !
 ! R8    R(7,8)                  1.0927         estimate D2E/DX2                !
 ! R9    R(7,9)                  1.0917         estimate D2E/DX2                !
 ! R10   R(7,10)                 1.4707         estimate D2E/DX2                !
 ! R11   R(10,11)                1.3626         estimate D2E/DX2                !
 ! R12   R(10,16)                1.7585         estimate D2E/DX2                !
 ! R13   R(11,12)                1.3627         estimate D2E/DX2                !
 ! R14   R(12,13)                1.0825         estimate D2E/DX2                !
 ! R15   R(12,14)                1.3685         estimate D2E/DX2                !
 ! R16   R(14,15)                1.083          estimate D2E/DX2                !
 ! R17   R(14,16)                1.7508         estimate D2E/DX2                !
 ! A1    A(2,1,3)              109.4322         estimate D2E/DX2                !
 ! A2    A(2,1,4)              109.4862         estimate D2E/DX2                !
 ! A3    A(2,1,17)             109.5037         estimate D2E/DX2                !
 ! A4    A(3,1,4)              109.4634         estimate D2E/DX2                !
 ! A5    A(3,1,17)             109.5088         estimate D2E/DX2                !
 ! A6    A(4,1,17)             109.4329         estimate D2E/DX2                !
 ! A7    A(1,4,5)              102.8316         estimate D2E/DX2                !
 ! A8    A(1,4,6)              110.1072         estimate D2E/DX2                !
 ! A9    A(1,4,7)              110.5401         estimate D2E/DX2                !
 ! A10   A(5,4,6)              119.12           estimate D2E/DX2                !
 ! A11   A(5,4,7)              110.9798         estimate D2E/DX2                !
 ! A12   A(6,4,7)              103.3277         estimate D2E/DX2                !
 ! A13   A(4,7,8)              108.8635         estimate D2E/DX2                !
 ! A14   A(4,7,9)              109.867          estimate D2E/DX2                !
 ! A15   A(4,7,10)             109.9157         estimate D2E/DX2                !
 ! A16   A(8,7,9)              104.5505         estimate D2E/DX2                !
 ! A17   A(8,7,10)             112.1688         estimate D2E/DX2                !
 ! A18   A(9,7,10)             111.3298         estimate D2E/DX2                !
 ! A19   A(7,10,11)            117.76           estimate D2E/DX2                !
 ! A20   A(7,10,16)            127.2918         estimate D2E/DX2                !
 ! A21   A(11,10,16)           114.4646         estimate D2E/DX2                !
 ! A22   A(10,11,12)           110.9308         estimate D2E/DX2                !
 ! A23   A(11,12,13)           115.7242         estimate D2E/DX2                !
 ! A24   A(11,12,14)           113.7517         estimate D2E/DX2                !
 ! A25   A(13,12,14)           129.9685         estimate D2E/DX2                !
 ! A26   A(12,14,15)           129.4847         estimate D2E/DX2                !
 ! A27   A(12,14,16)           112.9292         estimate D2E/DX2                !
 ! A28   A(15,14,16)           117.4191         estimate D2E/DX2                !
 ! A29   A(10,16,14)            86.8957         estimate D2E/DX2                !
 ! D1    D(2,1,4,5)            179.3856         estimate D2E/DX2                !
 ! D2    D(2,1,4,6)             51.442          estimate D2E/DX2                !
 ! D3    D(2,1,4,7)            -62.0934         estimate D2E/DX2                !
 ! D4    D(3,1,4,5)             59.4289         estimate D2E/DX2                !
 ! D5    D(3,1,4,6)            -68.5146         estimate D2E/DX2                !
 ! D6    D(3,1,4,7)            177.95           estimate D2E/DX2                !
 ! D7    D(17,1,4,5)           -60.5889         estimate D2E/DX2                !
 ! D8    D(17,1,4,6)           171.4676         estimate D2E/DX2                !
 ! D9    D(17,1,4,7)            57.9322         estimate D2E/DX2                !
 ! D10   D(1,4,7,8)            162.1615         estimate D2E/DX2                !
 ! D11   D(1,4,7,9)             48.2232         estimate D2E/DX2                !
 ! D12   D(1,4,7,10)           -74.6152         estimate D2E/DX2                !
 ! D13   D(5,4,7,8)            -84.4054         estimate D2E/DX2                !
 ! D14   D(5,4,7,9)            161.6563         estimate D2E/DX2                !
 ! D15   D(5,4,7,10)            38.8179         estimate D2E/DX2                !
 ! D16   D(6,4,7,8)             44.384          estimate D2E/DX2                !
 ! D17   D(6,4,7,9)            -69.5543         estimate D2E/DX2                !
 ! D18   D(6,4,7,10)           167.6072         estimate D2E/DX2                !
 ! D19   D(4,7,10,11)          105.2619         estimate D2E/DX2                !
 ! D20   D(4,7,10,16)          -66.2742         estimate D2E/DX2                !
 ! D21   D(8,7,10,11)         -133.4761         estimate D2E/DX2                !
 ! D22   D(8,7,10,16)           54.9878         estimate D2E/DX2                !
 ! D23   D(9,7,10,11)          -16.7104         estimate D2E/DX2                !
 ! D24   D(9,7,10,16)          171.7535         estimate D2E/DX2                !
 ! D25   D(7,10,11,12)         178.0901         estimate D2E/DX2                !
 ! D26   D(16,10,11,12)         -9.3012         estimate D2E/DX2                !
 ! D27   D(7,10,16,14)         175.7157         estimate D2E/DX2                !
 ! D28   D(11,10,16,14)          3.9426         estimate D2E/DX2                !
 ! D29   D(10,11,12,13)       -176.503          estimate D2E/DX2                !
 ! D30   D(10,11,12,14)         11.1798         estimate D2E/DX2                !
 ! D31   D(11,12,14,15)        166.7585         estimate D2E/DX2                !
 ! D32   D(11,12,14,16)         -8.3531         estimate D2E/DX2                !
 ! D33   D(13,12,14,15)         -4.2001         estimate D2E/DX2                !
 ! D34   D(13,12,14,16)       -179.3117         estimate D2E/DX2                !
 ! D35   D(12,14,16,10)          2.4429         estimate D2E/DX2                !
 ! D36   D(15,14,16,10)       -173.3081         estimate D2E/DX2                !
 --------------------------------------------------------------------------------
 Trust Radius=3.00D-01 FncErr=1.00D-07 GrdErr=1.00D-06 EigMax=2.50D+02 EigMin=1.00D-04
 Number of steps in this run=     92 maximum allowed number of steps=    102.
 GradGradGradGradGradGradGradGradGradGradGradGradGradGradGradGradGradGrad

 Leave Link  103 at Mon Jul 12 12:51:26 2021, MaxMem=   104857600 cpu:               0.1 elap:               0.0
 (Enter /dades/curu/g16A03_MST/g16/l202.exe)
                          Input orientation:                          
 ---------------------------------------------------------------------
 Center     Atomic      Atomic             Coordinates (Angstroms)
 Number     Number       Type             X           Y           Z
 ---------------------------------------------------------------------
      1          7           0        2.172000    0.245000    0.168000
      2          1           0        2.386000    0.628000    1.067000
      3          1           0        3.017000    0.125000   -0.352000
      4          6           0        1.305000    1.133000   -0.533000
      5          1           0        1.154000    0.622000   -1.487000
      6          1           0        1.721000    2.144000   -0.531000
      7          6           0        0.012000    1.291000    0.200000
      8          1           0       -0.493000    2.189000   -0.164000
      9          1           0        0.206000    1.494000    1.255000
     10          6           0       -0.811000    0.084000    0.030000
     11          7           0       -0.911000   -0.770000    1.087000
     12          6           0       -1.736000   -1.814000    0.793000
     13          1           0       -1.918000   -2.511000    1.601000
     14          6           0       -2.068000   -1.898000   -0.532000
     15          1           0       -2.534000   -2.711000   -1.075000
     16         16           0       -1.535000   -0.511000   -1.458000
     17          1           0        1.721000   -0.640000    0.281000
 ---------------------------------------------------------------------
                    Distance matrix (angstroms):
                    1          2          3          4          5
     1  N    0.000000
     2  H    1.000343   0.000000
     3  H    0.999412   1.632400   0.000000
     4  C    1.425354   1.995892   1.994936   0.000000
     5  H    1.979262   2.835626   2.237410   1.092720   0.000000
     6  H    2.073211   2.300888   2.405830   1.093243   1.884651
     7  C    2.400154   2.612878   3.270212   1.494691   2.144223
     8  H    3.315356   3.498674   4.076216   2.117570   2.630290
     9  H    2.570355   2.353232   3.515442   2.129569   3.029464
    10  C    2.990527   3.404719   3.847231   2.427926   2.540070
    11  N    3.373377   3.581203   4.277959   3.340129   3.581531
    12  C    4.461230   4.798888   5.259444   4.437428   4.414136
    13  H    5.135867   5.353774   5.925954   5.312290   5.365502
    14  C    4.802088   5.364289   5.475596   4.534765   4.200442
    15  H    5.694684   6.320086   6.275287   5.459672   4.987983
    16  S    4.117919   4.800749   4.727413   3.409393   2.918090
    17  H    0.999697   1.633354   1.632645   1.994788   2.244985
                    6          7          8          9         10
     6  H    0.000000
     7  C    2.045153   0.000000
     8  H    2.244663   1.092669   0.000000
     9  H    2.430539   1.091728   1.727769   0.000000
    10  C    3.312000   1.470741   2.137706   2.126738   0.000000
    11  N    4.246969   2.426194   3.239661   2.530140   1.362558
    12  C    5.419372   3.612226   4.299408   3.863635   2.245039
    13  H    6.281462   4.488085   5.218798   4.546550   3.229166
    14  C    5.540242   3.877105   4.395409   4.457590   2.413341
    15  H    6.478579   4.911593   5.385685   5.533401   3.464358
    16  S    4.302312   2.896442   3.170205   3.796245   1.758506
    17  H    2.900000   2.579923   3.619815   2.792464   2.645411
                   11         12         13         14         15
    11  N    0.000000
    12  C    1.362717   0.000000
    13  H    2.075892   1.082496   0.000000
    14  C    2.287399   1.368541   2.224401   0.000000
    15  H    3.328041   2.220549   2.753258   1.083039   0.000000
    16  S    2.633151   2.608680   3.674802   1.750810   2.446363
    17  H    2.755714   3.686634   4.299461   4.074316   4.922682
                   16         17
    16  S    0.000000
    17  H    3.693548   0.000000
 Stoichiometry    C5H9N2S(1+)
 Framework group  C1[X(C5H9N2S)]
 Deg. of freedom    45
 Full point group                 C1      NOp   1
 Largest Abelian subgroup         C1      NOp   1
 Largest concise Abelian subgroup C1      NOp   1
                         Standard orientation:                         
 ---------------------------------------------------------------------
 Center     Atomic      Atomic             Coordinates (Angstroms)
 Number     Number       Type             X           Y           Z
 ---------------------------------------------------------------------
      1          7           0       -2.472049    0.597916   -0.859231
      2          1           0       -2.941308    1.280943   -0.298913
      3          1           0       -3.058694    0.335899   -1.624750
      4          6           0       -2.184288   -0.551121   -0.066425
      5          1           0       -1.691349   -1.219012   -0.777036
      6          1           0       -3.089035   -0.891652    0.444118
      7          6           0       -1.266847   -0.195573    1.058737
      8          1           0       -1.314185   -0.982520    1.815307
      9          1           0       -1.633666    0.697423    1.568512
     10          6           0        0.098299    0.002405    0.548580
     11          7           0        0.560390    1.280534    0.451503
     12          6           0        1.847881    1.300154    0.005431
     13          1           0        2.312962    2.276366   -0.044616
     14          6           0        2.286963    0.092071   -0.464299
     15          1           0        3.171445   -0.141126   -1.044201
     16         16           0        1.159486   -1.210990   -0.154199
     17          1           0       -1.618381    0.982757   -1.209294
 ---------------------------------------------------------------------
 Rotational constants (GHZ):           3.2274403           1.2285171           1.0595917
 Leave Link  202 at Mon Jul 12 12:51:26 2021, MaxMem=   104857600 cpu:               0.0 elap:               0.0
 (Enter /dades/curu/g16A03_MST/g16/l301.exe)
 Standard basis: 6-31G(d) (6D, 7F)
 Ernie: Thresh=  0.10000D-02 Tol=  0.10000D-05 Strict=F.
 There are   142 symmetry adapted cartesian basis functions of A   symmetry.
 There are   142 symmetry adapted basis functions of A   symmetry.
   142 basis functions,   284 primitive gaussians,   142 cartesian basis functions
    34 alpha electrons       34 beta electrons
       nuclear repulsion energy       450.7979780928 Hartrees.
 IExCor=  402 DFT=T Ex+Corr=B3LYP ExCW=0 ScaHFX=  0.200000
 ScaDFX=  0.800000  0.720000  1.000000  0.810000 ScalE2=  1.000000  1.000000
 IRadAn=      5 IRanWt=     -1 IRanGd=            0 ICorTp=0 IEmpDi=  4
 NAtoms=   17 NActive=   17 NUniq=   17 SFac= 1.00D+00 NAtFMM=   60 NAOKFM=F Big=F
 Integral buffers will be    131072 words long.
 Raffenetti 2 integral format.
 Two-electron integral symmetry is turned on.
 Using the following non-standard input for PCM:
 MSTModel=DFT cav MSTCharged
 --- end of non-standard input.
 MST model for solvation energy: B3LYP parametrization.
 MST cavity parameters:
 ISph   IAn     Re0     Alpha   Atom Type   QCorr
 ------------------------------------------------
   1      7     1.50     1.15      NH+        T
   2      1     0.90     1.15      NH+        T
   3      1     0.90     1.15      NH+        T
   4      6     1.50     1.50      CN+        F
   5      1     1.20     1.50      CN+        F
   6      1     1.20     1.50      CN+        F
   7      6     1.50     1.50      CH2        F
   8      1     1.20     1.50      CH2        F
   9      1     1.20     1.50      CH2        F
  10      6     1.50     1.50      C          F
  11      7     1.50     1.50      Nc         F
  12      6     1.50     1.50      CH         F
  13      1     1.20     1.50      CH         F
  14      6     1.50     1.50      CH         F
  15      1     1.20     1.50      CH         F
  16     16     1.75     1.50      S          F
  17      1     0.90     1.15      NH+        T
 ------------------------------------------------------------------------------
 Polarizable Continuum Model (PCM)
 =================================
 Model                : PCM.
 Atomic radii         : MST.
 Polarization charges : Total charges.
 Charge compensation  : None.
 Solution method      : On-the-fly selection.
 Cavity type          : Scaled VdW (van der Waals Surface) (Alpha=1.500).
 Cavity algorithm     : GePol (No added spheres)
                        Default sphere list used, NSphG=   17.
                        Lebedev-Laikov grids with approx.  5.0 points / Ang**2.
                        Smoothing algorithm: York/Karplus (Gamma=1.0000).
                        Polarization charges: spherical gaussians, with
                                              point-specific exponents (IZeta= 3).
                        Self-potential: point-specific (ISelfS= 7).
                        Self-field    : sphere-specific E.n sum rule (ISelfD= 2).
 1st derivatives      : Analytical E(r).r(x)/FMM algorithm (CHGder, D1EAlg=3).
                        Cavity 1st derivative terms included.
 Solvent              : n-Octanol, Eps=   9.862900 Eps(inf)=   2.043470
 ------------------------------------------------------------------------------
 Spheres list:
 ISph  on   Nord     Re0    Alpha      Xe            Ye            Ze
    1   N      1    1.5000  1.150     -2.472049      0.597916     -0.859231
    2   H      2    0.9000  1.150     -2.941308      1.280943     -0.298913
    3   H      3    0.9000  1.150     -3.058694      0.335899     -1.624750
    4   C      4    1.5000  1.500     -2.184288     -0.551121     -0.066425
    5   H      5    1.2000  1.500     -1.691349     -1.219012     -0.777036
    6   H      6    1.2000  1.500     -3.089035     -0.891652      0.444118
    7   C      7    1.5000  1.500     -1.266847     -0.195573      1.058737
    8   H      8    1.2000  1.500     -1.314185     -0.982520      1.815307
    9   H      9    1.2000  1.500     -1.633666      0.697423      1.568512
   10   C     10    1.5000  1.500      0.098299      0.002405      0.548580
   11   N     11    1.5000  1.500      0.560390      1.280534      0.451503
   12   C     12    1.5000  1.500      1.847881      1.300154      0.005431
   13   H     13    1.2000  1.500      2.312962      2.276366     -0.044616
   14   C     14    1.5000  1.500      2.286963      0.092071     -0.464299
   15   H     15    1.2000  1.500      3.171445     -0.141126     -1.044201
   16   S     16    1.7500  1.500      1.159486     -1.210990     -0.154199
   17   H     17    0.9000  1.150     -1.618381      0.982757     -1.209294
 ------------------------------------------------------------------------------
 GePol: Number of generator spheres                  =      17
 GePol: Total number of spheres                      =      17
 GePol: Number of exposed spheres                    =      17 (100.00%)
 GePol: Number of points                             =    1694
 GePol: Average weight of points                     =       0.12
 GePol: Minimum weight of points                     =   0.58D-09
 GePol: Maximum weight of points                     =    0.22065
 GePol: Number of points with low weight             =      96
 GePol: Fraction of low-weight points (<1% of avg)   =       5.67%
 GePol: Cavity surface area                          =    199.753 Ang**2
 GePol: Cavity volume                                =    212.902 Ang**3
 Surface areas from nonelectrostatic (unscaled) cavity and vdw tensions:
 Sphere =    1 Type =  NH+ Surf =       12.012 Tension =       -0.274
 Sphere =    2 Type =  NH+ Surf =        3.853 Tension =       -0.274
 Sphere =    3 Type =  NH+ Surf =        3.850 Tension =       -0.274
 Sphere =    4 Type =  CN+ Surf =        3.793 Tension =       -0.227
 Sphere =    5 Type =  CN+ Surf =        9.563 Tension =       -0.227
 Sphere =    6 Type =  CN+ Surf =        9.878 Tension =       -0.227
 Sphere =    7 Type =  CH2 Surf =        3.472 Tension =       -0.194
 Sphere =    8 Type =  CH2 Surf =        9.964 Tension =       -0.194
 Sphere =    9 Type =  CH2 Surf =        9.796 Tension =       -0.194
 Sphere =   10 Type =  C   Surf =        5.413 Tension =       -0.205
 Sphere =   11 Type =  Nc  Surf =       12.892 Tension =       -0.161
 Sphere =   12 Type =  CH  Surf =        7.840 Tension =       -0.195
 Sphere =   13 Type =  CH  Surf =       10.210 Tension =       -0.195
 Sphere =   14 Type =  CH  Surf =        7.640 Tension =       -0.195
 Sphere =   15 Type =  CH  Surf =       10.220 Tension =       -0.195
 Sphere =   16 Type =  S   Surf =       24.523 Tension =       -0.186
 Sphere =   17 Type =  NH+ Surf =        3.849 Tension =       -0.274
 PCM non-electrostatic energy =        -0.0108427715 Hartrees.
 Nuclear repulsion after PCM non-electrostatic terms =      450.7871353213 Hartrees.
 Leave Link  301 at Mon Jul 12 12:51:26 2021, MaxMem=   104857600 cpu:               0.1 elap:               0.1
 (Enter /dades/curu/g16A03_MST/g16/l302.exe)
 NPDir=0 NMtPBC=     1 NCelOv=     1 NCel=       1 NClECP=     1 NCelD=      1
         NCelK=      1 NCelE2=     1 NClLst=     1 CellRange=     0.0.
 One-electron integrals computed using PRISM.
 One-electron integral symmetry used in STVInt
 NBasis=   142 RedAO= T EigKep=  2.53D-03  NBF=   142
 NBsUse=   142 1.00D-06 EigRej= -1.00D+00 NBFU=   142
 Precomputing XC quadrature grid using
 IXCGrd= 4 IRadAn=           5 IRanWt=          -1 IRanGd=           0 AccXCQ= 0.00D+00.
 Generated NRdTot=       0 NPtTot=           0 NUsed=           0 NTot=          32
 NSgBfM=   142   142   142   142   142 MxSgAt=    17 MxSgA2=    17.
 Leave Link  302 at Mon Jul 12 12:51:27 2021, MaxMem=   104857600 cpu:               1.5 elap:               0.4
 (Enter /dades/curu/g16A03_MST/g16/l303.exe)
 DipDrv:  MaxL=1.
 Leave Link  303 at Mon Jul 12 12:51:27 2021, MaxMem=   104857600 cpu:               0.1 elap:               0.0
 (Enter /dades/curu/g16A03_MST/g16/l401.exe)
 ExpMin= 1.17D-01 ExpMax= 2.19D+04 ExpMxC= 3.30D+03 IAcc=3 IRadAn=         5 AccDes= 0.00D+00
 Harris functional with IExCor=  402 and IRadAn=       5 diagonalized for initial guess.
 HarFok:  IExCor=  402 AccDes= 0.00D+00 IRadAn=         5 IDoV= 1 UseB2=F ITyADJ=14
 ICtDFT=  3500011 ScaDFX=  1.000000  1.000000  1.000000  1.000000
 FoFCou: FMM=F IPFlag=           0 FMFlag=      100000 FMFlg1=           0
         NFxFlg=           0 DoJE=T BraDBF=F KetDBF=T FulRan=T
         wScrn=  0.000000 ICntrl=       500 IOpCl=  0 I1Cent=   200000004 NGrid=           0
         NMat0=    1 NMatS0=      1 NMatT0=    0 NMatD0=    1 NMtDS0=    0 NMtDT0=    0
 Petite list used in FoFCou.
 Harris En= -703.375113884682    
 JPrj=0 DoOrth=F DoCkMO=F.
 Leave Link  401 at Mon Jul 12 12:51:29 2021, MaxMem=   104857600 cpu:               8.0 elap:               2.0
 (Enter /dades/curu/g16A03_MST/g16/l502.exe)
 Keep R1 ints in memory in canonical form, NReq=55416097.
 FoFCou: FMM=F IPFlag=           0 FMFlag=           0 FMFlg1=           0
         NFxFlg=           0 DoJE=F BraDBF=F KetDBF=F FulRan=T
         wScrn=  0.000000 ICntrl=       600 IOpCl=  0 I1Cent=           0 NGrid=           0
         NMat0=    1 NMatS0=  10153 NMatT0=    0 NMatD0=    1 NMtDS0=    0 NMtDT0=    0
 Symmetry not used in FoFCou.
 Two-electron integral symmetry not used.
 Closed shell SCF:
 Using DIIS extrapolation, IDIIS=  1040.
 NGot=   104857600 LenX=    53267895 LenY=    53247290
 Requested convergence on RMS density matrix=1.00D-08 within 128 cycles.
 Requested convergence on MAX density matrix=1.00D-06.
 Requested convergence on             energy=1.00D-06.
 No special actions if energy rises.

 Cycle   1  Pass 1  IDiag  1:
 Inv3:  Mode=1 IEnd=     8608908.
 Iteration    1 A*A^-1 deviation from unit magnitude is 4.88D-15 for   1659.
 Iteration    1 A*A^-1 deviation from orthogonality  is 1.43D-15 for   1098   1075.
 Iteration    1 A^-1*A deviation from unit magnitude is 4.66D-15 for   1659.
 Iteration    1 A^-1*A deviation from orthogonality  is 2.32D-15 for   1051    314.
 E= -703.264707297964    
 DIIS: error= 2.36D-02 at cycle   1 NSaved=   1.
 NSaved= 1 IEnMin= 1 EnMin= -703.264707297964     IErMin= 1 ErrMin= 2.36D-02
 ErrMax= 2.36D-02  0.00D+00 EMaxC= 1.00D-01 BMatC= 2.08D-01 BMatP= 2.08D-01
 IDIUse=3 WtCom= 7.64D-01 WtEn= 2.36D-01
 Coeff-Com:  0.100D+01
 Coeff-En:   0.100D+01
 Coeff:      0.100D+01
 Gap=     0.240 Goal=   None    Shift=    0.000
 GapD=    0.240 DampG=1.000 DampE=0.500 DampFc=0.5000 IDamp=-1.
 Damping current iteration by 5.00D-01
 RMSDP=9.14D-03 MaxDP=2.46D-01              OVMax= 3.02D-01

 Cycle   2  Pass 1  IDiag  1:
 E= -703.318441379046     Delta-E=       -0.053734081081 Rises=F Damp=T
 DIIS: error= 1.18D-02 at cycle   2 NSaved=   2.
 NSaved= 2 IEnMin= 2 EnMin= -703.318441379046     IErMin= 2 ErrMin= 1.18D-02
 ErrMax= 1.18D-02  0.00D+00 EMaxC= 1.00D-01 BMatC= 3.08D-02 BMatP= 2.08D-01
 IDIUse=3 WtCom= 8.82D-01 WtEn= 1.18D-01
 Coeff-Com:  0.206D+00 0.794D+00
 Coeff-En:   0.370D+00 0.630D+00
 Coeff:      0.226D+00 0.774D+00
 Gap=     0.248 Goal=   None    Shift=    0.000
 RMSDP=2.96D-03 MaxDP=7.70D-02 DE=-5.37D-02 OVMax= 2.78D-01

 Cycle   3  Pass 1  IDiag  1:
 E= -703.458421361390     Delta-E=       -0.139979982345 Rises=F Damp=F
 DIIS: error= 8.97D-03 at cycle   3 NSaved=   3.
 NSaved= 3 IEnMin= 3 EnMin= -703.458421361390     IErMin= 3 ErrMin= 8.97D-03
 ErrMax= 8.97D-03  0.00D+00 EMaxC= 1.00D-01 BMatC= 2.38D-02 BMatP= 3.08D-02
 IDIUse=3 WtCom= 9.10D-01 WtEn= 8.97D-02
 Coeff-Com:  0.693D-01 0.460D+00 0.471D+00
 Coeff-En:   0.000D+00 0.000D+00 0.100D+01
 Coeff:      0.630D-01 0.419D+00 0.518D+00
 Gap=     0.201 Goal=   None    Shift=    0.000
 RMSDP=1.36D-03 MaxDP=4.57D-02 DE=-1.40D-01 OVMax= 6.50D-02

 Cycle   4  Pass 1  IDiag  1:
 E= -703.476889383032     Delta-E=       -0.018468021642 Rises=F Damp=F
 DIIS: error= 3.63D-03 at cycle   4 NSaved=   4.
 NSaved= 4 IEnMin= 4 EnMin= -703.476889383032     IErMin= 4 ErrMin= 3.63D-03
 ErrMax= 3.63D-03  0.00D+00 EMaxC= 1.00D-01 BMatC= 4.93D-03 BMatP= 2.38D-02
 IDIUse=3 WtCom= 9.64D-01 WtEn= 3.63D-02
 Coeff-Com: -0.397D-02 0.788D-01 0.319D+00 0.606D+00
 Coeff-En:   0.000D+00 0.000D+00 0.192D+00 0.808D+00
 Coeff:     -0.382D-02 0.760D-01 0.314D+00 0.613D+00
 Gap=     0.201 Goal=   None    Shift=    0.000
 RMSDP=5.05D-04 MaxDP=1.37D-02 DE=-1.85D-02 OVMax= 2.33D-02

 Cycle   5  Pass 1  IDiag  1:
 E= -703.481176868753     Delta-E=       -0.004287485721 Rises=F Damp=F
 DIIS: error= 7.49D-04 at cycle   5 NSaved=   5.
 NSaved= 5 IEnMin= 5 EnMin= -703.481176868753     IErMin= 5 ErrMin= 7.49D-04
 ErrMax= 7.49D-04  0.00D+00 EMaxC= 1.00D-01 BMatC= 2.12D-04 BMatP= 4.93D-03
 IDIUse=3 WtCom= 9.93D-01 WtEn= 7.49D-03
 Coeff-Com: -0.361D-02 0.103D-01 0.126D+00 0.306D+00 0.561D+00
 Coeff-En:   0.000D+00 0.000D+00 0.000D+00 0.000D+00 0.100D+01
 Coeff:     -0.358D-02 0.102D-01 0.125D+00 0.304D+00 0.565D+00
 Gap=     0.202 Goal=   None    Shift=    0.000
 RMSDP=1.45D-04 MaxDP=5.21D-03 DE=-4.29D-03 OVMax= 6.17D-03

 Cycle   6  Pass 1  IDiag  1:
 E= -703.481375439514     Delta-E=       -0.000198570760 Rises=F Damp=F
 DIIS: error= 3.06D-04 at cycle   6 NSaved=   6.
 NSaved= 6 IEnMin= 6 EnMin= -703.481375439514     IErMin= 6 ErrMin= 3.06D-04
 ErrMax= 3.06D-04  0.00D+00 EMaxC= 1.00D-01 BMatC= 2.43D-05 BMatP= 2.12D-04
 IDIUse=3 WtCom= 9.97D-01 WtEn= 3.06D-03
 Coeff-Com: -0.133D-02-0.185D-02 0.418D-01 0.116D+00 0.308D+00 0.538D+00
 Coeff-En:   0.000D+00 0.000D+00 0.000D+00 0.000D+00 0.130D-01 0.987D+00
 Coeff:     -0.133D-02-0.185D-02 0.416D-01 0.115D+00 0.307D+00 0.539D+00
 Gap=     0.202 Goal=   None    Shift=    0.000
 RMSDP=4.41D-05 MaxDP=1.43D-03 DE=-1.99D-04 OVMax= 3.00D-03

 Cycle   7  Pass 1  IDiag  1:
 E= -703.481396918305     Delta-E=       -0.000021478791 Rises=F Damp=F
 DIIS: error= 9.99D-05 at cycle   7 NSaved=   7.
 NSaved= 7 IEnMin= 7 EnMin= -703.481396918305     IErMin= 7 ErrMin= 9.99D-05
 ErrMax= 9.99D-05  0.00D+00 EMaxC= 1.00D-01 BMatC= 3.29D-06 BMatP= 2.43D-05
 IDIUse=1 WtCom= 1.00D+00 WtEn= 0.00D+00
 Coeff-Com: -0.395D-03-0.195D-02 0.150D-01 0.437D-01 0.131D+00 0.326D+00
 Coeff-Com:  0.487D+00
 Coeff:     -0.395D-03-0.195D-02 0.150D-01 0.437D-01 0.131D+00 0.326D+00
 Coeff:      0.487D+00
 Gap=     0.202 Goal=   None    Shift=    0.000
 RMSDP=1.64D-05 MaxDP=4.60D-04 DE=-2.15D-05 OVMax= 1.08D-03

 Cycle   8  Pass 1  IDiag  1:
 E= -703.481400348947     Delta-E=       -0.000003430643 Rises=F Damp=F
 DIIS: error= 2.90D-05 at cycle   8 NSaved=   8.
 NSaved= 8 IEnMin= 8 EnMin= -703.481400348947     IErMin= 8 ErrMin= 2.90D-05
 ErrMax= 2.90D-05  0.00D+00 EMaxC= 1.00D-01 BMatC= 2.38D-07 BMatP= 3.29D-06
 IDIUse=1 WtCom= 1.00D+00 WtEn= 0.00D+00
 Coeff-Com:  0.968D-04-0.875D-03 0.507D-03 0.161D-02 0.934D-02 0.686D-01
 Coeff-Com:  0.240D+00 0.681D+00
 Coeff:      0.968D-04-0.875D-03 0.507D-03 0.161D-02 0.934D-02 0.686D-01
 Coeff:      0.240D+00 0.681D+00
 Gap=     0.202 Goal=   None    Shift=    0.000
 RMSDP=4.34D-06 MaxDP=1.19D-04 DE=-3.43D-06 OVMax= 2.45D-04

 Cycle   9  Pass 1  IDiag  1:
 E= -703.481400593126     Delta-E=       -0.000000244179 Rises=F Damp=F
 DIIS: error= 5.86D-06 at cycle   9 NSaved=   9.
 NSaved= 9 IEnMin= 9 EnMin= -703.481400593126     IErMin= 9 ErrMin= 5.86D-06
 ErrMax= 5.86D-06  0.00D+00 EMaxC= 1.00D-01 BMatC= 1.50D-08 BMatP= 2.38D-07
 IDIUse=1 WtCom= 1.00D+00 WtEn= 0.00D+00
 Coeff-Com:  0.884D-04-0.282D-03-0.624D-03-0.209D-02-0.451D-02 0.867D-02
 Coeff-Com:  0.735D-01 0.299D+00 0.626D+00
 Coeff:      0.884D-04-0.282D-03-0.624D-03-0.209D-02-0.451D-02 0.867D-02
 Coeff:      0.735D-01 0.299D+00 0.626D+00
 Gap=     0.202 Goal=   None    Shift=    0.000
 RMSDP=1.32D-06 MaxDP=4.88D-05 DE=-2.44D-07 OVMax= 5.33D-05

 Cycle  10  Pass 1  IDiag  1:
 E= -703.481400609352     Delta-E=       -0.000000016225 Rises=F Damp=F
 DIIS: error= 1.67D-06 at cycle  10 NSaved=  10.
 NSaved=10 IEnMin=10 EnMin= -703.481400609352     IErMin=10 ErrMin= 1.67D-06
 ErrMax= 1.67D-06  0.00D+00 EMaxC= 1.00D-01 BMatC= 1.27D-09 BMatP= 1.50D-08
 IDIUse=1 WtCom= 1.00D+00 WtEn= 0.00D+00
 Coeff-Com:  0.337D-04-0.617D-04-0.284D-03-0.103D-02-0.271D-02-0.160D-02
 Coeff-Com:  0.141D-01 0.810D-01 0.284D+00 0.626D+00
 Coeff:      0.337D-04-0.617D-04-0.284D-03-0.103D-02-0.271D-02-0.160D-02
 Coeff:      0.141D-01 0.810D-01 0.284D+00 0.626D+00
 Gap=     0.202 Goal=   None    Shift=    0.000
 RMSDP=3.04D-07 MaxDP=1.06D-05 DE=-1.62D-08 OVMax= 1.23D-05

 Cycle  11  Pass 1  IDiag  1:
 E= -703.481400610473     Delta-E=       -0.000000001121 Rises=F Damp=F
 DIIS: error= 6.05D-07 at cycle  11 NSaved=  11.
 NSaved=11 IEnMin=11 EnMin= -703.481400610473     IErMin=11 ErrMin= 6.05D-07
 ErrMax= 6.05D-07  0.00D+00 EMaxC= 1.00D-01 BMatC= 1.62D-10 BMatP= 1.27D-09
 IDIUse=1 WtCom= 1.00D+00 WtEn= 0.00D+00
 Coeff-Com:  0.580D-05 0.910D-07-0.597D-04-0.255D-03-0.764D-03-0.186D-02
 Coeff-Com: -0.211D-02 0.297D-02 0.635D-01 0.307D+00 0.632D+00
 Coeff:      0.580D-05 0.910D-07-0.597D-04-0.255D-03-0.764D-03-0.186D-02
 Coeff:     -0.211D-02 0.297D-02 0.635D-01 0.307D+00 0.632D+00
 Gap=     0.202 Goal=   None    Shift=    0.000
 RMSDP=1.14D-07 MaxDP=3.36D-06 DE=-1.12D-09 OVMax= 5.21D-06

 Cycle  12  Pass 1  IDiag  1:
 E= -703.481400610648     Delta-E=       -0.000000000175 Rises=F Damp=F
 DIIS: error= 9.52D-08 at cycle  12 NSaved=  12.
 NSaved=12 IEnMin=12 EnMin= -703.481400610648     IErMin=12 ErrMin= 9.52D-08
 ErrMax= 9.52D-08  0.00D+00 EMaxC= 1.00D-01 BMatC= 4.72D-12 BMatP= 1.62D-10
 IDIUse=1 WtCom= 1.00D+00 WtEn= 0.00D+00
 Coeff-Com: -0.307D-06 0.416D-05 0.397D-05-0.477D-05-0.391D-04-0.423D-03
 Coeff-Com: -0.160D-02-0.467D-02-0.693D-03 0.489D-01 0.200D+00 0.758D+00
 Coeff:     -0.307D-06 0.416D-05 0.397D-05-0.477D-05-0.391D-04-0.423D-03
 Coeff:     -0.160D-02-0.467D-02-0.693D-03 0.489D-01 0.200D+00 0.758D+00
 Gap=     0.202 Goal=   None    Shift=    0.000
 RMSDP=2.31D-08 MaxDP=6.05D-07 DE=-1.75D-10 OVMax= 8.90D-07

 Cycle  13  Pass 1  IDiag  1:
 E= -703.481400610638     Delta-E=        0.000000000010 Rises=F Damp=F
 DIIS: error= 2.50D-08 at cycle  13 NSaved=  13.
 NSaved=13 IEnMin=12 EnMin= -703.481400610648     IErMin=13 ErrMin= 2.50D-08
 ErrMax= 2.50D-08  0.00D+00 EMaxC= 1.00D-01 BMatC= 2.40D-13 BMatP= 4.72D-12
 IDIUse=1 WtCom= 1.00D+00 WtEn= 0.00D+00
 Coeff-Com: -0.351D-06 0.119D-05 0.489D-05 0.122D-04 0.241D-04-0.464D-04
 Coeff-Com: -0.442D-03-0.179D-02-0.349D-02 0.898D-03 0.383D-01 0.240D+00
 Coeff-Com:  0.726D+00
 Coeff:     -0.351D-06 0.119D-05 0.489D-05 0.122D-04 0.241D-04-0.464D-04
 Coeff:     -0.442D-03-0.179D-02-0.349D-02 0.898D-03 0.383D-01 0.240D+00
 Coeff:      0.726D+00
 Gap=     0.202 Goal=   None    Shift=    0.000
 RMSDP=5.11D-09 MaxDP=1.37D-07 DE= 9.55D-12 OVMax= 1.89D-07

 Error on total polarization charges =  0.00668
 SCF Done:  E(RB3LYP) =  -703.481400611     A.U. after   13 cycles
            NFock= 13  Conv=0.51D-08     -V/T= 2.0058
 KE= 6.994303424648D+02 PE=-2.543592583231D+03 EE= 6.898937048338D+02
 Leave Link  502 at Mon Jul 12 12:52:14 2021, MaxMem=   104857600 cpu:             170.6 elap:              44.9
 (Enter /dades/curu/g16A03_MST/g16/l601.exe)
 Copying SCF densities to generalized density rwf, IOpCl= 0 IROHF=0.

 **********************************************************************

            Population analysis using the SCF density.

 **********************************************************************

 Orbital symmetries:
       Occupied  (A) (A) (A) (A) (A) (A) (A) (A) (A) (A) (A) (A)
                 (A) (A) (A) (A) (A) (A) (A) (A) (A) (A) (A) (A)
                 (A) (A) (A) (A) (A) (A) (A) (A) (A) (A)
       Virtual   (A) (A) (A) (A) (A) (A) (A) (A) (A) (A) (A) (A)
                 (A) (A) (A) (A) (A) (A) (A) (A) (A) (A) (A) (A)
                 (A) (A) (A) (A) (A) (A) (A) (A) (A) (A) (A) (A)
                 (A) (A) (A) (A) (A) (A) (A) (A) (A) (A) (A) (A)
                 (A) (A) (A) (A) (A) (A) (A) (A) (A) (A) (A) (A)
                 (A) (A) (A) (A) (A) (A) (A) (A) (A) (A) (A) (A)
                 (A) (A) (A) (A) (A) (A) (A) (A) (A) (A) (A) (A)
                 (A) (A) (A) (A) (A) (A) (A) (A) (A) (A) (A) (A)
                 (A) (A) (A) (A) (A) (A) (A) (A) (A) (A) (A) (A)
 The electronic state is 1-A.
 Alpha  occ. eigenvalues --  -88.94534 -14.46556 -14.35958 -10.27997 -10.27314
 Alpha  occ. eigenvalues --  -10.24160 -10.23877 -10.23308  -8.00592  -5.96968
 Alpha  occ. eigenvalues --   -5.96636  -5.96324  -1.04878  -0.97512  -0.83975
 Alpha  occ. eigenvalues --   -0.81674  -0.75244  -0.68744  -0.63000  -0.61395
 Alpha  occ. eigenvalues --   -0.60826  -0.56772  -0.53492  -0.51804  -0.47530
 Alpha  occ. eigenvalues --   -0.45964  -0.44151  -0.41425  -0.40112  -0.39675
 Alpha  occ. eigenvalues --   -0.39526  -0.31089  -0.29471  -0.26032
 Alpha virt. eigenvalues --   -0.05823  -0.01058   0.02436   0.03462   0.06462
 Alpha virt. eigenvalues --    0.08944   0.09771   0.10705   0.11441   0.12524
 Alpha virt. eigenvalues --    0.13466   0.15064   0.16450   0.17438   0.19430
 Alpha virt. eigenvalues --    0.21322   0.23979   0.28077   0.29698   0.35115
 Alpha virt. eigenvalues --    0.35992   0.39855   0.40720   0.47437   0.48601
 Alpha virt. eigenvalues --    0.49779   0.50658   0.52364   0.55125   0.56417
 Alpha virt. eigenvalues --    0.59030   0.60004   0.61393   0.63304   0.68044
 Alpha virt. eigenvalues --    0.68935   0.71445   0.74065   0.74582   0.77662
 Alpha virt. eigenvalues --    0.79039   0.81556   0.81682   0.82671   0.83870
 Alpha virt. eigenvalues --    0.84190   0.84604   0.85777   0.87501   0.89582
 Alpha virt. eigenvalues --    0.91840   0.92023   0.94334   0.96499   0.98086
 Alpha virt. eigenvalues --    0.99836   1.03051   1.03746   1.06332   1.14755
 Alpha virt. eigenvalues --    1.26968   1.29765   1.33025   1.40989   1.41227
 Alpha virt. eigenvalues --    1.45800   1.47082   1.53364   1.60531   1.67163
 Alpha virt. eigenvalues --    1.70509   1.75012   1.78150   1.83067   1.86419
 Alpha virt. eigenvalues --    1.92060   1.93783   1.95366   2.00094   2.02366
 Alpha virt. eigenvalues --    2.08215   2.13944   2.15137   2.18998   2.19290
 Alpha virt. eigenvalues --    2.23011   2.26387   2.30395   2.34144   2.40664
 Alpha virt. eigenvalues --    2.41307   2.46585   2.49109   2.54643   2.56606
 Alpha virt. eigenvalues --    2.61307   2.67259   2.75244   2.93380   2.98756
 Alpha virt. eigenvalues --    3.76850   3.89900   3.93675   4.07699   4.18360
 Alpha virt. eigenvalues --    4.30772   4.36024   4.46917
          Condensed to atoms (all electrons):
               1          2          3          4          5          6
     1  N    6.670111   0.302424   0.308260   0.250468  -0.050538  -0.036954
     2  H    0.302424   0.273465  -0.009418  -0.021841   0.004801  -0.003041
     3  H    0.308260  -0.009418   0.262633  -0.020995  -0.003445  -0.002493
     4  C    0.250468  -0.021841  -0.020995   5.060008   0.389336   0.380927
     5  H   -0.050538   0.004801  -0.003445   0.389336   0.494773  -0.013266
     6  H   -0.036954  -0.003041  -0.002493   0.380927  -0.013266   0.493006
     7  C   -0.063426  -0.001641   0.004730   0.351896  -0.039888  -0.042881
     8  H    0.004522  -0.000012  -0.000120  -0.036631  -0.000412  -0.005171
     9  H   -0.005659   0.005211   0.000061  -0.037097   0.004560  -0.000962
    10  C   -0.004191  -0.000568  -0.000035  -0.059928  -0.005696   0.006579
    11  N   -0.000940   0.000223   0.000018  -0.002709   0.000110  -0.000122
    12  C    0.000067  -0.000000  -0.000001  -0.000049  -0.000029   0.000005
    13  H    0.000002   0.000000  -0.000000   0.000006  -0.000000  -0.000000
    14  C   -0.000015   0.000000   0.000001   0.000247  -0.000228  -0.000004
    15  H   -0.000000   0.000000   0.000000   0.000001   0.000006  -0.000000
    16  S    0.000693   0.000018  -0.000029  -0.003999   0.008130  -0.000064
    17  H    0.296463  -0.009899  -0.009956  -0.027314  -0.002686   0.004380
               7          8          9         10         11         12
     1  N   -0.063426   0.004522  -0.005659  -0.004191  -0.000940   0.000067
     2  H   -0.001641  -0.000012   0.005211  -0.000568   0.000223  -0.000000
     3  H    0.004730  -0.000120   0.000061  -0.000035   0.000018  -0.000001
     4  C    0.351896  -0.036631  -0.037097  -0.059928  -0.002709  -0.000049
     5  H   -0.039888  -0.000412   0.004560  -0.005696   0.000110  -0.000029
     6  H   -0.042881  -0.005171  -0.000962   0.006579  -0.000122   0.000005
     7  C    5.171226   0.373192   0.368876   0.341543  -0.061817   0.007481
     8  H    0.373192   0.502168  -0.024036  -0.026592   0.002150  -0.000199
     9  H    0.368876  -0.024036   0.504732  -0.032205   0.003146   0.000219
    10  C    0.341543  -0.026592  -0.032205   5.119699   0.452462  -0.089627
    11  N   -0.061817   0.002150   0.003146   0.452462   6.775305   0.426813
    12  C    0.007481  -0.000199   0.000219  -0.089627   0.426813   4.735309
    13  H   -0.000246   0.000004  -0.000026   0.007766  -0.046610   0.375099
    14  C    0.003562   0.000042  -0.000003  -0.053478  -0.067098   0.568649
    15  H   -0.000090  -0.000001   0.000001   0.002817   0.004658  -0.014994
    16  S   -0.062052   0.000770   0.004072   0.288920  -0.079457  -0.075083
    17  H   -0.008041   0.000170   0.000378   0.012724   0.008670  -0.000020
              13         14         15         16         17
     1  N    0.000002  -0.000015  -0.000000   0.000693   0.296463
     2  H    0.000000   0.000000   0.000000   0.000018  -0.009899
     3  H   -0.000000   0.000001   0.000000  -0.000029  -0.009956
     4  C    0.000006   0.000247   0.000001  -0.003999  -0.027314
     5  H   -0.000000  -0.000228   0.000006   0.008130  -0.002686
     6  H   -0.000000  -0.000004  -0.000000  -0.000064   0.004380
     7  C   -0.000246   0.003562  -0.000090  -0.062052  -0.008041
     8  H    0.000004   0.000042  -0.000001   0.000770   0.000170
     9  H   -0.000026  -0.000003   0.000001   0.004072   0.000378
    10  C    0.007766  -0.053478   0.002817   0.288920   0.012724
    11  N   -0.046610  -0.067098   0.004658  -0.079457   0.008670
    12  C    0.375099   0.568649  -0.014994  -0.075083  -0.000020
    13  H    0.531926  -0.048351  -0.000552   0.003835  -0.000024
    14  C   -0.048351   5.285440   0.347579   0.324430  -0.000328
    15  H   -0.000552   0.347579   0.490315  -0.034009  -0.000004
    16  S    0.003835   0.324430  -0.034009  15.335750   0.000563
    17  H   -0.000024  -0.000328  -0.000004   0.000563   0.283269
 Mulliken charges:
               1
     1  N   -0.671286
     2  H    0.460277
     3  H    0.470789
     4  C   -0.222323
     5  H    0.214473
     6  H    0.220062
     7  C   -0.342423
     8  H    0.210156
     9  H    0.208732
    10  C    0.039810
    11  N   -0.414800
    12  C    0.066361
    13  H    0.177174
    14  C   -0.360446
    15  H    0.204274
    16  S    0.287515
    17  H    0.451656
 Sum of Mulliken charges =   1.00000
 Mulliken charges with hydrogens summed into heavy atoms:
               1
     1  N    0.711436
     4  C    0.212212
     7  C    0.076465
    10  C    0.039810
    11  N   -0.414800
    12  C    0.243534
    14  C   -0.156171
    16  S    0.287515
 Electronic spatial extent (au):  <R**2>=           1151.9731
 Charge=              1.0000 electrons
 Dipole moment (field-independent basis, Debye):
    X=            -10.4682    Y=              1.2329    Z=             -4.0548  Tot=             11.2936
 Quadrupole moment (field-independent basis, Debye-Ang):
   XX=            -14.5627   YY=            -49.6317   ZZ=            -46.6264
   XY=             -4.8838   XZ=              5.4427   YZ=             -3.5927
 Traceless Quadrupole moment (field-independent basis, Debye-Ang):
   XX=             22.3775   YY=            -12.6914   ZZ=             -9.6861
   XY=             -4.8838   XZ=              5.4427   YZ=             -3.5927
 Octapole moment (field-independent basis, Debye-Ang**2):
  XXX=            -90.7750  YYY=              6.3792  ZZZ=            -12.1423  XYY=             -9.9907
  XXY=             23.2107  XXZ=            -33.7914  XZZ=            -24.1347  YZZ=              0.8948
  YYZ=             -5.4320  XYZ=              6.8951
 Hexadecapole moment (field-independent basis, Debye-Ang**3):
 XXXX=           -650.5807 YYYY=           -321.7311 ZZZZ=           -158.0678 XXXY=            -57.8796
 XXXZ=             53.8001 YYYX=             -5.0180 YYYZ=             -9.2179 ZZZX=             31.1110
 ZZZY=             -9.2641 XXYY=           -174.1105 XXZZ=           -139.5655 YYZZ=            -83.4587
 XXYZ=            -10.9114 YYXZ=              3.7431 ZZXY=            -10.6492
 N-N= 4.507871353213D+02 E-N=-2.543592581554D+03  KE= 6.994303424648D+02
 No NMR shielding tensors so no spin-rotation constants.
 Leave Link  601 at Mon Jul 12 12:52:14 2021, MaxMem=   104857600 cpu:               0.4 elap:               0.1
 (Enter /dades/curu/g16A03_MST/g16/l701.exe)
 ... and contract with generalized density number  0.
 Compute integral first derivatives.
 D1PCM: PCM CHGder 1st derivatives, ID1Alg=3 FixD1E=F DoIter=F DoCFld=F I1PDM=0.
 GePol: Maximum number of non-zero 1st derivatives   =     302
 Leave Link  701 at Mon Jul 12 12:52:16 2021, MaxMem=   104857600 cpu:               7.2 elap:               1.9
 (Enter /dades/curu/g16A03_MST/g16/l702.exe)
 L702 exits ... SP integral derivatives will be done elsewhere.
 Leave Link  702 at Mon Jul 12 12:52:16 2021, MaxMem=   104857600 cpu:               0.1 elap:               0.0
 (Enter /dades/curu/g16A03_MST/g16/l703.exe)
 Integral derivatives from FoFJK, PRISM(SPDF).
 Compute integral first derivatives, UseDBF=F ICtDFT=           0.
 Calling FoFJK, ICntrl=      2127 FMM=F ISym2X=0 I1Cent= 0 IOpClX= 0 NMat=1 NMatS=1 NMatT=0.
 FoFJK:  IHMeth= 1 ICntrl=    2127 DoSepK=F KAlg= 0 I1Cent=           0 FoldK=F
 IRaf=         0 NMat=       1 IRICut=       1 DoRegI=T DoRafI=F ISym2E= 0 IDoP0=0 IntGTp=1.
 FoFCou: FMM=F IPFlag=           0 FMFlag=      100000 FMFlg1=         800
         NFxFlg=           0 DoJE=F BraDBF=F KetDBF=F FulRan=T
         wScrn=  0.000000 ICntrl=      2127 IOpCl=  0 I1Cent=           0 NGrid=           0
         NMat0=    1 NMatS0=      1 NMatT0=    0 NMatD0=    1 NMtDS0=    0 NMtDT0=    0
 Symmetry not used in FoFCou.
 Leave Link  703 at Mon Jul 12 12:52:23 2021, MaxMem=   104857600 cpu:              27.8 elap:               7.0
 (Enter /dades/curu/g16A03_MST/g16/l716.exe)
 Dipole        =-4.11851724D+00 4.85047306D-01-1.59528301D+00
 ***** Axes restored to original set *****
 -------------------------------------------------------------------
 Center     Atomic                   Forces (Hartrees/Bohr)
 Number     Number              X              Y              Z
 -------------------------------------------------------------------
      1        7           0.008771726    0.003363798    0.009223766
      2        1           0.011703753    0.000877864    0.024474355
      3        1           0.025690834   -0.008824931   -0.007347699
      4        6          -0.015916712    0.029994630   -0.021127179
      5        1          -0.000408239    0.019033670   -0.007347380
      6        1           0.011731897   -0.007514222   -0.015739325
      7        6          -0.015143511    0.013083696   -0.005350903
      8        1          -0.001236919   -0.000059771   -0.004254116
      9        1          -0.003296425   -0.004871481    0.002582357
     10        6          -0.004870645   -0.041595242    0.049770259
     11        7          -0.010236209    0.045774504   -0.029219303
     12        6           0.018558158   -0.002873615   -0.014484306
     13        1          -0.005013482   -0.005663939   -0.006143801
     14        6          -0.011257099   -0.010845501   -0.009784913
     15        1          -0.005411576    0.001515433    0.003733729
     16       16           0.001076014   -0.005093225    0.023758977
     17        1          -0.004741566   -0.026301668    0.007255482
 -------------------------------------------------------------------
 Cartesian Forces:  Max     0.049770259 RMS     0.016765968
 Leave Link  716 at Mon Jul 12 12:52:23 2021, MaxMem=   104857600 cpu:               0.1 elap:               0.0
 (Enter /dades/curu/g16A03_MST/g16/l103.exe)

 GradGradGradGradGradGradGradGradGradGradGradGradGradGradGradGradGradGrad
 Berny optimization.
 FormGI is forming the generalized inverse of G from B-inverse, IUseBI=4.
 Internal  Forces:  Max     0.061056093 RMS     0.013134832
 Search for a local minimum.
 Step number   1 out of a maximum of   92
 All quantities printed in internal units (Hartrees-Bohrs-Radians)
 RMS Force = .13135D-01 SwitMx=.10000D-02 MixMth= 1
 Mixed Optimization -- RFO/linear search
 Second derivative matrix not updated -- first step.
 ITU=  0
     Eigenvalues ---    0.00836   0.01153   0.01332   0.01356   0.01512
     Eigenvalues ---    0.02077   0.02282   0.02462   0.04637   0.04760
     Eigenvalues ---    0.05735   0.05814   0.06451   0.06453   0.07964
     Eigenvalues ---    0.09182   0.11780   0.12715   0.15857   0.15955
     Eigenvalues ---    0.16000   0.16000   0.16000   0.21799   0.22353
     Eigenvalues ---    0.22358   0.24552   0.24839   0.29077   0.29956
     Eigenvalues ---    0.32941   0.34441   0.34500   0.34506   0.34614
     Eigenvalues ---    0.35630   0.35652   0.35694   0.41664   0.47628
     Eigenvalues ---    0.47742   0.47792   0.47834   0.50257   0.51956
 RFO step:  Lambda=-4.41232459D-02 EMin= 8.36171813D-03
 Linear search not attempted -- first point.
 Maximum step size (   0.300) exceeded in Quadratic search.
    -- Step size scaled by   0.874
 Iteration  1 RMS(Cart)=  0.10060009 RMS(Int)=  0.00184984
 Iteration  2 RMS(Cart)=  0.00280585 RMS(Int)=  0.00076931
 Iteration  3 RMS(Cart)=  0.00000698 RMS(Int)=  0.00076930
 Iteration  4 RMS(Cart)=  0.00000000 RMS(Int)=  0.00076930
 ITry= 1 IFail=0 DXMaxC= 3.56D-01 DCOld= 1.00D+10 DXMaxT= 3.00D-01 DXLimC= 3.00D+00 Rises=F
 Variable       Old X    -DE/DX   Delta X   Delta X   Delta X     New X
                                 (Linear)    (Quad)   (Total)
    R1        1.89037   0.02480   0.00000   0.04163   0.04163   1.93201
    R2        1.88862   0.02663   0.00000   0.04456   0.04456   1.93318
    R3        2.69353   0.06106   0.00000   0.11577   0.11577   2.80930
    R4        1.88915   0.02628   0.00000   0.04402   0.04402   1.93317
    R5        2.06494  -0.00242   0.00000  -0.00543  -0.00543   2.05952
    R6        2.06593  -0.00253   0.00000  -0.00568  -0.00568   2.06025
    R7        2.82456   0.03610   0.00000   0.08443   0.08443   2.90899
    R8        2.06484   0.00192   0.00000   0.00432   0.00432   2.06916
    R9        2.06307   0.00102   0.00000   0.00228   0.00228   2.06535
   R10        2.77930   0.02287   0.00000   0.04987   0.04987   2.82916
   R11        2.57486  -0.04286   0.00000  -0.06802  -0.06821   2.50665
   R12        3.32310  -0.00267   0.00000  -0.00994  -0.00984   3.31326
   R13        2.57516   0.01803   0.00000   0.02806   0.02785   2.60301
   R14        2.04562  -0.00011   0.00000  -0.00023  -0.00023   2.04539
   R15        2.58617  -0.00850   0.00000  -0.01108  -0.01110   2.57506
   R16        2.04665  -0.00071   0.00000  -0.00154  -0.00154   2.04511
   R17        3.30855  -0.01217   0.00000  -0.02799  -0.02777   3.28078
    A1        1.90995  -0.00960   0.00000  -0.04045  -0.04133   1.86862
    A2        1.91090   0.01134   0.00000   0.04921   0.04829   1.95918
    A3        1.91120  -0.00934   0.00000  -0.03930  -0.04013   1.87107
    A4        1.91050   0.00831   0.00000   0.03523   0.03450   1.94499
    A5        1.91129  -0.00848   0.00000  -0.03763  -0.03810   1.87319
    A6        1.90996   0.00778   0.00000   0.03298   0.03228   1.94225
    A7        1.79475   0.01032   0.00000   0.05700   0.05703   1.85178
    A8        1.92173  -0.00753   0.00000  -0.03998  -0.04055   1.88118
    A9        1.92929  -0.00173   0.00000   0.00906   0.00869   1.93798
   A10        2.07904  -0.01016   0.00000  -0.08024  -0.07962   1.99942
   A11        1.93696  -0.00442   0.00000  -0.01837  -0.01888   1.91809
   A12        1.80341   0.01286   0.00000   0.07200   0.07243   1.87584
   A13        1.90003  -0.00716   0.00000  -0.01787  -0.01793   1.88209
   A14        1.91754  -0.00324   0.00000  -0.00414  -0.00328   1.91426
   A15        1.91839   0.02153   0.00000   0.07261   0.07283   1.99122
   A16        1.82475   0.00491   0.00000   0.01402   0.01342   1.83817
   A17        1.95771  -0.00552   0.00000  -0.01499  -0.01543   1.94229
   A18        1.94307  -0.01170   0.00000  -0.05314  -0.05339   1.88968
   A19        2.05530   0.01785   0.00000   0.05689   0.05722   2.11252
   A20        2.22166  -0.01036   0.00000  -0.02772  -0.02760   2.19406
   A21        1.99778  -0.00715   0.00000  -0.02442  -0.02557   1.97222
   A22        1.93611   0.00390   0.00000   0.01069   0.00890   1.94501
   A23        2.01977   0.00540   0.00000   0.02692   0.02588   2.04565
   A24        1.98534   0.00988   0.00000   0.04353   0.04106   2.02640
   A25        2.26838  -0.01428   0.00000  -0.05701  -0.05812   2.21026
   A26        2.25993   0.00796   0.00000   0.01843   0.01876   2.27869
   A27        1.97099  -0.02143   0.00000  -0.06015  -0.06073   1.91026
   A28        2.04935   0.01342   0.00000   0.04176   0.04204   2.09139
   A29        1.51662   0.01642   0.00000   0.05183   0.05129   1.56790
    D1        3.13087  -0.00329   0.00000  -0.03321  -0.03351   3.09736
    D2        0.89783   0.00671   0.00000   0.05025   0.05012   0.94795
    D3       -1.08373  -0.00356   0.00000  -0.01904  -0.01857  -1.10231
    D4        1.03723  -0.00355   0.00000  -0.03535  -0.03577   1.00146
    D5       -1.19581   0.00644   0.00000   0.04811   0.04786  -1.14795
    D6        3.10581  -0.00382   0.00000  -0.02118  -0.02084   3.08498
    D7       -1.05748  -0.00301   0.00000  -0.03101  -0.03123  -1.08871
    D8        2.99267   0.00698   0.00000   0.05245   0.05240   3.04507
    D9        1.01111  -0.00328   0.00000  -0.01684  -0.01629   0.99481
   D10        2.83025  -0.00383   0.00000  -0.01422  -0.01388   2.81637
   D11        0.84165  -0.00403   0.00000  -0.01891  -0.01835   0.82331
   D12       -1.30228  -0.00150   0.00000   0.00227   0.00253  -1.29975
   D13       -1.47315   0.00516   0.00000   0.04976   0.04971  -1.42344
   D14        2.82144   0.00496   0.00000   0.04507   0.04525   2.86668
   D15        0.67750   0.00750   0.00000   0.06625   0.06613   0.74363
   D16        0.77465  -0.00130   0.00000  -0.01134  -0.01179   0.76286
   D17       -1.21395  -0.00150   0.00000  -0.01603  -0.01625  -1.23020
   D18        2.92530   0.00103   0.00000   0.00515   0.00463   2.92993
   D19        1.83717   0.00069   0.00000   0.00384   0.00331   1.84048
   D20       -1.15670  -0.00195   0.00000  -0.03628  -0.03669  -1.19339
   D21       -2.32960   0.00288   0.00000   0.02163   0.02130  -2.30830
   D22        0.95972   0.00024   0.00000  -0.01849  -0.01870   0.94102
   D23       -0.29165  -0.00214   0.00000  -0.00511  -0.00444  -0.29609
   D24        2.99766  -0.00478   0.00000  -0.04523  -0.04443   2.95323
   D25        3.10826   0.00594   0.00000   0.05741   0.05566  -3.11926
   D26       -0.16234   0.00764   0.00000   0.09108   0.08969  -0.07265
   D27        3.06682   0.00243   0.00000   0.01617   0.01469   3.08150
   D28        0.06881  -0.00196   0.00000  -0.02874  -0.02865   0.04016
   D29       -3.08056  -0.00146   0.00000  -0.02529  -0.02392  -3.10448
   D30        0.19512  -0.00711   0.00000  -0.11253  -0.11618   0.07894
   D31        2.91049   0.00794   0.00000   0.10121   0.10083   3.01132
   D32       -0.14579   0.00832   0.00000   0.09928   0.09857  -0.04722
   D33       -0.07331  -0.00104   0.00000  -0.01136  -0.01060  -0.08391
   D34       -3.12958  -0.00065   0.00000  -0.01330  -0.01287   3.14074
   D35        0.04264  -0.00284   0.00000  -0.03921  -0.03851   0.00413
   D36       -3.02480  -0.00247   0.00000  -0.04041  -0.03995  -3.06475
         Item               Value     Threshold  Converged?
 Maximum Force            0.061056     0.000450     NO 
 RMS     Force            0.013135     0.000300     NO 
 Maximum Displacement     0.356163     0.001800     NO 
 RMS     Displacement     0.101449     0.001200     NO 
 Predicted change in Energy=-2.533411D-02
 Lowest energy point so far.  Saving SCF results.
 GradGradGradGradGradGradGradGradGradGradGradGradGradGradGradGradGradGrad

 Leave Link  103 at Mon Jul 12 12:52:23 2021, MaxMem=   104857600 cpu:               0.1 elap:               0.0
 (Enter /dades/curu/g16A03_MST/g16/l202.exe)
                          Input orientation:                          
 ---------------------------------------------------------------------
 Center     Atomic      Atomic             Coordinates (Angstroms)
 Number     Number       Type             X           Y           Z
 ---------------------------------------------------------------------
      1          7           0        2.293483    0.304888    0.190090
      2          1           0        2.524818    0.684902    1.110591
      3          1           0        3.174149    0.192031   -0.318053
      4          6           0        1.343700    1.172720   -0.554765
      5          1           0        1.203942    0.702263   -1.527858
      6          1           0        1.769225    2.175744   -0.593321
      7          6           0       -0.006309    1.271103    0.178349
      8          1           0       -0.532729    2.151376   -0.204956
      9          1           0        0.164522    1.475631    1.238298
     10          6           0       -0.852565    0.041023    0.068125
     11          7           0       -0.989639   -0.788999    1.093689
     12          6           0       -1.784815   -1.865408    0.767479
     13          1           0       -1.988079   -2.585533    1.549551
     14          6           0       -2.194062   -1.937056   -0.530303
     15          1           0       -2.722473   -2.719417   -1.059363
     16         16           0       -1.620071   -0.545401   -1.395127
     17          1           0        1.904902   -0.629866    0.337575
 ---------------------------------------------------------------------
                    Distance matrix (angstroms):
                    1          2          3          4          5
     1  N    0.000000
     2  H    1.022374   0.000000
     3  H    1.022994   1.644863   0.000000
     4  C    1.486617   2.099146   2.090054   0.000000
     5  H    2.072764   2.950665   2.367631   1.089849   0.000000
     6  H    2.094918   2.386806   2.446365   1.090236   1.834135
     7  C    2.494544   2.760310   3.395014   1.539370   2.167816
     8  H    3.398979   3.637280   4.194373   2.145022   2.620310
     9  H    2.646102   2.492501   3.623219   2.167324   3.054523
    10  C    3.159449   3.592775   4.048006   2.548001   2.685818
    11  N    3.576586   3.811047   4.504726   3.465576   3.729366
    12  C    4.655758   5.019437   5.477477   4.556991   4.560063
    13  H    5.341764   5.590588   6.152349   5.445491   5.519878
    14  C    5.067873   5.642254   5.778905   4.710315   4.416736
    15  H    5.988937   6.620586   6.617871   5.651293   5.229160
    16  S    4.307180   4.997236   4.968745   3.527334   3.090199
    17  H    1.022991   1.646349   1.648135   2.088190   2.397030
                    6          7          8          9         10
     6  H    0.000000
     7  C    2.136907   0.000000
     8  H    2.334612   1.094953   0.000000
     9  H    2.533783   1.092935   1.739475   0.000000
    10  C    3.445044   1.497129   2.151850   2.112314   0.000000
    11  N    4.387144   2.459432   3.246699   2.545889   1.326465
    12  C    5.551026   3.653473   4.318322   3.896682   2.234428
    13  H    6.432651   4.547664   5.256867   4.606911   3.222237
    14  C    5.711983   3.947245   4.425060   4.509690   2.463845
    15  H    6.659966   4.983345   5.408291   5.586807   3.519633
    16  S    4.419824   2.894778   3.141881   3.768854   1.753301
    17  H    2.959126   2.700326   3.737873   2.876342   2.850670
                   11         12         13         14         15
    11  N    0.000000
    12  C    1.377453   0.000000
    13  H    2.105286   1.082374   0.000000
    14  C    2.325086   1.362665   2.188320   0.000000
    15  H    3.371181   2.223934   2.713612   1.082225   0.000000
    16  S    2.578951   2.538981   3.601208   1.736114   2.460564
    17  H    2.995897   3.914766   4.522038   4.389017   5.265953
                   16         17
    16  S    0.000000
    17  H    3.928718   0.000000
 Stoichiometry    C5H9N2S(1+)
 Framework group  C1[X(C5H9N2S)]
 Deg. of freedom    45
 Full point group                 C1      NOp   1
 RotChk:  IX=0 Diff= 6.44D-02
 Largest Abelian subgroup         C1      NOp   1
 Largest concise Abelian subgroup C1      NOp   1
                         Standard orientation:                         
 ---------------------------------------------------------------------
 Center     Atomic      Atomic             Coordinates (Angstroms)
 Number     Number       Type             X           Y           Z
 ---------------------------------------------------------------------
      1          7           0       -2.652805    0.638405   -0.808493
      2          1           0       -3.125731    1.321099   -0.212239
      3          1           0       -3.288440    0.422788   -1.580501
      4          6           0       -2.267359   -0.588708   -0.063071
      5          1           0       -1.817978   -1.258764   -0.795773
      6          1           0       -3.163084   -0.980250    0.419617
      7          6           0       -1.248937   -0.265189    1.044996
      8          1           0       -1.253631   -1.096272    1.757878
      9          1           0       -1.587447    0.604750    1.613435
     10          6           0        0.133778    0.011721    0.542187
     11          7           0        0.615403    1.247257    0.510628
     12          6           0        1.889521    1.277813   -0.011930
     13          1           0        2.386614    2.238603   -0.048188
     14          6           0        2.374815    0.093027   -0.478436
     15          1           0        3.282766   -0.129770   -1.023593
     16         16           0        1.210718   -1.162260   -0.189953
     17          1           0       -1.833660    1.102359   -1.208817
 ---------------------------------------------------------------------
 Rotational constants (GHZ):           3.3092460           1.1375787           0.9965209
 Leave Link  202 at Mon Jul 12 12:52:23 2021, MaxMem=   104857600 cpu:               0.1 elap:               0.0
 (Enter /dades/curu/g16A03_MST/g16/l301.exe)
 Standard basis: 6-31G(d) (6D, 7F)
 Ernie: Thresh=  0.10000D-02 Tol=  0.10000D-05 Strict=F.
 There are   142 symmetry adapted cartesian basis functions of A   symmetry.
 There are   142 symmetry adapted basis functions of A   symmetry.
   142 basis functions,   284 primitive gaussians,   142 cartesian basis functions
    34 alpha electrons       34 beta electrons
       nuclear repulsion energy       444.4820507529 Hartrees.
 IExCor=  402 DFT=T Ex+Corr=B3LYP ExCW=0 ScaHFX=  0.200000
 ScaDFX=  0.800000  0.720000  1.000000  0.810000 ScalE2=  1.000000  1.000000
 IRadAn=      5 IRanWt=     -1 IRanGd=            0 ICorTp=0 IEmpDi=  4
 NAtoms=   17 NActive=   17 NUniq=   17 SFac= 1.00D+00 NAtFMM=   60 NAOKFM=F Big=F
 Integral buffers will be    131072 words long.
 Raffenetti 2 integral format.
 Two-electron integral symmetry is turned on.
 ------------------------------------------------------------------------------
 Polarizable Continuum Model (PCM)
 =================================
 Model                : PCM.
 Atomic radii         : MST.
 Polarization charges : Total charges.
 Charge compensation  : None.
 Solution method      : On-the-fly selection.
 Cavity type          : Scaled VdW (van der Waals Surface) (Alpha=1.500).
 Cavity algorithm     : GePol (No added spheres)
                        Default sphere list used, NSphG=   17.
                        Lebedev-Laikov grids with approx.  5.0 points / Ang**2.
                        Smoothing algorithm: York/Karplus (Gamma=1.0000).
                        Polarization charges: spherical gaussians, with
                                              point-specific exponents (IZeta= 3).
                        Self-potential: point-specific (ISelfS= 7).
                        Self-field    : sphere-specific E.n sum rule (ISelfD= 2).
 1st derivatives      : Analytical E(r).r(x)/FMM algorithm (CHGder, D1EAlg=3).
                        Cavity 1st derivative terms included.
 Solvent              : n-Octanol, Eps=   9.862900 Eps(inf)=   2.043470
 ------------------------------------------------------------------------------
 Spheres list:
 ISph  on   Nord     Re0    Alpha      Xe            Ye            Ze
    1   N      1    1.5000  1.150     -2.652805      0.638405     -0.808493
    2   H      2    0.9000  1.150     -3.125731      1.321099     -0.212239
    3   H      3    0.9000  1.150     -3.288440      0.422788     -1.580501
    4   C      4    1.5000  1.500     -2.267359     -0.588708     -0.063071
    5   H      5    1.2000  1.500     -1.817978     -1.258764     -0.795773
    6   H      6    1.2000  1.500     -3.163084     -0.980250      0.419617
    7   C      7    1.5000  1.500     -1.248937     -0.265189      1.044996
    8   H      8    1.2000  1.500     -1.253631     -1.096272      1.757878
    9   H      9    1.2000  1.500     -1.587447      0.604750      1.613435
   10   C     10    1.5000  1.500      0.133778      0.011721      0.542187
   11   N     11    1.5000  1.500      0.615403      1.247257      0.510628
   12   C     12    1.5000  1.500      1.889521      1.277813     -0.011930
   13   H     13    1.2000  1.500      2.386614      2.238603     -0.048188
   14   C     14    1.5000  1.500      2.374815      0.093027     -0.478436
   15   H     15    1.2000  1.500      3.282766     -0.129770     -1.023593
   16   S     16    1.7500  1.500      1.210718     -1.162260     -0.189953
   17   H     17    0.9000  1.150     -1.833660      1.102359     -1.208817
 ------------------------------------------------------------------------------
 GePol: Number of generator spheres                  =      17
 GePol: Total number of spheres                      =      17
 GePol: Number of exposed spheres                    =      17 (100.00%)
 GePol: Number of points                             =    1742
 GePol: Average weight of points                     =       0.12
 GePol: Minimum weight of points                     =   0.12D-11
 GePol: Maximum weight of points                     =    0.22065
 GePol: Number of points with low weight             =      90
 GePol: Fraction of low-weight points (<1% of avg)   =       5.17%
 GePol: Cavity surface area                          =    202.664 Ang**2
 GePol: Cavity volume                                =    214.844 Ang**3
 Surface areas from nonelectrostatic (unscaled) cavity and vdw tensions:
 Sphere =    1 Type =  NH  Surf =       12.368 Tension =       -0.234
 Sphere =    2 Type =  NH  Surf =        4.014 Tension =       -0.234
 Sphere =    3 Type =  NH  Surf =        4.017 Tension =       -0.234
 Sphere =    4 Type =  CH2 Surf =        4.111 Tension =       -0.194
 Sphere =    5 Type =  CH2 Surf =        9.977 Tension =       -0.194
 Sphere =    6 Type =  CH2 Surf =        9.981 Tension =       -0.194
 Sphere =    7 Type =  CH2 Surf =        3.822 Tension =       -0.194
 Sphere =    8 Type =  CH2 Surf =       10.011 Tension =       -0.194
 Sphere =    9 Type =  CH2 Surf =        9.854 Tension =       -0.194
 Sphere =   10 Type =  C   Surf =        5.688 Tension =       -0.205
 Sphere =   11 Type =  Nc  Surf =       12.912 Tension =       -0.161
 Sphere =   12 Type =  CH  Surf =        7.732 Tension =       -0.195
 Sphere =   13 Type =  CH  Surf =       10.222 Tension =       -0.195
 Sphere =   14 Type =  CH  Surf =        7.713 Tension =       -0.195
 Sphere =   15 Type =  CH  Surf =       10.238 Tension =       -0.195
 Sphere =   16 Type =  S   Surf =       24.464 Tension =       -0.186
 Sphere =   17 Type =  NH  Surf =        4.017 Tension =       -0.234
 PCM non-electrostatic energy =        -0.0082640896 Hartrees.
 Nuclear repulsion after PCM non-electrostatic terms =      444.4737866633 Hartrees.
 Leave Link  301 at Mon Jul 12 12:52:23 2021, MaxMem=   104857600 cpu:               0.1 elap:               0.1
 (Enter /dades/curu/g16A03_MST/g16/l302.exe)
 NPDir=0 NMtPBC=     1 NCelOv=     1 NCel=       1 NClECP=     1 NCelD=      1
         NCelK=      1 NCelE2=     1 NClLst=     1 CellRange=     0.0.
 One-electron integrals computed using PRISM.
 One-electron integral symmetry used in STVInt
 NBasis=   142 RedAO= T EigKep=  2.47D-03  NBF=   142
 NBsUse=   142 1.00D-06 EigRej= -1.00D+00 NBFU=   142
 Precomputing XC quadrature grid using
 IXCGrd= 4 IRadAn=           5 IRanWt=          -1 IRanGd=           0 AccXCQ= 0.00D+00.
 Generated NRdTot=       0 NPtTot=           0 NUsed=           0 NTot=          32
 NSgBfM=   142   142   142   142   142 MxSgAt=    17 MxSgA2=    17.
 Leave Link  302 at Mon Jul 12 12:52:23 2021, MaxMem=   104857600 cpu:               1.5 elap:               0.4
 (Enter /dades/curu/g16A03_MST/g16/l303.exe)
 DipDrv:  MaxL=1.
 Leave Link  303 at Mon Jul 12 12:52:23 2021, MaxMem=   104857600 cpu:               0.1 elap:               0.0
 (Enter /dades/curu/g16A03_MST/g16/l401.exe)
 Initial guess from the checkpoint file:  "SET_328_BBB87_conf1.geo_285_105.chk"
 B after Tr=    -0.000000    0.000000   -0.000000
         Rot=    0.999816   -0.017305   -0.007756   -0.003021 Ang=  -2.20 deg.
 Guess basis will be translated and rotated to current coordinates.
 JPrj=2 DoOrth=T DoCkMO=T.
 Generating alternative initial guess.
 ExpMin= 1.17D-01 ExpMax= 2.19D+04 ExpMxC= 3.30D+03 IAcc=2 IRadAn=         4 AccDes= 0.00D+00
 Harris functional with IExCor=  402 and IRadAn=       4 diagonalized for initial guess.
 HarFok:  IExCor=  402 AccDes= 0.00D+00 IRadAn=         4 IDoV= 1 UseB2=F ITyADJ=14
 ICtDFT=  3500011 ScaDFX=  1.000000  1.000000  1.000000  1.000000
 FoFCou: FMM=F IPFlag=           0 FMFlag=      100000 FMFlg1=           0
         NFxFlg=           0 DoJE=T BraDBF=F KetDBF=T FulRan=T
         wScrn=  0.000000 ICntrl=       500 IOpCl=  0 I1Cent=   200000004 NGrid=           0
         NMat0=    1 NMatS0=      1 NMatT0=    0 NMatD0=    1 NMtDS0=    0 NMtDT0=    0
 Petite list used in FoFCou.
 Harris En= -703.386879649195    
 Leave Link  401 at Mon Jul 12 12:52:24 2021, MaxMem=   104857600 cpu:               4.0 elap:               1.1
 (Enter /dades/curu/g16A03_MST/g16/l502.exe)
 Keep R1 ints in memory in canonical form, NReq=55416097.
 FoFCou: FMM=F IPFlag=           0 FMFlag=           0 FMFlg1=           0
         NFxFlg=           0 DoJE=F BraDBF=F KetDBF=F FulRan=T
         wScrn=  0.000000 ICntrl=       600 IOpCl=  0 I1Cent=           0 NGrid=           0
         NMat0=    1 NMatS0=  10153 NMatT0=    0 NMatD0=    1 NMtDS0=    0 NMtDT0=    0
 Symmetry not used in FoFCou.
 Two-electron integral symmetry not used.
 Closed shell SCF:
 Using DIIS extrapolation, IDIIS=  1040.
 NGot=   104857600 LenX=    53267895 LenY=    53247290
 Requested convergence on RMS density matrix=1.00D-08 within 128 cycles.
 Requested convergence on MAX density matrix=1.00D-06.
 Requested convergence on             energy=1.00D-06.
 No special actions if energy rises.

 Cycle   1  Pass 1  IDiag  1:
 Inv3:  Mode=1 IEnd=     9103692.
 Iteration    1 A*A^-1 deviation from unit magnitude is 5.33D-15 for   1728.
 Iteration    1 A*A^-1 deviation from orthogonality  is 1.71D-15 for   1382    985.
 Iteration    1 A^-1*A deviation from unit magnitude is 5.55D-15 for   1728.
 Iteration    1 A^-1*A deviation from orthogonality  is 1.18D-15 for   1738   1642.
 E= -703.494632566537    
 DIIS: error= 3.82D-03 at cycle   1 NSaved=   1.
 NSaved= 1 IEnMin= 1 EnMin= -703.494632566537     IErMin= 1 ErrMin= 3.82D-03
 ErrMax= 3.82D-03  0.00D+00 EMaxC= 1.00D-01 BMatC= 4.98D-03 BMatP= 4.98D-03
 IDIUse=3 WtCom= 9.62D-01 WtEn= 3.82D-02
 Coeff-Com:  0.100D+01
 Coeff-En:   0.100D+01
 Coeff:      0.100D+01
 Gap=     1.584 Goal=   None    Shift=    0.000
 GapD=    1.584 DampG=2.000 DampE=1.000 DampFc=2.0000 IDamp=-1.
 RMSDP=9.67D-04 MaxDP=1.25D-02              OVMax= 2.02D-02

 Cycle   2  Pass 1  IDiag  1:
 E= -703.501881236304     Delta-E=       -0.007248669766 Rises=F Damp=F
 DIIS: error= 2.48D-03 at cycle   2 NSaved=   2.
 NSaved= 2 IEnMin= 2 EnMin= -703.501881236304     IErMin= 2 ErrMin= 2.48D-03
 ErrMax= 2.48D-03  0.00D+00 EMaxC= 1.00D-01 BMatC= 9.63D-04 BMatP= 4.98D-03
 IDIUse=3 WtCom= 9.75D-01 WtEn= 2.48D-02
 Coeff-Com:  0.216D+00 0.784D+00
 Coeff-En:   0.000D+00 0.100D+01
 Coeff:      0.210D+00 0.790D+00
 Gap=     0.214 Goal=   None    Shift=    0.000
 RMSDP=3.27D-04 MaxDP=9.86D-03 DE=-7.25D-03 OVMax= 1.02D-02

 Cycle   3  Pass 1  IDiag  1:
 E= -703.502185801742     Delta-E=       -0.000304565438 Rises=F Damp=F
 DIIS: error= 2.10D-03 at cycle   3 NSaved=   3.
 NSaved= 3 IEnMin= 3 EnMin= -703.502185801742     IErMin= 3 ErrMin= 2.10D-03
 ErrMax= 2.10D-03  0.00D+00 EMaxC= 1.00D-01 BMatC= 6.59D-04 BMatP= 9.63D-04
 IDIUse=3 WtCom= 9.79D-01 WtEn= 2.10D-02
 Coeff-Com: -0.219D-01 0.452D+00 0.569D+00
 Coeff-En:   0.000D+00 0.403D+00 0.597D+00
 Coeff:     -0.214D-01 0.451D+00 0.570D+00
 Gap=     0.215 Goal=   None    Shift=    0.000
 RMSDP=1.65D-04 MaxDP=4.79D-03 DE=-3.05D-04 OVMax= 7.34D-03

 Cycle   4  Pass 1  IDiag  1:
 E= -703.502745454440     Delta-E=       -0.000559652698 Rises=F Damp=F
 DIIS: error= 3.50D-04 at cycle   4 NSaved=   4.
 NSaved= 4 IEnMin= 4 EnMin= -703.502745454440     IErMin= 4 ErrMin= 3.50D-04
 ErrMax= 3.50D-04  0.00D+00 EMaxC= 1.00D-01 BMatC= 3.16D-05 BMatP= 6.59D-04
 IDIUse=3 WtCom= 9.97D-01 WtEn= 3.50D-03
 Coeff-Com: -0.190D-01 0.236D+00 0.327D+00 0.455D+00
 Coeff-En:   0.000D+00 0.000D+00 0.000D+00 0.100D+01
 Coeff:     -0.189D-01 0.236D+00 0.326D+00 0.457D+00
[...]
 Gap=     0.367 Goal=   None    Shift=    0.000
 RMSDP=1.77D-06 MaxDP=6.47D-05 DE=-5.17D-08 OVMax= 2.50D-05

 Cycle  11  Pass 1  IDiag  1:
 RMSU=  8.65D-07    CP:  1.00D+00
 E= -700.831653992953     Delta-E=       -0.000000007054 Rises=F Damp=F
 DIIS: error= 2.10D-06 at cycle   2 NSaved=   2.
 NSaved= 2 IEnMin= 2 EnMin= -700.831653992953     IErMin= 2 ErrMin= 2.10D-06
 ErrMax= 2.10D-06  0.00D+00 EMaxC= 1.00D-01 BMatC= 1.64D-09 BMatP= 4.81D-09
 IDIUse=1 WtCom= 1.00D+00 WtEn= 0.00D+00
 Coeff-Com:  0.307D+00 0.693D+00
 Coeff:      0.307D+00 0.693D+00
 Gap=     0.367 Goal=   None    Shift=    0.000
 RMSDP=2.97D-07 MaxDP=1.49D-05 DE=-7.05D-09 OVMax= 2.95D-05

 Cycle  12  Pass 1  IDiag  1:
 RMSU=  2.91D-07    CP:  1.00D+00  9.35D-01
 E= -700.831653995715     Delta-E=       -0.000000002762 Rises=F Damp=F
 DIIS: error= 7.87D-07 at cycle   3 NSaved=   3.
 NSaved= 3 IEnMin= 3 EnMin= -700.831653995715     IErMin= 3 ErrMin= 7.87D-07
 ErrMax= 7.87D-07  0.00D+00 EMaxC= 1.00D-01 BMatC= 3.96D-10 BMatP= 1.64D-09
 IDIUse=1 WtCom= 1.00D+00 WtEn= 0.00D+00
 Coeff-Com: -0.438D+00-0.145D+00 0.158D+01
 Coeff:     -0.438D+00-0.145D+00 0.158D+01
 Gap=     0.367 Goal=   None    Shift=    0.000
 RMSDP=4.13D-07 MaxDP=2.16D-05 DE=-2.76D-09 OVMax= 2.73D-05

 Cycle  13  Pass 1  IDiag  1:
 RMSU=  1.05D-07    CP:  1.00D+00  1.34D+00  1.68D+00
 E= -700.831653997224     Delta-E=       -0.000000001510 Rises=F Damp=F
 DIIS: error= 2.13D-07 at cycle   4 NSaved=   4.
 NSaved= 4 IEnMin= 4 EnMin= -700.831653997224     IErMin= 4 ErrMin= 2.13D-07
 ErrMax= 2.13D-07  0.00D+00 EMaxC= 1.00D-01 BMatC= 2.06D-11 BMatP= 3.96D-10
 IDIUse=1 WtCom= 1.00D+00 WtEn= 0.00D+00
 Coeff-Com: -0.775D-01-0.351D-01 0.163D+00 0.950D+00
 Coeff:     -0.775D-01-0.351D-01 0.163D+00 0.950D+00
 Gap=     0.367 Goal=   None    Shift=    0.000
 RMSDP=7.18D-08 MaxDP=3.34D-06 DE=-1.51D-09 OVMax= 6.31D-06

 Cycle  14  Pass 1  IDiag  1:
 RMSU=  3.66D-08    CP:  1.00D+00  1.38D+00  1.80D+00  1.31D+00
 E= -700.831653997308     Delta-E=       -0.000000000084 Rises=F Damp=F
 DIIS: error= 1.72D-07 at cycle   5 NSaved=   5.
 NSaved= 5 IEnMin= 5 EnMin= -700.831653997308     IErMin= 5 ErrMin= 1.72D-07
 ErrMax= 1.72D-07  0.00D+00 EMaxC= 1.00D-01 BMatC= 5.52D-12 BMatP= 2.06D-11
 IDIUse=1 WtCom= 1.00D+00 WtEn= 0.00D+00
 Coeff-Com:  0.129D+00 0.673D-01-0.484D+00-0.116D+00 0.140D+01
 Coeff:      0.129D+00 0.673D-01-0.484D+00-0.116D+00 0.140D+01
 Gap=     0.367 Goal=   None    Shift=    0.000
 RMSDP=5.34D-08 MaxDP=2.03D-06 DE=-8.37D-11 OVMax= 4.62D-06

 Cycle  15  Pass 1  IDiag  1:
 RMSU=  1.79D-08    CP:  1.00D+00  1.40D+00  1.85D+00  1.69D+00  1.52D+00
 E= -700.831653997330     Delta-E=       -0.000000000022 Rises=F Damp=F
 DIIS: error= 3.90D-08 at cycle   6 NSaved=   6.
 NSaved= 6 IEnMin= 6 EnMin= -700.831653997330     IErMin= 6 ErrMin= 3.90D-08
 ErrMax= 3.90D-08  0.00D+00 EMaxC= 1.00D-01 BMatC= 4.27D-13 BMatP= 5.52D-12
 IDIUse=1 WtCom= 1.00D+00 WtEn= 0.00D+00
 Coeff-Com:  0.856D-02 0.844D-02-0.262D-01-0.910D-01 0.811D-02 0.109D+01
 Coeff:      0.856D-02 0.844D-02-0.262D-01-0.910D-01 0.811D-02 0.109D+01
 Gap=     0.367 Goal=   None    Shift=    0.000
 RMSDP=1.22D-08 MaxDP=4.15D-07 DE=-2.23D-11 OVMax= 1.06D-06

 Cycle  16  Pass 1  IDiag  1:
 RMSU=  5.82D-09    CP:  1.00D+00  1.41D+00  1.86D+00  1.75D+00  1.69D+00
                    CP:  1.22D+00
 E= -700.831653997343     Delta-E=       -0.000000000013 Rises=F Damp=F
 DIIS: error= 1.71D-08 at cycle   7 NSaved=   7.
 NSaved= 7 IEnMin= 7 EnMin= -700.831653997343     IErMin= 7 ErrMin= 1.71D-08
 ErrMax= 1.71D-08  0.00D+00 EMaxC= 1.00D-01 BMatC= 6.30D-14 BMatP= 4.27D-13
 IDIUse=1 WtCom= 1.00D+00 WtEn= 0.00D+00
 Coeff-Com: -0.227D-01-0.104D-01 0.826D-01 0.198D-01-0.250D+00 0.346D-01
 Coeff-Com:  0.115D+01
 Coeff:     -0.227D-01-0.104D-01 0.826D-01 0.198D-01-0.250D+00 0.346D-01
 Coeff:      0.115D+01
 Gap=     0.367 Goal=   None    Shift=    0.000
 RMSDP=4.93D-09 MaxDP=1.84D-07 DE=-1.27D-11 OVMax= 4.45D-07

 SCF Done:  E(RHF) =  -700.831653997     A.U. after   16 cycles
            NFock= 16  Conv=0.49D-08     -V/T= 2.0007
 KE= 7.003251393617D+02 PE=-2.534378461086D+03 EE= 6.871151946714D+02
 Leave Link  502 at Mon Jul 12 13:21:25 2021, MaxMem=   262144000 cpu:             532.3 elap:             134.4
 (Enter /dades/curu/g16A03_MST/g16/l801.exe)
 ExpMin= 2.97D-02 ExpMax= 1.11D+05 ExpMxC= 1.07D+03 IAcc=3 IRadAn=         5 AccDes= 0.00D+00
 HarFok:  IExCor=  205 AccDes= 0.00D+00 IRadAn=         5 IDoV=-2 UseB2=F ITyADJ=14
 ICtDFT= 12500011 ScaDFX=  1.000000  1.000000  1.000000  1.000000
 Largest valence mixing into a core orbital is  3.20D-04
 Largest core mixing into a valence orbital is  8.84D-05
 Range of M.O.s used for correlation:    13   269
 NBasis=   269 NAE=    34 NBE=    34 NFC=    12 NFV=     0
 NROrb=    257 NOA=    22 NOB=    22 NVA=   235 NVB=   235

 **** Warning!!: The largest alpha MO coefficient is  0.56228120D+02

 Leave Link  801 at Mon Jul 12 13:21:26 2021, MaxMem=   262144000 cpu:               0.9 elap:               0.4
 (Enter /dades/curu/g16A03_MST/g16/l906.exe)
 FulOut=F Deriv=F AODrv=F NAtomX=    17
   MMem=          42  MDisk=          22 MDiskD=          22
  W3Min=     1473450 MinDsk=     1955505 NBas6D=         285
 NBas2D=       41124    NTT=       40755    LW2=     2000000
    MDV=   261532777 MDiskM=       12647 NBas2p=       40512
 Fully direct method using O(OVN) memory.
 IMap=   1   2   3   4   5   6   7   8   9  10  11  12  13  14  15  16  17  18  19  20
 IMap=  21  22
 JobTyp=1 Pass  1:  I=   1 to  22 NPSUse=  4 ParTrn=T ParDer=T DoDerP=F.
 Spin components of T(2) and E(2):
     alpha-alpha T2 =       0.5947810481D-01 E2=     -0.1550842687D+00
     alpha-beta  T2 =       0.3168199604D+00 E2=     -0.8825119320D+00
     beta-beta   T2 =       0.5947810481D-01 E2=     -0.1550842687D+00
 The integrals were generated   1 times.
 ANorm=    0.1198238778D+01
 E2 =    -0.1192680469D+01 EUMP2 =    -0.70202433446660D+03
 Leave Link  906 at Mon Jul 12 13:22:07 2021, MaxMem=   262144000 cpu:             164.8 elap:              41.4
 (Enter /dades/curu/g16A03_MST/g16/l601.exe)
 Copying SCF densities to generalized density rwf, IOpCl= 0 IROHF=0.

 **********************************************************************

            Population analysis using the SCF density.

 **********************************************************************

 Orbital symmetries:
       Occupied  (A) (A) (A) (A) (A) (A) (A) (A) (A) (A) (A) (A)
                 (A) (A) (A) (A) (A) (A) (A) (A) (A) (A) (A) (A)
                 (A) (A) (A) (A) (A) (A) (A) (A) (A) (A)
       Virtual   (A) (A) (A) (A) (A) (A) (A) (A) (A) (A) (A) (A)
                 (A) (A) (A) (A) (A) (A) (A) (A) (A) (A) (A) (A)
                 (A) (A) (A) (A) (A) (A) (A) (A) (A) (A) (A) (A)
                 (A) (A) (A) (A) (A) (A) (A) (A) (A) (A) (A) (A)
                 (A) (A) (A) (A) (A) (A) (A) (A) (A) (A) (A) (A)
                 (A) (A) (A) (A) (A) (A) (A) (A) (A) (A) (A) (A)
                 (A) (A) (A) (A) (A) (A) (A) (A) (A) (A) (A) (A)
                 (A) (A) (A) (A) (A) (A) (A) (A) (A) (A) (A) (A)
                 (A) (A) (A) (A) (A) (A) (A) (A) (A) (A) (A) (A)
                 (A) (A) (A) (A) (A) (A) (A) (A) (A) (A) (A) (A)
                 (A) (A) (A) (A) (A) (A) (A) (A) (A) (A) (A) (A)
                 (A) (A) (A) (A) (A) (A) (A) (A) (A) (A) (A) (A)
                 (A) (A) (A) (A) (A) (A) (A) (A) (A) (A) (A) (A)
                 (A) (A) (A) (A) (A) (A) (A) (A) (A) (A) (A) (A)
                 (A) (A) (A) (A) (A) (A) (A) (A) (A) (A) (A) (A)
                 (A) (A) (A) (A) (A) (A) (A) (A) (A) (A) (A) (A)
                 (A) (A) (A) (A) (A) (A) (A) (A) (A) (A) (A) (A)
                 (A) (A) (A) (A) (A) (A) (A) (A) (A) (A) (A) (A)
                 (A) (A) (A) (A) (A) (A) (A) (A) (A) (A) (A) (A)
                 (A) (A) (A) (A) (A) (A) (A)
 The electronic state is 1-A.
 Alpha  occ. eigenvalues --  -92.12980 -15.87453 -15.72721 -11.48007 -11.46754
 Alpha  occ. eigenvalues --  -11.42761 -11.40445 -11.40017  -9.13167  -6.81306
 Alpha  occ. eigenvalues --   -6.81217  -6.81043  -1.49069  -1.42721  -1.24069
 Alpha  occ. eigenvalues --   -1.19953  -1.13689  -1.05264  -0.95504  -0.94497
 Alpha  occ. eigenvalues --   -0.92865  -0.87785  -0.83873  -0.82026  -0.77647
 Alpha  occ. eigenvalues --   -0.74808  -0.73044  -0.69984  -0.68312  -0.67727
 Alpha  occ. eigenvalues --   -0.63334  -0.57865  -0.52532  -0.46706
 Alpha virt. eigenvalues --   -0.10051  -0.07233  -0.06882  -0.05753  -0.03994
 Alpha virt. eigenvalues --   -0.03749  -0.03599  -0.03373  -0.02564  -0.01578
 Alpha virt. eigenvalues --   -0.01406  -0.00066   0.00043   0.01144   0.01718
 Alpha virt. eigenvalues --    0.02344   0.03028   0.03299   0.03660   0.03950
 Alpha virt. eigenvalues --    0.04569   0.05048   0.05577   0.05902   0.06206
 Alpha virt. eigenvalues --    0.07080   0.07785   0.07866   0.08087   0.09484
 Alpha virt. eigenvalues --    0.09920   0.10487   0.10663   0.11218   0.11918
 Alpha virt. eigenvalues --    0.12063   0.13035   0.13914   0.14130   0.15747
 Alpha virt. eigenvalues --    0.16063   0.16504   0.18642   0.19425   0.20601
 Alpha virt. eigenvalues --    0.20634   0.21755   0.22350   0.22598   0.23662
 Alpha virt. eigenvalues --    0.23688   0.24370   0.25644   0.27645   0.28574
 Alpha virt. eigenvalues --    0.28867   0.30226   0.30977   0.31740   0.32559
 Alpha virt. eigenvalues --    0.32815   0.33672   0.33941   0.34310   0.34670
 Alpha virt. eigenvalues --    0.35251   0.36094   0.37184   0.37440   0.38884
 Alpha virt. eigenvalues --    0.40125   0.40635   0.41336   0.42313   0.42602
 Alpha virt. eigenvalues --    0.43519   0.44405   0.44835   0.46250   0.47052
 Alpha virt. eigenvalues --    0.47406   0.48221   0.50115   0.50890   0.51365
 Alpha virt. eigenvalues --    0.52247   0.53249   0.54503   0.54703   0.55311
 Alpha virt. eigenvalues --    0.56267   0.57127   0.57242   0.58242   0.59476
 Alpha virt. eigenvalues --    0.61245   0.61884   0.62102   0.63400   0.64401
 Alpha virt. eigenvalues --    0.64806   0.65147   0.66180   0.68005   0.68586
 Alpha virt. eigenvalues --    0.69130   0.69942   0.71071   0.71824   0.74488
 Alpha virt. eigenvalues --    0.74883   0.75303   0.76808   0.78133   0.79478
 Alpha virt. eigenvalues --    0.79575   0.80534   0.82267   0.83294   0.86349
 Alpha virt. eigenvalues --    0.86827   0.87370   0.88761   0.89752   0.92058
 Alpha virt. eigenvalues --    0.92316   0.96555   0.97150   0.98729   1.00927
 Alpha virt. eigenvalues --    1.01539   1.03344   1.03596   1.04437   1.08401
 Alpha virt. eigenvalues --    1.09899   1.10089   1.10648   1.13037   1.14770
 Alpha virt. eigenvalues --    1.16090   1.16855   1.19878   1.23391   1.24105
 Alpha virt. eigenvalues --    1.26211   1.28170   1.30482   1.30995   1.36550
 Alpha virt. eigenvalues --    1.40557   1.41716   1.43802   1.44766   1.46746
 Alpha virt. eigenvalues --    1.48744   1.52063   1.53849   1.55304   1.57173
 Alpha virt. eigenvalues --    1.59473   1.60246   1.62404   1.63335   1.66234
 Alpha virt. eigenvalues --    1.67585   1.68040   1.71231   1.71504   1.74840
 Alpha virt. eigenvalues --    1.76161   1.76497   1.77617   1.80827   1.83526
 Alpha virt. eigenvalues --    1.85786   1.87900   1.91377   1.92969   1.93272
 Alpha virt. eigenvalues --    1.94465   1.97425   1.98960   2.00298   2.03019
 Alpha virt. eigenvalues --    2.03872   2.04648   2.07390   2.09467   2.12518
 Alpha virt. eigenvalues --    2.13063   2.15193   2.17956   2.18913   2.20301
 Alpha virt. eigenvalues --    2.23903   2.26476   2.29420   2.30281   2.32324
 Alpha virt. eigenvalues --    2.33414   2.35029   2.36695   2.38322   2.42085
 Alpha virt. eigenvalues --    2.44595   2.45850   2.47572   2.52363   2.54736
 Alpha virt. eigenvalues --    2.56125   2.59906   2.62019   2.66363   2.69122
 Alpha virt. eigenvalues --    2.71873   2.73688   2.75312   2.79346   2.81141
 Alpha virt. eigenvalues --    2.82634   2.84313   2.87983   2.91092   2.95524
 Alpha virt. eigenvalues --    2.98893   3.03575   3.07418   3.16233   3.30218
 Alpha virt. eigenvalues --    3.34989   3.37066   3.38724   3.58352   3.71024
          Condensed to atoms (all electrons):
               1          2          3          4          5          6
     1  N    6.426857   0.364147   0.443932  -0.008609  -0.065923  -0.102176
     2  H    0.364147   0.559552  -0.069033  -0.007464   0.021579  -0.033719
     3  H    0.443932  -0.069033   0.605819  -0.061939  -0.034763  -0.006029
     4  C   -0.008609  -0.007464  -0.061939   4.606079   0.218001   0.310530
     5  H   -0.065923   0.021579  -0.034763   0.218001   1.237453  -0.206267
     6  H   -0.102176  -0.033719  -0.006029   0.310530  -0.206267   1.164620
     7  C   -0.119755  -0.038842   0.037536   0.592058  -0.108663   0.031541
     8  H    0.019297   0.004715   0.000208   0.039901  -0.048305  -0.047017
     9  H    0.014511   0.004172  -0.003846  -0.187810   0.077199  -0.053836
    10  C    0.110673   0.012690  -0.013013  -0.364967   0.092460   0.020153
    11  N   -0.081238  -0.013056   0.000186   0.048096  -0.029197   0.003223
    12  C   -0.000287  -0.001059  -0.001125  -0.083024  -0.027323   0.001388
    13  H    0.006309   0.001216   0.000716  -0.004661  -0.000357  -0.000323
    14  C    0.000054  -0.000503   0.000241   0.013824   0.005066   0.001178
    15  H   -0.000259  -0.000175  -0.000065   0.002649  -0.000106   0.000285
    16  S   -0.022866  -0.000584  -0.000474   0.023165   0.015453  -0.002651
    17  H    0.386362  -0.035745  -0.067076  -0.045026  -0.009007   0.018896
               7          8          9         10         11         12
     1  N   -0.119755   0.019297   0.014511   0.110673  -0.081238  -0.000287
     2  H   -0.038842   0.004715   0.004172   0.012690  -0.013056  -0.001059
     3  H    0.037536   0.000208  -0.003846  -0.013013   0.000186  -0.001125
     4  C    0.592058   0.039901  -0.187810  -0.364967   0.048096  -0.083024
     5  H   -0.108663  -0.048305   0.077199   0.092460  -0.029197  -0.027323
     6  H    0.031541  -0.047017  -0.053836   0.020153   0.003223   0.001388
     7  C    5.491432   0.082103   0.246854  -0.308974   0.082883  -0.232040
     8  H    0.082103   1.077409  -0.137663  -0.025994   0.036154   0.014984
     9  H    0.246854  -0.137663   0.990480   0.045370  -0.046612  -0.034079
    10  C   -0.308974  -0.025994   0.045370   6.306981   0.394818  -0.239627
    11  N    0.082883   0.036154  -0.046612   0.394818   7.488848   0.127094
    12  C   -0.232040   0.014984  -0.034079  -0.239627   0.127094   5.650952
    13  H   -0.011033   0.000613  -0.000901   0.086972  -0.194349   0.285571
    14  C   -0.003070  -0.006009   0.009533  -0.086188  -0.114485   0.197908
    15  H    0.025845   0.001231   0.000915   0.032810   0.013536  -0.019226
    16  S    0.079731  -0.059189   0.042819   0.093919  -0.125560  -0.316785
    17  H   -0.010178  -0.001807   0.003557  -0.020882   0.068980  -0.001591
              13         14         15         16         17
     1  N    0.006309   0.000054  -0.000259  -0.022866   0.386362
     2  H    0.001216  -0.000503  -0.000175  -0.000584  -0.035745
     3  H    0.000716   0.000241  -0.000065  -0.000474  -0.067076
     4  C   -0.004661   0.013824   0.002649   0.023165  -0.045026
     5  H   -0.000357   0.005066  -0.000106   0.015453  -0.009007
     6  H   -0.000323   0.001178   0.000285  -0.002651   0.018896
     7  C   -0.011033  -0.003070   0.025845   0.079731  -0.010178
     8  H    0.000613  -0.006009   0.001231  -0.059189  -0.001807
     9  H   -0.000901   0.009533   0.000915   0.042819   0.003557
    10  C    0.086972  -0.086188   0.032810   0.093919  -0.020882
    11  N   -0.194349  -0.114485   0.013536  -0.125560   0.068980
    12  C    0.285571   0.197908  -0.019226  -0.316785  -0.001591
    13  H    1.270204  -0.127378  -0.039000   0.000508  -0.013136
    14  C   -0.127378   5.416588   0.274242   0.282857   0.000247
    15  H   -0.039000   0.274242   1.160591  -0.125798   0.001694
    16  S    0.000508   0.282857  -0.125798  15.730575   0.003394
    17  H   -0.013136   0.000247   0.001694   0.003394   0.473493
 Mulliken charges:
               1
     1  N   -0.371030
     2  H    0.232108
     3  H    0.168724
     4  C    0.909196
     5  H   -0.137302
     6  H   -0.099793
     7  C    0.162573
     8  H    0.049368
     9  H    0.029338
    10  C   -0.137200
    11  N   -0.659322
    12  C    0.678268
    13  H   -0.260973
    14  C    0.135896
    15  H   -0.329168
    16  S    0.381487
    17  H    0.247827
 Sum of Mulliken charges =   1.00000
 Mulliken charges with hydrogens summed into heavy atoms:
               1
     1  N    0.277630
     4  C    0.672101
     7  C    0.241280
    10  C   -0.137200
    11  N   -0.659322
    12  C    0.417295
    14  C   -0.193271
    16  S    0.381487
 Electronic spatial extent (au):  <R**2>=           1228.6744
 Charge=              1.0000 electrons
 Dipole moment (field-independent basis, Debye):
    X=             -8.8056    Y=              1.4102    Z=              0.3554  Tot=              8.9249
 Quadrupole moment (field-independent basis, Debye-Ang):
   XX=            -10.7721   YY=            -44.4714   ZZ=            -53.1773
   XY=             -3.1032   XZ=             -1.9872   YZ=              0.2009
 Traceless Quadrupole moment (field-independent basis, Debye-Ang):
   XX=             25.3682   YY=             -8.3311   ZZ=            -17.0370
   XY=             -3.1032   XZ=             -1.9872   YZ=              0.2009
 Octapole moment (field-independent basis, Debye-Ang**2):
  XXX=            -87.8636  YYY=             10.8319  ZZZ=              2.6936  XYY=            -15.1005
  XXY=             30.1800  XXZ=              2.0466  XZZ=            -19.3579  YZZ=             -0.1809
  YYZ=             -0.8548  XYZ=             -2.0075
 Hexadecapole moment (field-independent basis, Debye-Ang**3):
 XXXX=           -667.4637 YYYY=           -340.2129 ZZZZ=            -84.3544 XXXY=            -74.3612
 XXXZ=            -20.1618 YYYX=             -3.1688 YYYZ=              0.3846 ZZZX=             -7.3556
 ZZZY=              1.4956 XXYY=           -196.5648 XXZZ=           -186.6225 YYZZ=            -82.4400
 XXYZ=              1.4623 YYXZ=              0.0174 ZZXY=             -9.4099
 N-N= 4.461064730559D+02 E-N=-2.534378459708D+03  KE= 7.003251393617D+02
 Leave Link  601 at Mon Jul 12 13:22:07 2021, MaxMem=   262144000 cpu:               0.2 elap:               0.1
 (Enter /dades/curu/g16A03_MST/g16/l9999.exe)
 1\1\GINC-PIRINEUS49\SP\RMP2-FC\Aug-CC-pVDZ\C5H9N2S1(1+)\UBATOR02\12-Ju
 l-2021\0\\#p mp2/aug-cc-pVDZ scf=tight maxdisk=180GB geom=allcheck\\SE
 T_328_BBB87_conf1.geo_285_105 geometry\\1,1\N,0,2.1305106323,0.3083020
 419,0.5852442403\H,0,2.1692676417,0.8141676514,1.47981635\H,0,3.096201
 561,0.0684824393,0.3281993725\C,0,1.4462726274,1.1009021918,-0.4915170
 128\H,0,1.5671890465,0.5381243321,-1.4169070527\H,0,1.9714152414,2.049
 5378547,-0.584350263\C,0,-0.0332061071,1.3292203461,-0.1757628485\H,0,
 -0.4390941954,1.9834740727,-0.9507133601\H,0,-0.1347742356,1.876265762
 6,0.7701957803\C,0,-0.8190894277,0.0459943145,-0.1135523139\N,0,-0.312
 0682337,-1.0866147736,0.3006811436\C,0,-1.2436685762,-2.1002714649,0.2
 76569018\H,0,-0.9542248309,-3.0935726315,0.5911556819\C,0,-2.484521341
 9,-1.7434833784,-0.157425315\H,0,-3.3664268078,-2.3586013407,-0.261388
 6905\S,0,-2.5034184855,-0.0602717554,-0.5672529711\H,0,1.5976354916,-0
 .5716556625,0.7370082409\\Version=ES64L-G16RevA.03\State=1-A\HF=-700.8
 31654\MP2=-702.0243345\RMSD=4.927e-09\PG=C01 [X(C5H9N2S1)]\\@


 A true friend is someone who is there for
 you when he'd rather be anywhere else.
                               -- Len Wein
 Job cpu time:       0 days  0 hours 11 minutes 51.8 seconds.
 Elapsed time:       0 days  0 hours  2 minutes 60.0 seconds.
 File lengths (MBytes):  RWF=     44 Int=      0 D2E=      0 Chk=      9 Scr=      1
 Normal termination of Gaussian 16 at Mon Jul 12 13:22:07 2021.
