 Entering Gaussian System, Link 0=g16
 Input=SET_328_BBB2_conf1.geo_240_195_OCTANOL.dat
 Output=SET_328_BBB2_conf1.geo_240_195_OCTANOL.log
 Initial command:
 /dades/curu/g16A03_MST/g16/l1.exe "/tmp/ubator02/1835269/Gau-109557.inp" -scrdir="/tmp/ubator02/1835269/"
 Entering Link 1 = /dades/curu/g16A03_MST/g16/l1.exe PID=    109559.
  
 Copyright (c) 1988,1990,1992,1993,1995,1998,2003,2009,2016,
            Gaussian, Inc.  All Rights Reserved.
  
 This is part of the Gaussian(R) 16 program.  It is based on
 the Gaussian(R) 09 system (copyright 2009, Gaussian, Inc.),
 the Gaussian(R) 03 system (copyright 2003, Gaussian, Inc.),
 the Gaussian(R) 98 system (copyright 1998, Gaussian, Inc.),
 the Gaussian(R) 94 system (copyright 1995, Gaussian, Inc.),
 the Gaussian 92(TM) system (copyright 1992, Gaussian, Inc.),
 the Gaussian 90(TM) system (copyright 1990, Gaussian, Inc.),
 the Gaussian 88(TM) system (copyright 1988, Gaussian, Inc.),
 the Gaussian 86(TM) system (copyright 1986, Carnegie Mellon
 University), and the Gaussian 82(TM) system (copyright 1983,
 Carnegie Mellon University). Gaussian is a federally registered
 trademark of Gaussian, Inc.
  
 This software contains proprietary and confidential information,
 including trade secrets, belonging to Gaussian, Inc.
  
 This software is provided under written license and may be
 used, copied, transmitted, or stored only in accord with that
 written license.
  
 The following legend is applicable only to US Government
 contracts under FAR:
  
                    RESTRICTED RIGHTS LEGEND
  
 Use, reproduction and disclosure by the US Government is
 subject to restrictions as set forth in subparagraphs (a)
 and (c) of the Commercial Computer Software - Restricted
 Rights clause in FAR 52.227-19.
  
 Gaussian, Inc.
 340 Quinnipiac St., Bldg. 40, Wallingford CT 06492
  
  
 ---------------------------------------------------------------
 Warning -- This program may not be used in any manner that
 competes with the business of Gaussian, Inc. or will provide
 assistance to any competitor of Gaussian, Inc.  The licensee
 of this program is prohibited from giving any competitor of
 Gaussian, Inc. access to this program.  By using this program,
 the user acknowledges that Gaussian, Inc. is engaged in the
 business of creating and licensing software in the field of
 computational chemistry and represents and warrants to the
 licensee that it is not a competitor of Gaussian, Inc. and that
 it will not use this program in any manner prohibited above.
 ---------------------------------------------------------------
  

 Cite this work as:
 Gaussian 16, Revision A.03,
 M. J. Frisch, G. W. Trucks, H. B. Schlegel, G. E. Scuseria, 
 M. A. Robb, J. R. Cheeseman, G. Scalmani, V. Barone, 
 G. A. Petersson, H. Nakatsuji, X. Li, M. Caricato, A. V. Marenich, 
 J. Bloino, B. G. Janesko, R. Gomperts, B. Mennucci, H. P. Hratchian, 
 J. V. Ortiz, A. F. Izmaylov, J. L. Sonnenberg, D. Williams-Young, 
 F. Ding, F. Lipparini, F. Egidi, J. Goings, B. Peng, A. Petrone, 
 T. Henderson, D. Ranasinghe, V. G. Zakrzewski, J. Gao, N. Rega, 
 G. Zheng, W. Liang, M. Hada, M. Ehara, K. Toyota, R. Fukuda, 
 J. Hasegawa, M. Ishida, T. Nakajima, Y. Honda, O. Kitao, H. Nakai, 
 T. Vreven, K. Throssell, J. A. Montgomery, Jr., J. E. Peralta, 
 F. Ogliaro, M. J. Bearpark, J. J. Heyd, E. N. Brothers, K. N. Kudin, 
 V. N. Staroverov, T. A. Keith, R. Kobayashi, J. Normand, 
 K. Raghavachari, A. P. Rendell, J. C. Burant, S. S. Iyengar, 
 J. Tomasi, M. Cossi, J. M. Millam, M. Klene, C. Adamo, R. Cammi, 
 J. W. Ochterski, R. L. Martin, K. Morokuma, O. Farkas, 
 J. B. Foresman, and D. J. Fox, Gaussian, Inc., Wallingford CT, 2016.
 
 ******************************************
 Gaussian 16:  ES64L-G16RevA.03 25-Dec-2016
                12-Jul-2021 
 ******************************************
 %mem=800MB
 %nproc=4
 Will use up to    4 processors via shared memory.
 %chk=SET_328_BBB2_conf1.geo_240_195.chk
 ---------------------------------------------------------------
 #p b3lyp/6-31G(d) opt freq scrf=(iefpcm,read,solvent=n-octanol)
 ---------------------------------------------------------------
 1/18=20,19=15,26=3,38=1,40=2/1,3;
 2/9=110,12=2,17=6,18=5,40=1/2;
 3/5=1,6=6,7=1,11=2,25=1,30=1,70=2203,71=1,72=25,74=-5/1,2,3;
 4//1;
 5/5=2,38=5,53=25/2;
 6/7=2,8=2,9=2,10=2,28=1/1;
 7//1,2,3,16;
 1/18=20,19=15,26=3/3(2);
 2/9=110/2;
 99//99;
 2/9=110/2;
 3/5=1,6=6,7=1,11=2,25=1,30=1,70=2205,71=1,72=25,74=-5/1,2,3;
 4/5=5,16=3,69=1/1;
 5/5=2,38=5,53=25/2;
 7//1,2,3,16;
 1/18=20,19=15,26=3/3(-5);
 2/9=110/2;
 6/7=2,8=2,9=2,10=2,19=2,28=1/1;
 99/9=1/99;
 Leave Link    1 at Mon Jul 12 11:18:04 2021, MaxMem=   104857600 cpu:               0.0 elap:               0.0
 (Enter /dades/curu/g16A03_MST/g16/l101.exe)
 ---------------------------------------
 SET_328_BBB2_conf1.geo_240_195 geometry
 ---------------------------------------
 Symbolic Z-matrix:
 Charge =  1 Multiplicity = 1
 C                     2.622     2.267    -3.334 
 H                     3.358     2.014    -4.101 
 H                     2.978     3.186    -2.863 
 H                     1.691     2.521    -3.848 
 N                     2.434     1.052    -2.456 
 H                     2.122     0.309    -3.048 
 C                     1.519     1.09     -1.291 
 C                     1.691    -0.048    -0.305 
 C                     0.597    -0.756     0.261 
 C                     0.798    -1.712     1.254 
 C                     2.099    -2.186     1.428 
 C                     3.173    -1.591     0.787 
 C                     3.009    -0.563    -0.105 
 H                     3.788    -0.033    -0.647 
 H                     4.211    -1.874     0.945 
 H                     2.278    -2.935     2.196 
 H                    -0.046    -2.116     1.807 
 H                     1.846     1.924    -0.664 
 C                     0.069     1.387    -1.76 
 H                    -0.096     0.92     -2.733 
 H                    -0.14      2.441    -1.953 
 C                    -0.859     1.115    -0.598 
 H                    -1.805     1.595    -0.856 
 H                    -0.491     1.786     0.181 
 C                    -0.857    -0.338    -0.18 
 H                    -1.039    -0.982    -1.043 
 C                    -2.006    -0.564     0.822 
 C                    -1.893     0.081     2.088 
 H                    -0.992     0.667     2.253 
 C                    -2.84     -0.073     3.057 
 Cl                   -2.572     0.515     4.669 
 C                    -3.935    -0.96      2.824 
 Cl                   -5.244    -1.159     3.961 
 C                    -4.125    -1.506     1.566 
 H                    -4.93     -2.205     1.352 
 C                    -3.096    -1.346     0.605 
 H                    -3.281    -1.879    -0.324 
 H                     3.337     0.799    -2.11 
 
 ITRead=  0  0  0  0  0  0  0  0  0  0  0  0  0  0  0  0  0  0  0  0
 ITRead=  0  0  0  0  0  0  0  0  0  0  0  0  0  0  0  0  0  0
 MicOpt= -1 -1 -1 -1 -1 -1 -1 -1 -1 -1 -1 -1 -1 -1 -1 -1 -1 -1 -1 -1
 MicOpt= -1 -1 -1 -1 -1 -1 -1 -1 -1 -1 -1 -1 -1 -1 -1 -1 -1 -1
 NAtoms=     38 NQM=       38 NQMF=       0 NMMI=      0 NMMIF=      0
                NMic=       0 NMicF=      0.
                    Isotopes and Nuclear Properties:
 (Nuclear quadrupole moments (NQMom) in fm**2, nuclear magnetic moments (NMagM)
  in nuclear magnetons)

  Atom         1           2           3           4           5           6           7           8           9          10
 IAtWgt=          12           1           1           1          14           1          12          12          12          12
 AtmWgt=  12.0000000   1.0078250   1.0078250   1.0078250  14.0030740   1.0078250  12.0000000  12.0000000  12.0000000  12.0000000
 NucSpn=           0           1           1           1           2           1           0           0           0           0
 AtZEff=  -0.0000000  -0.0000000  -0.0000000  -0.0000000  -0.0000000  -0.0000000  -0.0000000  -0.0000000  -0.0000000  -0.0000000
 NQMom=    0.0000000   0.0000000   0.0000000   0.0000000   2.0440000   0.0000000   0.0000000   0.0000000   0.0000000   0.0000000
 NMagM=    0.0000000   2.7928460   2.7928460   2.7928460   0.4037610   2.7928460   0.0000000   0.0000000   0.0000000   0.0000000
 AtZNuc=   6.0000000   1.0000000   1.0000000   1.0000000   7.0000000   1.0000000   6.0000000   6.0000000   6.0000000   6.0000000

  Atom        11          12          13          14          15          16          17          18          19          20
 IAtWgt=          12          12          12           1           1           1           1           1          12           1
 AtmWgt=  12.0000000  12.0000000  12.0000000   1.0078250   1.0078250   1.0078250   1.0078250   1.0078250  12.0000000   1.0078250
 NucSpn=           0           0           0           1           1           1           1           1           0           1
 AtZEff=  -0.0000000  -0.0000000  -0.0000000  -0.0000000  -0.0000000  -0.0000000  -0.0000000  -0.0000000  -0.0000000  -0.0000000
 NQMom=    0.0000000   0.0000000   0.0000000   0.0000000   0.0000000   0.0000000   0.0000000   0.0000000   0.0000000   0.0000000
 NMagM=    0.0000000   0.0000000   0.0000000   2.7928460   2.7928460   2.7928460   2.7928460   2.7928460   0.0000000   2.7928460
 AtZNuc=   6.0000000   6.0000000   6.0000000   1.0000000   1.0000000   1.0000000   1.0000000   1.0000000   6.0000000   1.0000000

  Atom        21          22          23          24          25          26          27          28          29          30
 IAtWgt=           1          12           1           1          12           1          12          12           1          12
 AtmWgt=   1.0078250  12.0000000   1.0078250   1.0078250  12.0000000   1.0078250  12.0000000  12.0000000   1.0078250  12.0000000
 NucSpn=           1           0           1           1           0           1           0           0           1           0
 AtZEff=  -0.0000000  -0.0000000  -0.0000000  -0.0000000  -0.0000000  -0.0000000  -0.0000000  -0.0000000  -0.0000000  -0.0000000
 NQMom=    0.0000000   0.0000000   0.0000000   0.0000000   0.0000000   0.0000000   0.0000000   0.0000000   0.0000000   0.0000000
 NMagM=    2.7928460   0.0000000   2.7928460   2.7928460   0.0000000   2.7928460   0.0000000   0.0000000   2.7928460   0.0000000
 AtZNuc=   1.0000000   6.0000000   1.0000000   1.0000000   6.0000000   1.0000000   6.0000000   6.0000000   1.0000000   6.0000000

  Atom        31          32          33          34          35          36          37          38
 IAtWgt=          35          12          35          12           1          12           1           1
 AtmWgt=  34.9688527  12.0000000  34.9688527  12.0000000   1.0078250  12.0000000   1.0078250   1.0078250
 NucSpn=           3           0           3           0           1           0           1           1
 AtZEff=  -0.0000000  -0.0000000  -0.0000000  -0.0000000  -0.0000000  -0.0000000  -0.0000000  -0.0000000
 NQMom=   -8.1650000   0.0000000  -8.1650000   0.0000000   0.0000000   0.0000000   0.0000000   0.0000000
 NMagM=    0.8218740   0.0000000   0.8218740   0.0000000   2.7928460   0.0000000   2.7928460   2.7928460
 AtZNuc=  17.0000000   6.0000000  17.0000000   6.0000000   1.0000000   6.0000000   1.0000000   1.0000000
 Leave Link  101 at Mon Jul 12 11:18:04 2021, MaxMem=   104857600 cpu:               0.1 elap:               0.2
 (Enter /dades/curu/g16A03_MST/g16/l103.exe)

 GradGradGradGradGradGradGradGradGradGradGradGradGradGradGradGradGradGrad
 Berny optimization.
 Initialization pass.
                           ----------------------------
                           !    Initial Parameters    !
                           ! (Angstroms and Degrees)  !
 --------------------------                            --------------------------
 ! Name  Definition              Value          Derivative Info.                !
 --------------------------------------------------------------------------------
 ! R1    R(1,2)                  1.0927         estimate D2E/DX2                !
 ! R2    R(1,3)                  1.0923         estimate D2E/DX2                !
 ! R3    R(1,4)                  1.0934         estimate D2E/DX2                !
 ! R4    R(1,5)                  1.5108         estimate D2E/DX2                !
 ! R5    R(5,6)                  0.9999         estimate D2E/DX2                !
 ! R6    R(5,7)                  1.4819         estimate D2E/DX2                !
 ! R7    R(5,38)                 0.9996         estimate D2E/DX2                !
 ! R8    R(7,8)                  1.5155         estimate D2E/DX2                !
 ! R9    R(7,18)                 1.0934         estimate D2E/DX2                !
 ! R10   R(7,19)                 1.5526         estimate D2E/DX2                !
 ! R11   R(8,9)                  1.4207         estimate D2E/DX2                !
 ! R12   R(8,13)                 1.4291         estimate D2E/DX2                !
 ! R13   R(9,10)                 1.393          estimate D2E/DX2                !
 ! R14   R(9,25)                 1.5759         estimate D2E/DX2                !
 ! R15   R(10,11)                1.3955         estimate D2E/DX2                !
 ! R16   R(10,17)                1.0869         estimate D2E/DX2                !
 ! R17   R(11,12)                1.3851         estimate D2E/DX2                !
 ! R18   R(11,16)                1.0876         estimate D2E/DX2                !
 ! R19   R(12,13)                1.3709         estimate D2E/DX2                !
 ! R20   R(12,15)                1.0874         estimate D2E/DX2                !
 ! R21   R(13,14)                1.087          estimate D2E/DX2                !
 ! R22   R(19,20)                1.0918         estimate D2E/DX2                !
 ! R23   R(19,21)                1.0917         estimate D2E/DX2                !
 ! R24   R(19,22)                1.5118         estimate D2E/DX2                !
 ! R25   R(22,23)                1.0917         estimate D2E/DX2                !
 ! R26   R(22,24)                1.092          estimate D2E/DX2                !
 ! R27   R(22,25)                1.5119         estimate D2E/DX2                !
 ! R28   R(25,26)                1.0921         estimate D2E/DX2                !
 ! R29   R(25,27)                1.5412         estimate D2E/DX2                !
 ! R30   R(27,28)                1.4253         estimate D2E/DX2                !
 ! R31   R(27,36)                1.3589         estimate D2E/DX2                !
 ! R32   R(28,29)                1.0874         estimate D2E/DX2                !
 ! R33   R(28,30)                1.3636         estimate D2E/DX2                !
 ! R34   R(30,31)                1.7367         estimate D2E/DX2                !
 ! R35   R(30,32)                1.4283         estimate D2E/DX2                !
 ! R36   R(32,33)                1.7452         estimate D2E/DX2                !
 ! R37   R(32,34)                1.3845         estimate D2E/DX2                !
 ! R38   R(34,35)                1.0874         estimate D2E/DX2                !
 ! R39   R(34,36)                1.417          estimate D2E/DX2                !
 ! R40   R(36,37)                1.0869         estimate D2E/DX2                !
 ! A1    A(2,1,3)              106.1377         estimate D2E/DX2                !
 ! A2    A(2,1,4)              107.2978         estimate D2E/DX2                !
 ! A3    A(2,1,5)              107.7908         estimate D2E/DX2                !
 ! A4    A(3,1,4)              106.5452         estimate D2E/DX2                !
 ! A5    A(3,1,5)              117.8128         estimate D2E/DX2                !
 ! A6    A(4,1,5)              110.7366         estimate D2E/DX2                !
 ! A7    A(1,5,6)              106.9979         estimate D2E/DX2                !
 ! A8    A(1,5,7)              120.871          estimate D2E/DX2                !
 ! A9    A(1,5,38)             106.9961         estimate D2E/DX2                !
 ! A10   A(6,5,7)              106.9682         estimate D2E/DX2                !
 ! A11   A(6,5,38)             107.3819         estimate D2E/DX2                !
 ! A12   A(7,5,38)             106.988          estimate D2E/DX2                !
 ! A13   A(5,7,8)              114.9705         estimate D2E/DX2                !
 ! A14   A(5,7,18)             106.6013         estimate D2E/DX2                !
 ! A15   A(5,7,19)             110.1256         estimate D2E/DX2                !
 ! A16   A(8,7,18)              99.5392         estimate D2E/DX2                !
 ! A17   A(8,7,19)             116.497          estimate D2E/DX2                !
 ! A18   A(18,7,19)            107.8543         estimate D2E/DX2                !
 ! A19   A(7,8,9)              123.0928         estimate D2E/DX2                !
 ! A20   A(7,8,13)             117.7953         estimate D2E/DX2                !
 ! A21   A(9,8,13)             118.348          estimate D2E/DX2                !
 ! A22   A(8,9,10)             120.9903         estimate D2E/DX2                !
 ! A23   A(8,9,25)             117.8276         estimate D2E/DX2                !
 ! A24   A(10,9,25)            120.9756         estimate D2E/DX2                !
 ! A25   A(9,10,11)            117.1617         estimate D2E/DX2                !
 ! A26   A(9,10,17)            120.3806         estimate D2E/DX2                !
 ! A27   A(11,10,17)           122.2913         estimate D2E/DX2                !
 ! A28   A(10,11,12)           121.2835         estimate D2E/DX2                !
 ! A29   A(10,11,16)           118.3845         estimate D2E/DX2                !
 ! A30   A(12,11,16)           119.6714         estimate D2E/DX2                !
 ! A31   A(11,12,13)           122.0393         estimate D2E/DX2                !
 ! A32   A(11,12,15)           124.1342         estimate D2E/DX2                !
 ! A33   A(13,12,15)           113.8214         estimate D2E/DX2                !
 ! A34   A(8,13,12)            118.1394         estimate D2E/DX2                !
 ! A35   A(8,13,14)            114.5482         estimate D2E/DX2                !
 ! A36   A(12,13,14)           127.1818         estimate D2E/DX2                !
 ! A37   A(7,19,20)            109.1786         estimate D2E/DX2                !
 ! A38   A(7,19,21)            114.637          estimate D2E/DX2                !
 ! A39   A(7,19,22)            107.8592         estimate D2E/DX2                !
 ! A40   A(20,19,21)           103.0895         estimate D2E/DX2                !
 ! A41   A(20,19,22)           121.0157         estimate D2E/DX2                !
 ! A42   A(21,19,22)           101.0739         estimate D2E/DX2                !
 ! A43   A(19,22,23)           105.7333         estimate D2E/DX2                !
 ! A44   A(19,22,24)           103.3499         estimate D2E/DX2                !
 ! A45   A(19,22,25)           112.6191         estimate D2E/DX2                !
 ! A46   A(23,22,24)           100.9779         estimate D2E/DX2                !
 ! A47   A(23,22,25)           119.2757         estimate D2E/DX2                !
 ! A48   A(24,22,25)           113.1315         estimate D2E/DX2                !
 ! A49   A(9,25,22)            109.4815         estimate D2E/DX2                !
 ! A50   A(9,25,26)            102.6206         estimate D2E/DX2                !
 ! A51   A(9,25,27)            117.8422         estimate D2E/DX2                !
 ! A52   A(22,25,26)           110.3664         estimate D2E/DX2                !
 ! A53   A(22,25,27)           108.6437         estimate D2E/DX2                !
 ! A54   A(26,25,27)           107.6409         estimate D2E/DX2                !
 ! A55   A(25,27,28)           116.8725         estimate D2E/DX2                !
 ! A56   A(25,27,36)           125.3486         estimate D2E/DX2                !
 ! A57   A(28,27,36)           117.764          estimate D2E/DX2                !
 ! A58   A(27,28,29)           116.381          estimate D2E/DX2                !
 ! A59   A(27,28,30)           121.6688         estimate D2E/DX2                !
 ! A60   A(29,28,30)           121.9017         estimate D2E/DX2                !
 ! A61   A(28,30,31)           120.9425         estimate D2E/DX2                !
 ! A62   A(28,30,32)           119.1187         estimate D2E/DX2                !
 ! A63   A(31,30,32)           118.6841         estimate D2E/DX2                !
 ! A64   A(30,32,33)           122.6526         estimate D2E/DX2                !
 ! A65   A(30,32,34)           119.8907         estimate D2E/DX2                !
 ! A66   A(33,32,34)           116.3639         estimate D2E/DX2                !
 ! A67   A(32,34,35)           122.2714         estimate D2E/DX2                !
 ! A68   A(32,34,36)           118.1668         estimate D2E/DX2                !
 ! A69   A(35,34,36)           118.4702         estimate D2E/DX2                !
 ! A70   A(27,36,34)           122.625          estimate D2E/DX2                !
 ! A71   A(27,36,37)           123.7245         estimate D2E/DX2                !
 ! A72   A(34,36,37)           113.6211         estimate D2E/DX2                !
 ! D1    D(2,1,5,6)            -59.1623         estimate D2E/DX2                !
 ! D2    D(2,1,5,7)            178.2707         estimate D2E/DX2                !
 ! D3    D(2,1,5,38)            55.6779         estimate D2E/DX2                !
 ! D4    D(3,1,5,6)           -179.1166         estimate D2E/DX2                !
 ! D5    D(3,1,5,7)             58.3164         estimate D2E/DX2                !
 ! D6    D(3,1,5,38)           -64.2764         estimate D2E/DX2                !
 ! D7    D(4,1,5,6)             57.9278         estimate D2E/DX2                !
 ! D8    D(4,1,5,7)            -64.6392         estimate D2E/DX2                !
 ! D9    D(4,1,5,38)           172.768          estimate D2E/DX2                !
 ! D10   D(1,5,7,8)           -164.9071         estimate D2E/DX2                !
 ! D11   D(1,5,7,18)           -55.6626         estimate D2E/DX2                !
 ! D12   D(1,5,7,19)            61.0807         estimate D2E/DX2                !
 ! D13   D(6,5,7,8)             72.5117         estimate D2E/DX2                !
 ! D14   D(6,5,7,18)          -178.2438         estimate D2E/DX2                !
 ! D15   D(6,5,7,19)           -61.5005         estimate D2E/DX2                !
 ! D16   D(38,5,7,8)           -42.3104         estimate D2E/DX2                !
 ! D17   D(38,5,7,18)           66.9341         estimate D2E/DX2                !
 ! D18   D(38,5,7,19)         -176.3227         estimate D2E/DX2                !
 ! D19   D(5,7,8,9)           -135.9002         estimate D2E/DX2                !
 ! D20   D(5,7,8,13)            33.9096         estimate D2E/DX2                !
 ! D21   D(18,7,8,9)           110.6562         estimate D2E/DX2                !
 ! D22   D(18,7,8,13)          -79.5339         estimate D2E/DX2                !
 ! D23   D(19,7,8,9)            -4.885          estimate D2E/DX2                !
 ! D24   D(19,7,8,13)          164.9248         estimate D2E/DX2                !
 ! D25   D(5,7,19,20)           34.4479         estimate D2E/DX2                !
 ! D26   D(5,7,19,21)          -80.5959         estimate D2E/DX2                !
 ! D27   D(5,7,19,22)          167.7022         estimate D2E/DX2                !
 ! D28   D(8,7,19,20)          -98.7924         estimate D2E/DX2                !
 ! D29   D(8,7,19,21)          146.1638         estimate D2E/DX2                !
 ! D30   D(8,7,19,22)           34.4619         estimate D2E/DX2                !
 ! D31   D(18,7,19,20)         150.4067         estimate D2E/DX2                !
 ! D32   D(18,7,19,21)          35.3629         estimate D2E/DX2                !
 ! D33   D(18,7,19,22)         -76.3389         estimate D2E/DX2                !
 ! D34   D(7,8,9,10)          -174.0835         estimate D2E/DX2                !
 ! D35   D(7,8,9,25)             0.7445         estimate D2E/DX2                !
 ! D36   D(13,8,9,10)           16.1598         estimate D2E/DX2                !
 ! D37   D(13,8,9,25)         -169.0122         estimate D2E/DX2                !
 ! D38   D(7,8,13,12)          179.8946         estimate D2E/DX2                !
 ! D39   D(7,8,13,14)            3.7492         estimate D2E/DX2                !
 ! D40   D(9,8,13,12)           -9.801          estimate D2E/DX2                !
 ! D41   D(9,8,13,14)          174.0536         estimate D2E/DX2                !
 ! D42   D(8,9,10,11)          -15.7786         estimate D2E/DX2                !
 ! D43   D(8,9,10,17)          168.803          estimate D2E/DX2                !
 ! D44   D(25,9,10,11)         169.5565         estimate D2E/DX2                !
 ! D45   D(25,9,10,17)          -5.8618         estimate D2E/DX2                !
 ! D46   D(8,9,25,22)          -26.8688         estimate D2E/DX2                !
 ! D47   D(8,9,25,26)           90.3574         estimate D2E/DX2                !
 ! D48   D(8,9,25,27)         -151.6425         estimate D2E/DX2                !
 ! D49   D(10,9,25,22)         147.96           estimate D2E/DX2                !
 ! D50   D(10,9,25,26)         -94.8138         estimate D2E/DX2                !
 ! D51   D(10,9,25,27)          23.1863         estimate D2E/DX2                !
 ! D52   D(9,10,11,12)           9.5184         estimate D2E/DX2                !
 ! D53   D(9,10,11,16)        -179.8296         estimate D2E/DX2                !
 ! D54   D(17,10,11,12)       -175.1574         estimate D2E/DX2                !
 ! D55   D(17,10,11,16)         -4.5055         estimate D2E/DX2                !
 ! D56   D(10,11,12,13)         -3.8245         estimate D2E/DX2                !
 ! D57   D(10,11,12,15)        175.3025         estimate D2E/DX2                !
 ! D58   D(16,11,12,13)       -174.3581         estimate D2E/DX2                !
 ! D59   D(16,11,12,15)          4.7689         estimate D2E/DX2                !
 ! D60   D(11,12,13,8)           3.907          estimate D2E/DX2                !
 ! D61   D(11,12,13,14)        179.5051         estimate D2E/DX2                !
 ! D62   D(15,12,13,8)        -175.3031         estimate D2E/DX2                !
 ! D63   D(15,12,13,14)          0.2951         estimate D2E/DX2                !
 ! D64   D(7,19,22,23)         164.2056         estimate D2E/DX2                !
 ! D65   D(7,19,22,24)          58.53           estimate D2E/DX2                !
 ! D66   D(7,19,22,25)         -63.9002         estimate D2E/DX2                !
 ! D67   D(20,19,22,23)        -69.1788         estimate D2E/DX2                !
 ! D68   D(20,19,22,24)       -174.8544         estimate D2E/DX2                !
 ! D69   D(20,19,22,25)         62.7154         estimate D2E/DX2                !
 ! D70   D(21,19,22,23)         43.5855         estimate D2E/DX2                !
 ! D71   D(21,19,22,24)        -62.0901         estimate D2E/DX2                !
 ! D72   D(21,19,22,25)        175.4797         estimate D2E/DX2                !
 ! D73   D(19,22,25,9)          60.2499         estimate D2E/DX2                !
 ! D74   D(19,22,25,26)        -51.9935         estimate D2E/DX2                !
 ! D75   D(19,22,25,27)       -169.7949         estimate D2E/DX2                !
 ! D76   D(23,22,25,9)        -174.9755         estimate D2E/DX2                !
 ! D77   D(23,22,25,26)         72.7811         estimate D2E/DX2                !
 ! D78   D(23,22,25,27)        -45.0203         estimate D2E/DX2                !
 ! D79   D(24,22,25,9)         -56.4933         estimate D2E/DX2                !
 ! D80   D(24,22,25,26)       -168.7367         estimate D2E/DX2                !
 ! D81   D(24,22,25,27)         73.462          estimate D2E/DX2                !
 ! D82   D(9,25,27,28)          58.4434         estimate D2E/DX2                !
 ! D83   D(9,25,27,36)        -120.1196         estimate D2E/DX2                !
 ! D84   D(22,25,27,28)        -66.7441         estimate D2E/DX2                !
 ! D85   D(22,25,27,36)        114.6929         estimate D2E/DX2                !
 ! D86   D(26,25,27,28)        173.737          estimate D2E/DX2                !
 ! D87   D(26,25,27,36)         -4.826          estimate D2E/DX2                !
 ! D88   D(25,27,28,29)         -1.1827         estimate D2E/DX2                !
 ! D89   D(25,27,28,30)       -178.6936         estimate D2E/DX2                !
 ! D90   D(36,27,28,29)        177.4927         estimate D2E/DX2                !
 ! D91   D(36,27,28,30)         -0.0182         estimate D2E/DX2                !
 ! D92   D(25,27,36,34)       -179.5681         estimate D2E/DX2                !
 ! D93   D(25,27,36,37)         -1.6653         estimate D2E/DX2                !
 ! D94   D(28,27,36,34)          1.8804         estimate D2E/DX2                !
 ! D95   D(28,27,36,37)        179.7832         estimate D2E/DX2                !
 ! D96   D(27,28,30,31)        170.4925         estimate D2E/DX2                !
 ! D97   D(27,28,30,32)          3.4557         estimate D2E/DX2                !
 ! D98   D(29,28,30,31)         -6.8808         estimate D2E/DX2                !
 ! D99   D(29,28,30,32)       -173.9176         estimate D2E/DX2                !
 ! D100  D(28,30,32,33)       -176.4764         estimate D2E/DX2                !
 ! D101  D(28,30,32,34)         -8.8689         estimate D2E/DX2                !
 ! D102  D(31,30,32,33)         16.1924         estimate D2E/DX2                !
 ! D103  D(31,30,32,34)       -176.2002         estimate D2E/DX2                !
 ! D104  D(30,32,34,35)        178.3928         estimate D2E/DX2                !
 ! D105  D(30,32,34,36)         10.5297         estimate D2E/DX2                !
 ! D106  D(33,32,34,35)        -13.2416         estimate D2E/DX2                !
 ! D107  D(33,32,34,36)        178.8954         estimate D2E/DX2                !
 ! D108  D(32,34,36,27)         -7.2097         estimate D2E/DX2                !
 ! D109  D(32,34,36,37)        174.694          estimate D2E/DX2                !
 ! D110  D(35,34,36,27)       -175.5424         estimate D2E/DX2                !
 ! D111  D(35,34,36,37)          6.3613         estimate D2E/DX2                !
 --------------------------------------------------------------------------------
 Trust Radius=3.00D-01 FncErr=1.00D-07 GrdErr=1.00D-06 EigMax=2.50D+02 EigMin=1.00D-04
 Number of steps in this run=    228 maximum allowed number of steps=    228.
 GradGradGradGradGradGradGradGradGradGradGradGradGradGradGradGradGradGrad

 Leave Link  103 at Mon Jul 12 11:18:04 2021, MaxMem=   104857600 cpu:               0.0 elap:               0.0
 (Enter /dades/curu/g16A03_MST/g16/l202.exe)
                          Input orientation:                          
 ---------------------------------------------------------------------
 Center     Atomic      Atomic             Coordinates (Angstroms)
 Number     Number       Type             X           Y           Z
 ---------------------------------------------------------------------
      1          6           0        2.622000    2.267000   -3.334000
      2          1           0        3.358000    2.014000   -4.101000
      3          1           0        2.978000    3.186000   -2.863000
      4          1           0        1.691000    2.521000   -3.848000
      5          7           0        2.434000    1.052000   -2.456000
      6          1           0        2.122000    0.309000   -3.048000
      7          6           0        1.519000    1.090000   -1.291000
      8          6           0        1.691000   -0.048000   -0.305000
      9          6           0        0.597000   -0.756000    0.261000
     10          6           0        0.798000   -1.712000    1.254000
     11          6           0        2.099000   -2.186000    1.428000
     12          6           0        3.173000   -1.591000    0.787000
     13          6           0        3.009000   -0.563000   -0.105000
     14          1           0        3.788000   -0.033000   -0.647000
     15          1           0        4.211000   -1.874000    0.945000
     16          1           0        2.278000   -2.935000    2.196000
     17          1           0       -0.046000   -2.116000    1.807000
     18          1           0        1.846000    1.924000   -0.664000
     19          6           0        0.069000    1.387000   -1.760000
     20          1           0       -0.096000    0.920000   -2.733000
     21          1           0       -0.140000    2.441000   -1.953000
     22          6           0       -0.859000    1.115000   -0.598000
     23          1           0       -1.805000    1.595000   -0.856000
     24          1           0       -0.491000    1.786000    0.181000
     25          6           0       -0.857000   -0.338000   -0.180000
     26          1           0       -1.039000   -0.982000   -1.043000
     27          6           0       -2.006000   -0.564000    0.822000
     28          6           0       -1.893000    0.081000    2.088000
     29          1           0       -0.992000    0.667000    2.253000
     30          6           0       -2.840000   -0.073000    3.057000
     31         17           0       -2.572000    0.515000    4.669000
     32          6           0       -3.935000   -0.960000    2.824000
     33         17           0       -5.244000   -1.159000    3.961000
     34          6           0       -4.125000   -1.506000    1.566000
     35          1           0       -4.930000   -2.205000    1.352000
     36          6           0       -3.096000   -1.346000    0.605000
     37          1           0       -3.281000   -1.879000   -0.324000
     38          1           0        3.337000    0.799000   -2.110000
 ---------------------------------------------------------------------
                    Distance matrix (angstroms):
                    1          2          3          4          5
     1  C    0.000000
     2  H    1.092700   0.000000
     3  H    1.092309   1.746605   0.000000
     4  H    1.093377   1.760667   1.751804   0.000000
     5  N    1.510779   2.117840   2.239540   2.155846   0.000000
     6  H    2.040970   2.354470   3.007339   2.391381   0.999928
     7  C    2.603034   3.483073   2.998847   2.935233   1.481855
     8  C    3.924389   4.630372   4.319547   4.376369   2.527617
     9  C    5.114996   5.858589   5.564881   5.368375   3.745066
    10  C    6.341069   7.008045   6.759622   6.689256   4.907167
    11  C    6.540595   7.056552   6.931357   7.082266   5.067773
    12  C    5.671896   6.076413   6.015002   6.370879   4.248367
    13  C    4.311045   4.767677   4.654302   5.025757   2.909648
    14  H    3.724181   4.037973   3.991080   4.600731   2.506596
    15  H    6.163006   6.426995   6.451725   6.974186   4.825558
    16  H    7.600003   8.081535   7.971833   8.163482   6.128753
    17  H    7.263525   7.971736   7.685355   7.516513   5.861723
    18  H    2.801558   3.755957   2.776629   3.243191   2.077833
    19  C    3.125650   4.085454   3.593785   2.876905   2.487944
    20  H    3.092432   3.872774   3.821143   2.645713   2.548539
    21  H    3.092908   4.127013   3.332424   2.636283   2.967795
    22  C    4.574949   5.555385   4.913434   4.363695   3.781532
    23  H    5.117655   6.112459   5.425534   4.693778   4.563329
    24  H    4.719889   5.762144   4.822852   4.640495   4.006014
    25  C    5.370026   6.218711   5.858694   5.302868   4.235913
    26  H    5.404406   6.136855   6.068024   5.252802   4.265613
    27  C    6.834126   7.723633   7.244445   6.707752   5.750682
    28  C    7.386603   8.343453   7.607895   7.350833   6.349308
    29  H    6.843651   7.817303   6.948361   6.917948   5.836127
    30  C    8.726622   9.695759   8.917208   8.656663   7.711930
    31  Cl   9.700265  10.692278   9.729736   9.733267   8.724336
    32  C    9.556607  10.487524   9.865133   9.396000   8.514147
    33  Cl  11.261814  12.208938  11.534612  11.073261  10.247834
    34  C    9.152461  10.024998   9.596016   8.908085   8.108041
    35  H    9.949376  10.780822  10.457799   9.654673   8.907155
    36  C    7.827197   8.665457   8.334238   7.595938   6.760253
    37  H    7.816318   8.573068   8.442501   7.516606   6.767378
    38  H    2.040692   2.332541   2.528569   2.948770   0.999567
                    6          7          8          9         10
     6  H    0.000000
     7  C    2.015098   0.000000
     8  C    2.799510   1.515528   0.000000
     9  C    3.795962   2.581957   1.420724   0.000000
    10  C    4.934027   3.853319   2.448842   1.392977   0.000000
    11  C    5.124464   4.296689   2.782229   2.379662   1.395548
    12  C    4.407020   3.773799   2.402007   2.758564   2.423501
    13  C    3.195059   2.521727   1.429108   2.447233   2.838239
    14  H    2.942333   2.612322   2.124758   3.395537   3.920834
    15  H    5.007341   4.586050   3.353681   3.844317   3.430786
    16  H    6.168258   5.379208   3.864497   3.364228   2.138573
    17  H    5.843960   4.724962   3.428460   2.157120   1.086904
    18  H    2.892725   1.093441   2.010395   3.098068   4.242349
    19  C    2.652515   1.552633   2.609048   2.992603   4.383998
    20  H    2.322083   2.171748   3.166319   3.500466   4.860332
    21  H    3.295617   2.239582   3.501940   3.958001   5.330300
    22  C    3.941890   2.477046   2.817963   2.521598   3.763972
    23  H    4.677605   3.390166   3.901931   3.541821   4.707861
    24  H    4.408598   2.586755   2.891518   2.766208   3.879285
    25  C    4.185508   2.986450   2.567495   1.575856   2.585200
    26  H    3.959625   3.301220   2.978238   2.104278   3.030458
    27  C    5.725331   4.430137   3.899256   2.669681   3.060546
    28  C    6.523090   4.906879   4.311397   3.199781   3.339444
    29  H    6.158389   4.363942   3.775325   2.918547   3.140341
    30  C    7.876445   6.265665   5.642130   4.482976   4.378604
    31  Cl   9.034830   7.251793   6.575014   5.575703   5.289485
    32  C    8.531002   7.133151   6.501866   5.210529   5.042985
    33  Cl  10.273221   8.853230   8.217500   6.926015   6.643751
    34  C    7.975477   6.837865   6.281103   4.956088   4.937176
    35  H    8.683945   7.709220   7.157928   5.817010   5.750012
    36  C    6.581106   5.552219   5.042645   3.755620   3.964643
    37  H    6.434278   5.726260   5.298463   4.079490   4.376781
    38  H    1.611263   2.015085   2.585488   3.943002   4.905929
                   11         12         13         14         15
    11  C    0.000000
    12  C    1.385057   0.000000
    13  C    2.410875   1.370892   0.000000
    14  H    3.434204   2.204982   1.086971   0.000000
    15  H    2.188876   1.087427   2.065436   2.470359   0.000000
    16  H    1.087596   2.143045   3.384575   4.334092   2.535194
    17  H    2.179350   3.417307   3.924357   5.006052   4.350133
    18  H    4.618720   4.027599   2.801824   2.757082   4.754672
    19  C    5.201017   4.999051   3.896810   4.133537   5.925142
    20  H    5.637303   5.420506   4.329746   4.510550   6.315407
    21  H    6.152513   5.894115   4.728141   4.822395   6.778557
    22  C    4.873504   5.049523   4.245016   4.786952   6.084396
    23  H    5.895238   6.134373   5.328749   5.828869   7.174247
    24  H    4.903049   5.019588   4.224878   4.722731   6.007337
    25  C    3.839102   4.329665   3.873268   4.678369   5.413829
    26  H    4.171630   4.632572   4.176327   4.935316   5.684216
    27  C    4.455238   5.279962   5.099956   6.000863   6.354708
    28  C    4.637990   5.491133   5.408659   6.306107   6.510552
    29  H    4.286550   4.959329   4.804276   5.634572   5.936224
    30  C    5.613567   6.604044   6.667019   7.592865   7.577648
    31  Cl   6.294261   7.246391   7.422986   8.307211   8.098431
    32  C    6.313561   7.420997   7.546906   8.517740   8.409718
    33  Cl   7.835207   9.005931   9.219522  10.201890   9.950101
    34  C    6.262557   7.339950   7.387520   8.347614   8.367196
    35  H    7.029437   8.145847   8.236913   9.204190   9.156041
    36  C    5.326439   6.276425   6.195822   7.119054   7.333937
    37  H    5.666406   6.555256   6.429924   7.313194   7.598714
    38  H    4.791692   3.759203   2.445946   1.742410   4.152328
                   16         17         18         19         20
    16  H    0.000000
    17  H    2.494606   0.000000
    18  H    5.654742   5.099716   0.000000
    19  C    6.261733   5.000772   2.155763   0.000000
    20  H    6.692678   5.461813   3.010007   1.091807   0.000000
    21  H    7.208488   5.908696   2.423429   1.091717   1.709906
    22  C    5.835213   4.109058   2.824157   1.511758   2.275614
    23  H    6.819567   4.894606   3.670818   2.091018   2.626678
    24  H    5.832275   4.250589   2.488903   2.059195   3.065514
    25  C    4.713598   2.786965   3.557683   2.515850   2.946098
    26  H    5.030688   3.224051   4.112384   2.711810   2.713476
    27  C    5.085487   2.687104   4.820399   3.844314   4.299812
    28  C    5.148316   2.883952   4.995025   4.512448   5.212981
    29  H    4.865239   2.973032   4.259481   4.212872   5.072181
    30  C    5.926744   3.680052   6.308125   5.813551   6.483802
    31  Cl   6.445210   4.636149   7.067170   7.004806   7.815638
    32  C    6.549533   4.182696   7.341904   6.523303   7.010889
    33  Cl   7.927792   5.707431   9.009085   8.212182   8.696768
    34  C    6.590702   4.131395   7.238138   6.084518   6.371791
    35  H    7.293867   4.905956   8.187006   6.897609   7.058357
    36  C    5.825468   3.367522   6.060250   4.804138   5.027624
    37  H    6.194192   3.881051   6.392538   4.894012   4.876670
    38  H    5.797057   5.940101   2.362122   3.338872   3.491169
                   21         22         23         24         25
    21  H    0.000000
    22  C    2.027625   0.000000
    23  H    2.165952   1.091733   0.000000
    24  H    2.259686   1.092019   1.684769   0.000000
    25  C    3.373494   1.511932   2.256583   2.185327   0.000000
    26  H    3.654207   2.151240   2.694931   3.075761   1.092076
    27  C    4.495843   2.480131   2.741782   2.868555   1.541195
    28  C    4.997228   3.058252   3.311658   2.917067   2.528375
    29  H    4.643643   2.889047   3.344852   2.407560   2.635856
    30  C    6.221760   4.323740   4.377787   4.152717   3.805349
    31  Cl   7.312659   5.570966   5.681577   5.107656   5.213601
    32  C    6.984880   5.047523   4.960577   5.136838   4.345686
    33  Cl   8.601524   6.721888   6.527996   6.749254   6.088324
    34  C    6.621359   4.713735   4.567788   5.095237   3.884915
    35  H    7.446640   5.603387   5.392670   6.083095   4.735192
    36  C    5.442671   3.536651   3.528553   4.095757   2.577869
    37  H    5.584078   3.860725   3.811860   4.633719   2.875968
    38  H    3.848421   4.471288   5.352223   4.569074   4.754714
                   26         27         28         29         30
    26  H    0.000000
    27  C    2.141971   0.000000
    28  C    3.415032   1.425325   0.000000
    29  H    3.685787   2.142736   1.087392   0.000000
    30  C    4.569451   2.435541   1.363630   2.146886   0.000000
    31  Cl   6.100659   4.035345   2.703878   2.890772   1.736696
    32  C    4.831251   2.808178   2.407310   3.410926   1.428315
    33  Cl   6.538606   4.548845   4.034220   4.932651   2.788517
    34  C    4.074905   2.435377   2.787988   3.874221   2.434706
    35  H    4.729866   3.394637   3.871803   4.956615   3.438103
    36  C    2.660761   1.358938   2.383868   3.345876   2.774593
    37  H    2.519550   2.160594   3.403805   4.285156   3.858404
    38  H    4.843534   6.245161   6.744748   6.147636   8.100222
                   31         32         33         34         35
    31  Cl   0.000000
    32  C    2.727163   0.000000
    33  Cl   3.231582   1.745237   0.000000
    34  C    4.015577   1.384478   2.666195   0.000000
    35  H    4.895003   2.169524   2.828355   1.087392   0.000000
    36  C    4.500444   2.403514   3.988936   1.417026   2.158575
    37  H    5.582470   3.343977   4.767913   2.103227   2.373700
    38  H    8.997321   8.962166  10.692257   8.631770   9.452658
                   36         37         38
    36  C    0.000000
    37  H    1.086902   0.000000
    38  H    7.304501   7.359307   0.000000
 Stoichiometry    C17H18Cl2N(1+)
 Framework group  C1[X(C17H18Cl2N)]
 Deg. of freedom   108
 Full point group                 C1      NOp   1
 Largest Abelian subgroup         C1      NOp   1
 Largest concise Abelian subgroup C1      NOp   1
                         Standard orientation:                         
 ---------------------------------------------------------------------
 Center     Atomic      Atomic             Coordinates (Angstroms)
 Number     Number       Type             X           Y           Z
 ---------------------------------------------------------------------
      1          6           0       -5.694631   -1.821364    0.724262
      2          1           0       -6.695239   -1.712810    0.298827
      3          1           0       -5.820947   -1.791238    1.808824
      4          1           0       -5.344687   -2.827867    0.479390
      5          7           0       -4.807011   -0.777030    0.088691
      6          1           0       -4.818231   -0.944526   -0.897045
      7          6           0       -3.386481   -0.641330    0.488156
      8          6           0       -2.719071    0.647012    0.050475
      9          6           0       -1.415320    0.692974   -0.512176
     10          6           0       -0.795051    1.909672   -0.786581
     11          6           0       -1.604604    3.046139   -0.811469
     12          6           0       -2.921662    3.000462   -0.385261
     13          6           0       -3.518781    1.830638    0.007554
     14          1           0       -4.538049    1.700074    0.361887
     15          1           0       -3.570938    3.869986   -0.315500
     16          1           0       -1.141327    4.006334   -1.026566
     17          1           0        0.260460    1.942902   -1.043782
     18          1           0       -3.379552   -0.490186    1.571079
     19          6           0       -2.618620   -1.956569    0.186154
     20          1           0       -3.024523   -2.408659   -0.720985
     21          1           0       -2.749229   -2.741654    0.933435
     22          6           0       -1.140049   -1.671387    0.319979
     23          1           0       -0.655281   -2.647242    0.387710
     24          1           0       -1.043311   -1.319254    1.349129
     25          6           0       -0.646431   -0.669778   -0.699363
     26          1           0       -0.942144   -0.974340   -1.705557
     27          6           0        0.893803   -0.639293   -0.654330
     28          6           0        1.493647   -0.131784    0.534860
     29          1           0        0.813381    0.212905    1.310004
     30          6           0        2.847254   -0.036121    0.669330
     31         17           0        3.553760    0.804974    2.014514
     32          6           0        3.681908   -0.385019   -0.435978
     33         17           0        5.424370   -0.383068   -0.337613
     34          6           0        3.129962   -0.985085   -1.554932
     35          1           0        3.724472   -1.243479   -2.427980
     36          6           0        1.717695   -1.029344   -1.662187
     37          1           0        1.365185   -1.432875   -2.607838
     38          1           0       -5.240574    0.109795    0.245847
 ---------------------------------------------------------------------
 Rotational constants (GHZ):           0.5729154           0.1330000           0.1232610
 Leave Link  202 at Mon Jul 12 11:18:05 2021, MaxMem=   104857600 cpu:               0.1 elap:               0.0
 (Enter /dades/curu/g16A03_MST/g16/l301.exe)
 Standard basis: 6-31G(d) (6D, 7F)
 Ernie: Thresh=  0.10000D-02 Tol=  0.10000D-05 Strict=F.
 There are   344 symmetry adapted cartesian basis functions of A   symmetry.
 There are   344 symmetry adapted basis functions of A   symmetry.
   344 basis functions,   680 primitive gaussians,   344 cartesian basis functions
    80 alpha electrons       80 beta electrons
       nuclear repulsion energy      1732.1518078960 Hartrees.
 IExCor=  402 DFT=T Ex+Corr=B3LYP ExCW=0 ScaHFX=  0.200000
 ScaDFX=  0.800000  0.720000  1.000000  0.810000 ScalE2=  1.000000  1.000000
 IRadAn=      5 IRanWt=     -1 IRanGd=            0 ICorTp=0 IEmpDi=  4
 NAtoms=   38 NActive=   38 NUniq=   38 SFac= 1.00D+00 NAtFMM=   60 NAOKFM=F Big=F
 Integral buffers will be    131072 words long.
 Raffenetti 2 integral format.
 Two-electron integral symmetry is turned on.
 Using the following non-standard input for PCM:
 MSTModel=DFT cav MSTCharged
 --- end of non-standard input.
 MST model for solvation energy: B3LYP parametrization.
 MST cavity parameters:
 ISph   IAn     Re0     Alpha   Atom Type   QCorr
 ------------------------------------------------
   1      6     1.50     1.50      CN+        F
   2      1     1.20     1.50      CN+        F
   3      1     1.20     1.50      CN+        F
   4      1     1.20     1.50      CN+        F
   5      7     1.50     1.15      NH+        T
   6      1     0.90     1.15      NH+        T
   7      6     1.50     1.50      CN+        F
   8      6     1.50     1.50      C          F
   9      6     1.50     1.50      C          F
  10      6     1.50     1.50      CH         F
  11      6     1.50     1.50      CH         F
  12      6     1.50     1.50      CH         F
  13      6     1.50     1.50      CH         F
  14      1     1.20     1.50      CH         F
  15      1     1.20     1.50      CH         F
  16      1     1.20     1.50      CH         F
  17      1     1.20     1.50      CH         F
  18      1     1.20     1.50      CN+        F
  19      6     1.50     1.50      CH2        F
  20      1     1.20     1.50      CH2        F
  21      1     1.20     1.50      CH2        F
  22      6     1.50     1.50      CH2        F
  23      1     1.20     1.50      CH2        F
  24      1     1.20     1.50      CH2        F
  25      6     1.50     1.50      CH         F
  26      1     1.20     1.50      CH         F
  27      6     1.50     1.50      C          F
  28      6     1.50     1.50      CH         F
  29      1     1.20     1.50      CH         F
  30      6     1.50     1.50      C          F
  31     17     1.80     1.50      Cl         F
  32      6     1.50     1.50      C          F
  33     17     1.80     1.50      Cl         F
  34      6     1.50     1.50      CH         F
  35      1     1.20     1.50      CH         F
  36      6     1.50     1.50      CH         F
  37      1     1.20     1.50      CH         F
  38      1     0.90     1.15      NH+        T
 ------------------------------------------------------------------------------
 Polarizable Continuum Model (PCM)
 =================================
 Model                : PCM.
 Atomic radii         : MST.
 Polarization charges : Total charges.
 Charge compensation  : None.
 Solution method      : On-the-fly selection.
 Cavity type          : Scaled VdW (van der Waals Surface) (Alpha=1.500).
 Cavity algorithm     : GePol (No added spheres)
                        Default sphere list used, NSphG=   38.
                        Lebedev-Laikov grids with approx.  5.0 points / Ang**2.
                        Smoothing algorithm: York/Karplus (Gamma=1.0000).
                        Polarization charges: spherical gaussians, with
                                              point-specific exponents (IZeta= 3).
                        Self-potential: point-specific (ISelfS= 7).
                        Self-field    : sphere-specific E.n sum rule (ISelfD= 2).
 1st derivatives      : Analytical E(r).r(x)/FMM algorithm (CHGder, D1EAlg=3).
                        Cavity 1st derivative terms included.
 Solvent              : n-Octanol, Eps=   9.862900 Eps(inf)=   2.043470
 ------------------------------------------------------------------------------
 GePol: Number of generator spheres                  =      38
 GePol: Total number of spheres                      =      38
 GePol: Number of exposed spheres                    =      38 (100.00%)
 GePol: Number of points                             =    3722
 GePol: Average weight of points                     =       0.11
 GePol: Minimum weight of points                     =   0.13D-10
 GePol: Maximum weight of points                     =    0.20969
 GePol: Number of points with low weight             =     196
 GePol: Fraction of low-weight points (<1% of avg)   =       5.27%
 GePol: Cavity surface area                          =    416.755 Ang**2
 GePol: Cavity volume                                =    505.270 Ang**3
 Surface areas from nonelectrostatic (unscaled) cavity and vdw tensions:
 Sphere =    1 Type =  CN+ Surf =        5.474 Tension =       -0.227
 Sphere =    2 Type =  CN+ Surf =       10.059 Tension =       -0.227
 Sphere =    3 Type =  CN+ Surf =       10.173 Tension =       -0.227
 Sphere =    4 Type =  CN+ Surf =       10.116 Tension =       -0.227
 Sphere =    5 Type =  NH+ Surf =        7.540 Tension =       -0.274
 Sphere =    6 Type =  NH+ Surf =        3.834 Tension =       -0.274
 Sphere =    7 Type =  CN+ Surf =        2.671 Tension =       -0.227
 Sphere =    8 Type =  C   Surf =        6.021 Tension =       -0.205
 Sphere =    9 Type =  C   Surf =        6.265 Tension =       -0.205
 Sphere =   10 Type =  CH  Surf =        7.803 Tension =       -0.195
 Sphere =   11 Type =  CH  Surf =        7.757 Tension =       -0.195
 Sphere =   12 Type =  CH  Surf =        7.663 Tension =       -0.195
 Sphere =   13 Type =  CH  Surf =        7.662 Tension =       -0.195
 Sphere =   14 Type =  CH  Surf =        8.899 Tension =       -0.195
 Sphere =   15 Type =  CH  Surf =       10.196 Tension =       -0.195
 Sphere =   16 Type =  CH  Surf =       10.229 Tension =       -0.195
 Sphere =   17 Type =  CH  Surf =       10.125 Tension =       -0.195
 Sphere =   18 Type =  CN+ Surf =        9.615 Tension =       -0.227
 Sphere =   19 Type =  CH2 Surf =        3.716 Tension =       -0.194
 Sphere =   20 Type =  CH2 Surf =        9.946 Tension =       -0.194
 Sphere =   21 Type =  CH2 Surf =        9.695 Tension =       -0.194
 Sphere =   22 Type =  CH2 Surf =        3.252 Tension =       -0.194
 Sphere =   23 Type =  CH2 Surf =        9.859 Tension =       -0.194
 Sphere =   24 Type =  CH2 Surf =        9.607 Tension =       -0.194
 Sphere =   25 Type =  CH  Surf =        2.956 Tension =       -0.195
 Sphere =   26 Type =  CH  Surf =        9.764 Tension =       -0.195
 Sphere =   27 Type =  C   Surf =        5.952 Tension =       -0.205
 Sphere =   28 Type =  CH  Surf =        7.375 Tension =       -0.195
 Sphere =   29 Type =  CH  Surf =        9.991 Tension =       -0.195
 Sphere =   30 Type =  C   Surf =        5.310 Tension =       -0.205
 Sphere =   31 Type =  Cl  Surf =       31.335 Tension =       -0.163
 Sphere =   32 Type =  C   Surf =        5.325 Tension =       -0.205
 Sphere =   33 Type =  Cl  Surf =       31.257 Tension =       -0.163
 Sphere =   34 Type =  CH  Surf =        7.494 Tension =       -0.195
 Sphere =   35 Type =  CH  Surf =       10.064 Tension =       -0.195
 Sphere =   36 Type =  CH  Surf =        7.635 Tension =       -0.195
 Sphere =   37 Type =  CH  Surf =       10.192 Tension =       -0.195
 Sphere =   38 Type =  NH+ Surf =        2.891 Tension =       -0.274
 PCM non-electrostatic energy =        -0.0204056971 Hartrees.
 Nuclear repulsion after PCM non-electrostatic terms =     1732.1314021989 Hartrees.
 Leave Link  301 at Mon Jul 12 11:18:05 2021, MaxMem=   104857600 cpu:               0.1 elap:               0.2
 (Enter /dades/curu/g16A03_MST/g16/l302.exe)
 NPDir=0 NMtPBC=     1 NCelOv=     1 NCel=       1 NClECP=     1 NCelD=      1
         NCelK=      1 NCelE2=     1 NClLst=     1 CellRange=     0.0.
 One-electron integrals computed using PRISM.
 One-electron integral symmetry used in STVInt
 NBasis=   344 RedAO= T EigKep=  5.20D-04  NBF=   344
 NBsUse=   344 1.00D-06 EigRej= -1.00D+00 NBFU=   344
 Precomputing XC quadrature grid using
 IXCGrd= 4 IRadAn=           5 IRanWt=          -1 IRanGd=           0 AccXCQ= 0.00D+00.
 Generated NRdTot=       0 NPtTot=           0 NUsed=           0 NTot=          32
 NSgBfM=   339   339   339   339   339 MxSgAt=    38 MxSgA2=    38.
 Leave Link  302 at Mon Jul 12 11:18:07 2021, MaxMem=   104857600 cpu:               5.6 elap:               1.5
 (Enter /dades/curu/g16A03_MST/g16/l303.exe)
 DipDrv:  MaxL=1.
 Leave Link  303 at Mon Jul 12 11:18:07 2021, MaxMem=   104857600 cpu:               0.1 elap:               0.1
 (Enter /dades/curu/g16A03_MST/g16/l401.exe)
 ExpMin= 1.43D-01 ExpMax= 2.52D+04 ExpMxC= 3.78D+03 IAcc=3 IRadAn=         5 AccDes= 0.00D+00
 Harris functional with IExCor=  402 and IRadAn=       5 diagonalized for initial guess.
 HarFok:  IExCor=  402 AccDes= 0.00D+00 IRadAn=         5 IDoV= 1 UseB2=F ITyADJ=14
 ICtDFT=  3500011 ScaDFX=  1.000000  1.000000  1.000000  1.000000
 FoFCou: FMM=F IPFlag=           0 FMFlag=      100000 FMFlg1=           0
         NFxFlg=           0 DoJE=T BraDBF=F KetDBF=T FulRan=T
         wScrn=  0.000000 ICntrl=       500 IOpCl=  0 I1Cent=   200000004 NGrid=           0
         NMat0=    1 NMatS0=      1 NMatT0=    0 NMatD0=    1 NMtDS0=    0 NMtDT0=    0
 Petite list used in FoFCou.
 Harris En= -1633.43383846334    
 JPrj=0 DoOrth=F DoCkMO=F.
 Leave Link  401 at Mon Jul 12 11:18:17 2021, MaxMem=   104857600 cpu:              38.5 elap:               9.8
 (Enter /dades/curu/g16A03_MST/g16/l502.exe)
 Integral symmetry usage will be decided dynamically.
 Closed shell SCF:
 Using DIIS extrapolation, IDIIS=  1040.
 NGot=   104857600 LenX=   104614988 LenY=   104496211
 Requested convergence on RMS density matrix=1.00D-08 within 128 cycles.
 Requested convergence on MAX density matrix=1.00D-06.
 Requested convergence on             energy=1.00D-06.
 No special actions if energy rises.
 Fock matrices will be formed incrementally for  20 cycles.

 Cycle   1  Pass 1  IDiag  1:
 FoFJK:  IHMeth= 1 ICntrl=       0 DoSepK=F KAlg= 0 I1Cent=           0 FoldK=F
 IRaf= 790000000 NMat=       1 IRICut=       1 DoRegI=T DoRafI=F ISym2E= 0 IDoP0=0 IntGTp=1.
 FoFCou: FMM=F IPFlag=           0 FMFlag=      100000 FMFlg1=           0
         NFxFlg=           0 DoJE=F BraDBF=F KetDBF=F FulRan=T
         wScrn=  0.000000 ICntrl=         0 IOpCl=  0 I1Cent=           0 NGrid=           0
         NMat0=    1 NMatS0=      1 NMatT0=    0 NMatD0=    1 NMtDS0=    0 NMtDT0=    0
 Symmetry not used in FoFCou.
 Inv3:  Mode=1 IEnd=    41559852.
 Iteration    1 A*A^-1 deviation from unit magnitude is 7.33D-15 for    905.
 Iteration    1 A*A^-1 deviation from orthogonality  is 1.82D-15 for   3713   3504.
 Iteration    1 A^-1*A deviation from unit magnitude is 8.22D-15 for    905.
 Iteration    1 A^-1*A deviation from orthogonality  is 1.68D-15 for   3713   3504.
 E= -1633.18390241101    
 DIIS: error= 3.27D-02 at cycle   1 NSaved=   1.
 NSaved= 1 IEnMin= 1 EnMin= -1633.18390241101     IErMin= 1 ErrMin= 3.27D-02
 ErrMax= 3.27D-02  0.00D+00 EMaxC= 1.00D-01 BMatC= 4.13D-01 BMatP= 4.13D-01
 IDIUse=3 WtCom= 6.73D-01 WtEn= 3.27D-01
 Coeff-Com:  0.100D+01
 Coeff-En:   0.100D+01
 Coeff:      0.100D+01
 Gap=     0.344 Goal=   None    Shift=    0.000
 GapD=    0.344 DampG=1.000 DampE=0.500 DampFc=0.5000 IDamp=-1.
 Damping current iteration by 5.00D-01
 RMSDP=4.82D-03 MaxDP=1.30D-01              OVMax= 2.51D-01

 Cycle   2  Pass 1  IDiag  1:
 RMSU=  2.39D-03    CP:  9.85D-01
 E= -1633.37032932576     Delta-E=       -0.186426914754 Rises=F Damp=T
 DIIS: error= 1.03D-02 at cycle   2 NSaved=   2.
 NSaved= 2 IEnMin= 2 EnMin= -1633.37032932576     IErMin= 2 ErrMin= 1.03D-02
 ErrMax= 1.03D-02  0.00D+00 EMaxC= 1.00D-01 BMatC= 3.23D-02 BMatP= 4.13D-01
 IDIUse=3 WtCom= 8.97D-01 WtEn= 1.03D-01
 Coeff-Com:  0.637D-01 0.936D+00
 Coeff-En:   0.149D+00 0.851D+00
 Coeff:      0.726D-01 0.927D+00
 Gap=     0.291 Goal=   None    Shift=    0.000
 RMSDP=1.49D-03 MaxDP=5.19D-02 DE=-1.86D-01 OVMax= 2.06D-01

 Cycle   3  Pass 1  IDiag  1:
 RMSU=  1.36D-03    CP:  9.75D-01  7.62D-01
 E= -1633.60200937436     Delta-E=       -0.231680048591 Rises=F Damp=F
 DIIS: error= 7.07D-03 at cycle   3 NSaved=   3.
 NSaved= 3 IEnMin= 3 EnMin= -1633.60200937436     IErMin= 3 ErrMin= 7.07D-03
 ErrMax= 7.07D-03  0.00D+00 EMaxC= 1.00D-01 BMatC= 2.04D-02 BMatP= 3.23D-02
 IDIUse=3 WtCom= 9.29D-01 WtEn= 7.07D-02
 Coeff-Com: -0.233D-01 0.433D+00 0.590D+00
 Coeff-En:   0.000D+00 0.000D+00 0.100D+01
 Coeff:     -0.217D-01 0.402D+00 0.619D+00
 Gap=     0.216 Goal=   None    Shift=    0.000
 RMSDP=7.94D-04 MaxDP=3.51D-02 DE=-2.32D-01 OVMax= 8.63D-02

 Cycle   4  Pass 1  IDiag  1:
 RMSU=  6.45D-04    CP:  9.78D-01  8.65D-01  7.14D-01
 E= -1633.61423159680     Delta-E=       -0.012222222445 Rises=F Damp=F
 DIIS: error= 5.34D-03 at cycle   4 NSaved=   4.
 NSaved= 4 IEnMin= 4 EnMin= -1633.61423159680     IErMin= 4 ErrMin= 5.34D-03
 ErrMax= 5.34D-03  0.00D+00 EMaxC= 1.00D-01 BMatC= 9.65D-03 BMatP= 2.04D-02
 IDIUse=3 WtCom= 9.47D-01 WtEn= 5.34D-02
 Coeff-Com: -0.235D-01 0.115D+00 0.418D+00 0.491D+00
 Coeff-En:   0.000D+00 0.000D+00 0.343D+00 0.657D+00
 Coeff:     -0.222D-01 0.109D+00 0.414D+00 0.500D+00
 Gap=     0.210 Goal=   None    Shift=    0.000
 RMSDP=3.96D-04 MaxDP=1.65D-02 DE=-1.22D-02 OVMax= 3.45D-02

 Cycle   5  Pass 1  IDiag  1:
 RMSU=  1.65D-04    CP:  9.77D-01  8.55D-01  8.11D-01  4.83D-01
 E= -1633.62419862858     Delta-E=       -0.009967031785 Rises=F Damp=F
 DIIS: error= 7.09D-04 at cycle   5 NSaved=   5.
 NSaved= 5 IEnMin= 5 EnMin= -1633.62419862858     IErMin= 5 ErrMin= 7.09D-04
 ErrMax= 7.09D-04  0.00D+00 EMaxC= 1.00D-01 BMatC= 3.70D-04 BMatP= 9.65D-03
 IDIUse=3 WtCom= 9.93D-01 WtEn= 7.09D-03
 Coeff-Com: -0.891D-02 0.235D-01 0.166D+00 0.257D+00 0.562D+00
 Coeff-En:   0.000D+00 0.000D+00 0.000D+00 0.000D+00 0.100D+01
 Coeff:     -0.885D-02 0.233D-01 0.165D+00 0.255D+00 0.565D+00
 Gap=     0.212 Goal=   None    Shift=    0.000
 RMSDP=8.88D-05 MaxDP=4.41D-03 DE=-9.97D-03 OVMax= 5.26D-03

 Cycle   6  Pass 1  IDiag  1:
 RMSU=  5.40D-05    CP:  9.77D-01  8.51D-01  8.13D-01  5.42D-01  6.44D-01
 E= -1633.62455398522     Delta-E=       -0.000355356638 Rises=F Damp=F
 DIIS: error= 1.90D-04 at cycle   6 NSaved=   6.
 NSaved= 6 IEnMin= 6 EnMin= -1633.62455398522     IErMin= 6 ErrMin= 1.90D-04
 ErrMax= 1.90D-04  0.00D+00 EMaxC= 1.00D-01 BMatC= 2.93D-05 BMatP= 3.70D-04
 IDIUse=3 WtCom= 9.98D-01 WtEn= 1.90D-03
 Coeff-Com: -0.252D-02 0.329D-02 0.502D-01 0.876D-01 0.290D+00 0.571D+00
 Coeff-En:   0.000D+00 0.000D+00 0.000D+00 0.000D+00 0.000D+00 0.100D+01
 Coeff:     -0.251D-02 0.328D-02 0.501D-01 0.874D-01 0.289D+00 0.572D+00
 Gap=     0.211 Goal=   None    Shift=    0.000
 RMSDP=2.55D-05 MaxDP=7.61D-04 DE=-3.55D-04 OVMax= 1.86D-03

 Cycle   7  Pass 1  IDiag  1:
 RMSU=  1.31D-05    CP:  9.77D-01  8.50D-01  8.17D-01  5.43D-01  6.82D-01
                    CP:  6.29D-01
 E= -1633.62458250317     Delta-E=       -0.000028517948 Rises=F Damp=F
 DIIS: error= 9.08D-05 at cycle   7 NSaved=   7.
 NSaved= 7 IEnMin= 7 EnMin= -1633.62458250317     IErMin= 7 ErrMin= 9.08D-05
 ErrMax= 9.08D-05  0.00D+00 EMaxC= 1.00D-01 BMatC= 3.62D-06 BMatP= 2.93D-05
 IDIUse=1 WtCom= 1.00D+00 WtEn= 0.00D+00
 Coeff-Com: -0.825D-03 0.824D-04 0.182D-01 0.335D-01 0.130D+00 0.333D+00
 Coeff-Com:  0.486D+00
 Coeff:     -0.825D-03 0.824D-04 0.182D-01 0.335D-01 0.130D+00 0.333D+00
 Coeff:      0.486D+00
 Gap=     0.211 Goal=   None    Shift=    0.000
 RMSDP=7.84D-06 MaxDP=3.14D-04 DE=-2.85D-05 OVMax= 7.73D-04

 Cycle   8  Pass 1  IDiag  1:
 RMSU=  4.73D-06    CP:  9.77D-01  8.51D-01  8.17D-01  5.43D-01  6.87D-01
                    CP:  6.81D-01  5.86D-01
 E= -1633.62458626777     Delta-E=       -0.000003764604 Rises=F Damp=F
 DIIS: error= 1.94D-05 at cycle   8 NSaved=   8.
 NSaved= 8 IEnMin= 8 EnMin= -1633.62458626777     IErMin= 8 ErrMin= 1.94D-05
 ErrMax= 1.94D-05  0.00D+00 EMaxC= 1.00D-01 BMatC= 2.88D-07 BMatP= 3.62D-06
 IDIUse=1 WtCom= 1.00D+00 WtEn= 0.00D+00
 Coeff-Com:  0.957D-04-0.610D-03-0.242D-03-0.193D-03 0.101D-01 0.603D-01
 Coeff-Com:  0.243D+00 0.688D+00
 Coeff:      0.957D-04-0.610D-03-0.242D-03-0.193D-03 0.101D-01 0.603D-01
 Coeff:      0.243D+00 0.688D+00
 Gap=     0.211 Goal=   None    Shift=    0.000
 RMSDP=2.20D-06 MaxDP=7.23D-05 DE=-3.76D-06 OVMax= 1.89D-04

 Cycle   9  Pass 1  IDiag  1:
 RMSU=  1.38D-06    CP:  9.77D-01  8.50D-01  8.17D-01  5.43D-01  6.89D-01
                    CP:  6.82D-01  6.67D-01  7.72D-01
 E= -1633.62458657817     Delta-E=       -0.000000310397 Rises=F Damp=F
 DIIS: error= 4.15D-06 at cycle   9 NSaved=   9.
 NSaved= 9 IEnMin= 9 EnMin= -1633.62458657817     IErMin= 9 ErrMin= 4.15D-06
 ErrMax= 4.15D-06  0.00D+00 EMaxC= 1.00D-01 BMatC= 1.98D-08 BMatP= 2.88D-07
 IDIUse=1 WtCom= 1.00D+00 WtEn= 0.00D+00
 Coeff-Com:  0.106D-03-0.303D-03-0.123D-02-0.228D-02-0.333D-02 0.826D-02
 Coeff-Com:  0.818D-01 0.320D+00 0.597D+00
 Coeff:      0.106D-03-0.303D-03-0.123D-02-0.228D-02-0.333D-02 0.826D-02
 Coeff:      0.818D-01 0.320D+00 0.597D+00
 Gap=     0.211 Goal=   None    Shift=    0.000
 RMSDP=5.95D-07 MaxDP=2.26D-05 DE=-3.10D-07 OVMax= 3.98D-05

 Cycle  10  Pass 1  IDiag  1:
 RMSU=  3.87D-07    CP:  9.77D-01  8.50D-01  8.17D-01  5.43D-01  6.89D-01
                    CP:  6.86D-01  6.78D-01  8.13D-01  8.02D-01
 E= -1633.62458659768     Delta-E=       -0.000000019506 Rises=F Damp=F
 DIIS: error= 1.54D-06 at cycle  10 NSaved=  10.
 NSaved=10 IEnMin=10 EnMin= -1633.62458659768     IErMin=10 ErrMin= 1.54D-06
 ErrMax= 1.54D-06  0.00D+00 EMaxC= 1.00D-01 BMatC= 1.89D-09 BMatP= 1.98D-08
 IDIUse=1 WtCom= 1.00D+00 WtEn= 0.00D+00
 Coeff-Com:  0.383D-04-0.723D-04-0.507D-03-0.102D-02-0.244D-02-0.206D-02
 Coeff-Com:  0.113D-01 0.740D-01 0.276D+00 0.645D+00
 Coeff:      0.383D-04-0.723D-04-0.507D-03-0.102D-02-0.244D-02-0.206D-02
 Coeff:      0.113D-01 0.740D-01 0.276D+00 0.645D+00
 Gap=     0.211 Goal=   None    Shift=    0.000
 RMSDP=1.84D-07 MaxDP=6.33D-06 DE=-1.95D-08 OVMax= 2.51D-05

 Cycle  11  Pass 1  IDiag  1:
 RMSU=  1.30D-07    CP:  9.77D-01  8.50D-01  8.17D-01  5.43D-01  6.89D-01
                    CP:  6.86D-01  6.80D-01  8.26D-01  8.44D-01  7.68D-01
 E= -1633.62458659955     Delta-E=       -0.000000001871 Rises=F Damp=F
 DIIS: error= 7.16D-07 at cycle  11 NSaved=  11.
 NSaved=11 IEnMin=11 EnMin= -1633.62458659955     IErMin=11 ErrMin= 7.16D-07
 ErrMax= 7.16D-07  0.00D+00 EMaxC= 1.00D-01 BMatC= 2.34D-10 BMatP= 1.89D-09
 IDIUse=1 WtCom= 1.00D+00 WtEn= 0.00D+00
 Coeff-Com:  0.872D-05-0.653D-05-0.135D-03-0.291D-03-0.869D-03-0.183D-02
 Coeff-Com: -0.276D-02 0.471D-02 0.799D-01 0.323D+00 0.598D+00
 Coeff:      0.872D-05-0.653D-05-0.135D-03-0.291D-03-0.869D-03-0.183D-02
 Coeff:     -0.276D-02 0.471D-02 0.799D-01 0.323D+00 0.598D+00
 Gap=     0.211 Goal=   None    Shift=    0.000
 RMSDP=7.02D-08 MaxDP=3.10D-06 DE=-1.87D-09 OVMax= 7.80D-06

 Cycle  12  Pass 1  IDiag  1:
 RMSU=  4.95D-08    CP:  9.77D-01  8.50D-01  8.17D-01  5.43D-01  6.89D-01
                    CP:  6.86D-01  6.80D-01  8.28D-01  8.56D-01  8.41D-01
                    CP:  7.36D-01
 E= -1633.62458659979     Delta-E=       -0.000000000245 Rises=F Damp=F
 DIIS: error= 2.25D-07 at cycle  12 NSaved=  12.
 NSaved=12 IEnMin=12 EnMin= -1633.62458659979     IErMin=12 ErrMin= 2.25D-07
 ErrMax= 2.25D-07  0.00D+00 EMaxC= 1.00D-01 BMatC= 4.35D-11 BMatP= 2.34D-10
 IDIUse=1 WtCom= 1.00D+00 WtEn= 0.00D+00
 Coeff-Com: -0.108D-05 0.745D-05 0.458D-05-0.246D-05-0.792D-04-0.667D-03
 Coeff-Com: -0.334D-02-0.911D-02 0.207D-02 0.842D-01 0.343D+00 0.584D+00
 Coeff:     -0.108D-05 0.745D-05 0.458D-05-0.246D-05-0.792D-04-0.667D-03
 Coeff:     -0.334D-02-0.911D-02 0.207D-02 0.842D-01 0.343D+00 0.584D+00
 Gap=     0.211 Goal=   None    Shift=    0.000
 RMSDP=2.95D-08 MaxDP=9.35D-07 DE=-2.45D-10 OVMax= 4.20D-06

 Cycle  13  Pass 1  IDiag  1:
 RMSU=  1.83D-08    CP:  9.77D-01  8.50D-01  8.17D-01  5.43D-01  6.89D-01
                    CP:  6.86D-01  6.81D-01  8.28D-01  8.64D-01  8.47D-01
                    CP:  8.25D-01  6.87D-01
 E= -1633.62458659990     Delta-E=       -0.000000000103 Rises=F Damp=F
 DIIS: error= 7.59D-08 at cycle  13 NSaved=  13.
 NSaved=13 IEnMin=13 EnMin= -1633.62458659990     IErMin=13 ErrMin= 7.59D-08
 ErrMax= 7.59D-08  0.00D+00 EMaxC= 1.00D-01 BMatC= 3.49D-12 BMatP= 4.35D-11
 IDIUse=1 WtCom= 1.00D+00 WtEn= 0.00D+00
 Coeff-Com: -0.147D-05 0.430D-05 0.168D-04 0.316D-04 0.614D-04-0.126D-03
 Coeff-Com: -0.131D-02-0.506D-02-0.866D-02 0.109D-02 0.894D-01 0.280D+00
 Coeff-Com:  0.645D+00
 Coeff:     -0.147D-05 0.430D-05 0.168D-04 0.316D-04 0.614D-04-0.126D-03
 Coeff:     -0.131D-02-0.506D-02-0.866D-02 0.109D-02 0.894D-01 0.280D+00
 Coeff:      0.645D+00
 Gap=     0.211 Goal=   None    Shift=    0.000
 RMSDP=9.62D-09 MaxDP=3.41D-07 DE=-1.03D-10 OVMax= 8.58D-07

 Error on total polarization charges =  0.00696
 SCF Done:  E(RB3LYP) =  -1633.62458660     A.U. after   13 cycles
            NFock= 13  Conv=0.96D-08     -V/T= 2.0060
 KE= 1.623929071945D+03 PE=-7.282372683534D+03 EE= 2.292687622791D+03
 Leave Link  502 at Mon Jul 12 11:23:30 2021, MaxMem=   104857600 cpu:            1215.1 elap:             313.5
 (Enter /dades/curu/g16A03_MST/g16/l601.exe)
 Copying SCF densities to generalized density rwf, IOpCl= 0 IROHF=0.

 **********************************************************************

            Population analysis using the SCF density.

 **********************************************************************

 Orbital symmetries:
       Occupied  (A) (A) (A) (A) (A) (A) (A) (A) (A) (A) (A) (A)
                 (A) (A) (A) (A) (A) (A) (A) (A) (A) (A) (A) (A)
                 (A) (A) (A) (A) (A) (A) (A) (A) (A) (A) (A) (A)
                 (A) (A) (A) (A) (A) (A) (A) (A) (A) (A) (A) (A)
                 (A) (A) (A) (A) (A) (A) (A) (A) (A) (A) (A) (A)
                 (A) (A) (A) (A) (A) (A) (A) (A) (A) (A) (A) (A)
                 (A) (A) (A) (A) (A) (A) (A) (A)
       Virtual   (A) (A) (A) (A) (A) (A) (A) (A) (A) (A) (A) (A)
                 (A) (A) (A) (A) (A) (A) (A) (A) (A) (A) (A) (A)
                 (A) (A) (A) (A) (A) (A) (A) (A) (A) (A) (A) (A)
                 (A) (A) (A) (A) (A) (A) (A) (A) (A) (A) (A) (A)
                 (A) (A) (A) (A) (A) (A) (A) (A) (A) (A) (A) (A)
                 (A) (A) (A) (A) (A) (A) (A) (A) (A) (A) (A) (A)
                 (A) (A) (A) (A) (A) (A) (A) (A) (A) (A) (A) (A)
                 (A) (A) (A) (A) (A) (A) (A) (A) (A) (A) (A) (A)
                 (A) (A) (A) (A) (A) (A) (A) (A) (A) (A) (A) (A)
                 (A) (A) (A) (A) (A) (A) (A) (A) (A) (A) (A) (A)
                 (A) (A) (A) (A) (A) (A) (A) (A) (A) (A) (A) (A)
                 (A) (A) (A) (A) (A) (A) (A) (A) (A) (A) (A) (A)
                 (A) (A) (A) (A) (A) (A) (A) (A) (A) (A) (A) (A)
                 (A) (A) (A) (A) (A) (A) (A) (A) (A) (A) (A) (A)
                 (A) (A) (A) (A) (A) (A) (A) (A) (A) (A) (A) (A)
                 (A) (A) (A) (A) (A) (A) (A) (A) (A) (A) (A) (A)
                 (A) (A) (A) (A) (A) (A) (A) (A) (A) (A) (A) (A)
                 (A) (A) (A) (A) (A) (A) (A) (A) (A) (A) (A) (A)
                 (A) (A) (A) (A) (A) (A) (A) (A) (A) (A) (A) (A)
                 (A) (A) (A) (A) (A) (A) (A) (A) (A) (A) (A) (A)
                 (A) (A) (A) (A) (A) (A) (A) (A) (A) (A) (A) (A)
                 (A) (A) (A) (A) (A) (A) (A) (A) (A) (A) (A) (A)
 The electronic state is 1-A.
 Alpha  occ. eigenvalues -- -101.56652-101.56425 -14.48889 -10.28572 -10.27675
 Alpha  occ. eigenvalues --  -10.27673 -10.27549 -10.23723 -10.23221 -10.22989
 Alpha  occ. eigenvalues --  -10.22604 -10.22419 -10.22387 -10.22221 -10.22145
 Alpha  occ. eigenvalues --  -10.21482 -10.21451 -10.21426 -10.21321 -10.21212
 Alpha  occ. eigenvalues --   -9.48301  -9.48068  -7.24712  -7.24476  -7.23726
 Alpha  occ. eigenvalues --   -7.23676  -7.23497  -7.23444  -1.05228  -0.92791
 Alpha  occ. eigenvalues --   -0.89833  -0.87240  -0.86304  -0.84632  -0.81124
 Alpha  occ. eigenvalues --   -0.77709  -0.76679  -0.76064  -0.75492  -0.73075
 Alpha  occ. eigenvalues --   -0.67799  -0.65929  -0.64011  -0.63618  -0.61839
 Alpha  occ. eigenvalues --   -0.60251  -0.59246  -0.56532  -0.54434  -0.53088
 Alpha  occ. eigenvalues --   -0.51659  -0.50430  -0.49924  -0.48726  -0.47768
 Alpha  occ. eigenvalues --   -0.46329  -0.45929  -0.45404  -0.45150  -0.44628
 Alpha  occ. eigenvalues --   -0.44392  -0.43274  -0.42660  -0.41543  -0.40428
 Alpha  occ. eigenvalues --   -0.40192  -0.39072  -0.38632  -0.38069  -0.37172
 Alpha  occ. eigenvalues --   -0.36036  -0.35391  -0.33874  -0.33670  -0.33132
 Alpha  occ. eigenvalues --   -0.31761  -0.27843  -0.27020  -0.26680  -0.25639
 Alpha virt. eigenvalues --   -0.04521  -0.03698  -0.03124  -0.02761   0.00045
 Alpha virt. eigenvalues --    0.02597   0.05363   0.05964   0.06390   0.07142
 Alpha virt. eigenvalues --    0.08543   0.09582   0.09708   0.11221   0.11392
 Alpha virt. eigenvalues --    0.11800   0.11934   0.12645   0.13126   0.13660
 Alpha virt. eigenvalues --    0.14126   0.14745   0.16199   0.16423   0.16949
 Alpha virt. eigenvalues --    0.17714   0.18344   0.19265   0.20431   0.21655
 Alpha virt. eigenvalues --    0.23031   0.23238   0.24130   0.25102   0.26678
 Alpha virt. eigenvalues --    0.27436   0.28096   0.30136   0.30872   0.31990
 Alpha virt. eigenvalues --    0.32606   0.34005   0.35033   0.36659   0.39850
 Alpha virt. eigenvalues --    0.40706   0.41012   0.43459   0.44242   0.45028
 Alpha virt. eigenvalues --    0.45835   0.46145   0.46563   0.47225   0.48017
 Alpha virt. eigenvalues --    0.48464   0.50299   0.50519   0.51446   0.51616
 Alpha virt. eigenvalues --    0.52005   0.53156   0.54217   0.54977   0.55231
 Alpha virt. eigenvalues --    0.55659   0.56436   0.57320   0.58317   0.58721
 Alpha virt. eigenvalues --    0.59238   0.59369   0.59694   0.60259   0.61060
 Alpha virt. eigenvalues --    0.61431   0.62587   0.63103   0.64825   0.66136
 Alpha virt. eigenvalues --    0.67890   0.67987   0.68557   0.68796   0.71044
 Alpha virt. eigenvalues --    0.71994   0.73701   0.74493   0.75579   0.77938
 Alpha virt. eigenvalues --    0.78512   0.79331   0.79547   0.80345   0.80843
 Alpha virt. eigenvalues --    0.81855   0.82127   0.82190   0.82897   0.83079
 Alpha virt. eigenvalues --    0.83731   0.84024   0.84655   0.85145   0.85630
 Alpha virt. eigenvalues --    0.86224   0.86326   0.87095   0.87929   0.88761
 Alpha virt. eigenvalues --    0.89798   0.90248   0.90618   0.91572   0.93871
 Alpha virt. eigenvalues --    0.93913   0.95053   0.95833   0.96337   0.98315
 Alpha virt. eigenvalues --    0.99043   0.99695   1.00057   1.01038   1.02221
 Alpha virt. eigenvalues --    1.02893   1.03975   1.04924   1.06931   1.07103
 Alpha virt. eigenvalues --    1.10123   1.11497   1.12685   1.13515   1.15055
 Alpha virt. eigenvalues --    1.16162   1.17085   1.19795   1.21843   1.22936
 Alpha virt. eigenvalues --    1.25325   1.25832   1.27185   1.28544   1.29943
 Alpha virt. eigenvalues --    1.31807   1.34746   1.38603   1.39617   1.41580
 Alpha virt. eigenvalues --    1.42832   1.44292   1.45389   1.47455   1.48192
 Alpha virt. eigenvalues --    1.48548   1.49649   1.51424   1.53239   1.56589
 Alpha virt. eigenvalues --    1.58432   1.59962   1.61328   1.65293   1.67393
 Alpha virt. eigenvalues --    1.68512   1.70886   1.71990   1.73544   1.74548
 Alpha virt. eigenvalues --    1.76177   1.77169   1.79756   1.80060   1.82505
 Alpha virt. eigenvalues --    1.85333   1.85999   1.87654   1.87967   1.88316
 Alpha virt. eigenvalues --    1.90348   1.91152   1.91849   1.93058   1.94278
 Alpha virt. eigenvalues --    1.95356   1.97805   2.00542   2.02519   2.03013
 Alpha virt. eigenvalues --    2.04393   2.05603   2.07351   2.09226   2.09551
 Alpha virt. eigenvalues --    2.11398   2.12051   2.13793   2.14252   2.16439
 Alpha virt. eigenvalues --    2.18681   2.19423   2.20969   2.22483   2.25491
 Alpha virt. eigenvalues --    2.25772   2.27121   2.27427   2.28034   2.29325
 Alpha virt. eigenvalues --    2.30474   2.32120   2.33299   2.36776   2.39375
 Alpha virt. eigenvalues --    2.43259   2.44181   2.46334   2.51750   2.52273
 Alpha virt. eigenvalues --    2.55874   2.56642   2.58346   2.59598   2.60916
 Alpha virt. eigenvalues --    2.61471   2.62493   2.64161   2.66427   2.68019
 Alpha virt. eigenvalues --    2.70290   2.72703   2.74265   2.76826   2.77781
 Alpha virt. eigenvalues --    2.79001   2.82364   2.84151   2.88730   2.90177
 Alpha virt. eigenvalues --    3.05856   3.09434   3.31322   3.34790   3.87283
 Alpha virt. eigenvalues --    4.00218   4.07477   4.07680   4.10112   4.11459
 Alpha virt. eigenvalues --    4.14863   4.19040   4.19955   4.25176   4.25955
 Alpha virt. eigenvalues --    4.29221   4.31145   4.33670   4.37405   4.40716
 Alpha virt. eigenvalues --    4.52137   4.54782   4.66407   4.70845
          Condensed to atoms (all electrons):
               1          2          3          4          5          6
     1  C    5.050393   0.378449   0.378583   0.380816   0.239470  -0.019832
     2  H    0.378449   0.472141  -0.025865  -0.023885  -0.025596  -0.002146
     3  H    0.378583  -0.025865   0.456522  -0.025121  -0.022300   0.002481
     4  H    0.380816  -0.023885  -0.025121   0.466779  -0.027563  -0.002529
     5  N    0.239470  -0.025596  -0.022300  -0.027563   6.787291   0.294447
     6  H   -0.019832  -0.002146   0.002481  -0.002529   0.294447   0.288834
     7  C   -0.028153   0.003151  -0.000480  -0.004024   0.211816  -0.021048
     8  C    0.003097  -0.000078   0.000009  -0.000086  -0.041320   0.000745
     9  C   -0.000037   0.000001  -0.000001   0.000000   0.000714   0.000329
    10  C    0.000001  -0.000000  -0.000000   0.000000  -0.000024  -0.000028
    11  C    0.000000   0.000000   0.000000  -0.000000  -0.000014   0.000001
    12  C    0.000000  -0.000000  -0.000000   0.000000   0.000555  -0.000096
    13  C    0.000198  -0.000014  -0.000005  -0.000000  -0.007634   0.000940
    14  H   -0.000108   0.000036   0.000035  -0.000011  -0.001425   0.000282
    15  H   -0.000000   0.000000  -0.000000   0.000000   0.000000  -0.000000
    16  H    0.000000  -0.000000  -0.000000   0.000000   0.000000   0.000000
    17  H   -0.000000   0.000000   0.000000   0.000000   0.000000   0.000000
    18  H   -0.001950  -0.000030   0.002783  -0.000225  -0.045376   0.005067
    19  C   -0.002036  -0.000035  -0.000524   0.004648  -0.045753  -0.004064
    20  H   -0.001073  -0.000060   0.000097   0.000878  -0.002909   0.006541
    21  H    0.001530   0.000025   0.000075   0.000135  -0.000910  -0.000375
    22  C    0.000050  -0.000001  -0.000012   0.000006   0.003412  -0.000082
    23  H   -0.000003  -0.000000  -0.000000   0.000004  -0.000106  -0.000010
    24  H   -0.000018   0.000000   0.000001   0.000005   0.000254   0.000025
    25  C    0.000008   0.000000   0.000000  -0.000000  -0.000188   0.000026
    26  H   -0.000002   0.000000  -0.000000   0.000000   0.000076  -0.000015
    27  C    0.000000  -0.000000  -0.000000   0.000000  -0.000002   0.000001
    28  C   -0.000000   0.000000  -0.000000  -0.000000   0.000000  -0.000000
    29  H    0.000000   0.000000  -0.000000   0.000000   0.000000  -0.000000
    30  C   -0.000000  -0.000000  -0.000000  -0.000000   0.000000  -0.000000
    31  Cl   0.000000   0.000000  -0.000000   0.000000  -0.000000  -0.000000
    32  C    0.000000   0.000000   0.000000   0.000000  -0.000000   0.000000
    33  Cl   0.000000  -0.000000  -0.000000  -0.000000   0.000000  -0.000000
    34  C   -0.000000  -0.000000  -0.000000  -0.000000   0.000000  -0.000000
    35  H   -0.000000   0.000000   0.000000   0.000000  -0.000000  -0.000000
[...]
    25  C   -1.890431  -4.546733  -4.184341  -1.608199  -0.847963   0.570972
    26  H   -0.130008   0.202089   0.664123   0.350558  -0.002342   0.037800
    27  C   -0.221638  -0.629258  -1.024504  -2.351167   0.515175  -0.547679
    28  C   -0.525055   0.470020  -1.343114  -0.102235  -0.640106   0.284229
    29  H   -0.025956   0.041962  -0.062664   0.054711  -0.004015   0.004069
    30  C   -0.161767   0.162725  -0.416793   0.575678  -0.086636   0.141620
    31  Cl   0.002701   0.004700   0.015838  -0.013436  -0.001624  -0.000173
    32  C   -0.017923   0.055773  -0.239338   0.074749  -0.070044   0.049858
    33  Cl   0.000152  -0.002121   0.007248   0.000431   0.002068  -0.000338
    34  C    0.029226  -0.140839   0.410689  -0.262238   0.126803  -0.101303
    35  H   -0.000961  -0.002725  -0.026682  -0.008641   0.003221  -0.001989
    36  C    0.391441   0.376143   1.007484  -0.264080   0.095648  -0.108166
    37  H    0.009961   0.006594   0.081921   0.007290   0.003586   0.004264
    38  H    0.139833  -0.065998  -0.041854  -0.003774   0.013891  -0.031242
              13         14         15         16         17         18
     1  C    0.071006  -0.004619   0.000370   0.000019  -0.000629  -0.042135
     2  H   -0.013744  -0.002736   0.000274  -0.000058   0.000228   0.005343
     3  H   -0.010253  -0.003448   0.000171   0.000028  -0.000297   0.021711
     4  H   -0.011882   0.003345  -0.000195   0.000058  -0.000357  -0.006958
     5  N    0.375767   0.015935   0.001839   0.001754  -0.005272  -0.057277
     6  H    0.002412  -0.006944   0.001011  -0.001048   0.002559   0.021298
     7  C    1.365132  -0.418042   0.093264  -0.033847   0.060016  -0.846203
     8  C   -5.326008   0.861202   0.196703  -0.426296   0.502352   0.223552
     9  C   -4.689500   0.644566  -0.327055   0.397302   0.681835  -0.101400
    10  C   -1.968351   0.013530  -0.004878   0.344513  -0.921430  -0.019781
    11  C    0.576046  -0.193360   0.436929  -0.853736  -0.067316   0.004394
    12  C   -0.831667   0.001405  -0.653021   0.396048  -0.094907   0.039334
    13  C   18.136488  -1.407149   0.236631   0.019412  -0.041864   0.084826
    14  H   -1.407149   2.259855  -0.109142  -0.003206  -0.004245  -0.007059
    15  H    0.236631  -0.109142   1.670727  -0.063050  -0.003650   0.001213
    16  H    0.019412  -0.003206  -0.063050   1.700158  -0.099591  -0.001135
    17  H   -0.041864  -0.004245  -0.003650  -0.099591   2.342009   0.003820
    18  H    0.084826  -0.007059   0.001213  -0.001135   0.003820   1.648548
    19  C   -0.317535  -0.052484   0.008897  -0.002675   0.021206   0.241830
    20  H    0.022079  -0.002561   0.001047  -0.000272   0.006379   0.063646
    21  H   -0.003733   0.000081   0.000092  -0.000037  -0.000255  -0.161007
    22  C   -0.588735   0.031620   0.000074  -0.000984   0.041985  -0.044515
    23  H   -0.021229   0.000978   0.000044  -0.000042  -0.000609   0.024216
    24  H    0.022062   0.004546   0.000794   0.000218   0.005303  -0.002432
    25  C   -0.168874   0.093445  -0.020256   0.080310  -0.696792   0.212312
    26  H   -0.065350   0.009784  -0.002634   0.005148  -0.011273  -0.007085
    27  C    0.505809   0.005135  -0.001860   0.005015  -0.284389  -0.009103
    28  C   -0.430521   0.003060  -0.007426   0.028153  -0.175372  -0.022682
    29  H    0.008935  -0.000153  -0.001324  -0.001369   0.017825   0.003108
    30  C   -0.132096  -0.002281   0.000630   0.005407  -0.004913   0.012392
    31  Cl   0.001580  -0.000092   0.000057  -0.000405   0.002011  -0.000037
    32  C   -0.049282  -0.001646   0.001358  -0.004921   0.020711  -0.001203
    33  Cl   0.000400   0.000021  -0.000023   0.000159  -0.001007  -0.000006
    34  C    0.105247   0.003545  -0.002885   0.011414  -0.026986  -0.002212
    35  H    0.001280   0.000053  -0.000073   0.000116  -0.000122  -0.000039
    36  C    0.148248  -0.004619   0.004046  -0.026047   0.274025   0.008029
    37  H   -0.003127  -0.000379   0.000290  -0.001068   0.017521  -0.000551
    38  H   -0.002559  -0.026074   0.001857  -0.000385   0.000009  -0.045463
              19         20         21         22         23         24
     1  C   -0.008259  -0.043786  -0.013544  -0.087922   0.004176  -0.007695
     2  H    0.001117  -0.008327   0.003553   0.053905   0.001498   0.000746
     3  H    0.073315  -0.006888  -0.007793  -0.007093  -0.000291   0.000127
     4  H   -0.156976  -0.007156   0.004810  -0.085492   0.003607  -0.002824
     5  N    0.348265   0.118097   0.008237  -0.270434  -0.027010   0.037436
     6  H    0.002291  -0.007757  -0.011793   0.016937   0.000651   0.002572
     7  C   -0.594088  -0.566925   0.266024  -0.729901   0.243843  -0.195839
     8  C   -0.674471   0.230807   0.030821  -0.190328  -0.035448   0.069520
     9  C    0.177740  -0.142143  -0.014916  -0.100347   0.191897   0.134725
    10  C    0.409679   0.041913  -0.001793   0.843826  -0.019712   0.038033
    11  C   -0.016222   0.003004  -0.004300  -0.153456   0.002380  -0.007008
    12  C   -0.070900  -0.019099   0.002250   0.102189   0.004562  -0.004194
    13  C   -0.317535   0.022079  -0.003733  -0.588735  -0.021229   0.022062
    14  H   -0.052484  -0.002561   0.000081   0.031620   0.000978   0.004546
    15  H    0.008897   0.001047   0.000092   0.000074   0.000044   0.000794
    16  H   -0.002675  -0.000272  -0.000037  -0.000984  -0.000042   0.000218
    17  H    0.021206   0.006379  -0.000255   0.041985  -0.000609   0.005303
    18  H    0.241830   0.063646  -0.161007  -0.044515   0.024216  -0.002432
    19  C    8.153966   0.386297  -0.457014  -0.874756   0.118016  -0.207279
    20  H    0.386297   1.505419  -0.282883  -0.222583  -0.055148   0.092818
    21  H   -0.457014  -0.282883   1.559910   0.186574  -0.083900  -0.045402
    22  C   -0.874756  -0.222583   0.186574   8.861585  -0.656038   0.555758
    23  H    0.118016  -0.055148  -0.083900  -0.656038   1.669167  -0.248683
    24  H   -0.207279   0.092818  -0.045402   0.555758  -0.248683   1.438736
    25  C   -1.302733  -0.047346   0.111433  -1.379393  -0.004198  -0.558819
    26  H   -0.095887  -0.041551   0.033322   0.129259  -0.052233   0.039768
    27  C    0.091121   0.205698  -0.049133   0.499915  -0.079870   0.167633
    28  C    0.261983  -0.014689  -0.000018  -0.225071   0.075065  -0.118903
    29  H    0.022928   0.000477   0.003314   0.063334   0.017032  -0.044152
    30  C   -0.061165  -0.001425   0.000503  -0.053079  -0.007726   0.024152
    31  Cl  -0.000570   0.000065  -0.000030  -0.022114  -0.000508  -0.001318
    32  C    0.029731  -0.001412   0.000854  -0.174818   0.003772  -0.018144
    33  Cl  -0.000324   0.000123  -0.000037   0.014588  -0.000068   0.001257
    34  C   -0.049248   0.002109  -0.001363   0.228416  -0.002966   0.004013
    35  H   -0.000238  -0.000521  -0.000030  -0.001254  -0.001763  -0.001540
    36  C   -0.194147  -0.007029  -0.000168  -0.817641   0.114182   0.041535
    37  H    0.002519   0.006137  -0.000714   0.047512   0.005321   0.009767
    38  H    0.028237  -0.012997   0.006287   0.016493  -0.000093  -0.000832
              25         26         27         28         29         30
     1  C   -0.020675  -0.001456   0.009160  -0.006248   0.000554  -0.003077
     2  H   -0.039534   0.000369  -0.004539   0.000159  -0.000136  -0.000005
     3  H    0.018314   0.001180   0.005462   0.000757   0.000325  -0.000483
     4  H    0.060348   0.003725   0.010608  -0.000700  -0.000137  -0.000241
     5  N    0.168334   0.000819   0.162577   0.003787   0.010149  -0.009756
     6  H   -0.043543   0.000737  -0.013348   0.004134   0.000025  -0.000271
     7  C   -1.890431  -0.130008  -0.221638  -0.525055  -0.025956  -0.161767
     8  C   -4.546733   0.202089  -0.629258   0.470020   0.041962   0.162725
     9  C   -4.184341   0.664123  -1.024504  -1.343114  -0.062664  -0.416793
    10  C   -1.608199   0.350558  -2.351167  -0.102235   0.054711   0.575678
    11  C   -0.847963  -0.002342   0.515175  -0.640106  -0.004015  -0.086636
    12  C    0.570972   0.037800  -0.547679   0.284229   0.004069   0.141620
    13  C   -0.168874  -0.065350   0.505809  -0.430521   0.008935  -0.132096
    14  H    0.093445   0.009784   0.005135   0.003060  -0.000153  -0.002281
    15  H   -0.020256  -0.002634  -0.001860  -0.007426  -0.001324   0.000630
    16  H    0.080310   0.005148   0.005015   0.028153  -0.001369   0.005407
    17  H   -0.696792  -0.011273  -0.284389  -0.175372   0.017825  -0.004913
    18  H    0.212312  -0.007085  -0.009103  -0.022682   0.003108   0.012392
    19  C   -1.302733  -0.095887   0.091121   0.261983   0.022928  -0.061165
    20  H   -0.047346  -0.041551   0.205698  -0.014689   0.000477  -0.001425
    21  H    0.111433   0.033322  -0.049133  -0.000018   0.003314   0.000503
    22  C   -1.379393   0.129259   0.499915  -0.225071   0.063334  -0.053079
    23  H   -0.004198  -0.052233  -0.079870   0.075065   0.017032  -0.007726
    24  H   -0.558819   0.039768   0.167633  -0.118903  -0.044152   0.024152
    25  C   32.822091  -1.611738  -8.403950  -0.783121  -0.055193   1.646172
    26  H   -1.611738   1.948332  -0.081085  -0.090989  -0.007780  -0.053113
    27  C   -8.403950  -0.081085  34.858194 -10.493348   0.673952   1.392237
    28  C   -0.783121  -0.090989 -10.493348  34.409577  -2.094852 -10.070332
    29  H   -0.055193  -0.007780   0.673952  -2.094852   2.567455   0.822724
    30  C    1.646172  -0.053113   1.392237 -10.070332   0.822724  18.290545
    31  Cl  -0.005192   0.000118  -0.505146   0.333607  -0.143920  -0.307775
    32  C    0.779157   0.034171  -5.110521   0.484824  -0.115897  -2.502867
    33  Cl  -0.106755  -0.001949   0.187200   0.274794  -0.005350  -0.037322
    34  C   -2.696896   0.016550   5.679648  -3.384709   0.126236   1.210194
    35  H    0.114027   0.011260  -0.213673   0.193923   0.010704  -0.294159
    36  C    0.201305   0.098032 -11.351658  -1.619663  -0.136182  -3.671402
    37  H    0.097975  -0.082564   0.771968  -0.050441  -0.023931   0.151156
    38  H   -0.024134  -0.001979   0.001394  -0.001785   0.000224   0.000266
              31         32         33         34         35         36
     1  C    0.000014   0.000276  -0.000000   0.000011  -0.000013   0.003106
     2  H   -0.000000  -0.000006   0.000000   0.000034  -0.000000  -0.000015
     3  H    0.000001   0.000067   0.000000  -0.000042   0.000000  -0.000668
     4  H    0.000005   0.000145  -0.000001  -0.000282   0.000002   0.000747
     5  N   -0.000008   0.001551  -0.000001  -0.000867   0.000069   0.001690
     6  H    0.000002   0.000032  -0.000001   0.000171  -0.000049   0.003652
     7  C    0.002701  -0.017923   0.000152   0.029226  -0.000961   0.391441
     8  C    0.004700   0.055773  -0.002121  -0.140839  -0.002725   0.376143
     9  C    0.015838  -0.239338   0.007248   0.410689  -0.026682   1.007484
    10  C   -0.013436   0.074749   0.000431  -0.262238  -0.008641  -0.264080
    11  C   -0.001624  -0.070044   0.002068   0.126803   0.003221   0.095648
    12  C   -0.000173   0.049858  -0.000338  -0.101303  -0.001989  -0.108166
    13  C    0.001580  -0.049282   0.000400   0.105247   0.001280   0.148248
    14  H   -0.000092  -0.001646   0.000021   0.003545   0.000053  -0.004619
    15  H    0.000057   0.001358  -0.000023  -0.002885  -0.000073   0.004046
    16  H   -0.000405  -0.004921   0.000159   0.011414   0.000116  -0.026047
    17  H    0.002011   0.020711  -0.001007  -0.026986  -0.000122   0.274025
    18  H   -0.000037  -0.001203  -0.000006  -0.002212  -0.000039   0.008029
    19  C   -0.000570   0.029731  -0.000324  -0.049248  -0.000238  -0.194147
    20  H    0.000065  -0.001412   0.000123   0.002109  -0.000521  -0.007029
    21  H   -0.000030   0.000854  -0.000037  -0.001363  -0.000030  -0.000168
    22  C   -0.022114  -0.174818   0.014588   0.228416  -0.001254  -0.817641
    23  H   -0.000508   0.003772  -0.000068  -0.002966  -0.001763   0.114182
    24  H   -0.001318  -0.018144   0.001257   0.004013  -0.001540   0.041535
    25  C   -0.005192   0.779157  -0.106755  -2.696896   0.114027   0.201305
    26  H    0.000118   0.034171  -0.001949   0.016550   0.011260   0.098032
    27  C   -0.505146  -5.110521   0.187200   5.679648  -0.213673 -11.351658
    28  C    0.333607   0.484824   0.274794  -3.384709   0.193923  -1.619663
    29  H   -0.143920  -0.115897  -0.005350   0.126236   0.010704  -0.136182
    30  C   -0.307775  -2.502867  -0.037322   1.210194  -0.294159  -3.671402
    31  Cl  17.586007   0.286522  -0.013106  -0.098112  -0.000134   0.214815
    32  C    0.286522  13.046884  -0.125422  -3.905695   0.828244   3.438125
    33  Cl  -0.013106  -0.125422  17.542256   0.070051  -0.120982  -0.361139
    34  C   -0.098112  -3.905695   0.070051  18.151197  -1.491087  -9.606365
    35  H   -0.000134   0.828244  -0.120982  -1.491087   1.870061   0.707691
    36  C    0.214815   3.438125  -0.361139  -9.606365   0.707691  28.799255
    37  H    0.003386  -0.321865   0.005527   0.987221  -0.135195  -2.182233
    38  H    0.000029   0.000163  -0.000001  -0.000601   0.000003   0.000307
              37         38
     1  C    0.000067  -0.043472
     2  H   -0.000017  -0.007119
     3  H    0.000015  -0.007894
     4  H   -0.000351   0.015860
     5  N    0.000972   0.379291
     6  H    0.000953  -0.075377
     7  C    0.009961   0.139833
     8  C    0.006594  -0.065998
     9  C    0.081921  -0.041854
    10  C    0.007290  -0.003774
    11  C    0.003586   0.013891
    12  C    0.004264  -0.031242
    13  C   -0.003127  -0.002559
    14  H   -0.000379  -0.026074
    15  H    0.000290   0.001857
    16  H   -0.001068  -0.000385
    17  H    0.017521   0.000009
    18  H   -0.000551  -0.045463
    19  C    0.002519   0.028237
    20  H    0.006137  -0.012997
    21  H   -0.000714   0.006287
    22  C    0.047512   0.016493
    23  H    0.005321  -0.000093
    24  H    0.009767  -0.000832
    25  C    0.097975  -0.024134
    26  H   -0.082564  -0.001979
    27  C    0.771968   0.001394
    28  C   -0.050441  -0.001785
    29  H   -0.023931   0.000224
    30  C    0.151156   0.000266
    31  Cl   0.003386   0.000029
    32  C   -0.321865   0.000163
    33  Cl   0.005527  -0.000001
    34  C    0.987221  -0.000601
    35  H   -0.135195   0.000003
    36  C   -2.182233   0.000307
    37  H    2.335744  -0.000162
    38  H   -0.000162   0.671967
 Mulliken charges:
               1
     1  C    0.924200
     2  H   -0.150475
     3  H   -0.067885
     4  H   -0.115148
     5  N   -0.646044
     6  H    0.197442
     7  C    0.318358
     8  C   -0.143340
     9  C   -0.002670
    10  C    0.658085
    11  C    0.256793
    12  C    0.385051
    13  C    0.400100
    14  H   -0.701869
    15  H   -0.460850
    16  H   -0.475057
    17  H   -0.558515
    18  H   -0.241287
    19  C    0.757835
    20  H   -0.193620
    21  H   -0.078203
    22  C    0.991986
    23  H   -0.182871
    24  H   -0.226456
    25  C    0.070611
    26  H   -0.246128
    27  C    1.627966
    28  C    1.373310
    29  H   -0.727029
    30  C   -0.557716
    31  Cl  -0.337757
    32  C   -0.475966
    33  Cl  -0.330320
    34  C    0.611922
    35  H   -0.438783
    36  C    0.421715
    37  H   -0.755070
    38  H    0.117685
 Sum of Mulliken charges =   1.00000
 Mulliken charges with hydrogens summed into heavy atoms:
               1
     1  C    0.590692
     5  N   -0.330916
     7  C    0.077072
     8  C   -0.143340
     9  C   -0.002670
    10  C    0.099570
    11  C   -0.218264
    12  C   -0.075798
    13  C   -0.301769
    19  C    0.486011
    22  C    0.582659
    25  C   -0.175517
    27  C    1.627966
    28  C    0.646280
    30  C   -0.557716
    31  Cl  -0.337757
    32  C   -0.475966
    33  Cl  -0.330320
    34  C    0.173139
    36  C   -0.333355
 Electronic spatial extent (au):  <R**2>=           8439.9837
 Charge=              1.0000 electrons
 Dipole moment (field-independent basis, Debye):
    X=            -20.7352    Y=             -3.3413    Z=             -1.0988  Tot=             21.0314
 Quadrupole moment (field-independent basis, Debye-Ang):
   XX=            -33.8057   YY=           -112.5549   ZZ=           -124.7238
   XY=             13.2843   XZ=            -10.1969   YZ=             -0.1218
 Traceless Quadrupole moment (field-independent basis, Debye-Ang):
   XX=             56.5558   YY=            -22.1934   ZZ=            -34.3624
   XY=             13.2843   XZ=            -10.1969   YZ=             -0.1218
 Octapole moment (field-independent basis, Debye-Ang**2):
  XXX=           -561.1901  YYY=             19.3861  ZZZ=              7.1921  XYY=            -61.3970
  XXY=            -90.8028  XXZ=             17.5435  XZZ=             -6.2917  YZZ=            -14.8114
  YYZ=             -8.5940  XYZ=             11.3757
 Hexadecapole moment (field-independent basis, Debye-Ang**3):
 XXXX=          -5589.7618 YYYY=          -1517.1198 ZZZZ=           -864.1625 XXXY=            506.7705
 XXXZ=           -158.3192 YYYX=             32.5727 YYYZ=            -44.8443 ZZZX=            -22.9555
 ZZZY=             36.7918 XXYY=          -1478.9805 XXZZ=          -1481.0841 YYZZ=           -415.7830
 XXYZ=             25.5946 YYXZ=            -20.9309 ZZXY=             37.6297
 N-N= 1.738587190648D+03 E-N=-7.295423347982D+03  KE= 1.626857498374D+03
 Leave Link  601 at Mon Jul 12 18:13:36 2021, MaxMem=   262144000 cpu:               0.6 elap:               0.5
 (Enter /dades/curu/g16A03_MST/g16/l9999.exe)
 1\1\GINC-PIRINEUS13\SP\RMP2-FC\Aug-CC-pVDZ\C17H18Cl2N1(1+)\UBATOR02\12
 -Jul-2021\0\\#p mp2/aug-cc-pVDZ scf=tight maxdisk=180GB geom=allcheck\
 \SET_328_BBB2_conf1.geo_240_195 geometry\\1,1\C,0,2.4861763658,2.09669
 73362,-3.4573865829\H,0,3.185087118,1.8390454305,-4.2504170662\H,0,2.8
 252996804,2.9866637339,-2.930047218\H,0,1.4928945749,2.2557793679,-3.8
 704214435\N,0,2.4403149059,0.9569924937,-2.4845353653\H,0,2.118826338,
 0.1009814107,-2.9604785716\C,0,1.5714213924,1.2080095074,-1.2455824262
 \C,0,1.6821641146,0.0205475606,-0.3003360972\C,0,0.5460226915,-0.68425
 96791,0.1422799804\C,0,0.7298136266,-1.8098409669,0.9564829184\C,0,1.9
 969267368,-2.2185154019,1.3621724172\C,0,3.115314105,-1.4751245149,0.9
 829590705\C,0,2.9501091939,-0.3619261635,0.1656916616\H,0,3.828536907,
 0.224015105,-0.0865132886\H,0,4.1057154425,-1.7529231888,1.3252190075\
 H,0,2.1077268744,-3.0941144227,1.9925250204\H,0,-0.1441943315,-2.35761
 00968,1.2899988072\H,0,2.0235411997,2.0916302107,-0.7831806751\C,0,0.1
 438141789,1.523357067,-1.7079663061\H,0,-0.1184148341,0.8889508473,-2.
 5633352579\H,0,0.0807562124,2.5601119663,-2.0456352155\C,0,-0.86713993
 81,1.2608232569,-0.5965894286\H,0,-1.8639304578,1.5573172998,-0.931340
 9913\H,0,-0.6326685311,1.8682965452,0.2843619632\C,0,-0.8661599908,-0.
 2312664441,-0.2209191233\H,0,-1.1856398854,-0.7893514059,-1.1112275551
 \C,0,-1.8943453483,-0.5193764687,0.8607321295\C,0,-1.7600781835,0.0132
 618158,2.1475803178\H,0,-0.8930227743,0.6062673875,2.4131154721\C,0,-2
 .7299989992,-0.215640676,3.1202884578\Cl,0,-2.5033257355,0.4758330679,
 4.7091597822\C,0,-3.8589720769,-0.9872761962,2.8180738117\Cl,0,-5.0961
 021213,-1.2989031896,4.0101024319\C,0,-4.0001658807,-1.5220321835,1.53
 92440276\H,0,-4.8741029942,-2.11975397,1.3110239985\C,0,-3.0254569466,
 -1.2878057802,0.5724714196\H,0,-3.1471460801,-1.7086044146,-0.41993638
 78\H,0,3.4034034506,0.7427437528,-2.2006336949\\Version=ES64L-G16RevA.
 03\State=1-A\HF=-1627.5725916\MP2=-1630.3971412\RMSD=8.319e-09\PG=C01 
 [X(C17H18Cl2N1)]\\@


 I FIND THAT THE THREE TRULY GREAT TIMES FOR THINKING THOUGHTS
 ARE WHEN I AM STANDING IN THE SHOWER, SITTING ON THE JOHN, OR WALKING.

                                    -- COLIN FLETCHER
 Job cpu time:       0 days  5 hours 32 minutes  6.0 seconds.
 Elapsed time:       0 days  1 hours 37 minutes 48.4 seconds.
 File lengths (MBytes):  RWF= 133283 Int=      0 D2E=      0 Chk=     33 Scr=      1
 Normal termination of Gaussian 16 at Mon Jul 12 18:13:38 2021.
