 Entering Gaussian System, Link 0=g16
 Input=SET_328_BBB286_conf1.geo_000_090_OCTANOL.dat
 Output=SET_328_BBB286_conf1.geo_000_090_OCTANOL.log
 Initial command:
 /dades/curu/g16A03_MST/g16/l1.exe "/tmp/ubator02/1835294/Gau-2641.inp" -scrdir="/tmp/ubator02/1835294/"
 Entering Link 1 = /dades/curu/g16A03_MST/g16/l1.exe PID=      2652.
  
 Copyright (c) 1988,1990,1992,1993,1995,1998,2003,2009,2016,
            Gaussian, Inc.  All Rights Reserved.
  
 This is part of the Gaussian(R) 16 program.  It is based on
 the Gaussian(R) 09 system (copyright 2009, Gaussian, Inc.),
 the Gaussian(R) 03 system (copyright 2003, Gaussian, Inc.),
 the Gaussian(R) 98 system (copyright 1998, Gaussian, Inc.),
 the Gaussian(R) 94 system (copyright 1995, Gaussian, Inc.),
 the Gaussian 92(TM) system (copyright 1992, Gaussian, Inc.),
 the Gaussian 90(TM) system (copyright 1990, Gaussian, Inc.),
 the Gaussian 88(TM) system (copyright 1988, Gaussian, Inc.),
 the Gaussian 86(TM) system (copyright 1986, Carnegie Mellon
 University), and the Gaussian 82(TM) system (copyright 1983,
 Carnegie Mellon University). Gaussian is a federally registered
 trademark of Gaussian, Inc.
  
 This software contains proprietary and confidential information,
 including trade secrets, belonging to Gaussian, Inc.
  
 This software is provided under written license and may be
 used, copied, transmitted, or stored only in accord with that
 written license.
  
 The following legend is applicable only to US Government
 contracts under FAR:
  
                    RESTRICTED RIGHTS LEGEND
  
 Use, reproduction and disclosure by the US Government is
 subject to restrictions as set forth in subparagraphs (a)
 and (c) of the Commercial Computer Software - Restricted
 Rights clause in FAR 52.227-19.
  
 Gaussian, Inc.
 340 Quinnipiac St., Bldg. 40, Wallingford CT 06492
  
  
 ---------------------------------------------------------------
 Warning -- This program may not be used in any manner that
 competes with the business of Gaussian, Inc. or will provide
 assistance to any competitor of Gaussian, Inc.  The licensee
 of this program is prohibited from giving any competitor of
 Gaussian, Inc. access to this program.  By using this program,
 the user acknowledges that Gaussian, Inc. is engaged in the
 business of creating and licensing software in the field of
 computational chemistry and represents and warrants to the
 licensee that it is not a competitor of Gaussian, Inc. and that
 it will not use this program in any manner prohibited above.
 ---------------------------------------------------------------
  

 Cite this work as:
 Gaussian 16, Revision A.03,
 M. J. Frisch, G. W. Trucks, H. B. Schlegel, G. E. Scuseria, 
 M. A. Robb, J. R. Cheeseman, G. Scalmani, V. Barone, 
 G. A. Petersson, H. Nakatsuji, X. Li, M. Caricato, A. V. Marenich, 
 J. Bloino, B. G. Janesko, R. Gomperts, B. Mennucci, H. P. Hratchian, 
 J. V. Ortiz, A. F. Izmaylov, J. L. Sonnenberg, D. Williams-Young, 
 F. Ding, F. Lipparini, F. Egidi, J. Goings, B. Peng, A. Petrone, 
 T. Henderson, D. Ranasinghe, V. G. Zakrzewski, J. Gao, N. Rega, 
 G. Zheng, W. Liang, M. Hada, M. Ehara, K. Toyota, R. Fukuda, 
 J. Hasegawa, M. Ishida, T. Nakajima, Y. Honda, O. Kitao, H. Nakai, 
 T. Vreven, K. Throssell, J. A. Montgomery, Jr., J. E. Peralta, 
 F. Ogliaro, M. J. Bearpark, J. J. Heyd, E. N. Brothers, K. N. Kudin, 
 V. N. Staroverov, T. A. Keith, R. Kobayashi, J. Normand, 
 K. Raghavachari, A. P. Rendell, J. C. Burant, S. S. Iyengar, 
 J. Tomasi, M. Cossi, J. M. Millam, M. Klene, C. Adamo, R. Cammi, 
 J. W. Ochterski, R. L. Martin, K. Morokuma, O. Farkas, 
 J. B. Foresman, and D. J. Fox, Gaussian, Inc., Wallingford CT, 2016.
 
 ******************************************
 Gaussian 16:  ES64L-G16RevA.03 25-Dec-2016
                12-Jul-2021 
 ******************************************
 %mem=800MB
 %nproc=4
 Will use up to    4 processors via shared memory.
 %chk=SET_328_BBB286_conf1.geo_000_090.chk
 ---------------------------------------------------------------
 #p b3lyp/6-31G(d) opt freq scrf=(iefpcm,read,solvent=n-octanol)
 ---------------------------------------------------------------
 1/18=20,19=15,26=3,38=1,40=2/1,3;
 2/9=110,12=2,17=6,18=5,40=1/2;
 3/5=1,6=6,7=1,11=2,25=1,30=1,70=2203,71=1,72=25,74=-5/1,2,3;
 4//1;
 5/5=2,38=5,53=25/2;
 6/7=2,8=2,9=2,10=2,28=1/1;
 7//1,2,3,16;
 1/18=20,19=15,26=3/3(2);
 2/9=110/2;
 99//99;
 2/9=110/2;
 3/5=1,6=6,7=1,11=2,25=1,30=1,70=2205,71=1,72=25,74=-5/1,2,3;
 4/5=5,16=3,69=1/1;
 5/5=2,38=5,53=25/2;
 7//1,2,3,16;
 1/18=20,19=15,26=3/3(-5);
 2/9=110/2;
 6/7=2,8=2,9=2,10=2,19=2,28=1/1;
 99/9=1/99;
 Leave Link    1 at Mon Jul 12 12:44:38 2021, MaxMem=   104857600 cpu:               0.0 elap:               0.0
 (Enter /dades/curu/g16A03_MST/g16/l101.exe)
 -----------------------------------------
 SET_328_BBB286_conf1.geo_000_090 geometry
 -----------------------------------------
 Symbolic Z-matrix:
 Charge =  1 Multiplicity = 1
 C                    -2.407     3.3      -2.276 
 H                    -2.61      4.237    -1.753 
 H                    -3.068     2.475    -2. 
 H                    -2.496     3.473    -3.352 
 N                    -1.082     2.935    -1.87 
 C                     0.014     3.684    -2.163 
 C                     1.081     3.026    -1.68 
 C                     2.38      3.554    -1.647 
 C                     2.477     4.767    -2.236 
 C                     1.357     5.428    -2.777 
 C                     0.079     4.905    -2.768 
 H                    -0.808     5.392    -3.164 
 H                     1.426     6.37     -3.315 
 H                     3.433     5.281    -2.282 
 H                     3.263     2.974    -1.392 
 N                    -0.817     1.798    -1.234 
 C                     0.516     1.908    -1.013 
 C                     1.396     0.85     -0.391 
 O                     2.623     0.792    -0.332 
 N                     0.688    -0.263    -0.063 
 H                    -0.3      -0.16     -0.244 
 C                     1.155    -1.508     0.508 
 C                     0.454    -2.735    -0.154 
 H                     0.215    -2.538    -1.201 
 H                     1.215    -3.518    -0.138 
 H                     2.167    -1.551     0.095 
 C                     1.152    -1.554     2.058 
 H                     1.254    -0.571     2.523 
 H                     2.046    -2.091     2.383 
 C                    -0.059    -2.287     2.644 
 H                     0.277    -2.526     3.656 
 C                    -1.368    -1.465     2.695 
 H                    -1.134    -0.43      2.951 
 H                    -2.021    -1.861     3.475 
 C                    -2.093    -1.342     1.35 
 H                    -1.569    -0.579     0.771 
 H                    -3.07     -0.887     1.526 
 C                    -2.15     -2.65      0.502 
 H                    -2.541    -2.553    -0.513 
 H                    -2.782    -3.43      0.932 
 C                    -0.737    -3.467     0.588 
 H                    -0.877    -4.406     0.047 
 N                    -0.301    -3.605     1.998 
 C                     0.703    -4.625     2.293 
 H                     1.686    -4.161     2.18 
 H                     0.55     -5.337     1.478 
 H                     0.686    -5.047     3.301 
 H                    -1.119    -3.947     2.461 
 
 ITRead=  0  0  0  0  0  0  0  0  0  0  0  0  0  0  0  0  0  0  0  0
 ITRead=  0  0  0  0  0  0  0  0  0  0  0  0  0  0  0  0  0  0  0  0
 ITRead=  0  0  0  0  0  0  0  0
 MicOpt= -1 -1 -1 -1 -1 -1 -1 -1 -1 -1 -1 -1 -1 -1 -1 -1 -1 -1 -1 -1
 MicOpt= -1 -1 -1 -1 -1 -1 -1 -1 -1 -1 -1 -1 -1 -1 -1 -1 -1 -1 -1 -1
 MicOpt= -1 -1 -1 -1 -1 -1 -1 -1
 NAtoms=     48 NQM=       48 NQMF=       0 NMMI=      0 NMMIF=      0
                NMic=       0 NMicF=      0.
                    Isotopes and Nuclear Properties:
 (Nuclear quadrupole moments (NQMom) in fm**2, nuclear magnetic moments (NMagM)
  in nuclear magnetons)

  Atom         1           2           3           4           5           6           7           8           9          10
 IAtWgt=          12           1           1           1          14          12          12          12          12          12
 AtmWgt=  12.0000000   1.0078250   1.0078250   1.0078250  14.0030740  12.0000000  12.0000000  12.0000000  12.0000000  12.0000000
 NucSpn=           0           1           1           1           2           0           0           0           0           0
 AtZEff=  -0.0000000  -0.0000000  -0.0000000  -0.0000000  -0.0000000  -0.0000000  -0.0000000  -0.0000000  -0.0000000  -0.0000000
 NQMom=    0.0000000   0.0000000   0.0000000   0.0000000   2.0440000   0.0000000   0.0000000   0.0000000   0.0000000   0.0000000
 NMagM=    0.0000000   2.7928460   2.7928460   2.7928460   0.4037610   0.0000000   0.0000000   0.0000000   0.0000000   0.0000000
 AtZNuc=   6.0000000   1.0000000   1.0000000   1.0000000   7.0000000   6.0000000   6.0000000   6.0000000   6.0000000   6.0000000

  Atom        11          12          13          14          15          16          17          18          19          20
 IAtWgt=          12           1           1           1           1          14          12          12          16          14
 AtmWgt=  12.0000000   1.0078250   1.0078250   1.0078250   1.0078250  14.0030740  12.0000000  12.0000000  15.9949146  14.0030740
 NucSpn=           0           1           1           1           1           2           0           0           0           2
 AtZEff=  -0.0000000  -0.0000000  -0.0000000  -0.0000000  -0.0000000  -0.0000000  -0.0000000  -0.0000000  -0.0000000  -0.0000000
 NQMom=    0.0000000   0.0000000   0.0000000   0.0000000   0.0000000   2.0440000   0.0000000   0.0000000   0.0000000   2.0440000
 NMagM=    0.0000000   2.7928460   2.7928460   2.7928460   2.7928460   0.4037610   0.0000000   0.0000000   0.0000000   0.4037610
 AtZNuc=   6.0000000   1.0000000   1.0000000   1.0000000   1.0000000   7.0000000   6.0000000   6.0000000   8.0000000   7.0000000

  Atom        21          22          23          24          25          26          27          28          29          30
 IAtWgt=           1          12          12           1           1           1          12           1           1          12
 AtmWgt=   1.0078250  12.0000000  12.0000000   1.0078250   1.0078250   1.0078250  12.0000000   1.0078250   1.0078250  12.0000000
 NucSpn=           1           0           0           1           1           1           0           1           1           0
 AtZEff=  -0.0000000  -0.0000000  -0.0000000  -0.0000000  -0.0000000  -0.0000000  -0.0000000  -0.0000000  -0.0000000  -0.0000000
 NQMom=    0.0000000   0.0000000   0.0000000   0.0000000   0.0000000   0.0000000   0.0000000   0.0000000   0.0000000   0.0000000
 NMagM=    2.7928460   0.0000000   0.0000000   2.7928460   2.7928460   2.7928460   0.0000000   2.7928460   2.7928460   0.0000000
 AtZNuc=   1.0000000   6.0000000   6.0000000   1.0000000   1.0000000   1.0000000   6.0000000   1.0000000   1.0000000   6.0000000

  Atom        31          32          33          34          35          36          37          38          39          40
 IAtWgt=           1          12           1           1          12           1           1          12           1           1
 AtmWgt=   1.0078250  12.0000000   1.0078250   1.0078250  12.0000000   1.0078250   1.0078250  12.0000000   1.0078250   1.0078250
 NucSpn=           1           0           1           1           0           1           1           0           1           1
 AtZEff=  -0.0000000  -0.0000000  -0.0000000  -0.0000000  -0.0000000  -0.0000000  -0.0000000  -0.0000000  -0.0000000  -0.0000000
 NQMom=    0.0000000   0.0000000   0.0000000   0.0000000   0.0000000   0.0000000   0.0000000   0.0000000   0.0000000   0.0000000
 NMagM=    2.7928460   0.0000000   2.7928460   2.7928460   0.0000000   2.7928460   2.7928460   0.0000000   2.7928460   2.7928460
 AtZNuc=   1.0000000   6.0000000   1.0000000   1.0000000   6.0000000   1.0000000   1.0000000   6.0000000   1.0000000   1.0000000

  Atom        41          42          43          44          45          46          47          48
 IAtWgt=          12           1          14          12           1           1           1           1
 AtmWgt=  12.0000000   1.0078250  14.0030740  12.0000000   1.0078250   1.0078250   1.0078250   1.0078250
 NucSpn=           0           1           2           0           1           1           1           1
 AtZEff=  -0.0000000  -0.0000000  -0.0000000  -0.0000000  -0.0000000  -0.0000000  -0.0000000  -0.0000000
 NQMom=    0.0000000   0.0000000   2.0440000   0.0000000   0.0000000   0.0000000   0.0000000   0.0000000
 NMagM=    0.0000000   2.7928460   0.4037610   0.0000000   2.7928460   2.7928460   2.7928460   2.7928460
 AtZNuc=   6.0000000   1.0000000   7.0000000   6.0000000   1.0000000   1.0000000   1.0000000   1.0000000
 Leave Link  101 at Mon Jul 12 12:44:39 2021, MaxMem=   104857600 cpu:               0.1 elap:               0.2
 (Enter /dades/curu/g16A03_MST/g16/l103.exe)

 GradGradGradGradGradGradGradGradGradGradGradGradGradGradGradGradGradGrad
 Berny optimization.
 Initialization pass.
                           ----------------------------
                           !    Initial Parameters    !
                           ! (Angstroms and Degrees)  !
 --------------------------                            --------------------------
 ! Name  Definition              Value          Derivative Info.                !
 --------------------------------------------------------------------------------
 ! R1    R(1,2)                  1.0921         estimate D2E/DX2                !
 ! R2    R(1,3)                  1.0926         estimate D2E/DX2                !
 ! R3    R(1,4)                  1.0934         estimate D2E/DX2                !
 ! R4    R(1,5)                  1.4331         estimate D2E/DX2                !
 ! R5    R(5,6)                  1.3594         estimate D2E/DX2                !
 ! R6    R(5,16)                 1.3295         estimate D2E/DX2                !
 ! R7    R(6,7)                  1.3434         estimate D2E/DX2                !
 ! R8    R(6,11)                 1.3642         estimate D2E/DX2                !
 ! R9    R(7,8)                  1.4026         estimate D2E/DX2                !
 ! R10   R(7,17)                 1.4192         estimate D2E/DX2                !
 ! R11   R(8,9)                  1.3519         estimate D2E/DX2                !
 ! R12   R(8,15)                 1.0868         estimate D2E/DX2                !
 ! R13   R(9,10)                 1.4085         estimate D2E/DX2                !
 ! R14   R(9,14)                 1.0864         estimate D2E/DX2                !
 ! R15   R(10,11)                1.3809         estimate D2E/DX2                !
 ! R16   R(10,13)                1.087          estimate D2E/DX2                !
 ! R17   R(11,12)                1.0866         estimate D2E/DX2                !
 ! R18   R(16,17)                1.3557         estimate D2E/DX2                !
 ! R19   R(17,18)                1.5102         estimate D2E/DX2                !
 ! R20   R(18,19)                1.2298         estimate D2E/DX2                !
 ! R21   R(18,20)                1.3593         estimate D2E/DX2                !
 ! R22   R(20,21)                1.0097         estimate D2E/DX2                !
 ! R23   R(20,22)                1.4471         estimate D2E/DX2                !
 ! R24   R(22,23)                1.5605         estimate D2E/DX2                !
 ! R25   R(22,26)                1.0939         estimate D2E/DX2                !
 ! R26   R(22,27)                1.5507         estimate D2E/DX2                !
 ! R27   R(23,24)                1.0919         estimate D2E/DX2                !
 ! R28   R(23,25)                1.092          estimate D2E/DX2                !
 ! R29   R(23,41)                1.5827         estimate D2E/DX2                !
 ! R30   R(27,28)                1.0922         estimate D2E/DX2                !
 ! R31   R(27,29)                1.0924         estimate D2E/DX2                !
 ! R32   R(27,30)                1.5321         estimate D2E/DX2                !
 ! R33   R(30,31)                1.0928         estimate D2E/DX2                !
 ! R34   R(30,32)                1.5465         estimate D2E/DX2                !
 ! R35   R(30,43)                1.4876         estimate D2E/DX2                !
 ! R36   R(32,33)                1.0916         estimate D2E/DX2                !
 ! R37   R(32,34)                1.0916         estimate D2E/DX2                !
 ! R38   R(32,35)                1.5329         estimate D2E/DX2                !
 ! R39   R(35,36)                1.0918         estimate D2E/DX2                !
 ! R40   R(35,37)                1.092          estimate D2E/DX2                !
 ! R41   R(35,38)                1.5599         estimate D2E/DX2                !
 ! R42   R(38,39)                1.092          estimate D2E/DX2                !
 ! R43   R(38,40)                1.0921         estimate D2E/DX2                !
 ! R44   R(38,41)                1.6345         estimate D2E/DX2                !
 ! R45   R(41,42)                1.0927         estimate D2E/DX2                !
 ! R46   R(41,43)                1.4823         estimate D2E/DX2                !
 ! R47   R(43,44)                1.4613         estimate D2E/DX2                !
 ! R48   R(43,48)                1.0002         estimate D2E/DX2                !
 ! R49   R(44,45)                1.0929         estimate D2E/DX2                !
 ! R50   R(44,46)                1.093          estimate D2E/DX2                !
 ! R51   R(44,47)                1.0929         estimate D2E/DX2                !
 ! A1    A(2,1,3)              114.4829         estimate D2E/DX2                !
 ! A2    A(2,1,4)              108.6856         estimate D2E/DX2                !
 ! A3    A(2,1,5)              104.7565         estimate D2E/DX2                !
 ! A4    A(3,1,4)              108.5909         estimate D2E/DX2                !
 ! A5    A(3,1,5)              107.1863         estimate D2E/DX2                !
 ! A6    A(4,1,5)              113.2249         estimate D2E/DX2                !
 ! A7    A(1,5,6)              122.9583         estimate D2E/DX2                !
 ! A8    A(1,5,16)             122.5239         estimate D2E/DX2                !
 ! A9    A(6,5,16)             114.4315         estimate D2E/DX2                !
 ! A10   A(5,6,7)              107.0367         estimate D2E/DX2                !
 ! A11   A(5,6,11)             128.8379         estimate D2E/DX2                !
 ! A12   A(7,6,11)             124.0545         estimate D2E/DX2                !
 ! A13   A(6,7,8)              124.0325         estimate D2E/DX2                !
 ! A14   A(6,7,17)             103.8056         estimate D2E/DX2                !
 ! A15   A(8,7,17)             130.8602         estimate D2E/DX2                !
 ! A16   A(7,8,9)              113.2012         estimate D2E/DX2                !
 ! A17   A(7,8,15)             123.855          estimate D2E/DX2                !
 ! A18   A(9,8,15)             121.5182         estimate D2E/DX2                !
 ! A19   A(8,9,10)             122.096          estimate D2E/DX2                !
 ! A20   A(8,9,14)             120.4039         estimate D2E/DX2                !
 ! A21   A(10,9,14)            117.4788         estimate D2E/DX2                !
 ! A22   A(9,10,11)            123.7559         estimate D2E/DX2                !
 ! A23   A(9,10,13)            123.1138         estimate D2E/DX2                !
 ! A24   A(11,10,13)           112.9663         estimate D2E/DX2                !
 ! A25   A(6,11,10)            112.7035         estimate D2E/DX2                !
 ! A26   A(6,11,12)            121.5909         estimate D2E/DX2                !
 ! A27   A(10,11,12)           125.6861         estimate D2E/DX2                !
 ! A28   A(5,16,17)            101.8053         estimate D2E/DX2                !
 ! A29   A(7,17,16)            112.2574         estimate D2E/DX2                !
 ! A30   A(7,17,18)            120.8968         estimate D2E/DX2                !
 ! A31   A(16,17,18)           125.6806         estimate D2E/DX2                !
 ! A32   A(17,18,19)           129.3601         estimate D2E/DX2                !
 ! A33   A(17,18,20)           111.686          estimate D2E/DX2                !
 ! A34   A(19,18,20)           118.0014         estimate D2E/DX2                !
 ! A35   A(18,20,21)           112.5125         estimate D2E/DX2                !
 ! A36   A(18,20,22)           129.1669         estimate D2E/DX2                !
 ! A37   A(21,20,22)           118.3115         estimate D2E/DX2                !
 ! A38   A(20,22,23)           111.3528         estimate D2E/DX2                !
 ! A39   A(20,22,26)           100.5679         estimate D2E/DX2                !
 ! A40   A(20,22,27)           114.7904         estimate D2E/DX2                !
 ! A41   A(23,22,26)           102.9743         estimate D2E/DX2                !
 ! A42   A(23,22,27)           113.5682         estimate D2E/DX2                !
 ! A43   A(26,22,27)           112.2107         estimate D2E/DX2                !
 ! A44   A(22,23,24)           111.3005         estimate D2E/DX2                !
 ! A45   A(22,23,25)           104.1538         estimate D2E/DX2                !
 ! A46   A(22,23,41)           120.1867         estimate D2E/DX2                !
 ! A47   A(24,23,25)           107.2155         estimate D2E/DX2                !
 ! A48   A(24,23,41)           111.6104         estimate D2E/DX2                !
 ! A49   A(25,23,41)           100.7148         estimate D2E/DX2                !
 ! A50   A(22,27,28)           113.4954         estimate D2E/DX2                !
 ! A51   A(22,27,29)           108.0828         estimate D2E/DX2                !
 ! A52   A(22,27,30)           113.456          estimate D2E/DX2                !
 ! A53   A(28,27,29)           103.848          estimate D2E/DX2                !
 ! A54   A(28,27,30)           109.973          estimate D2E/DX2                !
 ! A55   A(29,27,30)           107.332          estimate D2E/DX2                !
 ! A56   A(27,30,31)           102.4635         estimate D2E/DX2                !
 ! A57   A(27,30,32)           115.2996         estimate D2E/DX2                !
 ! A58   A(27,30,43)           112.7293         estimate D2E/DX2                !
 ! A59   A(31,30,32)           110.2401         estimate D2E/DX2                !
 ! A60   A(31,30,43)           104.9751         estimate D2E/DX2                !
 ! A61   A(32,30,43)           110.3368         estimate D2E/DX2                !
 ! A62   A(30,32,33)           109.2843         estimate D2E/DX2                !
 ! A63   A(30,32,34)           109.6983         estimate D2E/DX2                !
 ! A64   A(30,32,35)           114.4583         estimate D2E/DX2                !
 ! A65   A(33,32,34)           107.7356         estimate D2E/DX2                !
 ! A66   A(33,32,35)           103.3609         estimate D2E/DX2                !
 ! A67   A(34,32,35)           111.9092         estimate D2E/DX2                !
 ! A68   A(32,35,36)           107.1215         estimate D2E/DX2                !
 ! A69   A(32,35,37)           108.3705         estimate D2E/DX2                !
 ! A70   A(32,35,38)           115.277          estimate D2E/DX2                !
 ! A71   A(36,35,37)           102.9254         estimate D2E/DX2                !
 ! A72   A(36,35,38)           108.3757         estimate D2E/DX2                !
 ! A73   A(37,35,38)           113.8473         estimate D2E/DX2                !
 ! A74   A(35,38,39)           116.3523         estimate D2E/DX2                !
 ! A75   A(35,38,40)           113.9528         estimate D2E/DX2                !
 ! A76   A(35,38,41)           111.0358         estimate D2E/DX2                !
 ! A77   A(39,38,40)           102.8382         estimate D2E/DX2                !
 ! A78   A(39,38,41)           113.7561         estimate D2E/DX2                !
 ! A79   A(40,38,41)            97.04           estimate D2E/DX2                !
 ! A80   A(23,41,38)           113.2475         estimate D2E/DX2                !
 ! A81   A(23,41,42)           105.1738         estimate D2E/DX2                !
 ! A82   A(23,41,43)           105.5257         estimate D2E/DX2                !
 ! A83   A(38,41,42)           107.0217         estimate D2E/DX2                !
 ! A84   A(38,41,43)           110.5404         estimate D2E/DX2                !
 ! A85   A(42,41,43)           115.3809         estimate D2E/DX2                !
 ! A86   A(30,43,41)           112.2367         estimate D2E/DX2                !
 ! A87   A(30,43,44)           114.7705         estimate D2E/DX2                !
 ! A88   A(30,43,48)           103.5894         estimate D2E/DX2                !
 ! A89   A(41,43,44)           117.3287         estimate D2E/DX2                !
 ! A90   A(41,43,48)           103.3912         estimate D2E/DX2                !
 ! A91   A(44,43,48)           103.2837         estimate D2E/DX2                !
 ! A92   A(43,44,45)           107.5032         estimate D2E/DX2                !
 ! A93   A(43,44,46)           102.0049         estimate D2E/DX2                !
 ! A94   A(43,44,47)           116.4247         estimate D2E/DX2                !
 ! A95   A(45,44,46)           108.9894         estimate D2E/DX2                !
 ! A96   A(45,44,47)           105.8605         estimate D2E/DX2                !
 ! A97   A(46,44,47)           115.7237         estimate D2E/DX2                !
 ! D1    D(2,1,5,6)            -63.8021         estimate D2E/DX2                !
 ! D2    D(2,1,5,16)           119.7644         estimate D2E/DX2                !
 ! D3    D(3,1,5,6)            174.1888         estimate D2E/DX2                !
 ! D4    D(3,1,5,16)            -2.2447         estimate D2E/DX2                !
 ! D5    D(4,1,5,6)             54.4626         estimate D2E/DX2                !
 ! D6    D(4,1,5,16)          -121.9709         estimate D2E/DX2                !
 ! D7    D(1,5,6,7)           -177.6513         estimate D2E/DX2                !
 ! D8    D(1,5,6,11)             5.3541         estimate D2E/DX2                !
 ! D9    D(16,5,6,7)            -0.9539         estimate D2E/DX2                !
 ! D10   D(16,5,6,11)         -177.9485         estimate D2E/DX2                !
 ! D11   D(1,5,16,17)         -177.6737         estimate D2E/DX2                !
 ! D12   D(6,5,16,17)            5.6129         estimate D2E/DX2                !
 ! D13   D(5,6,7,8)           -172.2058         estimate D2E/DX2                !
 ! D14   D(5,6,7,17)            -4.0077         estimate D2E/DX2                !
 ! D15   D(11,6,7,8)             4.9688         estimate D2E/DX2                !
 ! D16   D(11,6,7,17)          173.1668         estimate D2E/DX2                !
 ! D17   D(5,6,11,10)          173.6569         estimate D2E/DX2                !
 ! D18   D(5,6,11,12)           -4.822          estimate D2E/DX2                !
 ! D19   D(7,6,11,10)           -2.8742         estimate D2E/DX2                !
 ! D20   D(7,6,11,12)          178.6469         estimate D2E/DX2                !
 ! D21   D(6,7,8,9)             -4.2492         estimate D2E/DX2                !
 ! D22   D(6,7,8,15)          -170.7631         estimate D2E/DX2                !
 ! D23   D(17,7,8,9)          -169.0237         estimate D2E/DX2                !
 ! D24   D(17,7,8,15)           24.4624         estimate D2E/DX2                !
 ! D25   D(6,7,17,16)            7.9012         estimate D2E/DX2                !
 ! D26   D(6,7,17,18)          176.2376         estimate D2E/DX2                !
 ! D27   D(8,7,17,16)          174.9505         estimate D2E/DX2                !
 ! D28   D(8,7,17,18)          -16.7131         estimate D2E/DX2                !
 ! D29   D(7,8,9,10)             2.1014         estimate D2E/DX2                !
 ! D30   D(7,8,9,14)          -179.6214         estimate D2E/DX2                !
 ! D31   D(15,8,9,10)          168.97           estimate D2E/DX2                !
 ! D32   D(15,8,9,14)          -12.7529         estimate D2E/DX2                !
 ! D33   D(8,9,10,11)           -0.5739         estimate D2E/DX2                !
 ! D34   D(8,9,10,13)         -175.5889         estimate D2E/DX2                !
 ! D35   D(14,9,10,11)        -178.899          estimate D2E/DX2                !
 ! D36   D(14,9,10,13)           6.086          estimate D2E/DX2                !
 ! D37   D(9,10,11,6)            0.7591         estimate D2E/DX2                !
 ! D38   D(9,10,11,12)         179.1638         estimate D2E/DX2                !
 ! D39   D(13,10,11,6)         176.2253         estimate D2E/DX2                !
 ! D40   D(13,10,11,12)         -5.37           estimate D2E/DX2                !
 ! D41   D(5,16,17,7)           -8.1755         estimate D2E/DX2                !
 ! D42   D(5,16,17,18)        -175.844          estimate D2E/DX2                !
 ! D43   D(7,17,18,19)           1.6881         estimate D2E/DX2                !
 ! D44   D(7,17,18,20)        -166.7362         estimate D2E/DX2                !
 ! D45   D(16,17,18,19)        168.371          estimate D2E/DX2                !
 ! D46   D(16,17,18,20)         -0.0534         estimate D2E/DX2                !
 ! D47   D(17,18,20,21)         -3.33           estimate D2E/DX2                !
 ! D48   D(17,18,20,22)        177.8072         estimate D2E/DX2                !
 ! D49   D(19,18,20,21)       -173.2096         estimate D2E/DX2                !
 ! D50   D(19,18,20,22)          7.9275         estimate D2E/DX2                !
 ! D51   D(18,20,22,23)       -139.0614         estimate D2E/DX2                !
 ! D52   D(18,20,22,26)        -30.5099         estimate D2E/DX2                !
 ! D53   D(18,20,22,27)         90.1364         estimate D2E/DX2                !
 ! D54   D(21,20,22,23)         42.1318         estimate D2E/DX2                !
 ! D55   D(21,20,22,26)        150.6834         estimate D2E/DX2                !
 ! D56   D(21,20,22,27)        -88.6704         estimate D2E/DX2                !
 ! D57   D(20,22,23,24)         31.9225         estimate D2E/DX2                !
 ! D58   D(20,22,23,25)        147.1324         estimate D2E/DX2                !
 ! D59   D(20,22,23,41)       -101.2435         estimate D2E/DX2                !
 ! D60   D(26,22,23,24)        -75.0641         estimate D2E/DX2                !
 ! D61   D(26,22,23,25)         40.1458         estimate D2E/DX2                !
 ! D62   D(26,22,23,41)        151.7699         estimate D2E/DX2                !
 ! D63   D(27,22,23,24)        163.3534         estimate D2E/DX2                !
 ! D64   D(27,22,23,25)        -81.4367         estimate D2E/DX2                !
 ! D65   D(27,22,23,41)         30.1874         estimate D2E/DX2                !
 ! D66   D(20,22,27,28)        -26.77           estimate D2E/DX2                !
 ! D67   D(20,22,27,29)       -141.383          estimate D2E/DX2                !
 ! D68   D(20,22,27,30)         99.7163         estimate D2E/DX2                !
 ! D69   D(23,22,27,28)       -156.4907         estimate D2E/DX2                !
 ! D70   D(23,22,27,29)         88.8962         estimate D2E/DX2                !
 ! D71   D(23,22,27,30)        -30.0044         estimate D2E/DX2                !
 ! D72   D(26,22,27,28)         87.2333         estimate D2E/DX2                !
 ! D73   D(26,22,27,29)        -27.3797         estimate D2E/DX2                !
 ! D74   D(26,22,27,30)       -146.2803         estimate D2E/DX2                !
 ! D75   D(22,23,41,38)         76.8394         estimate D2E/DX2                !
 ! D76   D(22,23,41,42)       -166.6339         estimate D2E/DX2                !
 ! D77   D(22,23,41,43)        -44.2033         estimate D2E/DX2                !
 ! D78   D(24,23,41,38)        -56.1964         estimate D2E/DX2                !
 ! D79   D(24,23,41,42)         60.3303         estimate D2E/DX2                !
 ! D80   D(24,23,41,43)       -177.2391         estimate D2E/DX2                !
 ! D81   D(25,23,41,38)       -169.7089         estimate D2E/DX2                !
 ! D82   D(25,23,41,42)        -53.1822         estimate D2E/DX2                !
 ! D83   D(25,23,41,43)         69.2484         estimate D2E/DX2                !
 ! D84   D(22,27,30,31)        160.749          estimate D2E/DX2                !
 ! D85   D(22,27,30,32)        -79.4909         estimate D2E/DX2                !
 ! D86   D(22,27,30,43)         48.4458         estimate D2E/DX2                !
 ! D87   D(28,27,30,31)        -70.928          estimate D2E/DX2                !
 ! D88   D(28,27,30,32)         48.8322         estimate D2E/DX2                !
 ! D89   D(28,27,30,43)        176.7688         estimate D2E/DX2                !
 ! D90   D(29,27,30,31)         41.4179         estimate D2E/DX2                !
 ! D91   D(29,27,30,32)        161.1781         estimate D2E/DX2                !
 ! D92   D(29,27,30,43)        -70.8853         estimate D2E/DX2                !
 ! D93   D(27,30,32,33)        -37.7736         estimate D2E/DX2                !
 ! D94   D(27,30,32,34)       -155.682          estimate D2E/DX2                !
 ! D95   D(27,30,32,35)         77.5736         estimate D2E/DX2                !
 ! D96   D(31,30,32,33)         77.6125         estimate D2E/DX2                !
 ! D97   D(31,30,32,34)        -40.2959         estimate D2E/DX2                !
 ! D98   D(31,30,32,35)       -167.0402         estimate D2E/DX2                !
 ! D99   D(43,30,32,33)       -166.8959         estimate D2E/DX2                !
 ! D100  D(43,30,32,34)         75.1957         estimate D2E/DX2                !
 ! D101  D(43,30,32,35)        -51.5487         estimate D2E/DX2                !
 ! D102  D(27,30,43,41)        -67.835          estimate D2E/DX2                !
 ! D103  D(27,30,43,44)         69.4634         estimate D2E/DX2                !
 ! D104  D(27,30,43,48)       -178.7045         estimate D2E/DX2                !
 ! D105  D(31,30,43,41)       -178.5835         estimate D2E/DX2                !
 ! D106  D(31,30,43,44)        -41.2852         estimate D2E/DX2                !
 ! D107  D(31,30,43,48)         70.5469         estimate D2E/DX2                !
 ! D108  D(32,30,43,41)         62.6615         estimate D2E/DX2                !
 ! D109  D(32,30,43,44)       -160.0402         estimate D2E/DX2                !
 ! D110  D(32,30,43,48)        -48.208          estimate D2E/DX2                !
 ! D111  D(30,32,35,36)        -78.4511         estimate D2E/DX2                !
 ! D112  D(30,32,35,37)        171.1275         estimate D2E/DX2                !
 ! D113  D(30,32,35,38)         42.2299         estimate D2E/DX2                !
 ! D114  D(33,32,35,36)         40.2957         estimate D2E/DX2                !
 ! D115  D(33,32,35,37)        -70.1257         estimate D2E/DX2                !
 ! D116  D(33,32,35,38)        160.9767         estimate D2E/DX2                !
 ! D117  D(34,32,35,36)        155.9536         estimate D2E/DX2                !
 ! D118  D(34,32,35,37)         45.5322         estimate D2E/DX2                !
 ! D119  D(34,32,35,38)        -83.3654         estimate D2E/DX2                !
 ! D120  D(32,35,38,39)       -172.0349         estimate D2E/DX2                !
 ! D121  D(32,35,38,40)         68.5327         estimate D2E/DX2                !
 ! D122  D(32,35,38,41)        -39.8001         estimate D2E/DX2                !
 ! D123  D(36,35,38,39)        -52.0399         estimate D2E/DX2                !
 ! D124  D(36,35,38,40)       -171.4723         estimate D2E/DX2                !
 ! D125  D(36,35,38,41)         80.1949         estimate D2E/DX2                !
 ! D126  D(37,35,38,39)         61.8225         estimate D2E/DX2                !
 ! D127  D(37,35,38,40)        -57.61           estimate D2E/DX2                !
 ! D128  D(37,35,38,41)       -165.9427         estimate D2E/DX2                !
 ! D129  D(35,38,41,23)        -69.3712         estimate D2E/DX2                !
 ! D130  D(35,38,41,42)        175.1966         estimate D2E/DX2                !
 ! D131  D(35,38,41,43)         48.797          estimate D2E/DX2                !
 ! D132  D(39,38,41,23)         64.1703         estimate D2E/DX2                !
 ! D133  D(39,38,41,42)        -51.2619         estimate D2E/DX2                !
 ! D134  D(39,38,41,43)       -177.6615         estimate D2E/DX2                !
 ! D135  D(40,38,41,23)        171.5658         estimate D2E/DX2                !
 ! D136  D(40,38,41,42)         56.1336         estimate D2E/DX2                !
 ! D137  D(40,38,41,43)        -70.266          estimate D2E/DX2                !
 ! D138  D(23,41,43,30)         61.1821         estimate D2E/DX2                !
 ! D139  D(23,41,43,44)        -74.9381         estimate D2E/DX2                !
 ! D140  D(23,41,43,48)        172.176          estimate D2E/DX2                !
 ! D141  D(38,41,43,30)        -61.6074         estimate D2E/DX2                !
 ! D142  D(38,41,43,44)        162.2723         estimate D2E/DX2                !
 ! D143  D(38,41,43,48)         49.3864         estimate D2E/DX2                !
 ! D144  D(42,41,43,30)        176.8073         estimate D2E/DX2                !
 ! D145  D(42,41,43,44)         40.687          estimate D2E/DX2                !
 ! D146  D(42,41,43,48)        -72.1989         estimate D2E/DX2                !
 ! D147  D(30,43,44,45)        -45.8106         estimate D2E/DX2                !
 ! D148  D(30,43,44,46)       -160.3853         estimate D2E/DX2                !
 ! D149  D(30,43,44,47)         72.6603         estimate D2E/DX2                !
 ! D150  D(41,43,44,45)         89.2297         estimate D2E/DX2                !
 ! D151  D(41,43,44,46)        -25.345          estimate D2E/DX2                !
 ! D152  D(41,43,44,47)       -152.2995         estimate D2E/DX2                !
 ! D153  D(48,43,44,45)       -157.8242         estimate D2E/DX2                !
 ! D154  D(48,43,44,46)         87.6011         estimate D2E/DX2                !
 ! D155  D(48,43,44,47)        -39.3533         estimate D2E/DX2                !
 --------------------------------------------------------------------------------
 Trust Radius=3.00D-01 FncErr=1.00D-07 GrdErr=1.00D-06 EigMax=2.50D+02 EigMin=1.00D-04
 Number of steps in this run=    288 maximum allowed number of steps=    288.
 GradGradGradGradGradGradGradGradGradGradGradGradGradGradGradGradGradGrad

 Leave Link  103 at Mon Jul 12 12:44:39 2021, MaxMem=   104857600 cpu:               0.1 elap:               0.1
 (Enter /dades/curu/g16A03_MST/g16/l202.exe)
                          Input orientation:                          
 ---------------------------------------------------------------------
 Center     Atomic      Atomic             Coordinates (Angstroms)
 Number     Number       Type             X           Y           Z
 ---------------------------------------------------------------------
      1          6           0       -2.407000    3.300000   -2.276000
      2          1           0       -2.610000    4.237000   -1.753000
      3          1           0       -3.068000    2.475000   -2.000000
      4          1           0       -2.496000    3.473000   -3.352000
      5          7           0       -1.082000    2.935000   -1.870000
      6          6           0        0.014000    3.684000   -2.163000
      7          6           0        1.081000    3.026000   -1.680000
      8          6           0        2.380000    3.554000   -1.647000
      9          6           0        2.477000    4.767000   -2.236000
     10          6           0        1.357000    5.428000   -2.777000
     11          6           0        0.079000    4.905000   -2.768000
     12          1           0       -0.808000    5.392000   -3.164000
     13          1           0        1.426000    6.370000   -3.315000
     14          1           0        3.433000    5.281000   -2.282000
     15          1           0        3.263000    2.974000   -1.392000
     16          7           0       -0.817000    1.798000   -1.234000
     17          6           0        0.516000    1.908000   -1.013000
     18          6           0        1.396000    0.850000   -0.391000
     19          8           0        2.623000    0.792000   -0.332000
     20          7           0        0.688000   -0.263000   -0.063000
     21          1           0       -0.300000   -0.160000   -0.244000
     22          6           0        1.155000   -1.508000    0.508000
     23          6           0        0.454000   -2.735000   -0.154000
     24          1           0        0.215000   -2.538000   -1.201000
     25          1           0        1.215000   -3.518000   -0.138000
     26          1           0        2.167000   -1.551000    0.095000
     27          6           0        1.152000   -1.554000    2.058000
     28          1           0        1.254000   -0.571000    2.523000
     29          1           0        2.046000   -2.091000    2.383000
     30          6           0       -0.059000   -2.287000    2.644000
     31          1           0        0.277000   -2.526000    3.656000
     32          6           0       -1.368000   -1.465000    2.695000
     33          1           0       -1.134000   -0.430000    2.951000
     34          1           0       -2.021000   -1.861000    3.475000
     35          6           0       -2.093000   -1.342000    1.350000
     36          1           0       -1.569000   -0.579000    0.771000
     37          1           0       -3.070000   -0.887000    1.526000
     38          6           0       -2.150000   -2.650000    0.502000
     39          1           0       -2.541000   -2.553000   -0.513000
     40          1           0       -2.782000   -3.430000    0.932000
     41          6           0       -0.737000   -3.467000    0.588000
     42          1           0       -0.877000   -4.406000    0.047000
     43          7           0       -0.301000   -3.605000    1.998000
     44          6           0        0.703000   -4.625000    2.293000
     45          1           0        1.686000   -4.161000    2.180000
     46          1           0        0.550000   -5.337000    1.478000
     47          1           0        0.686000   -5.047000    3.301000
     48          1           0       -1.119000   -3.947000    2.461000
 ---------------------------------------------------------------------
                    Distance matrix (angstroms):
                    1          2          3          4          5
     1  C    0.000000
     2  H    1.092111   0.000000
     3  H    1.092576   1.837231   0.000000
     4  H    1.093447   1.775808   1.775132   0.000000
     5  N    1.433069   2.010890   2.042718   2.117821   0.000000
     6  C    2.453868   2.712800   3.314660   2.785380   1.359436
     7  C    3.549146   3.885271   4.197642   3.973704   2.173235
     8  C    4.834824   5.037641   5.565030   5.166136   3.523966
     9  C    5.099720   5.137291   6.004664   5.258386   4.019535
    10  C    4.352824   4.266632   5.376296   4.358699   3.603667
    11  C    2.999714   2.950791   4.049486   3.003715   2.456669
    12  H    2.778814   2.563620   3.869287   2.562664   2.790405
    13  H    5.019593   4.824814   6.090672   4.876070   4.491917
    14  H    6.166847   6.155293   7.086336   6.290215   5.104771
    15  H    5.747750   6.018108   6.379673   6.103825   4.371388
    16  N    2.422781   3.071308   2.472263   3.179715   1.329470
    17  C    3.475164   3.967835   3.760414   4.122171   2.083934
    18  C    4.900871   5.419857   5.015656   5.549353   3.560218
    19  O    5.947277   6.424294   6.164592   6.520147   4.548068
    20  N    5.212616   5.829486   5.035489   5.908729   4.077420
    21  H    4.532116   5.191030   4.205780   5.261252   3.582517
    22  C    6.599649   7.231346   6.323613   7.282840   5.513556
    23  C    7.007812   7.781625   6.554106   7.580829   6.119874
    24  H    6.489434   7.361111   6.045383   6.936025   5.664230
    25  H    8.010933   8.796526   7.597841   8.542564   7.065214
    26  H    7.076392   7.728892   6.928414   7.672415   5.877195
    27  C    7.416964   7.887461   7.106941   8.236913   6.369542
    28  H    7.170632   7.505434   6.958112   8.058043   6.086656
    29  H    8.402284   8.878537   8.137078   9.191196   7.289243
    30  C    7.806028   8.270658   7.300511   8.664213   6.977966
    31  H    8.736976   9.128539   8.257685   9.632736   7.887083
    32  C    6.963877   7.337579   6.360552   7.888120   6.346733
    33  H    6.546370   6.788747   6.057374   7.537656   5.879453
    34  H    7.736855   8.053851   7.062063   8.676699   7.242400
    35  C    5.898698   6.404775   5.171326   6.742065   5.448234
    36  H    5.003308   5.536074   4.387751   5.854670   4.422697
    37  H    5.694361   6.100723   4.871932   6.567645   5.485676
    38  C    6.571593   7.261363   5.776535   7.243215   6.161106
    39  H    6.114224   6.902642   5.269695   6.661428   5.838516
    40  H    7.464904   8.125374   6.599049   8.129321   7.159220
    41  C    7.535495   8.266803   6.887574   8.171981   6.866323
    42  H    8.192659   8.996929   7.505921   8.732297   7.589940
    43  N    8.389359   8.994356   7.785030   9.139946   7.638258
    44  C    9.661961  10.289856   9.113742  10.376764   8.813081
    45  H    9.605993  10.220103   9.171118  10.313588   8.626560
    46  H    9.870873  10.587088   9.285136  10.498720   9.071853
    47  H   10.504379  11.072452   9.938491  11.268449   9.673541
    48  H    8.753121   9.325167   8.058611   9.525938   8.131473
                    6          7          8          9         10
     6  C    0.000000
     7  C    1.343407   0.000000
     8  C    2.425100   1.402595   0.000000
     9  C    2.691577   2.299790   1.351924   0.000000
    10  C    2.285209   2.655031   2.415638   1.408546   0.000000
    11  C    1.364218   2.391315   2.894209   2.460177   1.380903
    12  H    2.143583   3.371726   3.980311   3.470307   2.199611
    13  H    3.245835   3.738260   3.409134   2.199648   1.087000
    14  H    3.775464   3.313508   2.120038   1.086392   2.139255
    15  H    3.413875   2.201539   1.086791   2.131896   3.401937
    16  N    2.260663   2.304193   3.670819   4.546361   4.503779
    17  C    2.174553   1.419168   2.566275   3.676293   4.026087
    18  C    3.616831   2.548671   3.139651   4.462676   5.162616
    19  O    4.303848   3.030779   3.068700   4.409893   5.391964
    20  N    4.521403   3.686009   4.465580   5.763970   6.340413
    21  H    4.307841   3.757639   4.790053   5.996259   6.355115
    22  C    5.949200   5.034876   5.636355   6.975159   7.677247
    23  C    6.740419   5.992573   6.744631   8.044082   8.621491
    24  H    6.299137   5.651327   6.480633   7.716923   8.200311
    25  H    7.577059   6.724556   7.324445   8.639182   9.328205
    26  H    6.094194   5.027818   5.398237   6.741423   7.590186
    27  C    6.822648   5.912198   6.428583   7.755585   8.495150
    28  H    6.449901   5.534758   5.972638   7.255209   8.005536
    29  H    7.625337   6.604762   6.943953   8.279679   9.145255
    30  C    7.665861   6.944389   7.647136   8.944530   9.534858
    31  H    8.514343   7.742352   8.337315   9.630343  10.286691
    32  C    7.212648   6.731070   7.621734   8.828171   9.213135
    33  H    6.663025   6.188402   7.025814   8.182487   8.563366
    34  H    8.165494   7.751077   8.655975   9.837576  10.179779
    35  C    6.483926   6.191494   7.277400   8.429957   8.646822
    36  H    5.411785   5.101561   6.206691   7.347917   7.565304
    37  H    6.634291   6.543761   7.713165   8.768670   8.831385
    38  C    7.204490   6.886034   7.976761   9.160658   9.397073
    39  H    6.939070   6.753222   7.924497   9.040545   9.166049
    40  H    8.246553   7.963997   9.059456  10.241295  10.457159
    41  C    7.698623   7.113930   8.000335   9.279199   9.738023
    42  H    8.433628   7.877240   8.765802  10.030221  10.472502
    43  N    8.398968   7.707644   8.469065   9.784397  10.351071
    44  C    9.453578   8.629335   9.232116  10.576794  11.278095
    45  H    9.121472   8.180379   8.639953   9.991793  10.799491
    46  H    9.742824   8.955149   9.600229  10.936084  11.603512
    47  H   10.321688   9.494194  10.066258  11.409673  12.129219
    48  H    8.994289   8.403012   9.240328  10.532180  11.020791
                   11         12         13         14         15
    11  C    0.000000
    12  H    1.086625   0.000000
    13  H    2.063939   2.443367   0.000000
    14  H    3.409822   4.333166   2.506204   0.000000
    15  H    3.969886   5.055665   4.313388   2.478558   0.000000
    16  N    3.579025   4.079438   5.501345   5.593934   4.249040
    17  C    3.500429   4.303258   5.102622   4.636419   2.970859
    18  C    4.881357   5.759940   6.246685   5.230584   2.999844
    19  O    5.415053   6.399374   6.437793   4.960819   2.508849
    20  N    5.864821   6.620668   7.424071   6.572284   4.344541
    21  H    5.671723   6.293581   7.419637   6.906027   4.882093
    22  C    7.281244   8.058967   8.760802   7.685304   5.304902
    23  C    8.083515   8.757903   9.686988   8.812439   6.481960
    24  H    7.607380   8.233152   9.235149   8.524133   6.301502
    25  H    8.896872   9.624828  10.387993   9.324090   6.921913
    26  H    7.364540   8.226600   8.655601   7.343644   4.887536
    27  C    8.133897   8.908300   9.577786   8.411646   6.071376
    28  H    7.704666   8.494185   9.071345   7.879211   5.650693
    29  H    8.907632   9.742167  10.219595   8.833594   6.433190
    30  C    9.001869   9.657169  10.614073   9.681641   7.416408
    31  H    9.824802  10.506396  11.360187  10.303855   8.040429
    32  C    8.515579   9.036588  10.262249   9.660675   7.606211
    33  H    7.914579   8.449567   9.594600   8.992069   7.055670
    34  H    9.442659   9.907255  11.213174  10.672269   8.659421
    35  C    7.791054   8.208177   9.675770   9.359072   7.404941
    36  H    6.731618   7.191397   8.599652   8.287365   6.375782
    37  H    7.867776   8.157119   9.813936   9.738280   7.970504
    38  C    8.528738   8.939479  10.426776  10.090654   8.032259
    39  H    8.220170   8.553018  10.159145  10.009475   8.062679
    40  H    9.557591   9.924796  11.479733  11.173072   9.107921
    41  C    9.056433   9.621041  10.801784  10.107092   7.836254
    42  H    9.774092  10.310969  11.520809  10.855336   8.583398
    43  N    9.761109  10.385052  11.432897  10.546191   8.214465
    44  C   10.808515  11.506618  12.363754  11.247771   8.824830
    45  H   10.452632  11.226673  11.881270  10.588334   8.133532
    46  H   11.097248  11.768762  12.680460  11.627176   9.201630
    47  H   11.672340  12.369357  13.216162  12.057507   9.643735
    48  H   10.350630  10.906616  12.094614  11.330169   9.052501
                   16         17         18         19         20
    16  N    0.000000
    17  C    1.355666   0.000000
    18  C    2.550828   1.510181   0.000000
    19  O    3.695841   2.479650   1.229786   0.000000
    20  N    2.807844   2.375989   1.359271   2.220273   0.000000
    21  H    2.254141   2.352412   1.979425   3.075382   1.009710
    22  C    4.225279   3.793523   2.535044   2.854930   1.447120
    23  C    4.830107   4.722200   3.714264   4.144391   2.484717
    24  H    4.457242   4.460141   3.678234   4.200301   2.587353
    25  H    5.795696   5.540370   4.379063   4.538304   3.298239
    26  H    4.678279   3.989755   2.568158   2.424853   1.967574
    27  C    5.094127   4.671293   3.440400   3.657821   2.525989
    28  H    4.900638   4.381025   3.245120   3.447166   2.665073
    29  H    6.033554   5.464954   4.094760   4.001980   3.341955
    30  C    5.683368   5.594846   4.600980   5.052716   3.461565
    31  H    6.618603   6.443372   5.387740   5.693591   4.372762
    32  C    5.136907   5.354984   4.745768   5.494075   3.643968
    33  H    4.751705   4.888971   4.382723   5.136772   3.525871
    34  H    6.083796   6.386225   5.828496   6.564937   4.733892
    35  C    4.262022   4.790945   4.473149   5.442769   3.300723
    36  H    3.199321   3.703384   3.490489   4.546330   2.426821
    37  H    4.461259   5.207489   5.161125   6.219442   4.127573
    38  C    4.957347   5.493464   5.061775   5.943437   3.751165
    39  H    4.735316   5.431001   5.205311   6.155378   3.984099
    40  H    5.990389   6.569176   6.125717   6.974024   4.802168
    41  C    5.571921   5.746637   4.913717   5.502280   3.566517
    42  H    6.335154   6.552148   5.743162   6.277965   4.430099
    43  N    6.317000   6.334570   5.332369   5.771680   4.049050
    44  C    7.483653   7.324254   6.136752   6.318300   4.957621
    45  H    7.309589   6.956789   5.639527   5.632080   4.606675
    46  H    7.754473   7.661349   6.518270   6.718487   5.304640
    47  H    8.347410   8.186056   6.993538   7.144549   5.848346
    48  H    6.837343   7.001637   6.121302   6.652934   4.817435
                   21         22         23         24         25
    21  H    0.000000
    22  C    2.121234   0.000000
    23  C    2.684631   1.560504   0.000000
    24  H    2.614567   2.205716   1.091851   0.000000
    25  H    3.685461   2.112112   1.092001   1.757945   0.000000
    26  H    2.852348   1.093875   2.097195   2.542457   2.197654
    27  C    3.057899   1.550685   2.602866   3.530907   2.946809
    28  H    3.200020   2.224409   3.534010   4.337832   3.970800
    29  H    4.016666   2.156246   3.063588   4.049374   3.013691
    30  C    3.594823   2.577428   2.879701   3.862914   3.298175
    31  H    4.597922   3.423027   3.819831   4.857411   4.032164
    32  C    3.388417   3.339214   3.612393   4.340050   4.348860
    33  H    3.313077   3.517080   4.180406   4.847945   4.959382
    34  H    4.436914   4.360582   4.478743   5.227141   5.125535
    35  C    2.674474   3.359468   3.269507   3.642098   4.229892
    36  H    1.678138   2.890049   3.097820   3.302896   4.149055
    37  H    3.366650   4.390056   4.319268   4.577505   5.296441
    38  C    3.190473   3.496745   2.686704   2.916501   3.533589
    39  H    3.289512   3.974278   3.021925   2.840617   3.896073
    40  H    4.270386   4.401571   3.483406   3.785150   4.138678
    41  C    3.437942   2.724655   1.582678   2.229320   2.083262
    42  H    4.294895   3.569307   2.145741   2.497877   2.280183
    43  N    4.110303   2.955917   2.440907   3.411502   2.620748
    44  C    5.232457   3.620251   3.101920   4.098994   2.719808
    45  H    5.082123   3.180559   2.999809   4.028540   2.451207
    46  H    5.521695   3.996019   3.072954   3.888916   2.522388
    47  H    6.117352   4.532696   4.163675   5.175416   3.800579
    48  H    4.725374   3.864454   3.283519   4.144283   3.519431
                   26         27         28         29         30
    26  H    0.000000
    27  C    2.209888   0.000000
    28  H    2.772932   1.092208   0.000000
    29  H    2.353972   1.092351   1.719670   0.000000
    30  C    3.463260   1.532059   2.164085   2.130155   0.000000
    31  H    4.147704   2.064949   2.461756   2.222412   1.092777
    32  C    4.389034   2.600786   2.775555   3.484913   1.546534
    33  H    4.506659   2.699374   2.430146   3.632347   2.167562
    34  H    5.390718   3.488562   3.646372   4.217328   2.172897
    35  C    4.445931   3.328098   3.629432   4.331214   2.589328
    36  H    3.919114   3.163990   3.322484   4.237088   2.950507
    37  H    5.469445   4.307342   4.448690   5.325178   3.503719
    38  C    4.473247   3.811241   4.471454   4.632176   3.015330
    39  H    4.851694   4.609370   5.248585   5.444339   4.024640
    40  H    5.359460   4.501512   5.195619   5.216120   3.413520
    41  C    3.513875   3.064113   4.011873   3.586153   2.465607
    42  H    4.173639   4.036690   5.037754   4.400006   3.450173
    43  N    3.732472   2.514241   3.449465   2.819367   1.487617
    44  C    4.052650   3.112534   4.097733   2.869304   2.483966
    45  H    3.375009   2.663924   3.632131   2.110855   2.602345
    46  H    4.342945   3.874260   4.929746   3.686944   3.321587
    47  H    4.969287   3.736744   4.578481   3.380867   2.933304
    48  H    4.704951   3.323597   4.127027   3.669884   1.978052
                   31         32         33         34         35
    31  H    0.000000
    32  C    2.180657   0.000000
    33  H    2.623197   1.091566   0.000000
    34  H    2.399123   1.091616   1.763266   0.000000
    35  C    3.512320   1.532899   2.077168   2.188646   0.000000
    36  H    3.939765   2.127715   2.227965   3.026457   1.091781
    37  H    4.292509   2.144166   2.446951   2.418197   1.092030
    38  C    3.981635   2.612470   3.458071   3.078618   1.559877
    39  H    5.032138   3.584820   4.299543   4.080859   2.266714
    40  H    4.194624   2.994794   3.973948   3.083461   2.238122
    41  C    3.365457   2.974158   3.868430   3.544384   2.633440
    42  H    4.229775   3.987790   4.930298   4.420062   3.544652
    43  N    2.060895   2.490763   3.418000   2.860326   2.958435
    44  C    2.538710   3.799506   4.626614   4.056722   4.414176
    45  H    2.614781   4.106161   4.739958   4.550700   4.787118
    46  H    3.566502   4.489120   5.392980   4.762418   4.791853
    47  H    2.578516   4.173353   4.975097   4.184342   5.025561
    48  H    2.322947   2.505410   3.551002   2.488613   2.994833
                   36         37         38         39         40
    36  H    0.000000
    37  H    1.708183   0.000000
    38  C    2.167709   2.236771   0.000000
    39  H    2.547571   2.685688   1.092023   0.000000
    40  H    3.102498   2.627285   1.092119   1.707406   0.000000
    41  C    3.011023   3.602656   1.634458   2.302610   2.074061
    42  H    3.955878   4.402278   2.216098   2.552666   2.316209
    43  N    3.502860   3.908666   2.562975   3.525539   2.705983
    44  C    4.883501   5.366234   3.904858   4.763440   3.927540
    45  H    5.040935   5.810880   4.451258   5.263596   4.696263
    46  H    5.256289   5.736654   3.932244   4.611835   3.877756
    47  H    5.607936   5.879095   4.650044   5.583920   4.500430
    48  H    3.795000   3.747563   2.565707   3.579105   2.317477
                   41         42         43         44         45
    41  C    0.000000
    42  H    1.092704   0.000000
    43  N    1.482309   2.186270   0.000000
    44  C    2.514277   2.754792   1.461315   0.000000
    45  H    2.981112   3.343454   2.071335   1.092865   0.000000
    46  H    2.438313   2.225051   1.998606   1.092968   1.779403
    47  H    3.446984   3.666383   2.179757   1.092903   1.744029
    48  H    1.970902   2.469138   1.000228   1.951305   2.827151
                   46         47         48
    46  H    0.000000
    47  H    1.850925   0.000000
    48  H    2.384104   2.274560   0.000000
 Stoichiometry    C18H25N4O(1+)
 Framework group  C1[X(C18H25N4O)]
 Deg. of freedom   138
 Full point group                 C1      NOp   1
 Largest Abelian subgroup         C1      NOp   1
 Largest concise Abelian subgroup C1      NOp   1
                         Standard orientation:                         
 ---------------------------------------------------------------------
 Center     Atomic      Atomic             Coordinates (Angstroms)
 Number     Number       Type             X           Y           Z
 ---------------------------------------------------------------------
      1          6           0        3.307121    2.982595   -0.169456
      2          1           0        3.848605    3.174361    0.759375
      3          1           0        2.383054    3.554718   -0.281252
      4          1           0        3.964352    3.213730   -1.012219
      5          7           0        2.942429    1.598436   -0.100265
      6          6           0        3.857063    0.593019   -0.074825
      7          6           0        3.171688   -0.562330   -0.061757
      8          6           0        3.760157   -1.822089    0.122592
      9          6           0        5.109174   -1.774024    0.197045
     10          6           0        5.819095   -0.558839    0.139265
     11          6           0        5.217153    0.675230   -0.007822
     12          1           0        5.732056    1.631458   -0.043256
     13          1           0        6.904713   -0.505298    0.127594
     14          1           0        5.685128   -2.685081    0.333056
     15          1           0        3.231593   -2.762436   -0.009626
     16          7           0        1.677356    1.190449   -0.125330
     17          6           0        1.815664   -0.150819    0.015031
     18          6           0        0.694660   -1.161646   -0.032160
     19          8           0        0.752756   -2.387818   -0.106329
     20          7           0       -0.510197   -0.566351   -0.236027
     21          1           0       -0.443898    0.440772   -0.264686
     22          6           0       -1.815491   -1.172782   -0.386371
     23          6           0       -2.643406   -0.468975   -1.506364
     24          1           0       -1.995952   -0.091414   -2.300334
     25          1           0       -3.247449   -1.270936   -1.935847
     26          1           0       -1.541700   -2.126846   -0.846113
     27          6           0       -2.600079   -1.363789    0.937473
     28          1           0       -1.956696   -1.464291    1.814329
     29          1           0       -3.123613   -2.321137    0.886222
     30          6           0       -3.654306   -0.279666    1.183417
     31          1           0       -4.310676   -0.751471    1.918767
     32          6           0       -3.109637    1.059178    1.733507
     33          1           0       -2.305934    0.856770    2.443865
     34          1           0       -3.901550    1.586460    2.268740
     35          6           0       -2.437703    1.950586    0.682948
     36          1           0       -1.437379    1.547914    0.512088
     37          1           0       -2.235328    2.923500    1.135731
     38          6           0       -3.174940    2.034623   -0.689145
     39          1           0       -2.646814    2.552915   -1.492246
     40          1           0       -4.130561    2.561666   -0.647467
     41          6           0       -3.769435    0.576145   -1.126031
     42          1           0       -4.342284    0.726261   -2.044352
     43          7           0       -4.517872   -0.037883   -0.003511
     44          6           0       -5.434971   -1.128954   -0.325897
     45          1           0       -4.867338   -2.061437   -0.274678
     46          1           0       -5.680205   -0.918774   -1.370053
     47          1           0       -6.288025   -1.261365    0.344331
     48          1           0       -5.129002    0.695149    0.295894
 ---------------------------------------------------------------------
 Rotational constants (GHZ):           0.6279124           0.1290849           0.1150832
 Leave Link  202 at Mon Jul 12 12:44:40 2021, MaxMem=   104857600 cpu:               0.1 elap:               0.0
 (Enter /dades/curu/g16A03_MST/g16/l301.exe)
 Standard basis: 6-31G(d) (6D, 7F)
 Ernie: Thresh=  0.10000D-02 Tol=  0.10000D-05 Strict=F.
 There are   395 symmetry adapted cartesian basis functions of A   symmetry.
 There are   395 symmetry adapted basis functions of A   symmetry.
   395 basis functions,   744 primitive gaussians,   395 cartesian basis functions
    84 alpha electrons       84 beta electrons
       nuclear repulsion energy      1987.2946160776 Hartrees.
 IExCor=  402 DFT=T Ex+Corr=B3LYP ExCW=0 ScaHFX=  0.200000
 ScaDFX=  0.800000  0.720000  1.000000  0.810000 ScalE2=  1.000000  1.000000
 IRadAn=      5 IRanWt=     -1 IRanGd=            0 ICorTp=0 IEmpDi=  4
 NAtoms=   48 NActive=   48 NUniq=   48 SFac= 1.00D+00 NAtFMM=   60 NAOKFM=F Big=F
 Integral buffers will be    131072 words long.
 Raffenetti 2 integral format.
 Two-electron integral symmetry is turned on.
 Using the following non-standard input for PCM:
 MSTModel=DFT cav MSTCharged
 --- end of non-standard input.
 MST model for solvation energy: B3LYP parametrization.
 MST cavity parameters:
 ISph   IAn     Re0     Alpha   Atom Type   QCorr
 ------------------------------------------------
   1      6     1.50     1.50      CH3        F
   2      1     1.20     1.50      CH3        F
   3      1     1.20     1.50      CH3        F
   4      1     1.20     1.50      CH3        F
   5      7     1.50     1.50      Nc         F
   6      6     1.50     1.50      C          F
   7      6     1.50     1.50      C          F
   8      6     1.50     1.50      CH         F
   9      6     1.50     1.50      CH         F
  10      6     1.50     1.50      CH         F
  11      6     1.50     1.50      CH         F
  12      1     1.20     1.50      CH         F
  13      1     1.20     1.50      CH         F
  14      1     1.20     1.50      CH         F
  15      1     1.20     1.50      CH         F
  16      7     1.50     1.50      Nc         F
  17      6     1.50     1.50      C          F
  18      6     1.50     1.50      C          F
  19      8     1.40     1.50      O          F
  20      7     1.50     1.50      NH         F
  21      1     0.90     1.50      NH         F
  22      6     1.50     1.50      CH         F
  23      6     1.50     1.50      CH2        F
  24      1     1.20     1.50      CH2        F
  25      1     1.20     1.50      CH2        F
  26      1     1.20     1.50      CH         F
  27      6     1.50     1.50      CH2        F
  28      1     1.20     1.50      CH2        F
  29      1     1.20     1.50      CH2        F
  30      6     1.50     1.50      CN+        F
  31      1     1.20     1.50      CN+        F
  32      6     1.50     1.50      CH2        F
  33      1     1.20     1.50      CH2        F
  34      1     1.20     1.50      CH2        F
  35      6     1.50     1.50      CH2        F
  36      1     1.20     1.50      CH2        F
  37      1     1.20     1.50      CH2        F
  38      6     1.50     1.50      CH2        F
  39      1     1.20     1.50      CH2        F
  40      1     1.20     1.50      CH2        F
  41      6     1.50     1.50      CN+        F
  42      1     1.20     1.50      CN+        F
  43      7     1.50     1.15      NH+        T
  44      6     1.50     1.50      CN+        F
  45      1     1.20     1.50      CN+        F
  46      1     1.20     1.50      CN+        F
  47      1     1.20     1.50      CN+        F
  48      1     0.90     1.15      NH+        T
 ------------------------------------------------------------------------------
 Polarizable Continuum Model (PCM)
 =================================
 Model                : PCM.
 Atomic radii         : MST.
 Polarization charges : Total charges.
 Charge compensation  : None.
 Solution method      : On-the-fly selection.
 Cavity type          : Scaled VdW (van der Waals Surface) (Alpha=1.500).
 Cavity algorithm     : GePol (No added spheres)
                        Default sphere list used, NSphG=   48.
                        Lebedev-Laikov grids with approx.  5.0 points / Ang**2.
                        Smoothing algorithm: York/Karplus (Gamma=1.0000).
                        Polarization charges: spherical gaussians, with
                                              point-specific exponents (IZeta= 3).
                        Self-potential: point-specific (ISelfS= 7).
                        Self-field    : sphere-specific E.n sum rule (ISelfD= 2).
 1st derivatives      : Analytical E(r).r(x)/FMM algorithm (CHGder, D1EAlg=3).
                        Cavity 1st derivative terms included.
 Solvent              : n-Octanol, Eps=   9.862900 Eps(inf)=   2.043470
 ------------------------------------------------------------------------------
 GePol: Number of generator spheres                  =      48
 GePol: Total number of spheres                      =      48
 GePol: Number of exposed spheres                    =      48 (100.00%)
 GePol: Number of points                             =    4053
 GePol: Average weight of points                     =       0.11
 GePol: Minimum weight of points                     =   0.70D-10
 GePol: Maximum weight of points                     =    0.20228
 GePol: Number of points with low weight             =     233
 GePol: Fraction of low-weight points (<1% of avg)   =       5.75%
 GePol: Cavity surface area                          =    427.398 Ang**2
 GePol: Cavity volume                                =    522.435 Ang**3
 Surface areas from nonelectrostatic (unscaled) cavity and vdw tensions:
 Sphere =    1 Type =  CH3 Surf =        5.165 Tension =       -0.183
 Sphere =    2 Type =  CH3 Surf =       10.007 Tension =       -0.183
 Sphere =    3 Type =  CH3 Surf =        9.883 Tension =       -0.183
 Sphere =    4 Type =  CH3 Surf =       10.151 Tension =       -0.183
 Sphere =    5 Type =  Nc  Surf =        5.467 Tension =       -0.161
 Sphere =    6 Type =  C   Surf =        5.658 Tension =       -0.205
 Sphere =    7 Type =  C   Surf =        6.146 Tension =       -0.205
 Sphere =    8 Type =  CH  Surf =        7.909 Tension =       -0.195
 Sphere =    9 Type =  CH  Surf =        7.615 Tension =       -0.195
 Sphere =   10 Type =  CH  Surf =        7.661 Tension =       -0.195
 Sphere =   11 Type =  CH  Surf =        7.783 Tension =       -0.195
 Sphere =   12 Type =  CH  Surf =       10.247 Tension =       -0.195
 Sphere =   13 Type =  CH  Surf =       10.178 Tension =       -0.195
 Sphere =   14 Type =  CH  Surf =       10.212 Tension =       -0.195
 Sphere =   15 Type =  CH  Surf =        9.920 Tension =       -0.195
 Sphere =   16 Type =  Nc  Surf =       12.709 Tension =       -0.161
 Sphere =   17 Type =  C   Surf =        6.287 Tension =       -0.205
 Sphere =   18 Type =  C   Surf =        6.840 Tension =       -0.205
 Sphere =   19 Type =  O   Surf =       15.509 Tension =       -0.185
 Sphere =   20 Type =  NH  Surf =        8.485 Tension =       -0.234
 Sphere =   21 Type =  NH  Surf =        2.506 Tension =       -0.234
 Sphere =   22 Type =  CH  Surf =        2.880 Tension =       -0.195
 Sphere =   23 Type =  CH2 Surf =        3.721 Tension =       -0.194
 Sphere =   24 Type =  CH2 Surf =       10.026 Tension =       -0.194
 Sphere =   25 Type =  CH2 Surf =        9.386 Tension =       -0.194
 Sphere =   26 Type =  CH  Surf =        8.970 Tension =       -0.195
 Sphere =   27 Type =  CH2 Surf =        3.658 Tension =       -0.194
 Sphere =   28 Type =  CH2 Surf =        9.991 Tension =       -0.194
 Sphere =   29 Type =  CH2 Surf =        8.862 Tension =       -0.194
 Sphere =   30 Type =  CN+ Surf =        2.262 Tension =       -0.227
 Sphere =   31 Type =  CN+ Surf =        9.495 Tension =       -0.227
 Sphere =   32 Type =  CH2 Surf =        3.792 Tension =       -0.194
 Sphere =   33 Type =  CH2 Surf =        9.747 Tension =       -0.194
 Sphere =   34 Type =  CH2 Surf =       10.064 Tension =       -0.194
 Sphere =   35 Type =  CH2 Surf =        4.003 Tension =       -0.194
 Sphere =   36 Type =  CH2 Surf =        8.101 Tension =       -0.194
 Sphere =   37 Type =  CH2 Surf =       10.030 Tension =       -0.194
 Sphere =   38 Type =  CH2 Surf =        4.441 Tension =       -0.194
 Sphere =   39 Type =  CH2 Surf =       10.162 Tension =       -0.194
 Sphere =   40 Type =  CH2 Surf =        9.739 Tension =       -0.194
 Sphere =   41 Type =  CN+ Surf =        2.548 Tension =       -0.227
 Sphere =   42 Type =  CN+ Surf =        9.523 Tension =       -0.227
 Sphere =   43 Type =  NH+ Surf =        3.319 Tension =       -0.274
 Sphere =   44 Type =  CN+ Surf =        5.071 Tension =       -0.227
 Sphere =   45 Type =  CN+ Surf =        8.788 Tension =       -0.227
 Sphere =   46 Type =  CN+ Surf =        9.275 Tension =       -0.227
 Sphere =   47 Type =  CN+ Surf =       10.208 Tension =       -0.227
 Sphere =   48 Type =  NH+ Surf =        3.762 Tension =       -0.274
 PCM non-electrostatic energy =        -0.0200388119 Hartrees.
 Nuclear repulsion after PCM non-electrostatic terms =     1987.2745772657 Hartrees.
 Leave Link  301 at Mon Jul 12 12:44:40 2021, MaxMem=   104857600 cpu:               0.1 elap:               0.5
 (Enter /dades/curu/g16A03_MST/g16/l302.exe)
 NPDir=0 NMtPBC=     1 NCelOv=     1 NCel=       1 NClECP=     1 NCelD=      1
         NCelK=      1 NCelE2=     1 NClLst=     1 CellRange=     0.0.
 One-electron integrals computed using PRISM.
 One-electron integral symmetry used in STVInt
 NBasis=   395 RedAO= T EigKep=  4.66D-04  NBF=   395
 NBsUse=   395 1.00D-06 EigRej= -1.00D+00 NBFU=   395
 Precomputing XC quadrature grid using
 IXCGrd= 4 IRadAn=           5 IRanWt=          -1 IRanGd=           0 AccXCQ= 0.00D+00.
 Generated NRdTot=       0 NPtTot=           0 NUsed=           0 NTot=          32
 NSgBfM=   391   391   391   391   391 MxSgAt=    48 MxSgA2=    48.
 Leave Link  302 at Mon Jul 12 12:44:43 2021, MaxMem=   104857600 cpu:               8.6 elap:               2.6
 (Enter /dades/curu/g16A03_MST/g16/l303.exe)
 DipDrv:  MaxL=1.
 Leave Link  303 at Mon Jul 12 12:44:44 2021, MaxMem=   104857600 cpu:               0.1 elap:               0.1
 (Enter /dades/curu/g16A03_MST/g16/l401.exe)
 ExpMin= 1.61D-01 ExpMax= 5.48D+03 ExpMxC= 8.25D+02 IAcc=3 IRadAn=         5 AccDes= 0.00D+00
 Harris functional with IExCor=  402 and IRadAn=       5 diagonalized for initial guess.
 HarFok:  IExCor=  402 AccDes= 0.00D+00 IRadAn=         5 IDoV= 1 UseB2=F ITyADJ=14
 ICtDFT=  3500011 ScaDFX=  1.000000  1.000000  1.000000  1.000000
 FoFCou: FMM=F IPFlag=           0 FMFlag=      100000 FMFlg1=           0
         NFxFlg=           0 DoJE=T BraDBF=F KetDBF=T FulRan=T
         wScrn=  0.000000 ICntrl=       500 IOpCl=  0 I1Cent=   200000004 NGrid=           0
         NMat0=    1 NMatS0=      1 NMatT0=    0 NMatD0=    1 NMtDS0=    0 NMtDT0=    0
 Petite list used in FoFCou.
 Harris En= -994.934252740347    
 JPrj=0 DoOrth=F DoCkMO=F.
 Leave Link  401 at Mon Jul 12 12:44:58 2021, MaxMem=   104857600 cpu:              53.2 elap:              13.8
 (Enter /dades/curu/g16A03_MST/g16/l502.exe)
 Integral symmetry usage will be decided dynamically.
 Closed shell SCF:
 Using DIIS extrapolation, IDIIS=  1040.
 NGot=   104857600 LenX=   104538613 LenY=   104382147
 Requested convergence on RMS density matrix=1.00D-08 within 128 cycles.
 Requested convergence on MAX density matrix=1.00D-06.
 Requested convergence on             energy=1.00D-06.
 No special actions if energy rises.
 Fock matrices will be formed incrementally for  20 cycles.

 Cycle   1  Pass 1  IDiag  1:
 FoFJK:  IHMeth= 1 ICntrl=       0 DoSepK=F KAlg= 0 I1Cent=           0 FoldK=F
 IRaf= 740000000 NMat=       1 IRICut=       1 DoRegI=T DoRafI=F ISym2E= 0 IDoP0=0 IntGTp=1.
 FoFCou: FMM=F IPFlag=           0 FMFlag=      100000 FMFlg1=           0
         NFxFlg=           0 DoJE=F BraDBF=F KetDBF=F FulRan=T
         wScrn=  0.000000 ICntrl=         0 IOpCl=  0 I1Cent=           0 NGrid=           0
         NMat0=    1 NMatS0=      1 NMatT0=    0 NMatD0=    1 NMtDS0=    0 NMtDT0=    0
 Symmetry not used in FoFCou.
 Inv3:  Mode=1 IEnd=    49280427.
 Iteration    1 A*A^-1 deviation from unit magnitude is 9.55D-15 for   4036.
 Iteration    1 A*A^-1 deviation from orthogonality  is 3.13D-15 for   4048    949.
 Iteration    1 A^-1*A deviation from unit magnitude is 9.55D-15 for   4036.
 Iteration    1 A^-1*A deviation from orthogonality  is 2.40D-15 for   3010   2144.
 E= -994.497610095028    
 DIIS: error= 2.25D-02 at cycle   1 NSaved=   1.
 NSaved= 1 IEnMin= 1 EnMin= -994.497610095028     IErMin= 1 ErrMin= 2.25D-02
 ErrMax= 2.25D-02  0.00D+00 EMaxC= 1.00D-01 BMatC= 5.32D-01 BMatP= 5.32D-01
 IDIUse=3 WtCom= 7.75D-01 WtEn= 2.25D-01
 Coeff-Com:  0.100D+01
 Coeff-En:   0.100D+01
 Coeff:      0.100D+01
 Gap=     0.231 Goal=   None    Shift=    0.000
 GapD=    0.231 DampG=1.000 DampE=0.500 DampFc=0.5000 IDamp=-1.
 Damping current iteration by 5.00D-01
 RMSDP=4.68D-03 MaxDP=2.25D-01              OVMax= 2.70D-01

 Cycle   2  Pass 1  IDiag  1:
 RMSU=  2.32D-03    CP:  9.80D-01
 E= -994.681172756113     Delta-E=       -0.183562661085 Rises=F Damp=T
 DIIS: error= 1.01D-02 at cycle   2 NSaved=   2.
 NSaved= 2 IEnMin= 2 EnMin= -994.681172756113     IErMin= 2 ErrMin= 1.01D-02
 ErrMax= 1.01D-02  0.00D+00 EMaxC= 1.00D-01 BMatC= 7.25D-02 BMatP= 5.32D-01
 IDIUse=3 WtCom= 8.99D-01 WtEn= 1.01D-01
 Coeff-Com:  0.157D+00 0.843D+00
 Coeff-En:   0.248D+00 0.752D+00
 Coeff:      0.166D+00 0.834D+00
 Gap=     0.251 Goal=   None    Shift=    0.000
 RMSDP=1.75D-03 MaxDP=1.01D-01 DE=-1.84D-01 OVMax= 2.58D-01

 Cycle   3  Pass 1  IDiag  1:
 RMSU=  1.60D-03    CP:  9.64D-01  7.08D-01
 E= -994.949275234004     Delta-E=       -0.268102477891 Rises=F Damp=F
 DIIS: error= 1.35D-02 at cycle   3 NSaved=   3.
 NSaved= 3 IEnMin= 3 EnMin= -994.949275234004     IErMin= 2 ErrMin= 1.01D-02
 ErrMax= 1.35D-02  0.00D+00 EMaxC= 1.00D-01 BMatC= 7.66D-02 BMatP= 7.25D-02
 IDIUse=3 WtCom= 8.65D-01 WtEn= 1.35D-01
 Coeff-Com:  0.154D-01 0.504D+00 0.481D+00
 Coeff-En:   0.000D+00 0.000D+00 0.100D+01
 Coeff:      0.133D-01 0.436D+00 0.551D+00
 Gap=     0.176 Goal=   None    Shift=    0.000
 RMSDP=1.11D-03 MaxDP=7.47D-02 DE=-2.68D-01 OVMax= 1.07D-01

 Cycle   4  Pass 1  IDiag  1:
 RMSU=  6.65D-04    CP:  9.70D-01  8.95D-01  5.18D-01
 E= -995.000084822020     Delta-E=       -0.050809588016 Rises=F Damp=F
 DIIS: error= 6.80D-03 at cycle   4 NSaved=   4.
 NSaved= 4 IEnMin= 4 EnMin= -995.000084822020     IErMin= 4 ErrMin= 6.80D-03
 ErrMax= 6.80D-03  0.00D+00 EMaxC= 1.00D-01 BMatC= 1.98D-02 BMatP= 7.25D-02
 IDIUse=3 WtCom= 9.32D-01 WtEn= 6.80D-02
 Coeff-Com: -0.138D-02 0.121D+00 0.348D+00 0.532D+00
 Coeff-En:   0.000D+00 0.000D+00 0.239D+00 0.761D+00
 Coeff:     -0.128D-02 0.113D+00 0.341D+00 0.548D+00
 Gap=     0.173 Goal=   None    Shift=    0.000
 RMSDP=4.34D-04 MaxDP=2.86D-02 DE=-5.08D-02 OVMax= 4.76D-02

 Cycle   5  Pass 1  IDiag  1:
 RMSU=  1.93D-04    CP:  9.69D-01  8.24D-01  6.54D-01  5.84D-01
 E= -995.016189472464     Delta-E=       -0.016104650444 Rises=F Damp=F
 DIIS: error= 1.17D-03 at cycle   5 NSaved=   5.
 NSaved= 5 IEnMin= 5 EnMin= -995.016189472464     IErMin= 5 ErrMin= 1.17D-03
 ErrMax= 1.17D-03  0.00D+00 EMaxC= 1.00D-01 BMatC= 1.08D-03 BMatP= 1.98D-02
 IDIUse=3 WtCom= 9.88D-01 WtEn= 1.17D-02
 Coeff-Com: -0.156D-02 0.143D-01 0.132D+00 0.304D+00 0.551D+00
 Coeff-En:   0.000D+00 0.000D+00 0.000D+00 0.000D+00 0.100D+01
 Coeff:     -0.154D-02 0.141D-01 0.131D+00 0.301D+00 0.556D+00
 Gap=     0.172 Goal=   None    Shift=    0.000
 RMSDP=1.11D-04 MaxDP=7.06D-03 DE=-1.61D-02 OVMax= 1.04D-02

 Cycle   6  Pass 1  IDiag  1:
 RMSU=  5.88D-05    CP:  9.69D-01  8.33D-01  6.53D-01  6.35D-01  5.61D-01
 E= -995.017099988222     Delta-E=       -0.000910515758 Rises=F Damp=F
 DIIS: error= 2.94D-04 at cycle   6 NSaved=   6.
 NSaved= 6 IEnMin= 6 EnMin= -995.017099988222     IErMin= 6 ErrMin= 2.94D-04
 ErrMax= 2.94D-04  0.00D+00 EMaxC= 1.00D-01 BMatC= 7.56D-05 BMatP= 1.08D-03
 IDIUse=3 WtCom= 9.97D-01 WtEn= 2.94D-03
 Coeff-Com: -0.688D-03-0.173D-02 0.372D-01 0.106D+00 0.293D+00 0.567D+00
 Coeff-En:   0.000D+00 0.000D+00 0.000D+00 0.000D+00 0.000D+00 0.100D+01
 Coeff:     -0.686D-03-0.173D-02 0.371D-01 0.105D+00 0.292D+00 0.568D+00
 Gap=     0.172 Goal=   None    Shift=    0.000
 RMSDP=2.82D-05 MaxDP=1.81D-03 DE=-9.11D-04 OVMax= 2.55D-03

 Cycle   7  Pass 1  IDiag  1:
 RMSU=  1.52D-05    CP:  9.69D-01  8.33D-01  6.53D-01  6.40D-01  6.24D-01
                    CP:  6.57D-01
 E= -995.017167320150     Delta-E=       -0.000067331928 Rises=F Damp=F
[...]
    19  O   -0.000879   0.003336   0.006672  -0.088858   0.051957   0.024734
    20  N    0.404225  -0.895710   0.469964  -0.368186   0.180678  -0.257562
    21  H    0.006136   0.026119  -0.029284  -0.009517   0.007719  -0.042084
    22  C   -0.129385  -0.254872  -1.433972   0.097924   0.131236  -0.242529
    23  C    0.179561  -0.056388   0.521123   0.005869  -0.035418  -0.371157
    24  H   -0.701161   0.198047   0.064144   0.016773  -0.009036   0.120227
    25  H    1.671567  -0.329713  -0.000665  -0.027362   0.045058  -0.168936
    26  H   -0.329713   2.434104   0.034059   0.262785  -0.337992   0.162517
    27  C   -0.000665   0.034059   6.707761   0.056531   0.109044  -1.565643
    28  H   -0.027362   0.262785   0.056531   2.172145  -0.765127  -0.516495
    29  H    0.045058  -0.337992   0.109044  -0.765127   1.699967   0.400080
    30  C   -0.168936   0.162517  -1.565643  -0.516495   0.400080  12.162813
    31  H   -0.011779   0.013151   0.170023   0.000055  -0.083402  -0.874407
    32  C    0.040089  -0.010567   0.327961   0.020974  -0.025784  -1.237332
    33  H    0.002478  -0.005133  -0.041841   0.009314   0.012531  -0.039454
    34  H    0.002776   0.000151   0.048951   0.013357  -0.007288   0.172426
    35  C   -0.017040   0.033684  -0.135582  -0.030100  -0.003899   0.251605
    36  H   -0.045189   0.048098  -0.158978   0.036041  -0.031593   0.233434
    37  H    0.002755  -0.000755   0.040746   0.001646   0.001771  -0.030130
    38  C   -0.040788   0.017514   0.323011  -0.007901   0.019267  -0.345304
    39  H    0.021695  -0.004778   0.006601   0.003560  -0.000496   0.062166
    40  H   -0.011785   0.002851  -0.020496  -0.004923   0.002401  -0.035097
    41  C    0.279914   0.110847  -0.491807   0.074826  -0.114981   0.160617
    42  H   -0.068601   0.014352  -0.023663   0.007021  -0.012989   0.091653
    43  N   -0.121202  -0.022359   0.539017   0.202687  -0.155634  -2.855901
    44  C    0.046696  -0.044501   0.005380  -0.020605   0.027977  -0.241889
    45  H   -0.011340   0.025939  -0.065388   0.026147  -0.031190   0.061098
    46  H   -0.025393  -0.002088  -0.043254  -0.006290   0.010706   0.072759
    47  H    0.009587  -0.000534   0.066049   0.011518  -0.029073  -0.064211
    48  H    0.007786  -0.000395  -0.008000  -0.002113   0.006677   0.214237
              31         32         33         34         35         36
     1  C    0.000048   0.000193   0.000167  -0.000119   0.002007  -0.007702
     2  H   -0.000013   0.000290   0.000082   0.000012   0.000036  -0.003106
     3  H    0.000021  -0.000510  -0.000169   0.000011   0.000771   0.004908
     4  H   -0.000002  -0.000074   0.000055  -0.000016  -0.000038  -0.000245
     5  N    0.000987  -0.016628  -0.006855   0.000785   0.003830   0.064543
     6  C    0.000026   0.000636   0.002034  -0.000292  -0.002987   0.016065
     7  C   -0.000264  -0.019819  -0.005856  -0.000956   0.015372   0.049952
     8  C    0.000669  -0.002206   0.005423  -0.000849   0.004394  -0.031835
     9  C    0.000135  -0.000718  -0.002169   0.000145   0.001143   0.005530
    10  C    0.000029   0.000043   0.000518  -0.000036   0.000114  -0.003815
    11  C   -0.000148   0.001624   0.000632   0.000044   0.002452  -0.008267
    12  H    0.000001   0.000062  -0.000040   0.000002  -0.000028   0.000685
    13  H   -0.000001   0.000001   0.000024  -0.000002   0.000030  -0.000142
    14  H    0.000010  -0.000002  -0.000114   0.000008  -0.000003   0.000301
    15  H   -0.000068   0.000314   0.000812  -0.000244   0.000230  -0.002628
    16  N    0.000333  -0.011384   0.000409   0.002571   0.018691  -0.012295
    17  C   -0.001528   0.079721   0.025818  -0.004486   0.015648  -0.126899
    18  C    0.008757  -0.044589  -0.010889   0.002598   0.000746   0.072765
    19  O   -0.001647  -0.012974  -0.000783   0.000330   0.007431  -0.005951
    20  N    0.018500   0.091020  -0.011744   0.023757  -0.176642  -0.115595
    21  H   -0.001002   0.013469  -0.002251   0.001647   0.046091  -0.015326
    22  C    0.041323  -0.013231   0.028984   0.009308  -0.256957   0.090544
    23  C   -0.008178   0.079095   0.001391  -0.012192  -0.041181  -0.109576
    24  H    0.004785  -0.041626  -0.000356  -0.003438  -0.013500   0.047655
    25  H   -0.011779   0.040089   0.002478   0.002776  -0.017040  -0.045189
    26  H    0.013151  -0.010567  -0.005133   0.000151   0.033684   0.048098
    27  C    0.170023   0.327961  -0.041841   0.048951  -0.135582  -0.158978
    28  H    0.000055   0.020974   0.009314   0.013357  -0.030100   0.036041
    29  H   -0.083402  -0.025784   0.012531  -0.007288  -0.003899  -0.031593
    30  C   -0.874407  -1.237332  -0.039454   0.172426   0.251605   0.233434
    31  H    2.007248   0.035586  -0.003537  -0.035134   0.078333   0.018728
    32  C    0.035586   6.442907  -0.134307   0.235569  -0.605747  -0.181307
    33  H   -0.003537  -0.134307   1.567457  -0.451867   0.081645  -0.111788
    34  H   -0.035134   0.235569  -0.451867   1.435498  -0.075367   0.090397
    35  C    0.078333  -0.605747   0.081645  -0.075367   6.726956   0.248135
    36  H    0.018728  -0.181307  -0.111788   0.090397   0.248135   1.633100
    37  H   -0.004723   0.050900   0.069733  -0.127599  -0.225725  -0.389978
    38  C    0.015315   0.371172   0.036279  -0.043819  -0.489596  -0.135466
    39  H   -0.002110   0.025938  -0.005592   0.005484   0.100060  -0.109327
    40  H    0.005831  -0.019646   0.006337   0.007791  -0.054390   0.079324
    41  C    0.056216  -0.137144   0.069675  -0.024167  -0.052174   0.102380
    42  H    0.012896   0.005695  -0.002545   0.005838   0.075236   0.020659
    43  N   -0.114897   0.242045   0.047778  -0.173035  -0.186974  -0.056404
    44  C    0.033992  -0.017291   0.003771   0.001493  -0.075750  -0.000921
    45  H   -0.002329   0.056910   0.001802  -0.001810  -0.012871   0.001533
    46  H    0.012230  -0.055374  -0.001941  -0.000719   0.004843   0.003339
    47  H    0.031182   0.019440   0.000177   0.010272  -0.011385  -0.002147
    48  H   -0.025427  -0.126259   0.005944   0.007508   0.106838   0.008502
              37         38         39         40         41         42
     1  C    0.000086   0.001084   0.000303   0.000174   0.000317  -0.000054
     2  H   -0.000035   0.000616   0.000468   0.000015  -0.000048  -0.000026
     3  H   -0.001083  -0.001081  -0.002617   0.000402   0.000222   0.000127
     4  H    0.000159   0.000264   0.000028  -0.000008   0.000135   0.000003
     5  N   -0.006227  -0.020704  -0.008184  -0.000338   0.005370   0.000803
     6  C   -0.002367  -0.001469  -0.000168  -0.000012   0.009306   0.000702
     7  C    0.001916  -0.006856  -0.003775  -0.000027  -0.007462  -0.000441
     8  C    0.000924  -0.000468   0.000665   0.000116  -0.000873  -0.000304
     9  C    0.000207  -0.000769  -0.000353  -0.000063  -0.000963   0.000001
    10  C   -0.000085   0.000395   0.000328   0.000018   0.000162  -0.000016
    11  C    0.000450   0.000350   0.000194  -0.000058   0.000098   0.000094
    12  H   -0.000009  -0.000122  -0.000073  -0.000005  -0.000011   0.000006
    13  H    0.000008   0.000012   0.000009   0.000000   0.000002  -0.000001
    14  H   -0.000004  -0.000015  -0.000007  -0.000002  -0.000016   0.000002
    15  H    0.000126   0.000499   0.000043   0.000042   0.000335  -0.000054
    16  N    0.006013  -0.036232   0.008189  -0.001500   0.024872   0.002511
    17  C    0.007418   0.011564   0.002229   0.001869   0.035263  -0.002269
    18  C    0.004207  -0.060620   0.019177  -0.009641   0.007127   0.014087
    19  O   -0.000385   0.000421  -0.000503   0.000214  -0.008123  -0.000700
    20  N    0.035742   0.060157   0.020363   0.000371  -0.009756   0.034526
    21  H   -0.011518  -0.060683   0.013219  -0.006416   0.120239   0.001770
    22  C   -0.011098  -0.232540  -0.030572   0.048687  -0.007721   0.018058
    23  C    0.040066   0.336340   0.014550   0.001702  -0.970973   0.097407
    24  H    0.001318   0.079601  -0.007067   0.015882  -0.471142  -0.003745
    25  H    0.002755  -0.040788   0.021695  -0.011785   0.279914  -0.068601
    26  H   -0.000755   0.017514  -0.004778   0.002851   0.110847   0.014352
    27  C    0.040746   0.323011   0.006601  -0.020496  -0.491807  -0.023663
    28  H    0.001646  -0.007901   0.003560  -0.004923   0.074826   0.007021
    29  H    0.001771   0.019267  -0.000496   0.002401  -0.114981  -0.012989
    30  C   -0.030130  -0.345304   0.062166  -0.035097   0.160617   0.091653
    31  H   -0.004723   0.015315  -0.002110   0.005831   0.056216   0.012896
    32  C    0.050900   0.371172   0.025938  -0.019646  -0.137144   0.005695
    33  H    0.069733   0.036279  -0.005592   0.006337   0.069675  -0.002545
    34  H   -0.127599  -0.043819   0.005484   0.007791  -0.024167   0.005838
    35  C   -0.225725  -0.489596   0.100060  -0.054390  -0.052174   0.075236
    36  H   -0.389978  -0.135466  -0.109327   0.079324   0.102380   0.020659
    37  H    1.658586   0.073473   0.070389  -0.117974  -0.040635  -0.005671
    38  C    0.073473   6.155870  -0.119751   0.191427  -0.791657   0.033717
    39  H    0.070389  -0.119751   1.608229  -0.436187  -0.113373  -0.003113
    40  H   -0.117974   0.191427  -0.436187   1.364181   0.259325  -0.038967
    41  C   -0.040635  -0.791657  -0.113373   0.259325  10.216551  -0.692095
    42  H   -0.005671   0.033717  -0.003113  -0.038967  -0.692095   1.875609
    43  N    0.069367   0.168799   0.026579  -0.159113  -2.123440  -0.104909
    44  C    0.002181  -0.000169   0.000027   0.006801  -0.200174   0.020785
    45  H    0.000103   0.046760   0.000067  -0.001514   0.077815   0.007040
    46  H   -0.000385   0.018557  -0.000828   0.010302  -0.026314   0.025023
    47  H   -0.000137  -0.041851  -0.000582  -0.000825   0.021887   0.008489
    48  H   -0.000106  -0.111372   0.005696   0.008199   0.155396  -0.030643
              43         44         45         46         47         48
     1  C   -0.000265   0.000010   0.000012   0.000004   0.000000  -0.000009
     2  H    0.000004   0.000004   0.000005  -0.000000   0.000000  -0.000002
     3  H    0.000046   0.000040  -0.000002  -0.000003   0.000006  -0.000021
     4  H   -0.000026  -0.000005  -0.000001   0.000000  -0.000000   0.000002
     5  N   -0.002939   0.000009  -0.000228   0.000057  -0.000025  -0.000209
     6  C   -0.000099  -0.000656   0.000087  -0.000108   0.000023   0.000007
     7  C    0.006842  -0.000303   0.001281   0.000090  -0.000286   0.000180
     8  C   -0.001587   0.000302  -0.000297   0.000079  -0.000031   0.000037
     9  C   -0.000255  -0.000025  -0.000209   0.000012  -0.000010  -0.000003
    10  C    0.000035   0.000025   0.000041   0.000001   0.000001  -0.000001
    11  C   -0.000044  -0.000102  -0.000090  -0.000011  -0.000000   0.000015
    12  H    0.000001  -0.000004  -0.000004  -0.000000  -0.000000   0.000001
    13  H    0.000001   0.000000   0.000001   0.000000   0.000000   0.000000
    14  H   -0.000007  -0.000006  -0.000002  -0.000000  -0.000001  -0.000000
    15  H    0.000252   0.000070  -0.000039  -0.000001   0.000021   0.000000
    16  N   -0.015504  -0.000496  -0.001598   0.000169   0.000063  -0.000084
    17  C   -0.000994  -0.002808  -0.002887  -0.001348   0.000697   0.001422
    18  C   -0.057815  -0.018548  -0.004349   0.000038   0.005071  -0.002663
    19  O   -0.003727  -0.000143  -0.000533   0.000316  -0.000566  -0.000096
    20  N   -0.294852   0.042918  -0.057209   0.004178   0.014219   0.008822
    21  H    0.031986  -0.006216   0.002431  -0.003160   0.000113  -0.000698
    22  C    0.274975   0.146038   0.035841   0.032514   0.038782  -0.065633
    23  C    0.147305   0.053165  -0.094524   0.061773  -0.031300   0.024023
    24  H    0.154724  -0.026689   0.013484   0.014015  -0.007637  -0.000229
    25  H   -0.121202   0.046696  -0.011340  -0.025393   0.009587   0.007786
    26  H   -0.022359  -0.044501   0.025939  -0.002088  -0.000534  -0.000395
    27  C    0.539017   0.005380  -0.065388  -0.043254   0.066049  -0.008000
    28  H    0.202687  -0.020605   0.026147  -0.006290   0.011518  -0.002113
    29  H   -0.155634   0.027977  -0.031190   0.010706  -0.029073   0.006677
    30  C   -2.855901  -0.241889   0.061098   0.072759  -0.064211   0.214237
    31  H   -0.114897   0.033992  -0.002329   0.012230   0.031182  -0.025427
    32  C    0.242045  -0.017291   0.056910  -0.055374   0.019440  -0.126259
    33  H    0.047778   0.003771   0.001802  -0.001941   0.000177   0.005944
    34  H   -0.173035   0.001493  -0.001810  -0.000719   0.010272   0.007508
    35  C   -0.186974  -0.075750  -0.012871   0.004843  -0.011385   0.106838
    36  H   -0.056404  -0.000921   0.001533   0.003339  -0.002147   0.008502
    37  H    0.069367   0.002181   0.000103  -0.000385  -0.000137  -0.000106
    38  C    0.168799  -0.000169   0.046760   0.018557  -0.041851  -0.111372
    39  H    0.026579   0.000027   0.000067  -0.000828  -0.000582   0.005696
    40  H   -0.159113   0.006801  -0.001514   0.010302  -0.000825   0.008199
    41  C   -2.123440  -0.200174   0.077815  -0.026314   0.021887   0.155396
    42  H   -0.104909   0.020785   0.007040   0.025023   0.008489  -0.030643
    43  N   12.286891   0.408657   0.272223  -0.282840  -0.208640   0.044950
    44  C    0.408657   4.247300   0.121188   0.377765   0.389020  -0.063208
    45  H    0.272223   0.121188   1.056673  -0.227844  -0.211705   0.005486
    46  H   -0.282840   0.377765  -0.227844   1.438691  -0.302706  -0.008966
    47  H   -0.208640   0.389020  -0.211705  -0.302706   1.373388  -0.010469
    48  H    0.044950  -0.063208   0.005486  -0.008966  -0.010469   0.622172
 Mulliken charges:
               1
     1  C    0.860860
     2  H   -0.084351
     3  H   -0.262804
     4  H   -0.121151
     5  N   -0.741691
     6  C   -0.204548
     7  C    0.527633
     8  C    1.326463
     9  C    0.277784
    10  C    0.492793
    11  C    0.989502
    12  H   -0.570402
    13  H   -0.465531
    14  H   -0.484802
    15  H   -0.532656
    16  N   -0.968241
    17  C    0.357887
    18  C    0.210773
    19  O   -0.849521
    20  N    0.283497
    21  H   -0.096316
    22  C   -0.012330
    23  C    0.619063
    24  H   -0.303989
    25  H   -0.004708
    26  H   -0.485385
    27  C    0.535323
    28  H   -0.296135
    29  H   -0.011798
    30  C    0.623583
    31  H   -0.395812
    32  C    0.572863
    33  H   -0.142040
    34  H   -0.115296
    35  C    0.641616
    36  H   -0.210139
    37  H   -0.163659
    38  C    0.586767
    39  H   -0.166798
    40  H   -0.095274
    41  C    0.496154
    42  H   -0.383303
    43  N   -0.981706
    44  C    0.784892
    45  H   -0.086002
    46  H   -0.097888
    47  H   -0.075880
    48  H    0.222705
 Sum of Mulliken charges =   1.00000
 Mulliken charges with hydrogens summed into heavy atoms:
               1
     1  C    0.392555
     5  N   -0.741691
     6  C   -0.204548
     7  C    0.527633
     8  C    0.793807
     9  C   -0.207018
    10  C    0.027262
    11  C    0.419099
    16  N   -0.968241
    17  C    0.357887
    18  C    0.210773
    19  O   -0.849521
    20  N    0.187181
    22  C   -0.497716
    23  C    0.310366
    27  C    0.227390
    30  C    0.227771
    32  C    0.315526
    35  C    0.267818
    38  C    0.324694
    41  C    0.112851
    43  N   -0.759001
    44  C    0.525122
 Electronic spatial extent (au):  <R**2>=           9188.1766
 Charge=              1.0000 electrons
 Dipole moment (field-independent basis, Debye):
    X=            -14.6520    Y=              3.7674    Z=              0.6111  Tot=             15.1410
 Quadrupole moment (field-independent basis, Debye-Ang):
   XX=            -21.0553   YY=           -122.4875   ZZ=           -129.9644
   XY=              9.9595   XZ=              0.4936   YZ=             -2.3827
 Traceless Quadrupole moment (field-independent basis, Debye-Ang):
   XX=             70.1138   YY=            -31.3184   ZZ=            -38.7954
   XY=              9.9595   XZ=              0.4936   YZ=             -2.3827
 Octapole moment (field-independent basis, Debye-Ang**2):
  XXX=           -289.2827  YYY=             37.8915  ZZZ=             -2.1718  XYY=              1.8631
  XXY=             -0.7625  XXZ=             23.6070  XZZ=            -60.3305  YZZ=              4.5162
  YYZ=              2.6090  XYZ=            -10.6088
 Hexadecapole moment (field-independent basis, Debye-Ang**3):
 XXXX=          -6780.9416 YYYY=          -1640.9281 ZZZZ=           -734.1896 XXXY=            185.7326
 XXXZ=             95.7806 YYYX=             88.1526 YYYZ=            -23.0889 ZZZX=            -33.1700
 ZZZY=             10.0151 XXYY=          -1609.7231 XXZZ=          -1752.8328 YYZZ=           -406.9704
 XXYZ=            -35.6315 YYXZ=              4.9121 ZZXY=             27.5254
 N-N= 1.990155011049D+03 E-N=-6.267308681661D+03  KE= 9.875657910246D+02
 Leave Link  601 at Mon Jul 12 21:41:52 2021, MaxMem=   262144000 cpu:               0.8 elap:               1.8
 (Enter /dades/curu/g16A03_MST/g16/l9999.exe)
 1\1\GINC-PIRINEUS18\SP\RMP2-FC\Aug-CC-pVDZ\C18H25N4O1(1+)\UBATOR02\12-
 Jul-2021\0\\#p mp2/aug-cc-pVDZ scf=tight maxdisk=180GB geom=allcheck\\
 SET_328_BBB286_conf1.geo_000_090 geometry\\1,1\C,0,-2.2568297304,2.966
 8271333,-3.0109063542\H,0,-2.8489828243,3.7307492871,-2.50055124\H,0,-
 2.7870469123,2.0172185776,-2.9845574899\H,0,-2.0975914029,3.267882863,
 -4.0487177648\N,0,-0.9865998755,2.7736050841,-2.3389710116\C,0,0.01555
 08966,3.6934821739,-2.1560431011\C,0,1.0393864258,3.0361622671,-1.4324
 876872\C,0,2.2123318084,3.7339779641,-1.0923402314\C,0,2.3191720553,5.
 0571583867,-1.4837994035\C,0,1.2835014608,5.6979576306,-2.2052319526\C
 ,0,0.1188628714,5.0350153181,-2.5537552364\H,0,-0.6718152687,5.5311103
 992,-3.1055790042\H,0,1.4065348597,6.7367118242,-2.4920886819\H,0,3.21
 23929885,5.6201359784,-1.2353756921\H,0,2.9980374909,3.2352704256,-0.5
 398350007\N,0,-0.6789687906,1.5862361052,-1.7846749703\C,0,0.527635571
 9,1.7164152361,-1.2369701909\C,0,1.1703816112,0.5911826323,-0.52848316
 08\O,0,2.2839635827,0.6965980549,-0.0062392785\N,0,0.4330511416,-0.557
 6763486,-0.4685383175\H,0,-0.3720813718,-0.6051782095,-1.0812235626\C,
 0,1.0053641404,-1.7862635666,0.0745546474\C,0,0.1220733404,-3.00976053
 48,-0.2428456415\H,0,-0.3755841455,-2.8792084239,-1.2082938193\H,0,0.7
 837380212,-3.8693168527,-0.3763382689\H,0,1.9671977486,-1.9371236914,-
 0.4256756541\C,0,1.3262645846,-1.6817035247,1.58684928\H,0,1.630153159
 8,-0.6582616866,1.8069484611\H,0,2.2090053955,-2.2985522093,1.77769752
 93\C,0,0.2306547308,-2.1026481029,2.5745623829\H,0,0.6985640239,-2.252
 0154649,3.5503035982\C,0,-0.9789952471,-1.1740638584,2.7522197036\H,0,
 -0.6026277204,-0.1787954002,3.002709311\H,0,-1.5404593847,-1.515661279
 4,3.62862171\C,0,-1.9052240039,-1.1049418582,1.5324394428\H,0,-1.46108
 37786,-0.4514533104,0.7833182619\H,0,-2.8522302563,-0.6480590526,1.826
 2247145\C,0,-2.1862748757,-2.488524363,0.929223893\H,0,-2.6457485001,-
 2.3919803155,-0.0581799406\H,0,-2.9159830222,-3.0232303668,1.546269862
 \C,0,-0.9503477205,-3.3939759811,0.7944601256\H,0,-1.284634673,-4.4085
 130477,0.5686717195\N,0,-0.2997699845,-3.4853594819,2.1796762503\C,0,0
 .7301597577,-4.5693799885,2.2974712551\H,0,1.5482014056,-4.3758866382,
 1.6102579541\H,0,0.2578060628,-5.5217036986,2.0606933427\H,0,1.0973324
 03,-4.5744912842,3.3225016504\H,0,-1.0444380496,-3.7249688009,2.849027
 5615\\Version=ES64L-G16RevA.03\State=1-A\HF=-988.7680046\MP2=-992.1944
 743\RMSD=5.180e-09\PG=C01 [X(C18H25N4O1)]\\@


 The impersonal hand of government can
 never replace the helping hand of a neighbor.
                        -- Hubert H. Humphrey
 Job cpu time:       0 days 10 hours 54 minutes 47.7 seconds.
 Elapsed time:       0 days  3 hours 28 minutes  9.7 seconds.
 File lengths (MBytes):  RWF= 132318 Int=      0 D2E=      0 Chk=     45 Scr=      1
 Normal termination of Gaussian 16 at Mon Jul 12 21:41:56 2021.
