 Entering Gaussian System, Link 0=g16
 Input=SET_328_BBB212_conf1.geo_225_060_OCTANOL.dat
 Output=SET_328_BBB212_conf1.geo_225_060_OCTANOL.log
 Initial command:
 /dades/curu/g16A03_MST/g16/l1.exe "/tmp/ubator02/1835277/Gau-95623.inp" -scrdir="/tmp/ubator02/1835277/"
 Entering Link 1 = /dades/curu/g16A03_MST/g16/l1.exe PID=     95624.
  
 Copyright (c) 1988,1990,1992,1993,1995,1998,2003,2009,2016,
            Gaussian, Inc.  All Rights Reserved.
  
 This is part of the Gaussian(R) 16 program.  It is based on
 the Gaussian(R) 09 system (copyright 2009, Gaussian, Inc.),
 the Gaussian(R) 03 system (copyright 2003, Gaussian, Inc.),
 the Gaussian(R) 98 system (copyright 1998, Gaussian, Inc.),
 the Gaussian(R) 94 system (copyright 1995, Gaussian, Inc.),
 the Gaussian 92(TM) system (copyright 1992, Gaussian, Inc.),
 the Gaussian 90(TM) system (copyright 1990, Gaussian, Inc.),
 the Gaussian 88(TM) system (copyright 1988, Gaussian, Inc.),
 the Gaussian 86(TM) system (copyright 1986, Carnegie Mellon
 University), and the Gaussian 82(TM) system (copyright 1983,
 Carnegie Mellon University). Gaussian is a federally registered
 trademark of Gaussian, Inc.
  
 This software contains proprietary and confidential information,
 including trade secrets, belonging to Gaussian, Inc.
  
 This software is provided under written license and may be
 used, copied, transmitted, or stored only in accord with that
 written license.
  
 The following legend is applicable only to US Government
 contracts under FAR:
  
                    RESTRICTED RIGHTS LEGEND
  
 Use, reproduction and disclosure by the US Government is
 subject to restrictions as set forth in subparagraphs (a)
 and (c) of the Commercial Computer Software - Restricted
 Rights clause in FAR 52.227-19.
  
 Gaussian, Inc.
 340 Quinnipiac St., Bldg. 40, Wallingford CT 06492
  
  
 ---------------------------------------------------------------
 Warning -- This program may not be used in any manner that
 competes with the business of Gaussian, Inc. or will provide
 assistance to any competitor of Gaussian, Inc.  The licensee
 of this program is prohibited from giving any competitor of
 Gaussian, Inc. access to this program.  By using this program,
 the user acknowledges that Gaussian, Inc. is engaged in the
 business of creating and licensing software in the field of
 computational chemistry and represents and warrants to the
 licensee that it is not a competitor of Gaussian, Inc. and that
 it will not use this program in any manner prohibited above.
 ---------------------------------------------------------------
  

 Cite this work as:
 Gaussian 16, Revision A.03,
 M. J. Frisch, G. W. Trucks, H. B. Schlegel, G. E. Scuseria, 
 M. A. Robb, J. R. Cheeseman, G. Scalmani, V. Barone, 
 G. A. Petersson, H. Nakatsuji, X. Li, M. Caricato, A. V. Marenich, 
 J. Bloino, B. G. Janesko, R. Gomperts, B. Mennucci, H. P. Hratchian, 
 J. V. Ortiz, A. F. Izmaylov, J. L. Sonnenberg, D. Williams-Young, 
 F. Ding, F. Lipparini, F. Egidi, J. Goings, B. Peng, A. Petrone, 
 T. Henderson, D. Ranasinghe, V. G. Zakrzewski, J. Gao, N. Rega, 
 G. Zheng, W. Liang, M. Hada, M. Ehara, K. Toyota, R. Fukuda, 
 J. Hasegawa, M. Ishida, T. Nakajima, Y. Honda, O. Kitao, H. Nakai, 
 T. Vreven, K. Throssell, J. A. Montgomery, Jr., J. E. Peralta, 
 F. Ogliaro, M. J. Bearpark, J. J. Heyd, E. N. Brothers, K. N. Kudin, 
 V. N. Staroverov, T. A. Keith, R. Kobayashi, J. Normand, 
 K. Raghavachari, A. P. Rendell, J. C. Burant, S. S. Iyengar, 
 J. Tomasi, M. Cossi, J. M. Millam, M. Klene, C. Adamo, R. Cammi, 
 J. W. Ochterski, R. L. Martin, K. Morokuma, O. Farkas, 
 J. B. Foresman, and D. J. Fox, Gaussian, Inc., Wallingford CT, 2016.
 
 ******************************************
 Gaussian 16:  ES64L-G16RevA.03 25-Dec-2016
                12-Jul-2021 
 ******************************************
 %mem=800MB
 %nproc=4
 Will use up to    4 processors via shared memory.
 %chk=SET_328_BBB212_conf1.geo_225_060.chk
 ---------------------------------------------------------------
 #p b3lyp/6-31G(d) opt freq scrf=(iefpcm,read,solvent=n-octanol)
 ---------------------------------------------------------------
 1/18=20,19=15,26=3,38=1,40=2/1,3;
 2/9=110,12=2,17=6,18=5,40=1/2;
 3/5=1,6=6,7=1,11=2,25=1,30=1,70=2203,71=1,72=25,74=-5/1,2,3;
 4//1;
 5/5=2,38=5,53=25/2;
 6/7=2,8=2,9=2,10=2,28=1/1;
 7//1,2,3,16;
 1/18=20,19=15,26=3/3(2);
 2/9=110/2;
 99//99;
 2/9=110/2;
 3/5=1,6=6,7=1,11=2,25=1,30=1,70=2205,71=1,72=25,74=-5/1,2,3;
 4/5=5,16=3,69=1/1;
 5/5=2,38=5,53=25/2;
 7//1,2,3,16;
 1/18=20,19=15,26=3/3(-5);
 2/9=110/2;
 6/7=2,8=2,9=2,10=2,19=2,28=1/1;
 99/9=1/99;
 Leave Link    1 at Mon Jul 12 12:15:40 2021, MaxMem=   104857600 cpu:               0.0 elap:               0.0
 (Enter /dades/curu/g16A03_MST/g16/l101.exe)
 -----------------------------------------
 SET_328_BBB212_conf1.geo_225_060 geometry
 -----------------------------------------
 Symbolic Z-matrix:
 Charge = -1 Multiplicity = 1
 C                     0.868    -0.979    -2.152 
 H                     1.444    -0.241    -2.715 
 H                     0.36     -1.63     -2.867 
 H                     1.524    -1.595    -1.533 
 C                    -0.148    -0.122    -1.276 
 C                    -1.193     0.534    -2.271 
 H                    -0.895     0.798    -3.287 
 H                    -1.584     1.446    -1.815 
 H                    -2.05     -0.099    -2.509 
 C                     0.751     0.815    -0.545 
 C                     0.837     2.141    -0.841 
 C                     1.665     3.003    -0.06 
 C                     2.424     2.426     0.989 
 O                     3.307     3.243     1.554 
 H                     4.033     2.68      1.876 
 C                     2.34      1.079     1.309 
 C                     1.488     0.24      0.523 
 H                     1.461    -0.825     0.741 
 H                     3.006     0.644     2.049 
 H                     1.694     4.069    -0.27 
 H                     0.293     2.596    -1.665 
 C                    -0.892    -1.01     -0.265 
 C                    -1.662    -0.208     0.589 
 H                    -1.736     0.869     0.456 
 C                    -2.419    -0.734     1.629 
 H                    -3.003    -0.097     2.289 
 C                    -2.291    -2.091     1.924 
 O                    -2.859    -2.654     2.959 
 C                    -1.546    -2.898     1.008 
 H                    -1.598    -3.972     1.169 
 C                    -0.804    -2.367    -0.025 
 H                    -0.189    -2.965    -0.693 
 
 ITRead=  0  0  0  0  0  0  0  0  0  0  0  0  0  0  0  0  0  0  0  0
 ITRead=  0  0  0  0  0  0  0  0  0  0  0  0
 MicOpt= -1 -1 -1 -1 -1 -1 -1 -1 -1 -1 -1 -1 -1 -1 -1 -1 -1 -1 -1 -1
 MicOpt= -1 -1 -1 -1 -1 -1 -1 -1 -1 -1 -1 -1
 NAtoms=     32 NQM=       32 NQMF=       0 NMMI=      0 NMMIF=      0
                NMic=       0 NMicF=      0.
                    Isotopes and Nuclear Properties:
 (Nuclear quadrupole moments (NQMom) in fm**2, nuclear magnetic moments (NMagM)
  in nuclear magnetons)

  Atom         1           2           3           4           5           6           7           8           9          10
 IAtWgt=          12           1           1           1          12          12           1           1           1          12
 AtmWgt=  12.0000000   1.0078250   1.0078250   1.0078250  12.0000000  12.0000000   1.0078250   1.0078250   1.0078250  12.0000000
 NucSpn=           0           1           1           1           0           0           1           1           1           0
 AtZEff=  -0.0000000  -0.0000000  -0.0000000  -0.0000000  -0.0000000  -0.0000000  -0.0000000  -0.0000000  -0.0000000  -0.0000000
 NQMom=    0.0000000   0.0000000   0.0000000   0.0000000   0.0000000   0.0000000   0.0000000   0.0000000   0.0000000   0.0000000
 NMagM=    0.0000000   2.7928460   2.7928460   2.7928460   0.0000000   0.0000000   2.7928460   2.7928460   2.7928460   0.0000000
 AtZNuc=   6.0000000   1.0000000   1.0000000   1.0000000   6.0000000   6.0000000   1.0000000   1.0000000   1.0000000   6.0000000

  Atom        11          12          13          14          15          16          17          18          19          20
 IAtWgt=          12          12          12          16           1          12          12           1           1           1
 AtmWgt=  12.0000000  12.0000000  12.0000000  15.9949146   1.0078250  12.0000000  12.0000000   1.0078250   1.0078250   1.0078250
 NucSpn=           0           0           0           0           1           0           0           1           1           1
 AtZEff=  -0.0000000  -0.0000000  -0.0000000  -0.0000000  -0.0000000  -0.0000000  -0.0000000  -0.0000000  -0.0000000  -0.0000000
 NQMom=    0.0000000   0.0000000   0.0000000   0.0000000   0.0000000   0.0000000   0.0000000   0.0000000   0.0000000   0.0000000
 NMagM=    0.0000000   0.0000000   0.0000000   0.0000000   2.7928460   0.0000000   0.0000000   2.7928460   2.7928460   2.7928460
 AtZNuc=   6.0000000   6.0000000   6.0000000   8.0000000   1.0000000   6.0000000   6.0000000   1.0000000   1.0000000   1.0000000

  Atom        21          22          23          24          25          26          27          28          29          30
 IAtWgt=           1          12          12           1          12           1          12          16          12           1
 AtmWgt=   1.0078250  12.0000000  12.0000000   1.0078250  12.0000000   1.0078250  12.0000000  15.9949146  12.0000000   1.0078250
 NucSpn=           1           0           0           1           0           1           0           0           0           1
 AtZEff=  -0.0000000  -0.0000000  -0.0000000  -0.0000000  -0.0000000  -0.0000000  -0.0000000  -0.0000000  -0.0000000  -0.0000000
 NQMom=    0.0000000   0.0000000   0.0000000   0.0000000   0.0000000   0.0000000   0.0000000   0.0000000   0.0000000   0.0000000
 NMagM=    2.7928460   0.0000000   0.0000000   2.7928460   0.0000000   2.7928460   0.0000000   0.0000000   0.0000000   2.7928460
 AtZNuc=   1.0000000   6.0000000   6.0000000   1.0000000   6.0000000   1.0000000   6.0000000   8.0000000   6.0000000   1.0000000

  Atom        31          32
 IAtWgt=          12           1
 AtmWgt=  12.0000000   1.0078250
 NucSpn=           0           1
 AtZEff=  -0.0000000  -0.0000000
 NQMom=    0.0000000   0.0000000
 NMagM=    0.0000000   2.7928460
 AtZNuc=   6.0000000   1.0000000
 Leave Link  101 at Mon Jul 12 12:15:40 2021, MaxMem=   104857600 cpu:               0.1 elap:               0.1
 (Enter /dades/curu/g16A03_MST/g16/l103.exe)

 GradGradGradGradGradGradGradGradGradGradGradGradGradGradGradGradGradGrad
 Berny optimization.
 Initialization pass.
                           ----------------------------
                           !    Initial Parameters    !
                           ! (Angstroms and Degrees)  !
 --------------------------                            --------------------------
 ! Name  Definition              Value          Derivative Info.                !
 --------------------------------------------------------------------------------
 ! R1    R(1,2)                  1.0924         estimate D2E/DX2                !
 ! R2    R(1,3)                  1.0923         estimate D2E/DX2                !
 ! R3    R(1,4)                  1.0922         estimate D2E/DX2                !
 ! R4    R(1,5)                  1.5919         estimate D2E/DX2                !
 ! R5    R(5,6)                  1.5851         estimate D2E/DX2                !
 ! R6    R(5,10)                 1.4901         estimate D2E/DX2                !
 ! R7    R(5,22)                 1.5376         estimate D2E/DX2                !
 ! R8    R(6,7)                  1.0912         estimate D2E/DX2                !
 ! R9    R(6,8)                  1.092          estimate D2E/DX2                !
 ! R10   R(6,9)                  1.0917         estimate D2E/DX2                !
 ! R11   R(10,11)                1.3614         estimate D2E/DX2                !
 ! R12   R(10,17)                1.4193         estimate D2E/DX2                !
 ! R13   R(11,12)                1.4278         estimate D2E/DX2                !
 ! R14   R(11,21)                1.0872         estimate D2E/DX2                !
 ! R15   R(12,13)                1.4175         estimate D2E/DX2                !
 ! R16   R(12,20)                1.0869         estimate D2E/DX2                !
 ! R17   R(13,14)                1.3291         estimate D2E/DX2                !
 ! R18   R(13,16)                1.387          estimate D2E/DX2                !
 ! R19   R(14,15)                0.9735         estimate D2E/DX2                !
 ! R20   R(16,17)                1.431          estimate D2E/DX2                !
 ! R21   R(16,19)                1.0865         estimate D2E/DX2                !
 ! R22   R(17,18)                1.0874         estimate D2E/DX2                !
 ! R23   R(22,23)                1.4019         estimate D2E/DX2                !
 ! R24   R(22,31)                1.3809         estimate D2E/DX2                !
 ! R25   R(23,24)                1.0877         estimate D2E/DX2                !
 ! R26   R(23,25)                1.3897         estimate D2E/DX2                !
 ! R27   R(25,26)                1.0874         estimate D2E/DX2                !
 ! R28   R(25,27)                1.3946         estimate D2E/DX2                !
 ! R29   R(27,28)                1.308          estimate D2E/DX2                !
 ! R30   R(27,29)                1.4302         estimate D2E/DX2                !
 ! R31   R(29,30)                1.0872         estimate D2E/DX2                !
 ! R32   R(29,31)                1.3783         estimate D2E/DX2                !
 ! R33   R(31,32)                1.0872         estimate D2E/DX2                !
 ! A1    A(2,1,3)              108.0894         estimate D2E/DX2                !
 ! A2    A(2,1,4)              110.8794         estimate D2E/DX2                !
 ! A3    A(2,1,5)              104.8585         estimate D2E/DX2                !
 ! A4    A(3,1,4)              108.311          estimate D2E/DX2                !
 ! A5    A(3,1,5)              112.5968         estimate D2E/DX2                !
 ! A6    A(4,1,5)              112.0298         estimate D2E/DX2                !
 ! A7    A(1,5,6)              107.3464         estimate D2E/DX2                !
 ! A8    A(1,5,10)             102.91           estimate D2E/DX2                !
 ! A9    A(1,5,22)             111.0842         estimate D2E/DX2                !
 ! A10   A(6,5,10)             116.452          estimate D2E/DX2                !
 ! A11   A(6,5,22)             109.4364         estimate D2E/DX2                !
 ! A12   A(10,5,22)            109.4215         estimate D2E/DX2                !
 ! A13   A(5,6,7)              120.3017         estimate D2E/DX2                !
 ! A14   A(5,6,8)              108.6365         estimate D2E/DX2                !
 ! A15   A(5,6,9)              114.4836         estimate D2E/DX2                !
 ! A16   A(7,6,8)              106.5299         estimate D2E/DX2                !
 ! A17   A(7,6,9)               98.7242         estimate D2E/DX2                !
 ! A18   A(8,6,9)              107.1096         estimate D2E/DX2                !
 ! A19   A(5,10,11)            122.9507         estimate D2E/DX2                !
 ! A20   A(5,10,17)            115.3194         estimate D2E/DX2                !
 ! A21   A(11,10,17)           121.6963         estimate D2E/DX2                !
 ! A22   A(10,11,12)           120.3812         estimate D2E/DX2                !
 ! A23   A(10,11,21)           122.7406         estimate D2E/DX2                !
 ! A24   A(12,11,21)           116.8782         estimate D2E/DX2                !
 ! A25   A(11,12,13)           118.0052         estimate D2E/DX2                !
 ! A26   A(11,12,20)           120.1271         estimate D2E/DX2                !
 ! A27   A(13,12,20)           121.8651         estimate D2E/DX2                !
 ! A28   A(12,13,14)           114.8412         estimate D2E/DX2                !
 ! A29   A(12,13,16)           122.2488         estimate D2E/DX2                !
 ! A30   A(14,13,16)           122.6248         estimate D2E/DX2                !
 ! A31   A(13,14,15)           106.2942         estimate D2E/DX2                !
 ! A32   A(13,16,17)           118.6027         estimate D2E/DX2                !
 ! A33   A(13,16,19)           120.5868         estimate D2E/DX2                !
 ! A34   A(17,16,19)           120.2888         estimate D2E/DX2                !
 ! A35   A(10,17,16)           119.0104         estimate D2E/DX2                !
 ! A36   A(10,17,18)           122.3261         estimate D2E/DX2                !
 ! A37   A(16,17,18)           118.6137         estimate D2E/DX2                !
 ! A38   A(5,22,23)            109.6281         estimate D2E/DX2                !
 ! A39   A(5,22,31)            130.616          estimate D2E/DX2                !
 ! A40   A(23,22,31)           119.4265         estimate D2E/DX2                !
 ! A41   A(22,23,24)           121.9595         estimate D2E/DX2                !
 ! A42   A(22,23,25)           122.583          estimate D2E/DX2                !
 ! A43   A(24,23,25)           115.4178         estimate D2E/DX2                !
 ! A44   A(23,25,26)           121.6709         estimate D2E/DX2                !
 ! A45   A(23,25,27)           118.4635         estimate D2E/DX2                !
 ! A46   A(26,25,27)           119.4011         estimate D2E/DX2                !
 ! A47   A(25,27,28)           123.1178         estimate D2E/DX2                !
 ! A48   A(25,27,29)           117.4773         estimate D2E/DX2                !
 ! A49   A(28,27,29)           119.3504         estimate D2E/DX2                !
 ! A50   A(27,29,30)           115.9536         estimate D2E/DX2                !
 ! A51   A(27,29,31)           122.8943         estimate D2E/DX2                !
 ! A52   A(30,29,31)           121.1518         estimate D2E/DX2                !
 ! A53   A(22,31,29)           118.331          estimate D2E/DX2                !
 ! A54   A(22,31,32)           118.0201         estimate D2E/DX2                !
 ! A55   A(29,31,32)           123.5812         estimate D2E/DX2                !
 ! D1    D(2,1,5,6)             68.9126         estimate D2E/DX2                !
 ! D2    D(2,1,5,10)           -54.4799         estimate D2E/DX2                !
 ! D3    D(2,1,5,22)          -171.4798         estimate D2E/DX2                !
 ! D4    D(3,1,5,6)            -48.3695         estimate D2E/DX2                !
 ! D5    D(3,1,5,10)          -171.762          estimate D2E/DX2                !
 ! D6    D(3,1,5,22)            71.2382         estimate D2E/DX2                !
 ! D7    D(4,1,5,6)           -170.7478         estimate D2E/DX2                !
 ! D8    D(4,1,5,10)            65.8597         estimate D2E/DX2                !
 ! D9    D(4,1,5,22)           -51.1402         estimate D2E/DX2                !
 ! D10   D(1,5,6,7)            -30.9404         estimate D2E/DX2                !
 ! D11   D(1,5,6,8)           -153.9554         estimate D2E/DX2                !
 ! D12   D(1,5,6,9)             86.3925         estimate D2E/DX2                !
 ! D13   D(10,5,6,7)            83.695          estimate D2E/DX2                !
 ! D14   D(10,5,6,8)           -39.3199         estimate D2E/DX2                !
 ! D15   D(10,5,6,9)          -158.9721         estimate D2E/DX2                !
 ! D16   D(22,5,6,7)          -151.5961         estimate D2E/DX2                !
 ! D17   D(22,5,6,8)            85.389          estimate D2E/DX2                !
 ! D18   D(22,5,6,9)           -34.2632         estimate D2E/DX2                !
 ! D19   D(1,5,10,11)          107.2746         estimate D2E/DX2                !
 ! D20   D(1,5,10,17)          -74.8018         estimate D2E/DX2                !
 ! D21   D(6,5,10,11)           -9.8348         estimate D2E/DX2                !
 ! D22   D(6,5,10,17)          168.0888         estimate D2E/DX2                !
 ! D23   D(22,5,10,11)        -134.5513         estimate D2E/DX2                !
 ! D24   D(22,5,10,17)          43.3723         estimate D2E/DX2                !
 ! D25   D(1,5,22,23)          173.3357         estimate D2E/DX2                !
 ! D26   D(1,5,22,31)            0.1147         estimate D2E/DX2                !
 ! D27   D(6,5,22,23)          -68.3113         estimate D2E/DX2                !
 ! D28   D(6,5,22,31)          118.4677         estimate D2E/DX2                !
 ! D29   D(10,5,22,23)          60.3915         estimate D2E/DX2                !
 ! D30   D(10,5,22,31)        -112.8294         estimate D2E/DX2                !
 ! D31   D(5,10,11,12)         176.7351         estimate D2E/DX2                !
 ! D32   D(5,10,11,21)          -3.241          estimate D2E/DX2                !
 ! D33   D(17,10,11,12)         -1.0589         estimate D2E/DX2                !
 ! D34   D(17,10,11,21)        178.965          estimate D2E/DX2                !
 ! D35   D(5,10,17,16)        -177.7985         estimate D2E/DX2                !
 ! D36   D(5,10,17,18)           4.8057         estimate D2E/DX2                !
 ! D37   D(11,10,17,16)          0.1538         estimate D2E/DX2                !
 ! D38   D(11,10,17,18)       -177.2421         estimate D2E/DX2                !
 ! D39   D(10,11,12,13)          2.3457         estimate D2E/DX2                !
 ! D40   D(10,11,12,20)       -177.0751         estimate D2E/DX2                !
 ! D41   D(21,11,12,13)       -177.6769         estimate D2E/DX2                !
 ! D42   D(21,11,12,20)          2.9023         estimate D2E/DX2                !
 ! D43   D(11,12,13,14)        171.1536         estimate D2E/DX2                !
 ! D44   D(11,12,13,16)         -2.8591         estimate D2E/DX2                !
 ! D45   D(20,12,13,14)         -9.4362         estimate D2E/DX2                !
 ! D46   D(20,12,13,16)        176.551          estimate D2E/DX2                !
 ! D47   D(12,13,14,15)       -150.971          estimate D2E/DX2                !
 ! D48   D(16,13,14,15)         23.0166         estimate D2E/DX2                !
 ! D49   D(12,13,16,17)          1.9976         estimate D2E/DX2                !
 ! D50   D(12,13,16,19)        173.7376         estimate D2E/DX2                !
 ! D51   D(14,13,16,17)       -171.5493         estimate D2E/DX2                !
 ! D52   D(14,13,16,19)          0.1906         estimate D2E/DX2                !
 ! D53   D(13,16,17,10)         -0.5955         estimate D2E/DX2                !
 ! D54   D(13,16,17,18)        176.8979         estimate D2E/DX2                !
 ! D55   D(19,16,17,10)       -172.3608         estimate D2E/DX2                !
 ! D56   D(19,16,17,18)          5.1325         estimate D2E/DX2                !
 ! D57   D(5,22,23,24)           4.0492         estimate D2E/DX2                !
 ! D58   D(5,22,23,25)        -178.3482         estimate D2E/DX2                !
 ! D59   D(31,22,23,24)        178.1444         estimate D2E/DX2                !
 ! D60   D(31,22,23,25)         -4.253          estimate D2E/DX2                !
 ! D61   D(5,22,31,29)         176.4299         estimate D2E/DX2                !
 ! D62   D(5,22,31,32)          -6.456          estimate D2E/DX2                !
 ! D63   D(23,22,31,29)          3.7637         estimate D2E/DX2                !
 ! D64   D(23,22,31,32)       -179.1222         estimate D2E/DX2                !
 ! D65   D(22,23,25,26)        179.3636         estimate D2E/DX2                !
 ! D66   D(22,23,25,27)          7.2335         estimate D2E/DX2                !
 ! D67   D(24,23,25,26)         -2.8883         estimate D2E/DX2                !
 ! D68   D(24,23,25,27)       -175.0184         estimate D2E/DX2                !
 ! D69   D(23,25,27,28)        173.2698         estimate D2E/DX2                !
 ! D70   D(23,25,27,29)         -9.4374         estimate D2E/DX2                !
 ! D71   D(26,25,27,28)          0.9568         estimate D2E/DX2                !
 ! D72   D(26,25,27,29)        178.2496         estimate D2E/DX2                !
 ! D73   D(25,27,29,30)       -170.2534         estimate D2E/DX2                !
 ! D74   D(25,27,29,31)          9.5656         estimate D2E/DX2                !
 ! D75   D(28,27,29,30)          7.1453         estimate D2E/DX2                !
 ! D76   D(28,27,29,31)       -173.0357         estimate D2E/DX2                !
 ! D77   D(27,29,31,22)         -6.6454         estimate D2E/DX2                !
 ! D78   D(27,29,31,32)        176.4128         estimate D2E/DX2                !
 ! D79   D(30,29,31,22)        173.1645         estimate D2E/DX2                !
 ! D80   D(30,29,31,32)         -3.7773         estimate D2E/DX2                !
 --------------------------------------------------------------------------------
 Trust Radius=3.00D-01 FncErr=1.00D-07 GrdErr=1.00D-06 EigMax=2.50D+02 EigMin=1.00D-04
 Number of steps in this run=    178 maximum allowed number of steps=    192.
 GradGradGradGradGradGradGradGradGradGradGradGradGradGradGradGradGradGrad

 Leave Link  103 at Mon Jul 12 12:15:40 2021, MaxMem=   104857600 cpu:               0.0 elap:               0.0
 (Enter /dades/curu/g16A03_MST/g16/l202.exe)
                          Input orientation:                          
 ---------------------------------------------------------------------
 Center     Atomic      Atomic             Coordinates (Angstroms)
 Number     Number       Type             X           Y           Z
 ---------------------------------------------------------------------
      1          6           0        0.868000   -0.979000   -2.152000
      2          1           0        1.444000   -0.241000   -2.715000
      3          1           0        0.360000   -1.630000   -2.867000
      4          1           0        1.524000   -1.595000   -1.533000
      5          6           0       -0.148000   -0.122000   -1.276000
      6          6           0       -1.193000    0.534000   -2.271000
      7          1           0       -0.895000    0.798000   -3.287000
      8          1           0       -1.584000    1.446000   -1.815000
      9          1           0       -2.050000   -0.099000   -2.509000
     10          6           0        0.751000    0.815000   -0.545000
     11          6           0        0.837000    2.141000   -0.841000
     12          6           0        1.665000    3.003000   -0.060000
     13          6           0        2.424000    2.426000    0.989000
     14          8           0        3.307000    3.243000    1.554000
     15          1           0        4.033000    2.680000    1.876000
     16          6           0        2.340000    1.079000    1.309000
     17          6           0        1.488000    0.240000    0.523000
     18          1           0        1.461000   -0.825000    0.741000
     19          1           0        3.006000    0.644000    2.049000
     20          1           0        1.694000    4.069000   -0.270000
     21          1           0        0.293000    2.596000   -1.665000
     22          6           0       -0.892000   -1.010000   -0.265000
     23          6           0       -1.662000   -0.208000    0.589000
     24          1           0       -1.736000    0.869000    0.456000
     25          6           0       -2.419000   -0.734000    1.629000
     26          1           0       -3.003000   -0.097000    2.289000
     27          6           0       -2.291000   -2.091000    1.924000
     28          8           0       -2.859000   -2.654000    2.959000
     29          6           0       -1.546000   -2.898000    1.008000
     30          1           0       -1.598000   -3.972000    1.169000
     31          6           0       -0.804000   -2.367000   -0.025000
     32          1           0       -0.189000   -2.965000   -0.693000
 ---------------------------------------------------------------------
                    Distance matrix (angstroms):
                    1          2          3          4          5
     1  C    0.000000
     2  H    1.092423   0.000000
     3  H    1.092287   1.768469   0.000000
     4  H    1.092224   1.799122   1.770784   0.000000
     5  C    1.591880   2.149266   2.250202   2.243070   0.000000
     6  C    2.559502   2.784157   2.729454   3.529784   1.585051
     7  H    2.748476   2.622523   2.765250   3.828123   2.334209
     8  H    3.465039   3.581166   3.787825   4.357392   2.193454
     9  H    3.068644   3.502947   2.877538   3.995506   2.266809
    10  C    2.411343   2.510834   3.394494   2.716942   1.490145
    11  C    3.384388   3.090995   4.307278   3.861156   2.506116
    12  C    4.568150   4.197785   5.571980   4.830240   3.811988
    13  C    4.886823   4.668287   5.964895   4.831038   4.270564
    14  O    6.124414   5.816647   7.209451   6.009568   5.591883
    15  H    6.295259   6.025981   7.386682   6.015978   5.938608
    16  C    4.287268   4.328717   5.357057   3.986615   3.783486
    17  C    3.004328   3.273827   4.032541   2.756022   2.458443
    18  H    2.957163   3.505037   3.857187   2.401655   2.674206
    19  H    4.985336   5.091048   6.028221   4.476625   4.646515
    20  H    5.450367   4.961514   6.403325   5.805598   4.687161
    21  H    3.653549   3.236645   4.394129   4.370042   2.780886
    22  C    2.580568   3.471420   2.953355   2.790538   1.537596
    23  C    3.808992   4.534836   4.249059   4.071517   2.403709
    24  H    4.122813   4.625985   4.656237   4.544779   2.550225
    25  C    5.016010   5.834051   5.360940   5.127067   3.737781
    26  H    5.956933   6.696011   6.343831   6.111090   4.567371
    27  C    5.275377   6.236429   5.494907   5.172146   4.325438
    28  O    6.543583   7.518820   6.734450   6.364765   5.629900
    29  C    4.415377   5.464474   4.500698   4.192778   3.857102
    30  H    5.105707   6.185433   5.060437   4.764223   4.785711
    31  C    3.040766   4.099937   3.158327   2.879172   2.652426
    32  H    2.681441   3.765016   2.609579   2.348802   2.902451
                    6          7          8          9         10
     6  C    0.000000
     7  H    1.091218   0.000000
     8  H    1.092044   1.749688   0.000000
     9  H    1.091688   1.656478   1.756649   0.000000
    10  C    2.614799   3.198151   2.731902   3.540945   0.000000
    11  C    2.957744   3.284264   2.700545   4.016789   1.361355
    12  C    4.376374   4.672168   4.007527   5.424134   2.420323
    13  C    5.223979   5.652461   4.988675   6.215167   2.783416
    14  O    6.497638   6.860766   6.204938   7.508288   4.102941
    15  H    7.008138   7.381306   6.833515   7.997122   4.484528
    16  C    5.059201   5.627380   5.029099   5.936068   2.455999
    17  C    3.883379   4.528372   4.044486   4.671765   1.419302
    18  H    4.238247   4.940612   4.578493   4.839080   2.201703
    19  H    6.025454   6.611688   6.053247   6.847667   3.441381
    20  H    4.983472   5.148267   4.473526   6.033480   3.399028
    21  H    2.612906   2.697227   2.206384   3.669470   2.153166
    22  C    2.549230   3.521556   2.985515   2.684478   2.471533
    23  C    2.991676   4.077217   2.919078   3.124105   2.855706
    24  H    2.800643   3.836974   2.348079   3.134780   2.681434
    25  C    4.280292   5.369977   4.160620   4.202669   4.144222
    26  H    4.946500   6.027974   4.608386   4.891729   4.791223
    27  C    5.068950   6.119613   5.195223   4.865967   4.877967
    28  O    6.347582   7.401764   6.420802   6.089461   6.110980
    29  C    4.759735   5.703617   5.180841   4.523020   4.634047
    30  H    5.683455   6.565291   6.185400   5.360235   5.600979
    31  C    3.689395   4.546004   4.283861   3.587004   3.579602
    32  H    3.967506   4.624656   4.760444   3.869772   3.897936
                   11         12         13         14         15
    11  C    0.000000
    12  C    1.427792   0.000000
    13  C    2.438994   1.417537   0.000000
    14  O    3.612662   2.314900   1.329061   0.000000
    15  H    4.229306   3.075687   1.854768   0.973514   0.000000
    16  C    2.830080   2.455924   1.387035   2.382858   2.398112
    17  C    2.428600   2.829379   2.423190   3.659198   3.776405
    18  H    3.418955   3.916223   3.399687   4.540629   4.493154
    19  H    3.911224   3.436720   2.153566   2.662786   2.286909
    20  H    2.185789   1.086875   2.194864   2.571191   3.464904
    21  H    1.087169   2.150362   3.407899   4.456991   5.151052
    22  C    3.640057   4.762819   4.937051   6.247269   6.515797
    23  C    3.715872   4.669117   4.877843   6.126303   6.513827
    24  H    3.149686   4.048088   4.473694   5.680962   6.211077
    25  C    4.996805   5.787655   5.818062   6.972032   7.303746
    26  H    5.436096   6.076020   6.124366   7.177181   7.575460
    27  C    5.944698   6.747965   6.596115   7.741192   7.921977
    28  O    7.147898   7.847457   7.589294   8.646860   8.782033
    29  C    5.872735   6.802422   6.641253   7.846120   7.936797
    30  H    6.880268   7.797964   7.559318   8.732896   8.743976
    31  C    4.866292   5.910506   5.866944   7.132017   7.244486
    32  H    5.210165   6.281324   6.222522   7.470628   7.502738
                   16         17         18         19         20
    16  C    0.000000
    17  C    1.430951   0.000000
    18  H    2.172667   1.087418   0.000000
    19  H    1.086453   2.190026   2.501170   0.000000
    20  H    3.442478   3.915677   5.002764   4.339324   0.000000
    21  H    3.916143   3.430176   4.342384   4.996446   2.465473
    22  C    4.157790   2.801400   2.565710   4.825424   5.699444
    23  C    4.265064   3.182383   3.186993   4.964648   5.503939
    24  H    4.169591   3.285469   3.629280   5.007478   4.746786
    25  C    5.102690   4.175711   3.981360   5.613012   6.602407
    26  H    5.557970   4.837500   4.780542   6.059271   6.779812
    27  C    5.645643   4.655878   4.132765   5.962722   7.657641
    28  O    6.609644   5.762442   5.189139   6.789928   8.738134
    29  C    5.568494   4.391745   3.662058   5.860900   7.789093
    30  H    6.406250   5.261336   4.409566   6.578653   8.807137
    31  C    4.851722   3.514259   2.845127   5.280502   6.908120
    32  H    5.172792   3.816151   3.059159   5.545401   7.293955
                   21         22         23         24         25
    21  H    0.000000
    22  C    4.045672   0.000000
    23  C    4.094503   1.401934   0.000000
    24  H    3.405585   2.182388   1.087701   0.000000
    25  C    5.412419   2.448498   1.389721   2.100483   0.000000
    26  H    5.809473   3.436976   2.168087   2.428649   1.087394
    27  C    6.444063   2.813802   2.392395   3.350321   1.394582
    28  O    7.673264   4.118981   3.610073   4.465161   2.376741
    29  C    6.380508   2.369133   2.724907   3.811967   2.414677
    30  H    7.399058   3.365744   3.808962   4.895170   3.371985
    31  C    5.340822   1.380867   2.403007   3.401717   2.830306
    32  H    5.665848   2.121183   3.378506   4.291033   3.916879
                   26         27         28         29         30
    26  H    0.000000
    27  C    2.148536   0.000000
    28  O    2.647241   1.307982   0.000000
    29  C    3.407259   1.430150   2.364298   0.000000
    30  H    4.271305   2.142063   2.555650   1.087245   0.000000
    31  C    3.917027   2.466971   3.634508   1.378265   2.152231
    32  H    5.003633   3.468569   4.534614   2.177002   2.542907
                   31         32
    31  C    0.000000
    32  H    1.087223   0.000000
 Stoichiometry    C15H15O2(1-)
 Framework group  C1[X(C15H15O2)]
 Deg. of freedom    90
 Full point group                 C1      NOp   1
 Largest Abelian subgroup         C1      NOp   1
 Largest concise Abelian subgroup C1      NOp   1
                         Standard orientation:                         
 ---------------------------------------------------------------------
 Center     Atomic      Atomic             Coordinates (Angstroms)
 Number     Number       Type             X           Y           Z
 ---------------------------------------------------------------------
      1          6           0       -0.179861    2.361239    1.390622
      2          1           0       -1.179841    2.793206    1.307955
      3          1           0        0.535134    3.179685    1.500249
      4          1           0       -0.104594    1.719564    2.271271
      5          6           0        0.025819    1.546313    0.038707
      6          6           0        0.137040    2.602791   -1.137673
      7          1           0       -0.396065    3.552962   -1.076598
      8          1           0       -0.183286    2.125940   -2.066417
      9          1           0        1.144388    2.988601   -1.305552
     10          6           0       -1.159534    0.643723    0.010422
     11          6           0       -2.206531    0.822923   -0.841031
     12          6           0       -3.282703   -0.114959   -0.869646
     13          6           0       -3.246684   -1.197480    0.044828
     14          8           0       -4.358225   -1.924465    0.093526
     15          1           0       -4.409788   -2.284481    0.996554
     16          6           0       -2.182750   -1.399032    0.911595
     17          6           0       -1.107230   -0.455180    0.907135
     18          1           0       -0.297903   -0.584510    1.621797
     19          1           0       -2.226954   -2.175830    1.669891
     20          1           0       -4.093014    0.006138   -1.583809
     21          1           0       -2.271898    1.666984   -1.523106
     22          6           0        1.309973    0.702300    0.091528
     23          6           0        1.383125   -0.115441   -1.044856
     24          1           0        0.646241   -0.059333   -1.842947
     25          6           0        2.421614   -1.014956   -1.253994
     26          1           0        2.458267   -1.649580   -2.136226
     27          6           0        3.343790   -1.215880   -0.227310
     28          8           0        4.278344   -2.129753   -0.274872
     29          6           0        3.282815   -0.333432    0.896477
     30          1           0        4.107865   -0.402693    1.601173
     31          6           0        2.252011    0.560524    1.091156
     32          1           0        2.165127    1.196375    1.968765
 ---------------------------------------------------------------------
 Rotational constants (GHZ):           0.7812061           0.2986403           0.2543996
 Leave Link  202 at Mon Jul 12 12:15:40 2021, MaxMem=   104857600 cpu:               0.0 elap:               0.0
 (Enter /dades/curu/g16A03_MST/g16/l301.exe)
 Standard basis: 6-31G(d) (6D, 7F)
 Ernie: Thresh=  0.10000D-02 Tol=  0.10000D-05 Strict=F.
 There are   285 symmetry adapted cartesian basis functions of A   symmetry.
 There are   285 symmetry adapted basis functions of A   symmetry.
   285 basis functions,   536 primitive gaussians,   285 cartesian basis functions
    61 alpha electrons       61 beta electrons
       nuclear repulsion energy      1146.2509077420 Hartrees.
 IExCor=  402 DFT=T Ex+Corr=B3LYP ExCW=0 ScaHFX=  0.200000
 ScaDFX=  0.800000  0.720000  1.000000  0.810000 ScalE2=  1.000000  1.000000
 IRadAn=      5 IRanWt=     -1 IRanGd=            0 ICorTp=0 IEmpDi=  4
 NAtoms=   32 NActive=   32 NUniq=   32 SFac= 1.00D+00 NAtFMM=   60 NAOKFM=F Big=F
 Integral buffers will be    131072 words long.
 Raffenetti 2 integral format.
 Two-electron integral symmetry is turned on.
 Using the following non-standard input for PCM:
 MSTModel=DFT cav MSTCharged
 --- end of non-standard input.
 MST model for solvation energy: B3LYP parametrization.
 MST cavity parameters:
 ISph   IAn     Re0     Alpha   Atom Type   QCorr
 ------------------------------------------------
   1      6     1.50     1.50      CH3        F
   2      1     1.20     1.50      CH3        F
   3      1     1.20     1.50      CH3        F
   4      1     1.20     1.50      CH3        F
   5      6     1.50     1.50      C          F
   6      6     1.50     1.50      CH3        F
   7      1     1.20     1.50      CH3        F
   8      1     1.20     1.50      CH3        F
   9      1     1.20     1.50      CH3        F
  10      6     1.50     1.50      C          F
  11      6     1.50     1.50      CH         F
  12      6     1.50     1.50      CH         F
  13      6     1.50     1.50      C          F
  14      8     1.40     1.50      OH         F
  15      1     0.90     1.50      OH         F
  16      6     1.50     1.50      CH         F
  17      6     1.50     1.50      CH         F
  18      1     1.20     1.50      CH         F
  19      1     1.20     1.50      CH         F
  20      1     1.20     1.50      CH         F
  21      1     1.20     1.50      CH         F
  22      6     1.50     1.50      C          F
  23      6     1.50     1.50      CH         F
  24      1     1.20     1.50      CH         F
  25      6     1.50     1.50      CH         F
  26      1     1.20     1.50      CH         F
  27      6     1.50     1.50      C          F
  28      8     1.40     1.15      O          T
  29      6     1.50     1.50      CH         F
  30      1     1.20     1.50      CH         F
  31      6     1.50     1.50      CH         F
  32      1     1.20     1.50      CH         F
 ------------------------------------------------------------------------------
 Polarizable Continuum Model (PCM)
 =================================
 Model                : PCM.
 Atomic radii         : MST.
 Polarization charges : Total charges.
 Charge compensation  : None.
 Solution method      : On-the-fly selection.
 Cavity type          : Scaled VdW (van der Waals Surface) (Alpha=1.500).
 Cavity algorithm     : GePol (No added spheres)
                        Default sphere list used, NSphG=   32.
                        Lebedev-Laikov grids with approx.  5.0 points / Ang**2.
                        Smoothing algorithm: York/Karplus (Gamma=1.0000).
                        Polarization charges: spherical gaussians, with
                                              point-specific exponents (IZeta= 3).
                        Self-potential: point-specific (ISelfS= 7).
                        Self-field    : sphere-specific E.n sum rule (ISelfD= 2).
 1st derivatives      : Analytical E(r).r(x)/FMM algorithm (CHGder, D1EAlg=3).
                        Cavity 1st derivative terms included.
 Solvent              : n-Octanol, Eps=   9.862900 Eps(inf)=   2.043470
 ------------------------------------------------------------------------------
 GePol: Number of generator spheres                  =      32
 GePol: Total number of spheres                      =      32
 GePol: Number of exposed spheres                    =      32 (100.00%)
 GePol: Number of points                             =    2921
 GePol: Average weight of points                     =       0.11
 GePol: Minimum weight of points                     =   0.14D-11
 GePol: Maximum weight of points                     =    0.20790
 GePol: Number of points with low weight             =     177
 GePol: Fraction of low-weight points (<1% of avg)   =       6.06%
 GePol: Cavity surface area                          =    318.530 Ang**2
 GePol: Cavity volume                                =    374.791 Ang**3
 Surface areas from nonelectrostatic (unscaled) cavity and vdw tensions:
 Sphere =    1 Type =  CH3 Surf =        4.726 Tension =       -0.183
 Sphere =    2 Type =  CH3 Surf =        9.891 Tension =       -0.183
 Sphere =    3 Type =  CH3 Surf =       10.159 Tension =       -0.183
 Sphere =    4 Type =  CH3 Surf =        9.795 Tension =       -0.183
 Sphere =    5 Type =  C   Surf =        1.795 Tension =       -0.205
 Sphere =    6 Type =  CH3 Surf =        4.862 Tension =       -0.183
 Sphere =    7 Type =  CH3 Surf =       10.070 Tension =       -0.183
 Sphere =    8 Type =  CH3 Surf =        9.165 Tension =       -0.183
 Sphere =    9 Type =  CH3 Surf =       10.037 Tension =       -0.183
 Sphere =   10 Type =  C   Surf =        4.970 Tension =       -0.205
 Sphere =   11 Type =  CH  Surf =        7.608 Tension =       -0.195
 Sphere =   12 Type =  CH  Surf =        7.921 Tension =       -0.195
 Sphere =   13 Type =  C   Surf =        6.618 Tension =       -0.205
 Sphere =   14 Type =  OH  Surf =       14.177 Tension =       -0.238
 Sphere =   15 Type =  OH  Surf =        4.406 Tension =       -0.238
 Sphere =   16 Type =  CH  Surf =        7.906 Tension =       -0.195
 Sphere =   17 Type =  CH  Surf =        7.529 Tension =       -0.195
 Sphere =   18 Type =  CH  Surf =        9.723 Tension =       -0.195
 Sphere =   19 Type =  CH  Surf =       10.243 Tension =       -0.195
 Sphere =   20 Type =  CH  Surf =       10.245 Tension =       -0.195
 Sphere =   21 Type =  CH  Surf =        9.358 Tension =       -0.195
 Sphere =   22 Type =  C   Surf =        5.241 Tension =       -0.205
 Sphere =   23 Type =  CH  Surf =        7.227 Tension =       -0.195
 Sphere =   24 Type =  CH  Surf =        9.695 Tension =       -0.195
 Sphere =   25 Type =  CH  Surf =        7.765 Tension =       -0.195
 Sphere =   26 Type =  CH  Surf =       10.238 Tension =       -0.195
 Sphere =   27 Type =  C   Surf =        6.740 Tension =       -0.205
 Sphere =   28 Type =  O   Surf =       16.850 Tension =       -0.185
 Sphere =   29 Type =  CH  Surf =        7.716 Tension =       -0.195
 Sphere =   30 Type =  CH  Surf =       10.202 Tension =       -0.195
 Sphere =   31 Type =  CH  Surf =        7.733 Tension =       -0.195
 Sphere =   32 Type =  CH  Surf =        9.873 Tension =       -0.195
 PCM non-electrostatic energy =        -0.0135487872 Hartrees.
 Nuclear repulsion after PCM non-electrostatic terms =     1146.2373589548 Hartrees.
 Leave Link  301 at Mon Jul 12 12:15:40 2021, MaxMem=   104857600 cpu:               0.1 elap:               0.1
 (Enter /dades/curu/g16A03_MST/g16/l302.exe)
 NPDir=0 NMtPBC=     1 NCelOv=     1 NCel=       1 NClECP=     1 NCelD=      1
         NCelK=      1 NCelE2=     1 NClLst=     1 CellRange=     0.0.
 One-electron integrals computed using PRISM.
 One-electron integral symmetry used in STVInt
 NBasis=   285 RedAO= T EigKep=  4.78D-04  NBF=   285
 NBsUse=   285 1.00D-06 EigRej= -1.00D+00 NBFU=   285
 Precomputing XC quadrature grid using
 IXCGrd= 4 IRadAn=           5 IRanWt=          -1 IRanGd=           0 AccXCQ= 0.00D+00.
 Generated NRdTot=       0 NPtTot=           0 NUsed=           0 NTot=          32
 NSgBfM=   284   284   284   284   284 MxSgAt=    32 MxSgA2=    32.
 Leave Link  302 at Mon Jul 12 12:15:41 2021, MaxMem=   104857600 cpu:               3.7 elap:               1.0
 (Enter /dades/curu/g16A03_MST/g16/l303.exe)
 DipDrv:  MaxL=1.
 Leave Link  303 at Mon Jul 12 12:15:41 2021, MaxMem=   104857600 cpu:               0.1 elap:               0.0
 (Enter /dades/curu/g16A03_MST/g16/l401.exe)
 ExpMin= 1.61D-01 ExpMax= 5.48D+03 ExpMxC= 8.25D+02 IAcc=3 IRadAn=         5 AccDes= 0.00D+00
 Harris functional with IExCor=  402 and IRadAn=       5 diagonalized for initial guess.
 HarFok:  IExCor=  402 AccDes= 0.00D+00 IRadAn=         5 IDoV= 1 UseB2=F ITyADJ=14
 ICtDFT=  3500011 ScaDFX=  1.000000  1.000000  1.000000  1.000000
 FoFCou: FMM=F IPFlag=           0 FMFlag=      100000 FMFlg1=           0
         NFxFlg=           0 DoJE=T BraDBF=F KetDBF=T FulRan=T
         wScrn=  0.000000 ICntrl=       500 IOpCl=  0 I1Cent=   200000004 NGrid=           0
         NMat0=    1 NMatS0=      1 NMatT0=    0 NMatD0=    1 NMtDS0=    0 NMtDT0=    0
 Petite list used in FoFCou.
 Harris En= -731.326122781705    
 JPrj=0 DoOrth=F DoCkMO=F.
 Leave Link  401 at Mon Jul 12 12:15:48 2021, MaxMem=   104857600 cpu:              29.0 elap:               7.3
 (Enter /dades/curu/g16A03_MST/g16/l502.exe)
 Integral symmetry usage will be decided dynamically.
 Closed shell SCF:
 Using DIIS extrapolation, IDIIS=  1040.
 NGot=   104857600 LenX=   104690183 LenY=   104608517
 Requested convergence on RMS density matrix=1.00D-08 within 128 cycles.
 Requested convergence on MAX density matrix=1.00D-06.
 Requested convergence on             energy=1.00D-06.
 No special actions if energy rises.
 Fock matrices will be formed incrementally for  20 cycles.

 Cycle   1  Pass 1  IDiag  1:
 FoFJK:  IHMeth= 1 ICntrl=       0 DoSepK=F KAlg= 0 I1Cent=           0 FoldK=F
 IRaf= 850000000 NMat=       1 IRICut=       1 DoRegI=T DoRafI=F ISym2E= 0 IDoP0=0 IntGTp=1.
 FoFCou: FMM=F IPFlag=           0 FMFlag=      100000 FMFlg1=           0
         NFxFlg=           0 DoJE=F BraDBF=F KetDBF=F FulRan=T
         wScrn=  0.000000 ICntrl=         0 IOpCl=  0 I1Cent=           0 NGrid=           0
         NMat0=    1 NMatS0=      1 NMatT0=    0 NMatD0=    1 NMtDS0=    0 NMtDT0=    0
 Symmetry not used in FoFCou.
 Inv3:  Mode=1 IEnd=    25596723.
 Iteration    1 A*A^-1 deviation from unit magnitude is 7.99D-15 for    721.
 Iteration    1 A*A^-1 deviation from orthogonality  is 3.22D-15 for   2149    324.
 Iteration    1 A^-1*A deviation from unit magnitude is 7.55D-15 for    721.
 Iteration    1 A^-1*A deviation from orthogonality  is 4.64D-15 for   2904   1341.
 E= -730.645732083192    
 DIIS: error= 2.54D-02 at cycle   1 NSaved=   1.
 NSaved= 1 IEnMin= 1 EnMin= -730.645732083192     IErMin= 1 ErrMin= 2.54D-02
 ErrMax= 2.54D-02  0.00D+00 EMaxC= 1.00D-01 BMatC= 4.97D-01 BMatP= 4.97D-01
 IDIUse=3 WtCom= 7.46D-01 WtEn= 2.54D-01
 Coeff-Com:  0.100D+01
 Coeff-En:   0.100D+01
 Coeff:      0.100D+01
 Gap=     0.105 Goal=   None    Shift=    0.000
 GapD=    0.105 DampG=1.000 DampE=0.500 DampFc=0.5000 IDamp=-1.
 Damping current iteration by 5.00D-01
 RMSDP=6.34D-03 MaxDP=1.83D-01              OVMax= 2.05D-01

 Cycle   2  Pass 1  IDiag  1:
 RMSU=  3.15D-03    CP:  9.80D-01
 E= -730.880679370142     Delta-E=       -0.234947286950 Rises=F Damp=T
 DIIS: error= 1.12D-02 at cycle   2 NSaved=   2.
 NSaved= 2 IEnMin= 2 EnMin= -730.880679370142     IErMin= 2 ErrMin= 1.12D-02
 ErrMax= 1.12D-02  0.00D+00 EMaxC= 1.00D-01 BMatC= 2.50D-02 BMatP= 4.97D-01
 IDIUse=3 WtCom= 8.88D-01 WtEn= 1.12D-01
 Coeff-Com:  0.461D-01 0.954D+00
 Coeff-En:   0.481D-01 0.952D+00
 Coeff:      0.463D-01 0.954D+00
 Gap=     0.151 Goal=   None    Shift=    0.000
 RMSDP=1.57D-03 MaxDP=5.74D-02 DE=-2.35D-01 OVMax= 1.23D-01

 Cycle   3  Pass 1  IDiag  1:
 RMSU=  1.44D-03    CP:  9.69D-01  8.14D-01
 E= -731.131812628435     Delta-E=       -0.251133258292 Rises=F Damp=F
 DIIS: error= 9.41D-03 at cycle   3 NSaved=   3.
 NSaved= 3 IEnMin= 3 EnMin= -731.131812628435     IErMin= 3 ErrMin= 9.41D-03
 ErrMax= 9.41D-03  0.00D+00 EMaxC= 1.00D-01 BMatC= 2.22D-02 BMatP= 2.50D-02
 IDIUse=3 WtCom= 9.06D-01 WtEn= 9.41D-02
 Coeff-Com: -0.147D-01 0.485D+00 0.530D+00
 Coeff-En:   0.000D+00 0.000D+00 0.100D+01
 Coeff:     -0.134D-01 0.439D+00 0.574D+00
 Gap=     0.128 Goal=   None    Shift=    0.000
 RMSDP=8.84D-04 MaxDP=3.46D-02 DE=-2.51D-01 OVMax= 5.33D-02

 Cycle   4  Pass 1  IDiag  1:
 RMSU=  6.54D-04    CP:  9.72D-01  8.89D-01  6.22D-01
 E= -731.144550680584     Delta-E=       -0.012738052150 Rises=F Damp=F
 DIIS: error= 5.07D-03 at cycle   4 NSaved=   4.
 NSaved= 4 IEnMin= 4 EnMin= -731.144550680584     IErMin= 4 ErrMin= 5.07D-03
 ErrMax= 5.07D-03  0.00D+00 EMaxC= 1.00D-01 BMatC= 7.50D-03 BMatP= 2.22D-02
 IDIUse=3 WtCom= 9.49D-01 WtEn= 5.07D-02
 Coeff-Com: -0.110D-01 0.809D-01 0.374D+00 0.556D+00
 Coeff-En:   0.000D+00 0.000D+00 0.293D+00 0.707D+00
 Coeff:     -0.104D-01 0.768D-01 0.370D+00 0.563D+00
 Gap=     0.128 Goal=   None    Shift=    0.000
 RMSDP=3.66D-04 MaxDP=1.53D-02 DE=-1.27D-02 OVMax= 1.93D-02

 Cycle   5  Pass 1  IDiag  1:
 RMSU=  1.18D-04    CP:  9.70D-01  8.64D-01  7.54D-01  5.77D-01
 E= -731.151037498495     Delta-E=       -0.006486817911 Rises=F Damp=F
 DIIS: error= 4.17D-04 at cycle   5 NSaved=   5.
 NSaved= 5 IEnMin= 5 EnMin= -731.151037498495     IErMin= 5 ErrMin= 4.17D-04
 ErrMax= 4.17D-04  0.00D+00 EMaxC= 1.00D-01 BMatC= 1.68D-04 BMatP= 7.50D-03
 IDIUse=3 WtCom= 9.96D-01 WtEn= 4.17D-03
 Coeff-Com: -0.379D-02 0.146D-01 0.148D+00 0.265D+00 0.576D+00
 Coeff-En:   0.000D+00 0.000D+00 0.000D+00 0.000D+00 0.100D+01
 Coeff:     -0.377D-02 0.145D-01 0.147D+00 0.264D+00 0.578D+00
 Gap=     0.129 Goal=   None    Shift=    0.000
 RMSDP=6.64D-05 MaxDP=2.14D-03 DE=-6.49D-03 OVMax= 4.02D-03

 Cycle   6  Pass 1  IDiag  1:
 RMSU=  5.42D-05    CP:  9.70D-01  8.68D-01  7.46D-01  5.94D-01  7.27D-01
 E= -731.151168703590     Delta-E=       -0.000131205095 Rises=F Damp=F
 DIIS: error= 1.93D-04 at cycle   6 NSaved=   6.
 NSaved= 6 IEnMin= 6 EnMin= -731.151168703590     IErMin= 6 ErrMin= 1.93D-04
 ErrMax= 1.93D-04  0.00D+00 EMaxC= 1.00D-01 BMatC= 2.93D-05 BMatP= 1.68D-04
 IDIUse=3 WtCom= 9.98D-01 WtEn= 1.93D-03
 Coeff-Com: -0.130D-02 0.206D-02 0.507D-01 0.100D+00 0.345D+00 0.503D+00
 Coeff-En:   0.000D+00 0.000D+00 0.000D+00 0.000D+00 0.143D+00 0.857D+00
 Coeff:     -0.130D-02 0.206D-02 0.506D-01 0.100D+00 0.345D+00 0.504D+00
 Gap=     0.129 Goal=   None    Shift=    0.000
 RMSDP=3.07D-05 MaxDP=5.73D-04 DE=-1.31D-04 OVMax= 2.40D-03

 Cycle   7  Pass 1  IDiag  1:
 RMSU=  1.23D-05    CP:  9.70D-01  8.67D-01  7.51D-01  6.03D-01  7.43D-01
                    CP:  5.13D-01
 E= -731.151196254887     Delta-E=       -0.000027551296 Rises=F Damp=F
 DIIS: error= 6.35D-05 at cycle   7 NSaved=   7.
 NSaved= 7 IEnMin= 7 EnMin= -731.151196254887     IErMin= 7 ErrMin= 6.35D-05
 ErrMax= 6.35D-05  0.00D+00 EMaxC= 1.00D-01 BMatC= 3.12D-06 BMatP= 2.93D-05
 IDIUse=1 WtCom= 1.00D+00 WtEn= 0.00D+00
 Coeff-Com: -0.525D-03 0.110D-03 0.212D-01 0.441D-01 0.177D+00 0.316D+00
 Coeff-Com:  0.442D+00
 Coeff:     -0.525D-03 0.110D-03 0.212D-01 0.441D-01 0.177D+00 0.316D+00
 Coeff:      0.442D+00
 Gap=     0.129 Goal=   None    Shift=    0.000
 RMSDP=8.01D-06 MaxDP=2.24D-04 DE=-2.76D-05 OVMax= 7.59D-04

 Cycle   8  Pass 1  IDiag  1:
 RMSU=  3.34D-06    CP:  9.70D-01  8.66D-01  7.51D-01  6.02D-01  7.46D-01
                    CP:  5.83D-01  5.04D-01
 E= -731.151199364505     Delta-E=       -0.000003109618 Rises=F Damp=F
 DIIS: error= 1.06D-05 at cycle   8 NSaved=   8.
 NSaved= 8 IEnMin= 8 EnMin= -731.151199364505     IErMin= 8 ErrMin= 1.06D-05
 ErrMax= 1.06D-05  0.00D+00 EMaxC= 1.00D-01 BMatC= 9.35D-08 BMatP= 3.12D-06
 IDIUse=1 WtCom= 1.00D+00 WtEn= 0.00D+00
 Coeff-Com: -0.688D-04-0.217D-03 0.310D-02 0.703D-02 0.366D-01 0.780D-01
 Coeff-Com:  0.185D+00 0.691D+00
 Coeff:     -0.688D-04-0.217D-03 0.310D-02 0.703D-02 0.366D-01 0.780D-01
 Coeff:      0.185D+00 0.691D+00
 Gap=     0.129 Goal=   None    Shift=    0.000
 RMSDP=1.75D-06 MaxDP=4.57D-05 DE=-3.11D-06 OVMax= 1.55D-04

 Cycle   9  Pass 1  IDiag  1:
 RMSU=  1.16D-06    CP:  9.70D-01  8.66D-01  7.51D-01  6.02D-01  7.49D-01
                    CP:  5.73D-01  5.65D-01  7.66D-01
 E= -731.151199434782     Delta-E=       -0.000000070277 Rises=F Damp=F
 DIIS: error= 5.09D-06 at cycle   9 NSaved=   9.
 NSaved= 9 IEnMin= 9 EnMin= -731.151199434782     IErMin= 9 ErrMin= 5.09D-06
 ErrMax= 5.09D-06  0.00D+00 EMaxC= 1.00D-01 BMatC= 2.34D-08 BMatP= 9.35D-08
 IDIUse=1 WtCom= 1.00D+00 WtEn= 0.00D+00
 Coeff-Com:  0.470D-05-0.140D-03-0.281D-04 0.255D-03 0.590D-02 0.177D-01
 Coeff-Com:  0.637D-01 0.403D+00 0.510D+00
 Coeff:      0.470D-05-0.140D-03-0.281D-04 0.255D-03 0.590D-02 0.177D-01
 Coeff:      0.637D-01 0.403D+00 0.510D+00
 Gap=     0.129 Goal=   None    Shift=    0.000
 RMSDP=6.22D-07 MaxDP=2.05D-05 DE=-7.03D-08 OVMax= 4.26D-05

 Cycle  10  Pass 1  IDiag  1:
 RMSU=  3.44D-07    CP:  9.70D-01  8.66D-01  7.51D-01  6.02D-01  7.50D-01
                    CP:  5.76D-01  5.65D-01  8.26D-01  6.27D-01
 E= -731.151199454545     Delta-E=       -0.000000019763 Rises=F Damp=F
 DIIS: error= 9.58D-07 at cycle  10 NSaved=  10.
 NSaved=10 IEnMin=10 EnMin= -731.151199454545     IErMin=10 ErrMin= 9.58D-07
 ErrMax= 9.58D-07  0.00D+00 EMaxC= 1.00D-01 BMatC= 9.75D-10 BMatP= 2.34D-08
 IDIUse=1 WtCom= 1.00D+00 WtEn= 0.00D+00
 Coeff-Com:  0.814D-05-0.296D-04-0.340D-03-0.667D-03-0.139D-02-0.575D-03
 Coeff-Com:  0.500D-02 0.102D+00 0.214D+00 0.682D+00
 Coeff:      0.814D-05-0.296D-04-0.340D-03-0.667D-03-0.139D-02-0.575D-03
 Coeff:      0.500D-02 0.102D+00 0.214D+00 0.682D+00
 Gap=     0.129 Goal=   None    Shift=    0.000
 RMSDP=1.67D-07 MaxDP=5.31D-06 DE=-1.98D-08 OVMax= 1.30D-05

 Cycle  11  Pass 1  IDiag  1:
 RMSU=  9.90D-08    CP:  9.70D-01  8.66D-01  7.51D-01  6.02D-01  7.49D-01
                    CP:  5.77D-01  5.64D-01  8.39D-01  6.88D-01  7.49D-01
 E= -731.151199455455     Delta-E=       -0.000000000909 Rises=F Damp=F
 DIIS: error= 4.11D-07 at cycle  11 NSaved=  11.
 NSaved=11 IEnMin=11 EnMin= -731.151199455455     IErMin=11 ErrMin= 4.11D-07
 ErrMax= 4.11D-07  0.00D+00 EMaxC= 1.00D-01 BMatC= 1.56D-10 BMatP= 9.75D-10
 IDIUse=1 WtCom= 1.00D+00 WtEn= 0.00D+00
 Coeff-Com:  0.408D-05-0.764D-05-0.184D-03-0.383D-03-0.109D-02-0.136D-02
 Coeff-Com: -0.138D-02 0.324D-01 0.852D-01 0.379D+00 0.508D+00
 Coeff:      0.408D-05-0.764D-05-0.184D-03-0.383D-03-0.109D-02-0.136D-02
 Coeff:     -0.138D-02 0.324D-01 0.852D-01 0.379D+00 0.508D+00
 Gap=     0.129 Goal=   None    Shift=    0.000
 RMSDP=5.46D-08 MaxDP=1.76D-06 DE=-9.09D-10 OVMax= 4.47D-06

 Cycle  12  Pass 1  IDiag  1:
 RMSU=  3.37D-08    CP:  9.70D-01  8.66D-01  7.51D-01  6.02D-01  7.50D-01
                    CP:  5.77D-01  5.64D-01  8.42D-01  6.77D-01  8.13D-01
                    CP:  6.88D-01
 E= -731.151199455565     Delta-E=       -0.000000000111 Rises=F Damp=F
 DIIS: error= 7.99D-08 at cycle  12 NSaved=  12.
 NSaved=12 IEnMin=12 EnMin= -731.151199455565     IErMin=12 ErrMin= 7.99D-08
 ErrMax= 7.99D-08  0.00D+00 EMaxC= 1.00D-01 BMatC= 7.41D-12 BMatP= 1.56D-10
 IDIUse=1 WtCom= 1.00D+00 WtEn= 0.00D+00
 Coeff-Com:  0.406D-06 0.102D-05-0.284D-04-0.676D-04-0.251D-03-0.481D-03
 Coeff-Com: -0.134D-02-0.631D-03 0.420D-02 0.583D-01 0.199D+00 0.741D+00
 Coeff:      0.406D-06 0.102D-05-0.284D-04-0.676D-04-0.251D-03-0.481D-03
 Coeff:     -0.134D-02-0.631D-03 0.420D-02 0.583D-01 0.199D+00 0.741D+00
 Gap=     0.129 Goal=   None    Shift=    0.000
 RMSDP=1.59D-08 MaxDP=4.11D-07 DE=-1.11D-10 OVMax= 1.09D-06

 Cycle  13  Pass 1  IDiag  1:
 RMSU=  1.11D-08    CP:  9.70D-01  8.66D-01  7.51D-01  6.02D-01  7.50D-01
                    CP:  5.77D-01  5.64D-01  8.43D-01  6.82D-01  8.20D-01
                    CP:  7.46D-01  8.48D-01
 E= -731.151199455587     Delta-E=       -0.000000000022 Rises=F Damp=F
 DIIS: error= 4.53D-08 at cycle  13 NSaved=  13.
 NSaved=13 IEnMin=13 EnMin= -731.151199455587     IErMin=13 ErrMin= 4.53D-08
 ErrMax= 4.53D-08  0.00D+00 EMaxC= 1.00D-01 BMatC= 1.66D-12 BMatP= 7.41D-12
 IDIUse=1 WtCom= 1.00D+00 WtEn= 0.00D+00
 Coeff-Com: -0.144D-06 0.122D-05 0.138D-05-0.197D-05-0.335D-04-0.131D-03
 Coeff-Com: -0.596D-03-0.299D-02-0.500D-02-0.146D-02 0.627D-01 0.409D+00
 Coeff-Com:  0.539D+00
 Coeff:     -0.144D-06 0.122D-05 0.138D-05-0.197D-05-0.335D-04-0.131D-03
 Coeff:     -0.596D-03-0.299D-02-0.500D-02-0.146D-02 0.627D-01 0.409D+00
 Coeff:      0.539D+00
 Gap=     0.129 Goal=   None    Shift=    0.000
 RMSDP=5.71D-09 MaxDP=2.14D-07 DE=-2.21D-11 OVMax= 6.06D-07

 Error on total polarization charges =  0.00361
 SCF Done:  E(RB3LYP) =  -731.151199456     A.U. after   13 cycles
            NFock= 13  Conv=0.57D-08     -V/T= 2.0090
 KE= 7.245953859077D+02 PE=-4.009719025217D+03 EE= 1.407735080898D+03
 Leave Link  502 at Mon Jul 12 12:19:24 2021, MaxMem=   104857600 cpu:             836.5 elap:             216.0
 (Enter /dades/curu/g16A03_MST/g16/l601.exe)
 Copying SCF densities to generalized density rwf, IOpCl= 0 IROHF=0.

 **********************************************************************

            Population analysis using the SCF density.

 **********************************************************************

 Orbital symmetries:
       Occupied  (A) (A) (A) (A) (A) (A) (A) (A) (A) (A) (A) (A)
                 (A) (A) (A) (A) (A) (A) (A) (A) (A) (A) (A) (A)
                 (A) (A) (A) (A) (A) (A) (A) (A) (A) (A) (A) (A)
                 (A) (A) (A) (A) (A) (A) (A) (A) (A) (A) (A) (A)
                 (A) (A) (A) (A) (A) (A) (A) (A) (A) (A) (A) (A)
                 (A)
       Virtual   (A) (A) (A) (A) (A) (A) (A) (A) (A) (A) (A) (A)
                 (A) (A) (A) (A) (A) (A) (A) (A) (A) (A) (A) (A)
                 (A) (A) (A) (A) (A) (A) (A) (A) (A) (A) (A) (A)
                 (A) (A) (A) (A) (A) (A) (A) (A) (A) (A) (A) (A)
                 (A) (A) (A) (A) (A) (A) (A) (A) (A) (A) (A) (A)
                 (A) (A) (A) (A) (A) (A) (A) (A) (A) (A) (A) (A)
                 (A) (A) (A) (A) (A) (A) (A) (A) (A) (A) (A) (A)
                 (A) (A) (A) (A) (A) (A) (A) (A) (A) (A) (A) (A)
                 (A) (A) (A) (A) (A) (A) (A) (A) (A) (A) (A) (A)
                 (A) (A) (A) (A) (A) (A) (A) (A) (A) (A) (A) (A)
                 (A) (A) (A) (A) (A) (A) (A) (A) (A) (A) (A) (A)
                 (A) (A) (A) (A) (A) (A) (A) (A) (A) (A) (A) (A)
                 (A) (A) (A) (A) (A) (A) (A) (A) (A) (A) (A) (A)
                 (A) (A) (A) (A) (A) (A) (A) (A) (A) (A) (A) (A)
                 (A) (A) (A) (A) (A) (A) (A) (A) (A) (A) (A) (A)
                 (A) (A) (A) (A) (A) (A) (A) (A) (A) (A) (A) (A)
                 (A) (A) (A) (A) (A) (A) (A) (A) (A) (A) (A) (A)
                 (A) (A) (A) (A) (A) (A) (A) (A) (A) (A) (A) (A)
                 (A) (A) (A) (A) (A) (A) (A) (A)
 The electronic state is 1-A.
 Alpha  occ. eigenvalues --  -19.16160 -19.00904 -10.23023 -10.18134 -10.17631
 Alpha  occ. eigenvalues --  -10.17431 -10.17159 -10.17083 -10.16769 -10.16607
 Alpha  occ. eigenvalues --  -10.15677 -10.15586 -10.14214 -10.13614 -10.13075
 Alpha  occ. eigenvalues --  -10.12009 -10.11913  -1.05824  -0.89213  -0.84039
 Alpha  occ. eigenvalues --   -0.80039  -0.76310  -0.72723  -0.70224  -0.69584
 Alpha  occ. eigenvalues --   -0.66521  -0.65957  -0.60982  -0.59449  -0.55839
 Alpha  occ. eigenvalues --   -0.54980  -0.52561  -0.51514  -0.46570  -0.46045
 Alpha  occ. eigenvalues --   -0.43480  -0.42631  -0.41513  -0.41007  -0.40324
 Alpha  occ. eigenvalues --   -0.39767  -0.38619  -0.38390  -0.37807  -0.36785
 Alpha  occ. eigenvalues --   -0.36277  -0.35397  -0.33486  -0.32873  -0.31886
 Alpha  occ. eigenvalues --   -0.31319  -0.31157  -0.30449  -0.28508  -0.27664
 Alpha  occ. eigenvalues --   -0.24906  -0.23243  -0.20552  -0.19314  -0.15973
 Alpha  occ. eigenvalues --   -0.12618
 Alpha virt. eigenvalues --    0.00256   0.03266   0.04817   0.07995   0.09573
 Alpha virt. eigenvalues --    0.11000   0.12688   0.14545   0.14937   0.15802
 Alpha virt. eigenvalues --    0.16598   0.17532   0.17823   0.18221   0.19335
 Alpha virt. eigenvalues --    0.19672   0.20360   0.21867   0.22049   0.22167
 Alpha virt. eigenvalues --    0.24259   0.25172   0.26105   0.27818   0.28775
 Alpha virt. eigenvalues --    0.30338   0.32282   0.33277   0.35392   0.36433
 Alpha virt. eigenvalues --    0.37147   0.37894   0.39425   0.42153   0.43314
 Alpha virt. eigenvalues --    0.51903   0.52032   0.52503   0.52705   0.53915
 Alpha virt. eigenvalues --    0.54275   0.54906   0.56607   0.57342   0.58408
 Alpha virt. eigenvalues --    0.59457   0.59938   0.60481   0.61365   0.62117
 Alpha virt. eigenvalues --    0.62728   0.63363   0.64362   0.64996   0.65349
 Alpha virt. eigenvalues --    0.66125   0.66892   0.68648   0.68956   0.70622
 Alpha virt. eigenvalues --    0.70926   0.71730   0.73117   0.74550   0.75869
 Alpha virt. eigenvalues --    0.77487   0.79109   0.80223   0.81516   0.82029
 Alpha virt. eigenvalues --    0.83265   0.84252   0.84410   0.85243   0.87651
 Alpha virt. eigenvalues --    0.88107   0.88246   0.88692   0.89991   0.90159
 Alpha virt. eigenvalues --    0.91175   0.91702   0.92920   0.93701   0.94319
 Alpha virt. eigenvalues --    0.95086   0.97011   0.97915   0.99288   0.99880
 Alpha virt. eigenvalues --    1.00185   1.02113   1.02273   1.04417   1.05132
 Alpha virt. eigenvalues --    1.05967   1.06977   1.07706   1.08394   1.11620
 Alpha virt. eigenvalues --    1.14372   1.16911   1.18532   1.19017   1.20017
 Alpha virt. eigenvalues --    1.21493   1.23650   1.24577   1.26471   1.28264
 Alpha virt. eigenvalues --    1.33572   1.33755   1.35186   1.37778   1.39326
 Alpha virt. eigenvalues --    1.42043   1.42145   1.44274   1.45410   1.46410
 Alpha virt. eigenvalues --    1.48874   1.49961   1.52046   1.53436   1.54288
 Alpha virt. eigenvalues --    1.55422   1.57798   1.60221   1.63427   1.67843
 Alpha virt. eigenvalues --    1.69560   1.74016   1.77551   1.79030   1.80127
 Alpha virt. eigenvalues --    1.82210   1.83175   1.84221   1.86843   1.87361
 Alpha virt. eigenvalues --    1.89618   1.90591   1.91008   1.92051   1.94513
 Alpha virt. eigenvalues --    1.94670   1.96056   1.98345   1.99247   2.00436
 Alpha virt. eigenvalues --    2.01507   2.02441   2.03922   2.06195   2.07081
 Alpha virt. eigenvalues --    2.08825   2.09574   2.11522   2.12064   2.14124
 Alpha virt. eigenvalues --    2.15586   2.17340   2.20523   2.20963   2.21555
 Alpha virt. eigenvalues --    2.23984   2.24918   2.28508   2.30196   2.31894
 Alpha virt. eigenvalues --    2.32399   2.34086   2.34921   2.35907   2.37206
 Alpha virt. eigenvalues --    2.38468   2.40861   2.41772   2.44843   2.47177
 Alpha virt. eigenvalues --    2.52353   2.53266   2.59533   2.61136   2.62379
 Alpha virt. eigenvalues --    2.63475   2.64900   2.66601   2.68404   2.69295
 Alpha virt. eigenvalues --    2.72906   2.73319   2.76832   2.77556   2.81062
 Alpha virt. eigenvalues --    2.83758   2.87527   2.90922   2.93095   2.95310
 Alpha virt. eigenvalues --    3.00501   3.03200   3.07450   3.18545   3.24529
 Alpha virt. eigenvalues --    3.41249   3.46448   3.92868   4.02111   4.12344
 Alpha virt. eigenvalues --    4.12995   4.18566   4.19901   4.24518   4.28733
 Alpha virt. eigenvalues --    4.33113   4.34758   4.36309   4.44195   4.49266
 Alpha virt. eigenvalues --    4.54924   4.69824   4.78307   4.85223
          Condensed to atoms (all electrons):
               1          2          3          4          5          6
     1  C    5.222339   0.356936   0.351818   0.363859   0.323343  -0.051008
     2  H    0.356936   0.595188  -0.030626  -0.027164  -0.032779  -0.003389
     3  H    0.351818  -0.030626   0.600689  -0.033492  -0.023603  -0.005660
     4  H    0.363859  -0.027164  -0.033492   0.577331  -0.022422   0.005551
     5  C    0.323343  -0.032779  -0.023603  -0.022422   5.053165   0.336004
     6  C   -0.051008  -0.003389  -0.005660   0.005551   0.336004   5.236153
     7  H   -0.007838   0.003504   0.000811   0.000100  -0.017134   0.348846
     8  H    0.005565  -0.000231  -0.000009  -0.000184  -0.027673   0.357393
     9  H   -0.000460  -0.000143   0.001695  -0.000165  -0.021416   0.362647
    10  C   -0.059870  -0.002397   0.006357  -0.009067   0.360077  -0.042942
    11  C   -0.001162   0.003390  -0.000003  -0.000259  -0.055758  -0.015638
    12  C   -0.000266  -0.000139   0.000003   0.000012   0.006868   0.000164
    13  C    0.000033  -0.000013  -0.000001  -0.000016   0.000317  -0.000004
    14  O   -0.000000   0.000000   0.000000   0.000000  -0.000000   0.000000
    15  H   -0.000000   0.000000   0.000000   0.000000  -0.000001   0.000000
    16  C    0.000112  -0.000130   0.000002   0.000041   0.006863  -0.000176
    17  C   -0.011483  -0.000079   0.000339   0.006122  -0.060445   0.007218
    18  H   -0.000205   0.000113  -0.000138   0.002398  -0.009840   0.000216
    19  H    0.000005  -0.000000  -0.000000   0.000006  -0.000164   0.000002
    20  H    0.000003   0.000003  -0.000000   0.000000  -0.000152   0.000000
    21  H    0.000571   0.000323  -0.000039  -0.000011  -0.016084   0.006556
    22  C   -0.035912   0.004256  -0.002495  -0.007291   0.363323  -0.053887
    23  C    0.007028  -0.000164  -0.000129   0.000009  -0.072249  -0.011453
    24  H    0.000580  -0.000022  -0.000011  -0.000005  -0.012249  -0.000602
    25  C   -0.000219   0.000004  -0.000000   0.000001   0.006176   0.000206
    26  H    0.000002  -0.000000   0.000000   0.000000  -0.000236  -0.000005
    27  C    0.000003   0.000000   0.000000  -0.000005   0.000461   0.000018
    28  O   -0.000000  -0.000000  -0.000000   0.000000   0.000000  -0.000000
    29  C   -0.000054   0.000002  -0.000006   0.000002   0.006432  -0.000151
    30  H    0.000001  -0.000000   0.000000   0.000001  -0.000164   0.000003
    31  C   -0.011300   0.000302   0.001109   0.002377  -0.043957   0.002489
    32  H    0.006328  -0.000174   0.000937   0.001719  -0.013520   0.000074
               7          8          9         10         11         12
     1  C   -0.007838   0.005565  -0.000460  -0.059870  -0.001162  -0.000266
     2  H    0.003504  -0.000231  -0.000143  -0.002397   0.003390  -0.000139
     3  H    0.000811  -0.000009   0.001695   0.006357  -0.000003   0.000003
     4  H    0.000100  -0.000184  -0.000165  -0.009067  -0.000259   0.000012
     5  C   -0.017134  -0.027673  -0.021416   0.360077  -0.055758   0.006868
     6  C    0.348846   0.357393   0.362647  -0.042942  -0.015638   0.000164
     7  H    0.612597  -0.035046  -0.044820  -0.000662   0.000673   0.000033
     8  H   -0.035046   0.583499  -0.026071  -0.007467   0.004068  -0.000077
     9  H   -0.044820  -0.026071   0.576399   0.002918   0.000290  -0.000002
    10  C   -0.000662  -0.007467   0.002918   4.727758   0.536698  -0.020569
    11  C    0.000673   0.004068   0.000290   0.536698   5.056629   0.475959
    12  C    0.000033  -0.000077  -0.000002  -0.020569   0.475959   5.042576
    13  C    0.000001  -0.000009   0.000000  -0.032369  -0.021382   0.543934
    14  O   -0.000000  -0.000000  -0.000000   0.000281   0.003386  -0.062574
    15  H   -0.000000  -0.000000  -0.000000  -0.000024  -0.000233   0.006053
    16  C   -0.000001  -0.000003   0.000002  -0.024869  -0.036864  -0.063504
    17  C   -0.000158  -0.000051  -0.000079   0.522313  -0.063249  -0.036862
    18  H   -0.000003   0.000004  -0.000008  -0.036074   0.005606   0.000349
    19  H   -0.000000   0.000000  -0.000000   0.002983   0.000504   0.004967
    20  H   -0.000002   0.000009  -0.000000   0.003693  -0.036784   0.346775
    21  H    0.001017   0.003246  -0.000156  -0.037574   0.355151  -0.047439
    22  C    0.004313  -0.004032  -0.000127  -0.059313   0.000814  -0.000128
    23  C    0.000373   0.002634   0.001010  -0.008121   0.001211  -0.000059
    24  H   -0.000048   0.003283   0.000443   0.003609   0.000995   0.000157
    25  C    0.000003  -0.000042  -0.000196   0.000651   0.000034   0.000000
    26  H   -0.000000  -0.000002   0.000002   0.000012   0.000001  -0.000000
    27  C   -0.000000  -0.000003  -0.000008   0.000003   0.000001  -0.000000
    28  O    0.000000  -0.000000   0.000000  -0.000000  -0.000000   0.000000
    29  C   -0.000000   0.000004  -0.000080   0.000092   0.000005  -0.000000
    30  H   -0.000000   0.000000   0.000001  -0.000000  -0.000000   0.000000
    31  C   -0.000018  -0.000193   0.000971  -0.004041  -0.000468   0.000004
    32  H   -0.000018  -0.000004   0.000058   0.000599   0.000006  -0.000000
              13         14         15         16         17         18
     1  C    0.000033  -0.000000  -0.000000   0.000112  -0.011483  -0.000205
     2  H   -0.000013   0.000000   0.000000  -0.000130  -0.000079   0.000113
     3  H   -0.000001   0.000000   0.000000   0.000002   0.000339  -0.000138
     4  H   -0.000016   0.000000   0.000000   0.000041   0.006122   0.002398
     5  C    0.000317  -0.000000  -0.000001   0.006863  -0.060445  -0.009840
     6  C   -0.000004   0.000000   0.000000  -0.000176   0.007218   0.000216
     7  H    0.000001  -0.000000  -0.000000  -0.000001  -0.000158  -0.000003
     8  H   -0.000009  -0.000000  -0.000000  -0.000003  -0.000051   0.000004
     9  H    0.000000  -0.000000  -0.000000   0.000002  -0.000079  -0.000008
    10  C   -0.032369   0.000281  -0.000024  -0.024869   0.522313  -0.036074
    11  C   -0.021382   0.003386  -0.000233  -0.036864  -0.063249   0.005606
    12  C    0.543934  -0.062574   0.006053  -0.063504  -0.036862   0.000349
    13  C    4.503704   0.282084  -0.034350   0.508739  -0.013953   0.002935
    14  O    0.282084   8.237134   0.249226  -0.059450   0.004422  -0.000060
    15  H   -0.034350   0.249226   0.349896  -0.004933   0.000507  -0.000012
    16  C    0.508739  -0.059450  -0.004933   5.138891   0.447100  -0.038468
    17  C   -0.013953   0.004422   0.000507   0.447100   5.068051   0.349973
    18  H    0.002935  -0.000060  -0.000012  -0.038468   0.349973   0.567833
    19  H   -0.044197  -0.004796   0.006520   0.346436  -0.030909  -0.004034
    20  H   -0.037320  -0.000984  -0.000306   0.005981   0.000280   0.000012
    21  H    0.004136  -0.000076   0.000009   0.000200   0.006027  -0.000137
    22  C   -0.000013   0.000000   0.000000   0.000975  -0.009187   0.005863
    23  C   -0.000032  -0.000000   0.000000  -0.000135  -0.004506  -0.000532
    24  H   -0.000046  -0.000000  -0.000000  -0.000042   0.000068   0.000056
    25  C    0.000002   0.000000  -0.000000  -0.000076   0.000003  -0.000389
    26  H   -0.000000   0.000000  -0.000000  -0.000001   0.000014  -0.000003
    27  C    0.000000  -0.000000  -0.000000  -0.000000  -0.000084   0.000055
    28  O   -0.000000  -0.000000   0.000000   0.000000   0.000000  -0.000001
    29  C    0.000000   0.000000  -0.000000  -0.000006  -0.000335   0.000747
    30  H    0.000000   0.000000  -0.000000   0.000000   0.000000   0.000003
    31  C    0.000001   0.000000   0.000000   0.000184   0.000067   0.004567
    32  H    0.000000   0.000000  -0.000000  -0.000006  -0.000353   0.000017
              19         20         21         22         23         24
     1  C    0.000005   0.000003   0.000571  -0.035912   0.007028   0.000580
     2  H   -0.000000   0.000003   0.000323   0.004256  -0.000164  -0.000022
     3  H   -0.000000  -0.000000  -0.000039  -0.002495  -0.000129  -0.000011
     4  H    0.000006   0.000000  -0.000011  -0.007291   0.000009  -0.000005
     5  C   -0.000164  -0.000152  -0.016084   0.363323  -0.072249  -0.012249
     6  C    0.000002   0.000000   0.006556  -0.053887  -0.011453  -0.000602
     7  H   -0.000000  -0.000002   0.001017   0.004313   0.000373  -0.000048
     8  H    0.000000   0.000009   0.003246  -0.004032   0.002634   0.003283
     9  H   -0.000000  -0.000000  -0.000156  -0.000127   0.001010   0.000443
    10  C    0.002983   0.003693  -0.037574  -0.059313  -0.008121   0.003609
    11  C    0.000504  -0.036784   0.355151   0.000814   0.001211   0.000995
    12  C    0.004967   0.346775  -0.047439  -0.000128  -0.000059   0.000157
    13  C   -0.044197  -0.037320   0.004136  -0.000013  -0.000032  -0.000046
    14  O   -0.004796  -0.000984  -0.000076   0.000000  -0.000000  -0.000000
    15  H    0.006520  -0.000306   0.000009   0.000000   0.000000  -0.000000
    16  C    0.346436   0.005981   0.000200   0.000975  -0.000135  -0.000042
    17  C   -0.030909   0.000280   0.006027  -0.009187  -0.004506   0.000068
    18  H   -0.004034   0.000012  -0.000137   0.005863  -0.000532   0.000056
    19  H    0.589829  -0.000139   0.000015   0.000004   0.000003   0.000000
    20  H   -0.000139   0.594348  -0.004818   0.000001   0.000001   0.000001
    21  H    0.000015  -0.004818   0.597671   0.000315  -0.000056  -0.000213
    22  C    0.000004   0.000001   0.000315   4.809006   0.515542  -0.053811
    23  C    0.000003   0.000001  -0.000056   0.515542   5.129905   0.344387
    24  H    0.000000   0.000001  -0.000213  -0.053811   0.344387   0.653263
    25  C   -0.000001  -0.000000  -0.000001  -0.027194   0.402604  -0.037928
    26  H    0.000000  -0.000000   0.000000   0.005146  -0.047500  -0.007266
    27  C   -0.000000  -0.000000   0.000000  -0.038491   0.008798   0.003319
    28  O    0.000000   0.000000   0.000000   0.000144   0.007023  -0.000113
    29  C   -0.000000  -0.000000   0.000000  -0.017402  -0.051568   0.000291
    30  H   -0.000000  -0.000000  -0.000000   0.004997   0.000085   0.000026
    31  C   -0.000002  -0.000000  -0.000002   0.530673  -0.052710   0.006043
    32  H   -0.000000  -0.000000   0.000000  -0.046932   0.007137  -0.000224
              25         26         27         28         29         30
     1  C   -0.000219   0.000002   0.000003  -0.000000  -0.000054   0.000001
     2  H    0.000004  -0.000000   0.000000  -0.000000   0.000002  -0.000000
     3  H   -0.000000   0.000000   0.000000  -0.000000  -0.000006   0.000000
     4  H    0.000001   0.000000  -0.000005   0.000000   0.000002   0.000001
     5  C    0.006176  -0.000236   0.000461   0.000000   0.006432  -0.000164
     6  C    0.000206  -0.000005   0.000018  -0.000000  -0.000151   0.000003
     7  H    0.000003  -0.000000  -0.000000   0.000000  -0.000000  -0.000000
     8  H   -0.000042  -0.000002  -0.000003  -0.000000   0.000004   0.000000
     9  H   -0.000196   0.000002  -0.000008   0.000000  -0.000080   0.000001
    10  C    0.000651   0.000012   0.000003  -0.000000   0.000092  -0.000000
    11  C    0.000034   0.000001   0.000001  -0.000000   0.000005  -0.000000
    12  C    0.000000  -0.000000  -0.000000   0.000000  -0.000000   0.000000
    13  C    0.000002  -0.000000   0.000000  -0.000000   0.000000   0.000000
    14  O    0.000000   0.000000  -0.000000  -0.000000   0.000000   0.000000
    15  H   -0.000000  -0.000000  -0.000000   0.000000  -0.000000  -0.000000
    16  C   -0.000076  -0.000001  -0.000000   0.000000  -0.000006   0.000000
    17  C    0.000003   0.000014  -0.000084   0.000000  -0.000335   0.000000
    18  H   -0.000389  -0.000003   0.000055  -0.000001   0.000747   0.000003
    19  H   -0.000001   0.000000  -0.000000   0.000000  -0.000000  -0.000000
    20  H   -0.000000  -0.000000  -0.000000   0.000000  -0.000000  -0.000000
    21  H   -0.000001   0.000000   0.000000   0.000000   0.000000  -0.000000
    22  C   -0.027194   0.005146  -0.038491   0.000144  -0.017402   0.004997
    23  C    0.402604  -0.047500   0.008798   0.007023  -0.051568   0.000085
    24  H   -0.037928  -0.007266   0.003319  -0.000113   0.000291   0.000026
    25  C    5.318779   0.323990   0.438160  -0.081096  -0.064083   0.010635
    26  H    0.323990   0.685908  -0.042259   0.001600   0.009768  -0.000231
    27  C    0.438160  -0.042259   4.356051   0.450247   0.439067  -0.038528
    28  O   -0.081096   0.001600   0.450247   8.536780  -0.082081   0.002212
    29  C   -0.064083   0.009768   0.439067  -0.082081   5.362102   0.323997
    30  H    0.010635  -0.000231  -0.038528   0.002212   0.323997   0.690088
    31  C   -0.042727  -0.000058   0.008682   0.007946   0.371927  -0.052409
    32  H    0.000008   0.000027   0.002850  -0.000071  -0.042380  -0.006796
              31         32
     1  C   -0.011300   0.006328
     2  H    0.000302  -0.000174
     3  H    0.001109   0.000937
     4  H    0.002377   0.001719
     5  C   -0.043957  -0.013520
     6  C    0.002489   0.000074
     7  H   -0.000018  -0.000018
     8  H   -0.000193  -0.000004
     9  H    0.000971   0.000058
    10  C   -0.004041   0.000599
    11  C   -0.000468   0.000006
    12  C    0.000004  -0.000000
    13  C    0.000001   0.000000
    14  O    0.000000   0.000000
    15  H    0.000000  -0.000000
    16  C    0.000184  -0.000006
    17  C    0.000067  -0.000353
    18  H    0.004567   0.000017
    19  H   -0.000002  -0.000000
    20  H   -0.000000  -0.000000
    21  H   -0.000002   0.000000
    22  C    0.530673  -0.046932
    23  C   -0.052710   0.007137
    24  H    0.006043  -0.000224
    25  C   -0.042727   0.000008
    26  H   -0.000058   0.000027
    27  C    0.008682   0.002850
    28  O    0.007946  -0.000071
    29  C    0.371927  -0.042380
    30  H   -0.052409  -0.006796
    31  C    5.134648   0.340630
    32  H    0.340630   0.654002
 Mulliken charges:
               1
     1  C   -0.458749
     2  H    0.133429
     3  H    0.132454
     4  H    0.140551
     5  C   -0.033183
     6  C   -0.478624
[...]
 Alpha virt. eigenvalues --    2.90403   2.90969   2.91751   2.95470   2.96803
 Alpha virt. eigenvalues --    2.98924   2.99704   3.01610   3.02395   3.03763
 Alpha virt. eigenvalues --    3.06256   3.07311   3.09017   3.12440   3.14071
 Alpha virt. eigenvalues --    3.15975   3.17072   3.20115   3.21637   3.23681
 Alpha virt. eigenvalues --    3.25174   3.25669   3.27452   3.28258   3.33703
 Alpha virt. eigenvalues --    3.34800   3.36102   3.38266   3.43502   3.49985
 Alpha virt. eigenvalues --    3.51059   3.53577   3.58888   3.59511   3.61636
 Alpha virt. eigenvalues --    3.77321   3.82092   3.83886   3.84996   3.85512
 Alpha virt. eigenvalues --    3.92807   3.95982   3.99122   4.02054   4.03042
 Alpha virt. eigenvalues --    4.04057   4.04239   4.16498   4.24981   4.28897
 Alpha virt. eigenvalues --    4.35955   4.48271   4.80094   5.06591   5.15168
          Condensed to atoms (all electrons):
               1          2          3          4          5          6
     1  C    8.050260  -0.352883   0.367719   0.329654  -1.782071  -1.667497
     2  H   -0.352883   1.965196  -0.387474  -0.415754  -0.291186  -0.043098
     3  H    0.367719  -0.387474   1.428408  -0.255909  -0.073772  -0.018047
     4  H    0.329654  -0.415754  -0.255909   1.464525   0.422119  -0.029208
     5  C   -1.782071  -0.291186  -0.073772   0.422119  32.561402  -2.010159
     6  C   -1.667497  -0.043098  -0.018047  -0.029208  -2.010159   7.907078
     7  H    0.056280  -0.042290   0.001250   0.017437  -0.015618   0.377821
     8  H   -0.023084   0.005583   0.010871  -0.008488   0.197399   0.433108
     9  H   -0.165509   0.030905  -0.026940  -0.006638  -0.261230  -0.237112
    10  C   -1.110997   0.049929   0.258596  -0.306804  -6.889338   1.915142
    11  C   -0.523067   0.399029  -0.179504  -0.083919  -1.987643  -0.162494
    12  C   -0.015070  -0.037526  -0.005287   0.027065   0.099814   0.291514
    13  C   -0.169892   0.042065  -0.009106  -0.020735  -0.643870   0.159279
    14  O    0.004573  -0.000894   0.000275   0.000805   0.018172   0.000253
    15  H   -0.002678   0.000451  -0.000144  -0.000684  -0.009639   0.001470
    16  C    0.713044  -0.042187   0.034720   0.054972  -0.544107  -0.549189
    17  C   -0.133180   0.021699  -0.035114   0.052608  -0.607376  -0.143041
    18  H   -0.081481   0.025750  -0.009345  -0.063983  -0.192436   0.057231
    19  H    0.014105  -0.000725   0.000478   0.001216   0.035782  -0.011642
    20  H    0.002164  -0.004223   0.000937   0.000423  -0.016286   0.022956
    21  H    0.031408  -0.000017  -0.009208   0.011602  -0.289244   0.041471
    22  C    2.246564   0.279136   0.034632  -0.124388  -6.887048  -1.404933
    23  C   -0.310048   0.074663  -0.072803  -0.002433   0.157830  -0.199441
    24  H   -0.011031   0.002002  -0.004518  -0.000819  -0.208082   0.058982
    25  C   -0.426066   0.020090  -0.036232  -0.031133  -1.085629   0.629449
    26  H   -0.002042   0.000102   0.000241  -0.000108   0.021580  -0.007618
    27  C    0.042035  -0.000737   0.001446   0.001018  -0.137465   0.016268
    28  O   -0.001170  -0.000076   0.000282   0.000316  -0.001891   0.002655
    29  C    0.448740  -0.058490   0.130963   0.059341  -0.918620  -0.352996
    30  H    0.024539   0.000025   0.000137   0.002846   0.035465   0.002493
    31  C   -0.508932  -0.078091  -0.073816  -0.037007  -1.513715  -0.125294
    32  H    0.082734   0.048672  -0.030369  -0.046118  -0.562067  -0.025024
               7          8          9         10         11         12
     1  C    0.056280  -0.023084  -0.165509  -1.110997  -0.523067  -0.015070
     2  H   -0.042290   0.005583   0.030905   0.049929   0.399029  -0.037526
     3  H    0.001250   0.010871  -0.026940   0.258596  -0.179504  -0.005287
     4  H    0.017437  -0.008488  -0.006638  -0.306804  -0.083919   0.027065
     5  C   -0.015618   0.197399  -0.261230  -6.889338  -1.987643   0.099814
     6  C    0.377821   0.433108  -0.237112   1.915142  -0.162494   0.291514
     7  H    1.580050  -0.278628  -0.435973  -0.058262  -0.128760   0.181002
     8  H   -0.278628   1.448333  -0.373000  -0.050852   0.006705   0.038889
     9  H   -0.435973  -0.373000   1.901348   0.386832  -0.124823  -0.064026
    10  C   -0.058262  -0.050852   0.386832  31.046990 -15.554254   5.434259
    11  C   -0.128760   0.006705  -0.124823 -15.554254  33.893287 -10.756446
    12  C    0.181002   0.038889  -0.064026   5.434259 -10.756446  18.684727
    13  C   -0.021180   0.011165   0.004918  -5.967628   6.524303  -5.601675
    14  O    0.001098   0.000596  -0.000124   0.241273  -0.258279   0.045345
    15  H   -0.000415  -0.000119   0.000108  -0.050343   0.098178  -0.140101
    16  C   -0.008340  -0.045298   0.009068   3.983812  -7.314140   4.462688
    17  C   -0.090249  -0.001456   0.089880 -11.011674   2.721291  -6.074642
    18  H   -0.007439   0.002255   0.005536   1.036373   0.117205  -0.012714
    19  H    0.001285  -0.000410  -0.000565  -0.303686   0.007445   0.016822
    20  H    0.000727   0.001679   0.000226  -0.427937   0.607464  -1.645299
    21  H   -0.044173  -0.044648   0.043705   1.708860  -2.699029   0.695035
    22  C    0.144854  -0.076645   0.048566   0.497756  -0.437192   0.188147
    23  C    0.001312  -0.118347   0.051291  -0.623707  -0.077839   0.050034
    24  H   -0.001947  -0.047974   0.019014  -0.057302   0.218572   0.001515
    25  C    0.032918   0.008470   0.004256   0.251109   0.199973   0.095253
    26  H   -0.000841  -0.000522   0.001549  -0.014666  -0.009276   0.000632
    27  C   -0.002937  -0.007213   0.015623  -0.056467   0.035560   0.003600
    28  O    0.000275   0.000429  -0.000271   0.004046  -0.000208  -0.000021
    29  C   -0.015935   0.003092  -0.020409  -0.024005  -0.164978  -0.028940
    30  H    0.000963   0.000851  -0.003026  -0.013596   0.001039   0.000354
    31  C   -0.158222  -0.043142   0.298866   0.594229   0.412682  -0.171275
    32  H   -0.008296  -0.001166   0.014277   0.133015  -0.029262  -0.012280
              13         14         15         16         17         18
     1  C   -0.169892   0.004573  -0.002678   0.713044  -0.133180  -0.081481
     2  H    0.042065  -0.000894   0.000451  -0.042187   0.021699   0.025750
     3  H   -0.009106   0.000275  -0.000144   0.034720  -0.035114  -0.009345
     4  H   -0.020735   0.000805  -0.000684   0.054972   0.052608  -0.063983
     5  C   -0.643870   0.018172  -0.009639  -0.544107  -0.607376  -0.192436
     6  C    0.159279   0.000253   0.001470  -0.549189  -0.143041   0.057231
     7  H   -0.021180   0.001098  -0.000415  -0.008340  -0.090249  -0.007439
     8  H    0.011165   0.000596  -0.000119  -0.045298  -0.001456   0.002255
     9  H    0.004918  -0.000124   0.000108   0.009068   0.089880   0.005536
    10  C   -5.967628   0.241273  -0.050343   3.983812 -11.011674   1.036373
    11  C    6.524303  -0.258279   0.098178  -7.314140   2.721291   0.117205
    12  C   -5.601675   0.045345  -0.140101   4.462688  -6.074642  -0.012714
    13  C   11.436754  -0.677352  -0.008514  -4.302194   3.886748  -0.252526
    14  O   -0.677352   9.104460   0.306446   0.328528  -0.023423   0.005358
    15  H   -0.008514   0.306446   0.603326  -0.017634   0.045441   0.001366
    16  C   -4.302194   0.328528  -0.017634  17.917898  -8.659545   0.285719
    17  C    3.886748  -0.023423   0.045441  -8.659545  27.634647  -1.581497
    18  H   -0.252526   0.005358   0.001366   0.285719  -1.581497   2.517036
    19  H    0.571384  -0.107655   0.004815  -1.180513   0.703114  -0.125099
    20  H    1.051799  -0.035772  -0.002835   0.000244   0.210379   0.007994
    21  H   -0.573760  -0.006920  -0.000418   0.240584  -0.013354  -0.033244
    22  C   -0.256047   0.002551  -0.001296   0.682453  -1.123395  -0.214880
    23  C    0.060494  -0.001204   0.000237   0.167739   0.132353   0.010236
    24  H    0.018583  -0.000512   0.000165  -0.038008  -0.010340   0.016489
    25  C   -0.019315  -0.000458   0.000203  -0.242567   0.063859  -0.034248
    26  H   -0.000379   0.000027  -0.000017   0.004130   0.026108   0.001453
    27  C    0.003369  -0.000072   0.000106  -0.032897   0.033104   0.032505
    28  O   -0.000001  -0.000000   0.000006  -0.001135  -0.000422   0.000125
    29  C    0.007825   0.000205  -0.000356   0.211866   0.149169  -0.054051
    30  H   -0.000643   0.000008  -0.000018   0.000535  -0.018716  -0.001909
    31  C    0.073200  -0.000316   0.001189  -0.189599  -0.253573   0.240838
    32  H    0.010077  -0.000205   0.000160   0.036841   0.112475   0.007701
              19         20         21         22         23         24
     1  C    0.014105   0.002164   0.031408   2.246564  -0.310048  -0.011031
     2  H   -0.000725  -0.004223  -0.000017   0.279136   0.074663   0.002002
     3  H    0.000478   0.000937  -0.009208   0.034632  -0.072803  -0.004518
     4  H    0.001216   0.000423   0.011602  -0.124388  -0.002433  -0.000819
     5  C    0.035782  -0.016286  -0.289244  -6.887048   0.157830  -0.208082
     6  C   -0.011642   0.022956   0.041471  -1.404933  -0.199441   0.058982
     7  H    0.001285   0.000727  -0.044173   0.144854   0.001312  -0.001947
     8  H   -0.000410   0.001679  -0.044648  -0.076645  -0.118347  -0.047974
     9  H   -0.000565   0.000226   0.043705   0.048566   0.051291   0.019014
    10  C   -0.303686  -0.427937   1.708860   0.497756  -0.623707  -0.057302
    11  C    0.007445   0.607464  -2.699029  -0.437192  -0.077839   0.218572
    12  C    0.016822  -1.645299   0.695035   0.188147   0.050034   0.001515
    13  C    0.571384   1.051799  -0.573760  -0.256047   0.060494   0.018583
    14  O   -0.107655  -0.035772  -0.006920   0.002551  -0.001204  -0.000512
    15  H    0.004815  -0.002835  -0.000418  -0.001296   0.000237   0.000165
    16  C   -1.180513   0.000244   0.240584   0.682453   0.167739  -0.038008
    17  C    0.703114   0.210379  -0.013354  -1.123395   0.132353  -0.010340
    18  H   -0.125099   0.007994  -0.033244  -0.214880   0.010236   0.016489
    19  H    1.961043  -0.017665   0.013053   0.014909   0.007547   0.000106
    20  H   -0.017665   1.891696  -0.104172  -0.007963  -0.003346  -0.001574
    21  H    0.013053  -0.104172   2.687527   0.198823   0.005804   0.000769
    22  C    0.014909  -0.007963   0.198823  26.421692  -7.499465   0.704958
    23  C    0.007547  -0.003346   0.005804  -7.499465  23.461344  -2.014228
    24  H    0.000106  -0.001574   0.000769   0.704958  -2.014228   2.573944
    25  C   -0.001774  -0.000783   0.019275   1.385659  -5.338623   0.918098
    26  H   -0.000233  -0.000020   0.001211  -0.148895   0.762640  -0.147079
    27  C   -0.003031  -0.000085   0.001463  -2.726220   1.206178  -0.113520
    28  O   -0.000093  -0.000001  -0.000079   0.168865  -0.091708  -0.000933
    29  C    0.006744   0.000036   0.000502   2.087339  -2.508835   0.089458
    30  H    0.000050   0.000009  -0.000159   0.030584   0.114994   0.003386
    31  C   -0.013724  -0.000955  -0.018017 -10.433535  -1.486347  -0.126237
    32  H    0.000432  -0.000190   0.000227   1.182490  -0.110794  -0.017211
              25         26         27         28         29         30
     1  C   -0.426066  -0.002042   0.042035  -0.001170   0.448740   0.024539
     2  H    0.020090   0.000102  -0.000737  -0.000076  -0.058490   0.000025
     3  H   -0.036232   0.000241   0.001446   0.000282   0.130963   0.000137
     4  H   -0.031133  -0.000108   0.001018   0.000316   0.059341   0.002846
     5  C   -1.085629   0.021580  -0.137465  -0.001891  -0.918620   0.035465
     6  C    0.629449  -0.007618   0.016268   0.002655  -0.352996   0.002493
     7  H    0.032918  -0.000841  -0.002937   0.000275  -0.015935   0.000963
     8  H    0.008470  -0.000522  -0.007213   0.000429   0.003092   0.000851
     9  H    0.004256   0.001549   0.015623  -0.000271  -0.020409  -0.003026
    10  C    0.251109  -0.014666  -0.056467   0.004046  -0.024005  -0.013596
    11  C    0.199973  -0.009276   0.035560  -0.000208  -0.164978   0.001039
    12  C    0.095253   0.000632   0.003600  -0.000021  -0.028940   0.000354
    13  C   -0.019315  -0.000379   0.003369  -0.000001   0.007825  -0.000643
    14  O   -0.000458   0.000027  -0.000072  -0.000000   0.000205   0.000008
    15  H    0.000203  -0.000017   0.000106   0.000006  -0.000356  -0.000018
    16  C   -0.242567   0.004130  -0.032897  -0.001135   0.211866   0.000535
    17  C    0.063859   0.026108   0.033104  -0.000422   0.149169  -0.018716
    18  H   -0.034248   0.001453   0.032505   0.000125  -0.054051  -0.001909
    19  H   -0.001774  -0.000233  -0.003031  -0.000093   0.006744   0.000050
    20  H   -0.000783  -0.000020  -0.000085  -0.000001   0.000036   0.000009
    21  H    0.019275   0.001211   0.001463  -0.000079   0.000502  -0.000159
    22  C    1.385659  -0.148895  -2.726220   0.168865   2.087339   0.030584
    23  C   -5.338623   0.762640   1.206178  -0.091708  -2.508835   0.114994
    24  H    0.918098  -0.147079  -0.113520  -0.000933   0.089458   0.003386
    25  C   12.566853  -0.882751  -1.452758   0.122565   1.886424  -0.172449
    26  H   -0.882751   1.824546   0.182006  -0.034762  -0.171901  -0.010989
    27  C   -1.452758   0.182006   8.346989  -0.354736  -1.592423   0.137193
    28  O    0.122565  -0.034762  -0.354736   9.330995   0.126416  -0.021040
    29  C    1.886424  -0.171901  -1.592423   0.126416  12.378186  -0.962629
    30  H   -0.172449  -0.010989   0.137193  -0.021040  -0.962629   1.799885
    31  C   -2.757611   0.152114   2.057751  -0.096434  -5.537494   0.707627
    32  H    0.071909   0.006190  -0.062381  -0.003410   0.703868  -0.112636
              31         32
     1  C   -0.508932   0.082734
     2  H   -0.078091   0.048672
     3  H   -0.073816  -0.030369
     4  H   -0.037007  -0.046118
     5  C   -1.513715  -0.562067
     6  C   -0.125294  -0.025024
     7  H   -0.158222  -0.008296
     8  H   -0.043142  -0.001166
     9  H    0.298866   0.014277
    10  C    0.594229   0.133015
    11  C    0.412682  -0.029262
    12  C   -0.171275  -0.012280
    13  C    0.073200   0.010077
    14  O   -0.000316  -0.000205
    15  H    0.001189   0.000160
    16  C   -0.189599   0.036841
    17  C   -0.253573   0.112475
    18  H    0.240838   0.007701
    19  H   -0.013724   0.000432
    20  H   -0.000955  -0.000190
    21  H   -0.018017   0.000227
    22  C  -10.433535   1.182490
    23  C   -1.486347  -0.110794
    24  H   -0.126237  -0.017211
    25  C   -2.757611   0.071909
    26  H    0.152114   0.006190
    27  C    2.057751  -0.062381
    28  O   -0.096434  -0.003410
    29  C   -5.537494   0.703868
    30  H    0.707627  -0.112636
    31  C   26.537767  -2.128045
    32  H   -2.128045   2.637897
 Mulliken charges:
               1
     1  C    0.872880
     2  H   -0.209648
     3  H   -0.043365
     4  H   -0.011819
     5  C   -0.621071
     6  C    1.069621
     7  H   -0.077769
     8  H   -0.048433
     9  H   -0.206323
    10  C    0.979297
    11  C    1.248378
    12  C    0.248608
    13  C    0.662856
    14  O   -0.946787
    15  H    0.171544
    16  C    0.032511
    17  C   -0.101880
    18  H   -0.706320
    19  H   -0.593515
    20  H   -0.529627
    21  H   -0.864876
    22  C    1.021925
    23  C    0.194469
    24  H   -0.824726
    25  C    0.206036
    26  H   -0.552429
    27  C    0.426727
    28  O   -1.148583
    29  C    0.121888
    30  H   -0.545174
    31  C    0.675117
    32  H   -0.899510
 Sum of Mulliken charges =  -1.00000
 Mulliken charges with hydrogens summed into heavy atoms:
               1
     1  C    0.608048
     5  C   -0.621071
     6  C    0.737096
    10  C    0.979297
    11  C    0.383502
    12  C   -0.281019
    13  C    0.662856
    14  O   -0.775243
    16  C   -0.561003
    17  C   -0.808200
    22  C    1.021925
    23  C   -0.630257
    25  C   -0.346393
    27  C    0.426727
    28  O   -1.148583
    29  C   -0.423287
    31  C   -0.224393
 Electronic spatial extent (au):  <R**2>=           4862.3942
 Charge=             -1.0000 electrons
 Dipole moment (field-independent basis, Debye):
    X=            -14.6023    Y=              4.5552    Z=              1.6292  Tot=             15.3828
 Quadrupole moment (field-independent basis, Debye-Ang):
   XX=           -196.4106   YY=           -115.6786   ZZ=           -106.5200
   XY=             29.1773   XZ=              1.3529   YZ=             -5.9253
 Traceless Quadrupole moment (field-independent basis, Debye-Ang):
   XX=            -56.8742   YY=             23.8578   ZZ=             33.0164
   XY=             29.1773   XZ=              1.3529   YZ=             -5.9253
 Octapole moment (field-independent basis, Debye-Ang**2):
  XXX=           -330.2914  YYY=             -7.5563  ZZZ=              1.0483  XYY=            -83.4251
  XXY=            124.3605  XXZ=             32.3367  XZZ=            -16.1381  YZZ=             -7.5284
  YYZ=             13.1265  XYZ=             17.6593
 Hexadecapole moment (field-independent basis, Debye-Ang**3):
 XXXX=          -7019.2904 YYYY=          -1330.9932 ZZZZ=           -649.4705 XXXY=            689.4297
 XXXZ=             34.0003 YYYX=            222.6703 YYYZ=            -39.8092 ZZZX=              3.9148
 ZZZY=             -4.3120 XXYY=          -1227.2677 XXZZ=           -908.6948 YYZZ=           -320.9942
 XXYZ=           -112.2856 YYXZ=            -34.6961 ZZXY=             25.5725
 N-N= 1.129032463608D+03 E-N=-3.972124951866D+03  KE= 7.258374167774D+02
 Leave Link  601 at Mon Jul 12 14:34:05 2021, MaxMem=   262144000 cpu:               0.4 elap:               0.3
 (Enter /dades/curu/g16A03_MST/g16/l9999.exe)
 1\1\GINC-PIRINEUS26\SP\RMP2-FC\Aug-CC-pVDZ\C15H15O2(1-)\UBATOR02\12-Ju
 l-2021\0\\#p mp2/aug-cc-pVDZ scf=tight maxdisk=180GB geom=allcheck\\SE
 T_328_BBB212_conf1.geo_225_060 geometry\\-1,1\C,0,0.7375354312,-1.0602
 645533,-2.080903148\H,0,1.2799860969,-0.4596335662,-2.8169200108\H,0,0
 .1160341189,-1.7817836669,-2.6202589779\H,0,1.4722434673,-1.6189593305
 ,-1.4928298621\C,0,-0.1292996101,-0.1434491094,-1.1908886022\C,0,-1.12
 84140465,0.5825546802,-2.1156730031\H,0,-0.6241125464,1.138665736,-2.9
 128614492\H,0,-1.7531046089,1.2790207299,-1.5524093616\H,0,-1.78723360
 24,-0.152776693,-2.5851818713\C,0,0.816767537,0.8554372667,-0.49806871
 71\C,0,0.9850161138,2.1793690881,-0.9256411523\C,0,1.8893548657,3.0433
 226961,-0.3073700712\C,0,2.6633091145,2.5954026416,0.7627639654\O,0,3.
 5354699931,3.4835406761,1.3343436772\H,0,3.9991220812,3.0480106958,2.0
 67313652\C,0,2.5168089571,1.2769135803,1.2075756828\C,0,1.6031071227,0
 .4324414348,0.5834996482\H,0,1.4799458509,-0.5802986135,0.9525131515\H
 ,0,3.1080583101,0.9148767878,2.044907983\H,0,2.0013067151,4.0666124709
 ,-0.6455751272\H,0,0.3995901306,2.5566397268,-1.7561224028\C,0,-0.9237
 152882,-0.943837817,-0.1500482609\C,0,-1.7474885488,-0.2731698908,0.77
 50297107\H,0,-1.7717838117,0.8166911955,0.7595416559\C,0,-2.5226636315
 ,-0.9465277611,1.7059086994\H,0,-3.1433659767,-0.3882191043,2.40270916
 76\C,0,-2.5522939744,-2.3821136622,1.8002455928\O,0,-3.2742533186,-3.0
 099085288,2.6573586188\C,0,-1.7014829149,-3.0405469109,0.8497929017\H,
 0,-1.6746785793,-4.1287460869,0.868462427\C,0,-0.9290735611,-2.3457529
 869,-0.0777112959\H,0,-0.3146918868,-2.917511125,-0.7685032205\\Versio
 n=ES64L-G16RevA.03\State=1-A\HF=-726.5713869\MP2=-729.0727203\RMSD=6.5
 10e-09\PG=C01 [X(C15H15O2)]\\@


 KNIGHT- SIRE, I'VE JUST RETURNED FROM THE FRONT
 KING-   HOW GOES THE BATTLE                    
 KNIGHT- THE SITUATION IS QUITE FLUID           
 KING-   WHAT DOES *THAT* MEAN                  
 KNIGHT- WE'RE UP THE CREEK                     
                THE WIZARD OF ID                
 Job cpu time:       0 days  2 hours 49 minutes 17.1 seconds.
 Elapsed time:       0 days  0 hours 55 minutes 50.7 seconds.
 File lengths (MBytes):  RWF=  69153 Int=      0 D2E=      0 Chk=     23 Scr=      1
 Normal termination of Gaussian 16 at Mon Jul 12 14:34:07 2021.
