 Entering Gaussian System, Link 0=g16
 Input=SET_328_BBB212_conf1.geo_135_120_OCTANOL.dat
 Output=SET_328_BBB212_conf1.geo_135_120_OCTANOL.log
 Initial command:
 /dades/curu/g16A03_MST/g16/l1.exe "/tmp/ubator02/1835275/Gau-95631.inp" -scrdir="/tmp/ubator02/1835275/"
 Entering Link 1 = /dades/curu/g16A03_MST/g16/l1.exe PID=     95635.
  
 Copyright (c) 1988,1990,1992,1993,1995,1998,2003,2009,2016,
            Gaussian, Inc.  All Rights Reserved.
  
 This is part of the Gaussian(R) 16 program.  It is based on
 the Gaussian(R) 09 system (copyright 2009, Gaussian, Inc.),
 the Gaussian(R) 03 system (copyright 2003, Gaussian, Inc.),
 the Gaussian(R) 98 system (copyright 1998, Gaussian, Inc.),
 the Gaussian(R) 94 system (copyright 1995, Gaussian, Inc.),
 the Gaussian 92(TM) system (copyright 1992, Gaussian, Inc.),
 the Gaussian 90(TM) system (copyright 1990, Gaussian, Inc.),
 the Gaussian 88(TM) system (copyright 1988, Gaussian, Inc.),
 the Gaussian 86(TM) system (copyright 1986, Carnegie Mellon
 University), and the Gaussian 82(TM) system (copyright 1983,
 Carnegie Mellon University). Gaussian is a federally registered
 trademark of Gaussian, Inc.
  
 This software contains proprietary and confidential information,
 including trade secrets, belonging to Gaussian, Inc.
  
 This software is provided under written license and may be
 used, copied, transmitted, or stored only in accord with that
 written license.
  
 The following legend is applicable only to US Government
 contracts under FAR:
  
                    RESTRICTED RIGHTS LEGEND
  
 Use, reproduction and disclosure by the US Government is
 subject to restrictions as set forth in subparagraphs (a)
 and (c) of the Commercial Computer Software - Restricted
 Rights clause in FAR 52.227-19.
  
 Gaussian, Inc.
 340 Quinnipiac St., Bldg. 40, Wallingford CT 06492
  
  
 ---------------------------------------------------------------
 Warning -- This program may not be used in any manner that
 competes with the business of Gaussian, Inc. or will provide
 assistance to any competitor of Gaussian, Inc.  The licensee
 of this program is prohibited from giving any competitor of
 Gaussian, Inc. access to this program.  By using this program,
 the user acknowledges that Gaussian, Inc. is engaged in the
 business of creating and licensing software in the field of
 computational chemistry and represents and warrants to the
 licensee that it is not a competitor of Gaussian, Inc. and that
 it will not use this program in any manner prohibited above.
 ---------------------------------------------------------------
  

 Cite this work as:
 Gaussian 16, Revision A.03,
 M. J. Frisch, G. W. Trucks, H. B. Schlegel, G. E. Scuseria, 
 M. A. Robb, J. R. Cheeseman, G. Scalmani, V. Barone, 
 G. A. Petersson, H. Nakatsuji, X. Li, M. Caricato, A. V. Marenich, 
 J. Bloino, B. G. Janesko, R. Gomperts, B. Mennucci, H. P. Hratchian, 
 J. V. Ortiz, A. F. Izmaylov, J. L. Sonnenberg, D. Williams-Young, 
 F. Ding, F. Lipparini, F. Egidi, J. Goings, B. Peng, A. Petrone, 
 T. Henderson, D. Ranasinghe, V. G. Zakrzewski, J. Gao, N. Rega, 
 G. Zheng, W. Liang, M. Hada, M. Ehara, K. Toyota, R. Fukuda, 
 J. Hasegawa, M. Ishida, T. Nakajima, Y. Honda, O. Kitao, H. Nakai, 
 T. Vreven, K. Throssell, J. A. Montgomery, Jr., J. E. Peralta, 
 F. Ogliaro, M. J. Bearpark, J. J. Heyd, E. N. Brothers, K. N. Kudin, 
 V. N. Staroverov, T. A. Keith, R. Kobayashi, J. Normand, 
 K. Raghavachari, A. P. Rendell, J. C. Burant, S. S. Iyengar, 
 J. Tomasi, M. Cossi, J. M. Millam, M. Klene, C. Adamo, R. Cammi, 
 J. W. Ochterski, R. L. Martin, K. Morokuma, O. Farkas, 
 J. B. Foresman, and D. J. Fox, Gaussian, Inc., Wallingford CT, 2016.
 
 ******************************************
 Gaussian 16:  ES64L-G16RevA.03 25-Dec-2016
                12-Jul-2021 
 ******************************************
 %mem=800MB
 %nproc=4
 Will use up to    4 processors via shared memory.
 %chk=SET_328_BBB212_conf1.geo_135_120.chk
 ---------------------------------------------------------------
 #p b3lyp/6-31G(d) opt freq scrf=(iefpcm,read,solvent=n-octanol)
 ---------------------------------------------------------------
 1/18=20,19=15,26=3,38=1,40=2/1,3;
 2/9=110,12=2,17=6,18=5,40=1/2;
 3/5=1,6=6,7=1,11=2,25=1,30=1,70=2203,71=1,72=25,74=-5/1,2,3;
 4//1;
 5/5=2,38=5,53=25/2;
 6/7=2,8=2,9=2,10=2,28=1/1;
 7//1,2,3,16;
 1/18=20,19=15,26=3/3(2);
 2/9=110/2;
 99//99;
 2/9=110/2;
 3/5=1,6=6,7=1,11=2,25=1,30=1,70=2205,71=1,72=25,74=-5/1,2,3;
 4/5=5,16=3,69=1/1;
 5/5=2,38=5,53=25/2;
 7//1,2,3,16;
 1/18=20,19=15,26=3/3(-5);
 2/9=110/2;
 6/7=2,8=2,9=2,10=2,19=2,28=1/1;
 99/9=1/99;
 Leave Link    1 at Mon Jul 12 12:15:40 2021, MaxMem=   104857600 cpu:               0.0 elap:               0.0
 (Enter /dades/curu/g16A03_MST/g16/l101.exe)
 -----------------------------------------
 SET_328_BBB212_conf1.geo_135_120 geometry
 -----------------------------------------
 Symbolic Z-matrix:
 Charge = -1 Multiplicity = 1
 C                     0.008    -1.929     1.619 
 H                     0.801    -2.678     1.681 
 H                    -0.945    -2.46      1.658 
 H                     0.127    -1.188     2.412 
 C                     0.02     -1.134     0.306 
 C                     0.083    -2.231    -0.754 
 H                     0.163    -1.622    -1.657 
 H                    -0.735    -2.952    -0.813 
 H                     0.976    -2.858    -0.705 
 C                     1.265    -0.237     0.23 
 C                     2.406    -0.295     1.074 
 C                     3.6       0.277     0.617 
 C                     3.669     1.177    -0.477 
 O                     4.865     1.651    -0.777 
 H                     4.675     2.492    -1.23 
 C                     2.479     1.464    -1.082 
 C                     1.338     0.729    -0.769 
 H                     0.539     0.869    -1.493 
 H                     2.407     2.242    -1.838 
 H                     4.524     0.049     1.143 
 H                     2.474    -1.105     1.796 
 C                    -1.34     -0.299     0.165 
 C                    -2.266    -0.528    -0.866 
 H                    -2.121    -1.327    -1.589 
 C                    -3.37      0.353    -0.99 
 H                    -4.085     0.282    -1.806 
 C                    -3.67      1.31     -0.05 
 O                    -4.744     2.066    -0.111 
 C                    -2.768     1.542     0.959 
 H                    -3.019     2.346     1.646 
 C                    -1.648     0.738     1.039 
 H                    -0.863     1.037     1.729 
 
 ITRead=  0  0  0  0  0  0  0  0  0  0  0  0  0  0  0  0  0  0  0  0
 ITRead=  0  0  0  0  0  0  0  0  0  0  0  0
 MicOpt= -1 -1 -1 -1 -1 -1 -1 -1 -1 -1 -1 -1 -1 -1 -1 -1 -1 -1 -1 -1
 MicOpt= -1 -1 -1 -1 -1 -1 -1 -1 -1 -1 -1 -1
 NAtoms=     32 NQM=       32 NQMF=       0 NMMI=      0 NMMIF=      0
                NMic=       0 NMicF=      0.
                    Isotopes and Nuclear Properties:
 (Nuclear quadrupole moments (NQMom) in fm**2, nuclear magnetic moments (NMagM)
  in nuclear magnetons)

  Atom         1           2           3           4           5           6           7           8           9          10
 IAtWgt=          12           1           1           1          12          12           1           1           1          12
 AtmWgt=  12.0000000   1.0078250   1.0078250   1.0078250  12.0000000  12.0000000   1.0078250   1.0078250   1.0078250  12.0000000
 NucSpn=           0           1           1           1           0           0           1           1           1           0
 AtZEff=  -0.0000000  -0.0000000  -0.0000000  -0.0000000  -0.0000000  -0.0000000  -0.0000000  -0.0000000  -0.0000000  -0.0000000
 NQMom=    0.0000000   0.0000000   0.0000000   0.0000000   0.0000000   0.0000000   0.0000000   0.0000000   0.0000000   0.0000000
 NMagM=    0.0000000   2.7928460   2.7928460   2.7928460   0.0000000   0.0000000   2.7928460   2.7928460   2.7928460   0.0000000
 AtZNuc=   6.0000000   1.0000000   1.0000000   1.0000000   6.0000000   6.0000000   1.0000000   1.0000000   1.0000000   6.0000000

  Atom        11          12          13          14          15          16          17          18          19          20
 IAtWgt=          12          12          12          16           1          12          12           1           1           1
 AtmWgt=  12.0000000  12.0000000  12.0000000  15.9949146   1.0078250  12.0000000  12.0000000   1.0078250   1.0078250   1.0078250
 NucSpn=           0           0           0           0           1           0           0           1           1           1
 AtZEff=  -0.0000000  -0.0000000  -0.0000000  -0.0000000  -0.0000000  -0.0000000  -0.0000000  -0.0000000  -0.0000000  -0.0000000
 NQMom=    0.0000000   0.0000000   0.0000000   0.0000000   0.0000000   0.0000000   0.0000000   0.0000000   0.0000000   0.0000000
 NMagM=    0.0000000   0.0000000   0.0000000   0.0000000   2.7928460   0.0000000   0.0000000   2.7928460   2.7928460   2.7928460
 AtZNuc=   6.0000000   6.0000000   6.0000000   8.0000000   1.0000000   6.0000000   6.0000000   1.0000000   1.0000000   1.0000000

  Atom        21          22          23          24          25          26          27          28          29          30
 IAtWgt=           1          12          12           1          12           1          12          16          12           1
 AtmWgt=   1.0078250  12.0000000  12.0000000   1.0078250  12.0000000   1.0078250  12.0000000  15.9949146  12.0000000   1.0078250
 NucSpn=           1           0           0           1           0           1           0           0           0           1
 AtZEff=  -0.0000000  -0.0000000  -0.0000000  -0.0000000  -0.0000000  -0.0000000  -0.0000000  -0.0000000  -0.0000000  -0.0000000
 NQMom=    0.0000000   0.0000000   0.0000000   0.0000000   0.0000000   0.0000000   0.0000000   0.0000000   0.0000000   0.0000000
 NMagM=    2.7928460   0.0000000   0.0000000   2.7928460   0.0000000   2.7928460   0.0000000   0.0000000   0.0000000   2.7928460
 AtZNuc=   1.0000000   6.0000000   6.0000000   1.0000000   6.0000000   1.0000000   6.0000000   8.0000000   6.0000000   1.0000000

  Atom        31          32
 IAtWgt=          12           1
 AtmWgt=  12.0000000   1.0078250
 NucSpn=           0           1
 AtZEff=  -0.0000000  -0.0000000
 NQMom=    0.0000000   0.0000000
 NMagM=    0.0000000   2.7928460
 AtZNuc=   6.0000000   1.0000000
 Leave Link  101 at Mon Jul 12 12:15:40 2021, MaxMem=   104857600 cpu:               0.1 elap:               0.1
 (Enter /dades/curu/g16A03_MST/g16/l103.exe)

 GradGradGradGradGradGradGradGradGradGradGradGradGradGradGradGradGradGrad
 Berny optimization.
 Initialization pass.
                           ----------------------------
                           !    Initial Parameters    !
                           ! (Angstroms and Degrees)  !
 --------------------------                            --------------------------
 ! Name  Definition              Value          Derivative Info.                !
 --------------------------------------------------------------------------------
 ! R1    R(1,2)                  1.0926         estimate D2E/DX2                !
 ! R2    R(1,3)                  1.0916         estimate D2E/DX2                !
 ! R3    R(1,4)                  1.0918         estimate D2E/DX2                !
 ! R4    R(1,5)                  1.535          estimate D2E/DX2                !
 ! R5    R(5,6)                  1.5268         estimate D2E/DX2                !
 ! R6    R(5,10)                 1.5364         estimate D2E/DX2                !
 ! R7    R(5,22)                 1.6021         estimate D2E/DX2                !
 ! R8    R(6,7)                  1.0921         estimate D2E/DX2                !
 ! R9    R(6,8)                  1.092          estimate D2E/DX2                !
 ! R10   R(6,9)                  1.0922         estimate D2E/DX2                !
 ! R11   R(10,11)                1.4204         estimate D2E/DX2                !
 ! R12   R(10,17)                1.3916         estimate D2E/DX2                !
 ! R13   R(11,12)                1.4006         estimate D2E/DX2                !
 ! R14   R(11,21)                1.0872         estimate D2E/DX2                !
 ! R15   R(12,13)                1.4183         estimate D2E/DX2                !
 ! R16   R(12,20)                1.0874         estimate D2E/DX2                !
 ! R17   R(13,14)                1.321          estimate D2E/DX2                !
 ! R18   R(13,16)                1.3655         estimate D2E/DX2                !
 ! R19   R(14,15)                0.974          estimate D2E/DX2                !
 ! R20   R(16,17)                1.3929         estimate D2E/DX2                !
 ! R21   R(16,19)                1.0872         estimate D2E/DX2                !
 ! R22   R(17,18)                1.0873         estimate D2E/DX2                !
 ! R23   R(22,23)                1.4046         estimate D2E/DX2                !
 ! R24   R(22,31)                1.3907         estimate D2E/DX2                !
 ! R25   R(23,24)                1.0873         estimate D2E/DX2                !
 ! R26   R(23,25)                1.4179         estimate D2E/DX2                !
 ! R27   R(25,26)                1.0873         estimate D2E/DX2                !
 ! R28   R(25,27)                1.3746         estimate D2E/DX2                !
 ! R29   R(27,28)                1.3148         estimate D2E/DX2                !
 ! R30   R(27,29)                1.3731         estimate D2E/DX2                !
 ! R31   R(29,30)                1.0869         estimate D2E/DX2                !
 ! R32   R(29,31)                1.381          estimate D2E/DX2                !
 ! R33   R(31,32)                1.0871         estimate D2E/DX2                !
 ! A1    A(2,1,3)              107.3461         estimate D2E/DX2                !
 ! A2    A(2,1,4)              110.1781         estimate D2E/DX2                !
 ! A3    A(2,1,5)              113.4487         estimate D2E/DX2                !
 ! A4    A(3,1,4)              113.5359         estimate D2E/DX2                !
 ! A5    A(3,1,5)              106.8169         estimate D2E/DX2                !
 ! A6    A(4,1,5)              105.5999         estimate D2E/DX2                !
 ! A7    A(1,5,6)              102.8305         estimate D2E/DX2                !
 ! A8    A(1,5,10)             110.5508         estimate D2E/DX2                !
 ! A9    A(1,5,22)             109.7907         estimate D2E/DX2                !
 ! A10   A(6,5,10)             110.5926         estimate D2E/DX2                !
 ! A11   A(6,5,22)             110.3902         estimate D2E/DX2                !
 ! A12   A(10,5,22)            112.2873         estimate D2E/DX2                !
 ! A13   A(5,6,7)              100.1609         estimate D2E/DX2                !
 ! A14   A(5,6,8)              118.7515         estimate D2E/DX2                !
 ! A15   A(5,6,9)              114.5229         estimate D2E/DX2                !
 ! A16   A(7,6,8)              112.2338         estimate D2E/DX2                !
 ! A17   A(7,6,9)              107.2965         estimate D2E/DX2                !
 ! A18   A(8,6,9)              103.6416         estimate D2E/DX2                !
 ! A19   A(5,10,11)            126.7063         estimate D2E/DX2                !
 ! A20   A(5,10,17)            118.9021         estimate D2E/DX2                !
 ! A21   A(11,10,17)           114.379          estimate D2E/DX2                !
 ! A22   A(10,11,12)           118.31           estimate D2E/DX2                !
 ! A23   A(10,11,21)           118.3764         estimate D2E/DX2                !
 ! A24   A(12,11,21)           117.8809         estimate D2E/DX2                !
 ! A25   A(11,12,13)           123.5254         estimate D2E/DX2                !
 ! A26   A(11,12,20)           118.7461         estimate D2E/DX2                !
 ! A27   A(13,12,20)           117.6991         estimate D2E/DX2                !
 ! A28   A(12,13,14)           116.5452         estimate D2E/DX2                !
 ! A29   A(12,13,16)           115.6414         estimate D2E/DX2                !
 ! A30   A(14,13,16)           127.8055         estimate D2E/DX2                !
 ! A31   A(13,14,15)           103.818          estimate D2E/DX2                !
 ! A32   A(13,16,17)           120.2273         estimate D2E/DX2                !
 ! A33   A(13,16,19)           121.079          estimate D2E/DX2                !
 ! A34   A(17,16,19)           118.6608         estimate D2E/DX2                !
 ! A35   A(10,17,16)           124.7924         estimate D2E/DX2                !
 ! A36   A(10,17,18)           121.9287         estimate D2E/DX2                !
 ! A37   A(16,17,18)           112.6064         estimate D2E/DX2                !
 ! A38   A(5,22,23)            122.634          estimate D2E/DX2                !
 ! A39   A(5,22,31)            121.421          estimate D2E/DX2                !
 ! A40   A(23,22,31)           115.9036         estimate D2E/DX2                !
 ! A41   A(22,23,24)           121.3316         estimate D2E/DX2                !
 ! A42   A(22,23,25)           118.4386         estimate D2E/DX2                !
 ! A43   A(24,23,25)           120.1522         estimate D2E/DX2                !
 ! A44   A(23,25,26)           122.4868         estimate D2E/DX2                !
 ! A45   A(23,25,27)           122.8695         estimate D2E/DX2                !
 ! A46   A(26,25,27)           114.5305         estimate D2E/DX2                !
 ! A47   A(25,27,28)           123.1522         estimate D2E/DX2                !
 ! A48   A(25,27,29)           118.4744         estimate D2E/DX2                !
 ! A49   A(28,27,29)           118.2631         estimate D2E/DX2                !
 ! A50   A(27,29,30)           115.9593         estimate D2E/DX2                !
 ! A51   A(27,29,31)           118.4856         estimate D2E/DX2                !
 ! A52   A(30,29,31)           125.5427         estimate D2E/DX2                !
 ! A53   A(22,31,29)           125.2615         estimate D2E/DX2                !
 ! A54   A(22,31,32)           116.3635         estimate D2E/DX2                !
 ! A55   A(29,31,32)           117.5342         estimate D2E/DX2                !
 ! D1    D(2,1,5,6)             50.2909         estimate D2E/DX2                !
 ! D2    D(2,1,5,10)           -67.7842         estimate D2E/DX2                !
 ! D3    D(2,1,5,22)           167.789          estimate D2E/DX2                !
 ! D4    D(3,1,5,6)            -67.782          estimate D2E/DX2                !
 ! D5    D(3,1,5,10)           174.1429         estimate D2E/DX2                !
 ! D6    D(3,1,5,22)            49.7161         estimate D2E/DX2                !
 ! D7    D(4,1,5,6)            171.0529         estimate D2E/DX2                !
 ! D8    D(4,1,5,10)            52.9778         estimate D2E/DX2                !
 ! D9    D(4,1,5,22)           -71.449          estimate D2E/DX2                !
 ! D10   D(1,5,6,7)           -176.0745         estimate D2E/DX2                !
 ! D11   D(1,5,6,8)             61.4591         estimate D2E/DX2                !
 ! D12   D(1,5,6,9)            -61.6328         estimate D2E/DX2                !
 ! D13   D(10,5,6,7)           -58.0288         estimate D2E/DX2                !
 ! D14   D(10,5,6,8)           179.5048         estimate D2E/DX2                !
 ! D15   D(10,5,6,9)            56.4129         estimate D2E/DX2                !
 ! D16   D(22,5,6,7)            66.8526         estimate D2E/DX2                !
 ! D17   D(22,5,6,8)           -55.6138         estimate D2E/DX2                !
 ! D18   D(22,5,6,9)          -178.7058         estimate D2E/DX2                !
 ! D19   D(1,5,10,11)           12.479          estimate D2E/DX2                !
 ! D20   D(1,5,10,17)         -168.8845         estimate D2E/DX2                !
 ! D21   D(6,5,10,11)         -100.7375         estimate D2E/DX2                !
 ! D22   D(6,5,10,17)           77.899          estimate D2E/DX2                !
 ! D23   D(22,5,10,11)         135.4661         estimate D2E/DX2                !
 ! D24   D(22,5,10,17)         -45.8973         estimate D2E/DX2                !
 ! D25   D(1,5,22,23)         -116.672          estimate D2E/DX2                !
 ! D26   D(1,5,22,31)           65.7633         estimate D2E/DX2                !
 ! D27   D(6,5,22,23)           -3.995          estimate D2E/DX2                !
 ! D28   D(6,5,22,31)          178.4403         estimate D2E/DX2                !
 ! D29   D(10,5,22,23)         119.9142         estimate D2E/DX2                !
 ! D30   D(10,5,22,31)         -57.6505         estimate D2E/DX2                !
 ! D31   D(5,10,11,12)         159.6914         estimate D2E/DX2                !
 ! D32   D(5,10,11,21)           6.2249         estimate D2E/DX2                !
 ! D33   D(17,10,11,12)        -18.9981         estimate D2E/DX2                !
 ! D34   D(17,10,11,21)       -172.4647         estimate D2E/DX2                !
 ! D35   D(5,10,17,16)        -169.6526         estimate D2E/DX2                !
 ! D36   D(5,10,17,18)           0.2439         estimate D2E/DX2                !
 ! D37   D(11,10,17,16)          9.1473         estimate D2E/DX2                !
 ! D38   D(11,10,17,18)        179.0438         estimate D2E/DX2                !
 ! D39   D(10,11,12,13)         15.5457         estimate D2E/DX2                !
 ! D40   D(10,11,12,20)       -166.4753         estimate D2E/DX2                !
 ! D41   D(21,11,12,13)        169.1441         estimate D2E/DX2                !
 ! D42   D(21,11,12,20)        -12.8769         estimate D2E/DX2                !
 ! D43   D(11,12,13,14)        178.9118         estimate D2E/DX2                !
 ! D44   D(11,12,13,16)         -0.1461         estimate D2E/DX2                !
 ! D45   D(20,12,13,14)          0.9131         estimate D2E/DX2                !
 ! D46   D(20,12,13,16)       -178.1448         estimate D2E/DX2                !
 ! D47   D(12,13,14,15)       -155.4986         estimate D2E/DX2                !
 ! D48   D(16,13,14,15)         23.4264         estimate D2E/DX2                !
 ! D49   D(12,13,16,17)        -10.5053         estimate D2E/DX2                !
 ! D50   D(12,13,16,19)        171.6076         estimate D2E/DX2                !
 ! D51   D(14,13,16,17)        170.5614         estimate D2E/DX2                !
 ! D52   D(14,13,16,19)         -7.3258         estimate D2E/DX2                !
 ! D53   D(13,16,17,10)          6.1189         estimate D2E/DX2                !
 ! D54   D(13,16,17,18)       -164.6001         estimate D2E/DX2                !
 ! D55   D(19,16,17,10)       -175.9433         estimate D2E/DX2                !
 ! D56   D(19,16,17,18)         13.3378         estimate D2E/DX2                !
 ! D57   D(5,22,23,24)           3.332          estimate D2E/DX2                !
 ! D58   D(5,22,23,25)        -173.4696         estimate D2E/DX2                !
 ! D59   D(31,22,23,24)       -178.9782         estimate D2E/DX2                !
 ! D60   D(31,22,23,25)          4.2202         estimate D2E/DX2                !
 ! D61   D(5,22,31,29)         177.281          estimate D2E/DX2                !
 ! D62   D(5,22,31,32)           8.0827         estimate D2E/DX2                !
 ! D63   D(23,22,31,29)         -0.4392         estimate D2E/DX2                !
 ! D64   D(23,22,31,32)       -169.6375         estimate D2E/DX2                !
 ! D65   D(22,23,25,26)        175.3719         estimate D2E/DX2                !
 ! D66   D(22,23,25,27)         -8.7087         estimate D2E/DX2                !
 ! D67   D(24,23,25,26)         -1.4687         estimate D2E/DX2                !
 ! D68   D(24,23,25,27)        174.4506         estimate D2E/DX2                !
 ! D69   D(23,25,27,28)       -175.0374         estimate D2E/DX2                !
 ! D70   D(23,25,27,29)          8.8521         estimate D2E/DX2                !
 ! D71   D(26,25,27,28)          1.1794         estimate D2E/DX2                !
 ! D72   D(26,25,27,29)       -174.931          estimate D2E/DX2                !
 ! D73   D(25,27,29,30)        176.5847         estimate D2E/DX2                !
 ! D74   D(25,27,29,31)         -4.6268         estimate D2E/DX2                !
 ! D75   D(28,27,29,30)          0.2816         estimate D2E/DX2                !
 ! D76   D(28,27,29,31)        179.0701         estimate D2E/DX2                !
 ! D77   D(27,29,31,22)          0.5887         estimate D2E/DX2                !
 ! D78   D(27,29,31,32)        169.6728         estimate D2E/DX2                !
 ! D79   D(30,29,31,22)        179.25           estimate D2E/DX2                !
 ! D80   D(30,29,31,32)        -11.6659         estimate D2E/DX2                !
 --------------------------------------------------------------------------------
 Trust Radius=3.00D-01 FncErr=1.00D-07 GrdErr=1.00D-06 EigMax=2.50D+02 EigMin=1.00D-04
 Number of steps in this run=    178 maximum allowed number of steps=    192.
 GradGradGradGradGradGradGradGradGradGradGradGradGradGradGradGradGradGrad

 Leave Link  103 at Mon Jul 12 12:15:40 2021, MaxMem=   104857600 cpu:               0.0 elap:               0.0
 (Enter /dades/curu/g16A03_MST/g16/l202.exe)
                          Input orientation:                          
 ---------------------------------------------------------------------
 Center     Atomic      Atomic             Coordinates (Angstroms)
 Number     Number       Type             X           Y           Z
 ---------------------------------------------------------------------
      1          6           0        0.008000   -1.929000    1.619000
      2          1           0        0.801000   -2.678000    1.681000
      3          1           0       -0.945000   -2.460000    1.658000
      4          1           0        0.127000   -1.188000    2.412000
      5          6           0        0.020000   -1.134000    0.306000
      6          6           0        0.083000   -2.231000   -0.754000
      7          1           0        0.163000   -1.622000   -1.657000
      8          1           0       -0.735000   -2.952000   -0.813000
      9          1           0        0.976000   -2.858000   -0.705000
     10          6           0        1.265000   -0.237000    0.230000
     11          6           0        2.406000   -0.295000    1.074000
     12          6           0        3.600000    0.277000    0.617000
     13          6           0        3.669000    1.177000   -0.477000
     14          8           0        4.865000    1.651000   -0.777000
     15          1           0        4.675000    2.492000   -1.230000
     16          6           0        2.479000    1.464000   -1.082000
     17          6           0        1.338000    0.729000   -0.769000
     18          1           0        0.539000    0.869000   -1.493000
     19          1           0        2.407000    2.242000   -1.838000
     20          1           0        4.524000    0.049000    1.143000
     21          1           0        2.474000   -1.105000    1.796000
     22          6           0       -1.340000   -0.299000    0.165000
     23          6           0       -2.266000   -0.528000   -0.866000
     24          1           0       -2.121000   -1.327000   -1.589000
     25          6           0       -3.370000    0.353000   -0.990000
     26          1           0       -4.085000    0.282000   -1.806000
     27          6           0       -3.670000    1.310000   -0.050000
     28          8           0       -4.744000    2.066000   -0.111000
     29          6           0       -2.768000    1.542000    0.959000
     30          1           0       -3.019000    2.346000    1.646000
     31          6           0       -1.648000    0.738000    1.039000
     32          1           0       -0.863000    1.037000    1.729000
 ---------------------------------------------------------------------
                    Distance matrix (angstroms):
                    1          2          3          4          5
     1  C    0.000000
     2  H    1.092563   0.000000
     3  H    1.091646   1.759707   0.000000
     4  H    1.091829   1.791295   1.826386   0.000000
     5  C    1.534972   2.210095   2.125419   2.109408   0.000000
     6  C    2.393315   2.577704   2.631914   3.333668   1.526754
     7  H    3.294002   3.558711   3.594320   4.092238   2.027797
     8  H    2.741022   2.941838   2.528241   3.775628   2.264356
     9  H    2.683476   2.399171   3.071224   3.636673   2.215453
    10  C    2.524328   2.877356   3.444563   2.638289   1.536363
    11  C    2.952522   2.936522   4.032057   2.789540   2.643244
    12  C    4.332771   4.206961   5.406651   4.174923   3.860575
    13  C    5.238642   5.267202   6.250999   5.146388   4.389648
    14  O    6.492123   6.426360   7.522343   6.377953   5.692376
    15  H    7.031567   7.085951   8.027904   6.891362   6.097229
    16  C    4.991362   5.254143   5.884654   4.977253   3.837034
    17  C    3.812664   4.230664   4.612173   3.906427   2.522601
    18  H    4.218449   4.766983   4.818018   4.432834   2.741855
    19  H    5.924803   6.258514   6.750313   5.918260   4.657454
    20  H    4.953112   4.646149   6.039062   4.740690   4.731392
    21  H    2.606043   2.299235   3.680303   2.427911   2.871072
    22  C    2.566733   3.541437   2.656124   2.826910   1.602094
    23  C    3.648164   4.529481   3.442127   4.111853   2.639435
    24  H    3.896962   4.588702   3.634512   4.591386   2.865686
    25  C    4.839968   5.806758   4.561304   5.116375   3.922102
    26  H    5.776833   6.692814   5.420098   6.139492   4.828729
    27  C    5.177293   6.236212   4.955380   5.169009   4.440267
    28  O    6.444721   7.514241   6.168179   6.378141   5.754093
    29  C    4.493286   5.573818   4.452857   4.236170   3.919226
    30  H    5.238233   6.311434   5.234430   4.793040   4.810563
    31  C    3.192432   4.251920   3.332353   2.957234   2.612259
    32  H    3.093202   4.070924   3.498682   2.529271   2.741871
                    6          7          8          9         10
     6  C    0.000000
     7  H    1.092103   0.000000
     8  H    1.091992   1.813185   0.000000
     9  H    1.092236   1.759252   1.716980   0.000000
    10  C    2.518217   2.587160   3.529741   2.797747   0.000000
    11  C    3.533555   3.774962   4.526179   3.432013   1.420416
    12  C    4.531997   4.537648   5.591383   4.296660   2.422022
    13  C    4.954855   4.638840   6.046218   4.856486   2.877231
    14  O    6.159381   5.796183   7.249062   5.954879   4.187910
    15  H    6.604526   6.120904   7.686295   6.525391   4.605121
    16  C    4.416042   3.901010   5.468383   4.591386   2.467497
    17  C    3.215097   2.774233   4.224811   3.605788   1.391577
    18  H    3.219326   2.524550   4.084791   3.834376   2.172335
    19  H    5.155944   4.472001   6.156332   5.416775   3.424358
    20  H    5.340364   5.445233   6.363098   4.945104   3.396534
    21  H    3.672500   4.187030   4.529456   3.401766   2.160431
    22  C    2.569458   2.707217   2.891525   3.559387   2.606548
    23  C    2.903542   2.778949   2.867498   3.995671   3.708619
    24  H    2.524293   2.303976   2.272399   3.566066   3.995229
    25  C    4.319255   4.102146   4.230553   5.411050   4.829050
    26  H    4.979367   4.657566   4.761019   6.056857   5.747796
    27  C    5.207620   5.086351   5.230778   6.275872   5.179366
    28  O    6.494427   6.330095   6.461053   7.570800   6.444235
    29  C    5.029722   5.044315   5.241098   6.012190   4.467815
    30  H    6.027548   6.064648   6.271534   6.969135   5.199000
    31  C    3.876361   4.014690   4.228424   4.781017   3.176582
    32  H    4.211891   4.425828   4.731836   4.947454   2.898010
                   11         12         13         14         15
    11  C    0.000000
    12  C    1.400596   0.000000
    13  C    2.483456   1.418308   0.000000
    14  O    3.641401   2.330523   1.321019   0.000000
    15  H    4.268975   3.077866   1.818865   0.973956   0.000000
    16  C    2.783477   2.356313   1.365465   2.412673   2.429219
    17  C    2.363440   2.691086   2.391554   3.645528   3.802139
    18  H    3.380839   3.764610   3.305151   4.454038   4.450819
    19  H    3.862139   3.363257   2.139904   2.741672   2.361353
    20  H    2.146863   1.087399   2.151234   2.523705   3.409132
    21  H    1.087202   2.137251   3.435415   4.464610   5.190326
    22  C    3.854713   4.993964   5.261257   6.572054   6.776129
    23  C    5.064136   6.103873   6.187291   7.457018   7.578283
    24  H    5.352600   6.337909   6.405518   7.637540   7.803798
    25  C    6.167834   7.153260   7.105608   8.339388   8.327962
    26  H    7.124634   8.057926   7.917814   9.112382   9.052816
    27  C    6.384135   7.373254   7.352614   8.572691   8.510496
    28  O    7.622404   8.564627   8.467753   9.640989   9.494798
    29  C    5.491636   6.501432   6.605323   7.828682   7.816167
    30  H    6.060750   7.010761   7.113581   8.277162   8.215250
    31  C    4.183686   5.285084   5.546302   6.822800   6.942997
    32  H    3.590210   4.661814   5.042327   6.282278   6.445320
                   16         17         18         19         20
    16  C    0.000000
    17  C    1.392866   0.000000
    18  H    2.070398   1.087280   0.000000
    19  H    1.087200   2.138853   2.343838   0.000000
    20  H    3.336896   3.777399   4.847795   4.263484   0.000000
    21  H    3.857806   3.351608   4.296327   4.940937   2.441439
    22  C    4.387247   3.016757   2.764748   4.950626   5.955173
    23  C    5.150703   3.818151   3.195741   5.518570   7.104443
    24  H    5.404325   4.106607   3.450686   5.770836   7.315273
    25  C    5.954291   4.728158   3.974864   6.136868   8.182747
    26  H    6.708755   5.539324   4.671607   6.781496   9.103064
    27  C    6.236902   5.092601   4.471287   6.402773   8.375859
    28  O    7.312795   6.261889   5.590422   7.358689   9.567478
    29  C    5.630522   4.528376   4.171508   5.924005   7.445547
    30  H    6.200638   5.237400   4.969327   6.449073   7.901017
    31  C    4.696578   3.490722   3.348306   5.194436   6.211209
    32  H    4.387826   3.343541   3.517828   4.986824   5.508113
                   21         22         23         24         25
    21  H    0.000000
    22  C    4.225683   0.000000
    23  C    5.466880   1.404592   0.000000
    24  H    5.711526   2.177903   1.087270   0.000000
    25  C    6.636256   2.424877   1.417869   2.177430   0.000000
    26  H    7.610431   3.428910   2.201922   2.548189   1.087254
    27  C    6.854829   2.839719   2.452614   3.423696   1.374572
    28  O    8.111191   4.154108   3.665971   4.536195   2.365351
    29  C    5.931757   2.461483   2.804912   3.891282   2.361086
    30  H    6.488833   3.465318   3.890633   4.976199   3.323213
    31  C    4.578273   1.390722   2.369326   3.375550   2.688931
    32  H    3.965882   2.111521   3.339410   4.263823   3.761099
                   26         27         28         29         30
    26  H    0.000000
    27  C    2.076667   0.000000
    28  O    2.547540   1.314813   0.000000
    29  C    3.311694   1.373138   2.307391   0.000000
    30  H    4.160860   2.091295   2.478119   1.086916   0.000000
    31  C    3.773716   2.366768   3.559677   1.381020   2.198580
    32  H    4.842265   3.334459   4.416628   2.115880   2.523630
                   31         32
    31  C    0.000000
    32  H    1.087072   0.000000
 Stoichiometry    C15H15O2(1-)
 Framework group  C1[X(C15H15O2)]
 Deg. of freedom    90
 Full point group                 C1      NOp   1
 Largest Abelian subgroup         C1      NOp   1
 Largest concise Abelian subgroup C1      NOp   1
                         Standard orientation:                         
 ---------------------------------------------------------------------
 Center     Atomic      Atomic             Coordinates (Angstroms)
 Number     Number       Type             X           Y           Z
 ---------------------------------------------------------------------
      1          6           0       -0.028179    2.520528   -0.976797
      2          1           0        0.777004    3.249231   -0.856932
      3          1           0       -0.971756    3.053579   -0.845618
      4          1           0        0.058565    2.018890   -1.942678
      5          6           0       -0.000575    1.401468    0.073480
      6          6           0        0.107430    2.171973    1.387115
      7          1           0        0.196968    1.341564    2.090743
      8          1           0       -0.695391    2.860051    1.660011
      9          1           0        1.010594    2.778513    1.483983
     10          6           0        1.228904    0.502560   -0.128396
     11          6           0        2.350916    0.772131   -0.956648
     12          6           0        3.544312    0.084294   -0.702966
     13          6           0        3.621854   -1.077627    0.106679
     14          8           0        4.815438   -1.628864    0.235472
     15          1           0        4.620337   -2.558449    0.450871
     16          6           0        2.441053   -1.502852    0.644624
     17          6           0        1.307011   -0.697407    0.571937
     18          1           0        0.522537   -1.017671    1.253265
     19          1           0        2.372098   -2.454679    1.165464
     20          1           0        4.459962    0.434563   -1.173425
     21          1           0        2.417257    1.745674   -1.436044
     22          6           0       -1.372280    0.575338    0.022077
     23          6           0       -2.269698    0.529322    1.101614
     24          1           0       -2.093099    1.102555    2.008461
     25          6           0       -3.386768   -0.339538    1.014483
     26          1           0       -4.081211   -0.482339    1.838788
     27          6           0       -3.726276   -1.004724   -0.139515
     28          8           0       -4.812487   -1.736603   -0.254540
     29          6           0       -2.852392   -0.967236   -1.198019
     30          1           0       -3.134203   -1.553727   -2.068649
     31          6           0       -1.719746   -0.184558   -1.089649
     32          1           0       -0.956666   -0.296056   -1.855810
 ---------------------------------------------------------------------
 Rotational constants (GHZ):           0.9073490           0.2534222           0.2260633
 Leave Link  202 at Mon Jul 12 12:15:40 2021, MaxMem=   104857600 cpu:               0.0 elap:               0.0
 (Enter /dades/curu/g16A03_MST/g16/l301.exe)
 Standard basis: 6-31G(d) (6D, 7F)
 Ernie: Thresh=  0.10000D-02 Tol=  0.10000D-05 Strict=F.
 There are   285 symmetry adapted cartesian basis functions of A   symmetry.
 There are   285 symmetry adapted basis functions of A   symmetry.
   285 basis functions,   536 primitive gaussians,   285 cartesian basis functions
    61 alpha electrons       61 beta electrons
       nuclear repulsion energy      1128.9233336429 Hartrees.
 IExCor=  402 DFT=T Ex+Corr=B3LYP ExCW=0 ScaHFX=  0.200000
 ScaDFX=  0.800000  0.720000  1.000000  0.810000 ScalE2=  1.000000  1.000000
 IRadAn=      5 IRanWt=     -1 IRanGd=            0 ICorTp=0 IEmpDi=  4
 NAtoms=   32 NActive=   32 NUniq=   32 SFac= 1.00D+00 NAtFMM=   60 NAOKFM=F Big=F
 Integral buffers will be    131072 words long.
 Raffenetti 2 integral format.
 Two-electron integral symmetry is turned on.
 Using the following non-standard input for PCM:
 MSTModel=DFT cav MSTCharged
 --- end of non-standard input.
 MST model for solvation energy: B3LYP parametrization.
 MST cavity parameters:
 ISph   IAn     Re0     Alpha   Atom Type   QCorr
 ------------------------------------------------
   1      6     1.50     1.50      CH3        F
   2      1     1.20     1.50      CH3        F
   3      1     1.20     1.50      CH3        F
   4      1     1.20     1.50      CH3        F
   5      6     1.50     1.50      C          F
   6      6     1.50     1.50      CH3        F
   7      1     1.20     1.50      CH3        F
   8      1     1.20     1.50      CH3        F
   9      1     1.20     1.50      CH3        F
  10      6     1.50     1.50      C          F
  11      6     1.50     1.50      CH         F
  12      6     1.50     1.50      CH         F
  13      6     1.50     1.50      C          F
  14      8     1.40     1.50      OH         F
  15      1     0.90     1.50      OH         F
  16      6     1.50     1.50      CH         F
  17      6     1.50     1.50      CH         F
  18      1     1.20     1.50      CH         F
  19      1     1.20     1.50      CH         F
  20      1     1.20     1.50      CH         F
  21      1     1.20     1.50      CH         F
  22      6     1.50     1.50      C          F
  23      6     1.50     1.50      CH         F
  24      1     1.20     1.50      CH         F
  25      6     1.50     1.50      CH         F
  26      1     1.20     1.50      CH         F
  27      6     1.50     1.50      C          F
  28      8     1.40     1.15      O          T
  29      6     1.50     1.50      CH         F
  30      1     1.20     1.50      CH         F
  31      6     1.50     1.50      CH         F
  32      1     1.20     1.50      CH         F
 ------------------------------------------------------------------------------
 Polarizable Continuum Model (PCM)
 =================================
 Model                : PCM.
 Atomic radii         : MST.
 Polarization charges : Total charges.
 Charge compensation  : None.
 Solution method      : On-the-fly selection.
 Cavity type          : Scaled VdW (van der Waals Surface) (Alpha=1.500).
 Cavity algorithm     : GePol (No added spheres)
                        Default sphere list used, NSphG=   32.
                        Lebedev-Laikov grids with approx.  5.0 points / Ang**2.
                        Smoothing algorithm: York/Karplus (Gamma=1.0000).
                        Polarization charges: spherical gaussians, with
                                              point-specific exponents (IZeta= 3).
                        Self-potential: point-specific (ISelfS= 7).
                        Self-field    : sphere-specific E.n sum rule (ISelfD= 2).
 1st derivatives      : Analytical E(r).r(x)/FMM algorithm (CHGder, D1EAlg=3).
                        Cavity 1st derivative terms included.
 Solvent              : n-Octanol, Eps=   9.862900 Eps(inf)=   2.043470
 ------------------------------------------------------------------------------
 GePol: Number of generator spheres                  =      32
 GePol: Total number of spheres                      =      32
 GePol: Number of exposed spheres                    =      31 ( 96.88%)
 GePol: Number of points                             =    2957
 GePol: Average weight of points                     =       0.11
 GePol: Minimum weight of points                     =   0.20D-10
 GePol: Maximum weight of points                     =    0.20790
 GePol: Number of points with low weight             =     200
 GePol: Fraction of low-weight points (<1% of avg)   =       6.76%
 GePol: Cavity surface area                          =    320.121 Ang**2
 GePol: Cavity volume                                =    375.059 Ang**3
 Surface areas from nonelectrostatic (unscaled) cavity and vdw tensions:
 Sphere =    1 Type =  CH3 Surf =        4.349 Tension =       -0.183
 Sphere =    2 Type =  CH3 Surf =        9.685 Tension =       -0.183
 Sphere =    3 Type =  CH3 Surf =       10.004 Tension =       -0.183
 Sphere =    4 Type =  CH3 Surf =        9.958 Tension =       -0.183
 Sphere =    5 Type =  C   Surf =        1.906 Tension =       -0.205
 Sphere =    6 Type =  CH3 Surf =        4.046 Tension =       -0.183
 Sphere =    7 Type =  CH3 Surf =        9.432 Tension =       -0.183
 Sphere =    8 Type =  CH3 Surf =        9.818 Tension =       -0.183
 Sphere =    9 Type =  CH3 Surf =       10.026 Tension =       -0.183
 Sphere =   10 Type =  C   Surf =        6.053 Tension =       -0.205
 Sphere =   11 Type =  CH  Surf =        7.863 Tension =       -0.195
 Sphere =   12 Type =  CH  Surf =        7.639 Tension =       -0.195
 Sphere =   13 Type =  C   Surf =        6.638 Tension =       -0.205
 Sphere =   14 Type =  OH  Surf =       14.232 Tension =       -0.238
 Sphere =   15 Type =  OH  Surf =        4.383 Tension =       -0.238
 Sphere =   16 Type =  CH  Surf =        7.596 Tension =       -0.195
 Sphere =   17 Type =  CH  Surf =        7.522 Tension =       -0.195
 Sphere =   18 Type =  CH  Surf =       10.140 Tension =       -0.195
 Sphere =   19 Type =  CH  Surf =       10.218 Tension =       -0.195
 Sphere =   20 Type =  CH  Surf =       10.186 Tension =       -0.195
 Sphere =   21 Type =  CH  Surf =        9.469 Tension =       -0.195
 Sphere =   22 Type =  C   Surf =        6.201 Tension =       -0.205
 Sphere =   23 Type =  CH  Surf =        7.770 Tension =       -0.195
 Sphere =   24 Type =  CH  Surf =        9.082 Tension =       -0.195
 Sphere =   25 Type =  CH  Surf =        7.686 Tension =       -0.195
 Sphere =   26 Type =  CH  Surf =       10.182 Tension =       -0.195
 Sphere =   27 Type =  C   Surf =        6.443 Tension =       -0.205
 Sphere =   28 Type =  O   Surf =       16.792 Tension =       -0.185
 Sphere =   29 Type =  CH  Surf =        7.628 Tension =       -0.195
 Sphere =   30 Type =  CH  Surf =       10.179 Tension =       -0.195
 Sphere =   31 Type =  CH  Surf =        7.558 Tension =       -0.195
 Sphere =   32 Type =  CH  Surf =       10.174 Tension =       -0.195
 PCM non-electrostatic energy =        -0.0136436843 Hartrees.
 Nuclear repulsion after PCM non-electrostatic terms =     1128.9096899586 Hartrees.
 Leave Link  301 at Mon Jul 12 12:15:40 2021, MaxMem=   104857600 cpu:               0.1 elap:               0.1
 (Enter /dades/curu/g16A03_MST/g16/l302.exe)
 NPDir=0 NMtPBC=     1 NCelOv=     1 NCel=       1 NClECP=     1 NCelD=      1
         NCelK=      1 NCelE2=     1 NClLst=     1 CellRange=     0.0.
 One-electron integrals computed using PRISM.
 One-electron integral symmetry used in STVInt
 NBasis=   285 RedAO= T EigKep=  4.85D-04  NBF=   285
 NBsUse=   285 1.00D-06 EigRej= -1.00D+00 NBFU=   285
 Precomputing XC quadrature grid using
 IXCGrd= 4 IRadAn=           5 IRanWt=          -1 IRanGd=           0 AccXCQ= 0.00D+00.
 Generated NRdTot=       0 NPtTot=           0 NUsed=           0 NTot=          32
 NSgBfM=   283   283   283   283   283 MxSgAt=    32 MxSgA2=    32.
 Leave Link  302 at Mon Jul 12 12:15:41 2021, MaxMem=   104857600 cpu:               3.6 elap:               1.0
 (Enter /dades/curu/g16A03_MST/g16/l303.exe)
 DipDrv:  MaxL=1.
 Leave Link  303 at Mon Jul 12 12:15:41 2021, MaxMem=   104857600 cpu:               0.1 elap:               0.0
 (Enter /dades/curu/g16A03_MST/g16/l401.exe)
 ExpMin= 1.61D-01 ExpMax= 5.48D+03 ExpMxC= 8.25D+02 IAcc=3 IRadAn=         5 AccDes= 0.00D+00
 Harris functional with IExCor=  402 and IRadAn=       5 diagonalized for initial guess.
 HarFok:  IExCor=  402 AccDes= 0.00D+00 IRadAn=         5 IDoV= 1 UseB2=F ITyADJ=14
 ICtDFT=  3500011 ScaDFX=  1.000000  1.000000  1.000000  1.000000
 FoFCou: FMM=F IPFlag=           0 FMFlag=      100000 FMFlg1=           0
         NFxFlg=           0 DoJE=T BraDBF=F KetDBF=T FulRan=T
         wScrn=  0.000000 ICntrl=       500 IOpCl=  0 I1Cent=   200000004 NGrid=           0
         NMat0=    1 NMatS0=      1 NMatT0=    0 NMatD0=    1 NMtDS0=    0 NMtDT0=    0
 Petite list used in FoFCou.
 Harris En= -731.326734717345    
 JPrj=0 DoOrth=F DoCkMO=F.
 Leave Link  401 at Mon Jul 12 12:15:48 2021, MaxMem=   104857600 cpu:              28.2 elap:               7.1
 (Enter /dades/curu/g16A03_MST/g16/l502.exe)
 Integral symmetry usage will be decided dynamically.
 Closed shell SCF:
 Using DIIS extrapolation, IDIIS=  1040.
 NGot=   104857600 LenX=   104690183 LenY=   104608517
 Requested convergence on RMS density matrix=1.00D-08 within 128 cycles.
 Requested convergence on MAX density matrix=1.00D-06.
 Requested convergence on             energy=1.00D-06.
 No special actions if energy rises.
 Fock matrices will be formed incrementally for  20 cycles.

 Cycle   1  Pass 1  IDiag  1:
 FoFJK:  IHMeth= 1 ICntrl=       0 DoSepK=F KAlg= 0 I1Cent=           0 FoldK=F
 IRaf= 840000000 NMat=       1 IRICut=       1 DoRegI=T DoRafI=F ISym2E= 0 IDoP0=0 IntGTp=1.
 FoFCou: FMM=F IPFlag=           0 FMFlag=      100000 FMFlg1=           0
         NFxFlg=           0 DoJE=F BraDBF=F KetDBF=F FulRan=T
         wScrn=  0.000000 ICntrl=         0 IOpCl=  0 I1Cent=           0 NGrid=           0
         NMat0=    1 NMatS0=      1 NMatT0=    0 NMatD0=    1 NMtDS0=    0 NMtDT0=    0
 Symmetry not used in FoFCou.
 Inv3:  Mode=1 IEnd=    26231547.
 Iteration    1 A*A^-1 deviation from unit magnitude is 7.99D-15 for   2946.
 Iteration    1 A*A^-1 deviation from orthogonality  is 2.84D-15 for   2953   1624.
 Iteration    1 A^-1*A deviation from unit magnitude is 7.77D-15 for   2946.
 Iteration    1 A^-1*A deviation from orthogonality  is 3.46D-15 for   2940    778.
 E= -730.624703985741    
 DIIS: error= 3.44D-02 at cycle   1 NSaved=   1.
 NSaved= 1 IEnMin= 1 EnMin= -730.624703985741     IErMin= 1 ErrMin= 3.44D-02
 ErrMax= 3.44D-02  0.00D+00 EMaxC= 1.00D-01 BMatC= 5.09D-01 BMatP= 5.09D-01
 IDIUse=3 WtCom= 6.56D-01 WtEn= 3.44D-01
 Coeff-Com:  0.100D+01
 Coeff-En:   0.100D+01
 Coeff:      0.100D+01
 Gap=     0.124 Goal=   None    Shift=    0.000
 GapD=    0.124 DampG=1.000 DampE=0.500 DampFc=0.5000 IDamp=-1.
 Damping current iteration by 5.00D-01
 RMSDP=6.70D-03 MaxDP=2.04D-01              OVMax= 2.61D-01

 Cycle   2  Pass 1  IDiag  1:
 RMSU=  3.32D-03    CP:  9.80D-01
 E= -730.865536793945     Delta-E=       -0.240832808204 Rises=F Damp=T
 DIIS: error= 9.87D-03 at cycle   2 NSaved=   2.
 NSaved= 2 IEnMin= 2 EnMin= -730.865536793945     IErMin= 2 ErrMin= 9.87D-03
 ErrMax= 9.87D-03  0.00D+00 EMaxC= 1.00D-01 BMatC= 2.56D-02 BMatP= 5.09D-01
 IDIUse=3 WtCom= 9.01D-01 WtEn= 9.87D-02
 Coeff-Com:  0.497D-01 0.950D+00
 Coeff-En:   0.525D-01 0.948D+00
 Coeff:      0.500D-01 0.950D+00
 Gap=     0.197 Goal=   None    Shift=    0.000
 RMSDP=1.61D-03 MaxDP=7.04D-02 DE=-2.41D-01 OVMax= 1.71D-01

 Cycle   3  Pass 1  IDiag  1:
 RMSU=  1.43D-03    CP:  9.69D-01  7.82D-01
 E= -731.125511500800     Delta-E=       -0.259974706855 Rises=F Damp=F
 DIIS: error= 1.02D-02 at cycle   3 NSaved=   3.
 NSaved= 3 IEnMin= 3 EnMin= -731.125511500800     IErMin= 2 ErrMin= 9.87D-03
 ErrMax= 1.02D-02  0.00D+00 EMaxC= 1.00D-01 BMatC= 2.21D-02 BMatP= 2.56D-02
 IDIUse=3 WtCom= 8.98D-01 WtEn= 1.02D-01
 Coeff-Com: -0.123D-01 0.480D+00 0.533D+00
 Coeff-En:   0.000D+00 0.000D+00 0.100D+01
 Coeff:     -0.110D-01 0.431D+00 0.580D+00
 Gap=     0.135 Goal=   None    Shift=    0.000
 RMSDP=9.39D-04 MaxDP=4.47D-02 DE=-2.60D-01 OVMax= 8.85D-02

 Cycle   4  Pass 1  IDiag  1:
 RMSU=  7.14D-04    CP:  9.72D-01  8.65D-01  6.21D-01
 E= -731.137502897984     Delta-E=       -0.011991397184 Rises=F Damp=F
 DIIS: error= 6.06D-03 at cycle   4 NSaved=   4.
 NSaved= 4 IEnMin= 4 EnMin= -731.137502897984     IErMin= 4 ErrMin= 6.06D-03
 ErrMax= 6.06D-03  0.00D+00 EMaxC= 1.00D-01 BMatC= 7.69D-03 BMatP= 2.21D-02
 IDIUse=3 WtCom= 9.39D-01 WtEn= 6.06D-02
 Coeff-Com: -0.979D-02 0.767D-01 0.377D+00 0.556D+00
 Coeff-En:   0.000D+00 0.000D+00 0.296D+00 0.704D+00
 Coeff:     -0.920D-02 0.720D-01 0.373D+00 0.565D+00
 Gap=     0.136 Goal=   None    Shift=    0.000
 RMSDP=4.14D-04 MaxDP=1.75D-02 DE=-1.20D-02 OVMax= 3.57D-02

 Cycle   5  Pass 1  IDiag  1:
 RMSU=  1.34D-04    CP:  9.71D-01  8.34D-01  7.62D-01  5.52D-01
 E= -731.143869587248     Delta-E=       -0.006366689263 Rises=F Damp=F
 DIIS: error= 5.35D-04 at cycle   5 NSaved=   5.
 NSaved= 5 IEnMin= 5 EnMin= -731.143869587248     IErMin= 5 ErrMin= 5.35D-04
 ErrMax= 5.35D-04  0.00D+00 EMaxC= 1.00D-01 BMatC= 1.60D-04 BMatP= 7.69D-03
 IDIUse=3 WtCom= 9.95D-01 WtEn= 5.35D-03
 Coeff-Com: -0.341D-02 0.124D-01 0.139D+00 0.256D+00 0.596D+00
 Coeff-En:   0.000D+00 0.000D+00 0.000D+00 0.000D+00 0.100D+01
 Coeff:     -0.340D-02 0.124D-01 0.138D+00 0.255D+00 0.598D+00
 Gap=     0.136 Goal=   None    Shift=    0.000
 RMSDP=5.95D-05 MaxDP=2.28D-03 DE=-6.37D-03 OVMax= 4.49D-03

 Cycle   6  Pass 1  IDiag  1:
 RMSU=  3.98D-05    CP:  9.71D-01  8.38D-01  7.58D-01  5.84D-01  7.37D-01
 E= -731.143995266949     Delta-E=       -0.000125679701 Rises=F Damp=F
 DIIS: error= 1.95D-04 at cycle   6 NSaved=   6.
 NSaved= 6 IEnMin= 6 EnMin= -731.143995266949     IErMin= 6 ErrMin= 1.95D-04
 ErrMax= 1.95D-04  0.00D+00 EMaxC= 1.00D-01 BMatC= 2.17D-05 BMatP= 1.60D-04
 IDIUse=3 WtCom= 9.98D-01 WtEn= 1.95D-03
 Coeff-Com: -0.108D-02 0.734D-03 0.435D-01 0.933D-01 0.330D+00 0.534D+00
 Coeff-En:   0.000D+00 0.000D+00 0.000D+00 0.000D+00 0.640D-01 0.936D+00
 Coeff:     -0.108D-02 0.732D-03 0.434D-01 0.931D-01 0.329D+00 0.534D+00
 Gap=     0.136 Goal=   None    Shift=    0.000
 RMSDP=2.18D-05 MaxDP=7.56D-04 DE=-1.26D-04 OVMax= 1.52D-03

 Cycle   7  Pass 1  IDiag  1:
 RMSU=  1.32D-05    CP:  9.71D-01  8.37D-01  7.59D-01  5.86D-01  7.65D-01
                    CP:  5.84D-01
 E= -731.144014290195     Delta-E=       -0.000019023247 Rises=F Damp=F
 DIIS: error= 6.78D-05 at cycle   7 NSaved=   7.
 NSaved= 7 IEnMin= 7 EnMin= -731.144014290195     IErMin= 7 ErrMin= 6.78D-05
 ErrMax= 6.78D-05  0.00D+00 EMaxC= 1.00D-01 BMatC= 2.23D-06 BMatP= 2.17D-05
 IDIUse=1 WtCom= 1.00D+00 WtEn= 0.00D+00
 Coeff-Com: -0.439D-03-0.157D-03 0.167D-01 0.386D-01 0.158D+00 0.320D+00
 Coeff-Com:  0.467D+00
 Coeff:     -0.439D-03-0.157D-03 0.167D-01 0.386D-01 0.158D+00 0.320D+00
 Coeff:      0.467D+00
 Gap=     0.136 Goal=   None    Shift=    0.000
 RMSDP=8.46D-06 MaxDP=1.84D-04 DE=-1.90D-05 OVMax= 5.45D-04

 Cycle   8  Pass 1  IDiag  1:
 RMSU=  3.68D-06    CP:  9.71D-01  8.37D-01  7.60D-01  5.89D-01  7.57D-01
                    CP:  6.23D-01  4.74D-01
 E= -731.144016612820     Delta-E=       -0.000002322624 Rises=F Damp=F
 DIIS: error= 1.72D-05 at cycle   8 NSaved=   8.
 NSaved= 8 IEnMin= 8 EnMin= -731.144016612820     IErMin= 8 ErrMin= 1.72D-05
 ErrMax= 1.72D-05  0.00D+00 EMaxC= 1.00D-01 BMatC= 1.79D-07 BMatP= 2.23D-06
 IDIUse=1 WtCom= 1.00D+00 WtEn= 0.00D+00
 Coeff-Com: -0.337D-04-0.294D-03 0.125D-02 0.430D-02 0.268D-01 0.753D-01
 Coeff-Com:  0.250D+00 0.643D+00
 Coeff:     -0.337D-04-0.294D-03 0.125D-02 0.430D-02 0.268D-01 0.753D-01
 Coeff:      0.250D+00 0.643D+00
 Gap=     0.136 Goal=   None    Shift=    0.000
 RMSDP=1.94D-06 MaxDP=5.57D-05 DE=-2.32D-06 OVMax= 1.36D-04

 Cycle   9  Pass 1  IDiag  1:
 RMSU=  1.05D-06    CP:  9.71D-01  8.37D-01  7.60D-01  5.89D-01  7.62D-01
                    CP:  6.25D-01  5.57D-01  7.58D-01
 E= -731.144016789277     Delta-E=       -0.000000176457 Rises=F Damp=F
 DIIS: error= 4.75D-06 at cycle   9 NSaved=   9.
 NSaved= 9 IEnMin= 9 EnMin= -731.144016789277     IErMin= 9 ErrMin= 4.75D-06
 ErrMax= 4.75D-06  0.00D+00 EMaxC= 1.00D-01 BMatC= 1.43D-08 BMatP= 1.79D-07
 IDIUse=1 WtCom= 1.00D+00 WtEn= 0.00D+00
 Coeff-Com:  0.947D-05-0.133D-03-0.426D-03-0.323D-03 0.373D-02 0.178D-01
 Coeff-Com:  0.101D+00 0.325D+00 0.554D+00
 Coeff:      0.947D-05-0.133D-03-0.426D-03-0.323D-03 0.373D-02 0.178D-01
 Coeff:      0.101D+00 0.325D+00 0.554D+00
 Gap=     0.136 Goal=   None    Shift=    0.000
 RMSDP=5.12D-07 MaxDP=1.78D-05 DE=-1.76D-07 OVMax= 3.39D-05

 Cycle  10  Pass 1  IDiag  1:
 RMSU=  3.43D-07    CP:  9.71D-01  8.37D-01  7.60D-01  5.89D-01  7.62D-01
                    CP:  6.27D-01  5.59D-01  7.93D-01  6.69D-01
 E= -731.144016801119     Delta-E=       -0.000000011842 Rises=F Damp=F
 DIIS: error= 1.30D-06 at cycle  10 NSaved=  10.
 NSaved=10 IEnMin=10 EnMin= -731.144016801119     IErMin=10 ErrMin= 1.30D-06
 ErrMax= 1.30D-06  0.00D+00 EMaxC= 1.00D-01 BMatC= 1.37D-09 BMatP= 1.43D-08
 IDIUse=1 WtCom= 1.00D+00 WtEn= 0.00D+00
 Coeff-Com:  0.807D-05-0.237D-04-0.348D-03-0.696D-03-0.143D-02-0.770D-03
 Coeff-Com:  0.189D-01 0.754D-01 0.273D+00 0.636D+00
 Coeff:      0.807D-05-0.237D-04-0.348D-03-0.696D-03-0.143D-02-0.770D-03
 Coeff:      0.189D-01 0.754D-01 0.273D+00 0.636D+00
 Gap=     0.136 Goal=   None    Shift=    0.000
 RMSDP=1.86D-07 MaxDP=5.51D-06 DE=-1.18D-08 OVMax= 1.53D-05

 Cycle  11  Pass 1  IDiag  1:
 RMSU=  9.97D-08    CP:  9.71D-01  8.37D-01  7.60D-01  5.89D-01  7.62D-01
                    CP:  6.26D-01  5.65D-01  7.96D-01  7.37D-01  6.96D-01
 E= -731.144016802402     Delta-E=       -0.000000001283 Rises=F Damp=F
 DIIS: error= 5.09D-07 at cycle  11 NSaved=  11.
 NSaved=11 IEnMin=11 EnMin= -731.144016802402     IErMin=11 ErrMin= 5.09D-07
 ErrMax= 5.09D-07  0.00D+00 EMaxC= 1.00D-01 BMatC= 1.28D-10 BMatP= 1.37D-09
 IDIUse=1 WtCom= 1.00D+00 WtEn= 0.00D+00
 Coeff-Com:  0.369D-05-0.483D-05-0.165D-03-0.362D-03-0.966D-03-0.136D-02
 Coeff-Com:  0.471D-02 0.229D-01 0.115D+00 0.344D+00 0.516D+00
 Coeff:      0.369D-05-0.483D-05-0.165D-03-0.362D-03-0.966D-03-0.136D-02
 Coeff:      0.471D-02 0.229D-01 0.115D+00 0.344D+00 0.516D+00
 Gap=     0.136 Goal=   None    Shift=    0.000
 RMSDP=4.97D-08 MaxDP=2.44D-06 DE=-1.28D-09 OVMax= 4.12D-06

 Cycle  12  Pass 1  IDiag  1:
 RMSU=  3.48D-08    CP:  9.71D-01  8.37D-01  7.60D-01  5.89D-01  7.62D-01
                    CP:  6.26D-01  5.65D-01  7.96D-01  7.33D-01  7.46D-01
                    CP:  7.00D-01
 E= -731.144016802534     Delta-E=       -0.000000000132 Rises=F Damp=F
 DIIS: error= 1.17D-07 at cycle  12 NSaved=  12.
 NSaved=12 IEnMin=12 EnMin= -731.144016802534     IErMin=12 ErrMin= 1.17D-07
 ErrMax= 1.17D-07  0.00D+00 EMaxC= 1.00D-01 BMatC= 9.16D-12 BMatP= 1.28D-10
 IDIUse=1 WtCom= 1.00D+00 WtEn= 0.00D+00
 Coeff-Com:  0.162D-06 0.182D-05-0.157D-04-0.473D-04-0.205D-03-0.509D-03
 Coeff-Com: -0.138D-02-0.310D-02 0.359D-02 0.481D-01 0.227D+00 0.727D+00
 Coeff:      0.162D-06 0.182D-05-0.157D-04-0.473D-04-0.205D-03-0.509D-03
 Coeff:     -0.138D-02-0.310D-02 0.359D-02 0.481D-01 0.227D+00 0.727D+00
 Gap=     0.136 Goal=   None    Shift=    0.000
 RMSDP=1.58D-08 MaxDP=4.87D-07 DE=-1.32D-10 OVMax= 1.13D-06

 Cycle  13  Pass 1  IDiag  1:
 RMSU=  1.05D-08    CP:  9.71D-01  8.37D-01  7.60D-01  5.89D-01  7.62D-01
                    CP:  6.26D-01  5.64D-01  7.97D-01  7.37D-01  7.50D-01
                    CP:  7.61D-01  8.07D-01
 E= -731.144016802579     Delta-E=       -0.000000000045 Rises=F Damp=F
 DIIS: error= 3.40D-08 at cycle  13 NSaved=  13.
 NSaved=13 IEnMin=13 EnMin= -731.144016802579     IErMin=13 ErrMin= 3.40D-08
 ErrMax= 3.40D-08  0.00D+00 EMaxC= 1.00D-01 BMatC= 1.11D-12 BMatP= 9.16D-12
 IDIUse=1 WtCom= 1.00D+00 WtEn= 0.00D+00
 Coeff-Com: -0.140D-06 0.111D-05 0.240D-05-0.305D-06-0.340D-04-0.140D-03
 Coeff-Com: -0.838D-03-0.248D-02-0.437D-02 0.476D-02 0.771D-01 0.360D+00
 Coeff-Com:  0.566D+00
 Coeff:     -0.140D-06 0.111D-05 0.240D-05-0.305D-06-0.340D-04-0.140D-03
 Coeff:     -0.838D-03-0.248D-02-0.437D-02 0.476D-02 0.771D-01 0.360D+00
 Coeff:      0.566D+00
 Gap=     0.136 Goal=   None    Shift=    0.000
 RMSDP=5.27D-09 MaxDP=2.02D-07 DE=-4.52D-11 OVMax= 3.79D-07

 Error on total polarization charges =  0.00388
 SCF Done:  E(RB3LYP) =  -731.144016803     A.U. after   13 cycles
            NFock= 13  Conv=0.53D-08     -V/T= 2.0088
 KE= 7.247705223451D+02 PE=-3.974748200923D+03 EE= 1.389923971817D+03
 Leave Link  502 at Mon Jul 12 12:19:17 2021, MaxMem=   104857600 cpu:             808.2 elap:             209.1
 (Enter /dades/curu/g16A03_MST/g16/l601.exe)
 Copying SCF densities to generalized density rwf, IOpCl= 0 IROHF=0.

 **********************************************************************

            Population analysis using the SCF density.

 **********************************************************************

 Orbital symmetries:
       Occupied  (A) (A) (A) (A) (A) (A) (A) (A) (A) (A) (A) (A)
                 (A) (A) (A) (A) (A) (A) (A) (A) (A) (A) (A) (A)
                 (A) (A) (A) (A) (A) (A) (A) (A) (A) (A) (A) (A)
                 (A) (A) (A) (A) (A) (A) (A) (A) (A) (A) (A) (A)
                 (A) (A) (A) (A) (A) (A) (A) (A) (A) (A) (A) (A)
                 (A)
       Virtual   (A) (A) (A) (A) (A) (A) (A) (A) (A) (A) (A) (A)
                 (A) (A) (A) (A) (A) (A) (A) (A) (A) (A) (A) (A)
                 (A) (A) (A) (A) (A) (A) (A) (A) (A) (A) (A) (A)
                 (A) (A) (A) (A) (A) (A) (A) (A) (A) (A) (A) (A)
                 (A) (A) (A) (A) (A) (A) (A) (A) (A) (A) (A) (A)
                 (A) (A) (A) (A) (A) (A) (A) (A) (A) (A) (A) (A)
                 (A) (A) (A) (A) (A) (A) (A) (A) (A) (A) (A) (A)
                 (A) (A) (A) (A) (A) (A) (A) (A) (A) (A) (A) (A)
                 (A) (A) (A) (A) (A) (A) (A) (A) (A) (A) (A) (A)
                 (A) (A) (A) (A) (A) (A) (A) (A) (A) (A) (A) (A)
                 (A) (A) (A) (A) (A) (A) (A) (A) (A) (A) (A) (A)
                 (A) (A) (A) (A) (A) (A) (A) (A) (A) (A) (A) (A)
                 (A) (A) (A) (A) (A) (A) (A) (A) (A) (A) (A) (A)
                 (A) (A) (A) (A) (A) (A) (A) (A) (A) (A) (A) (A)
                 (A) (A) (A) (A) (A) (A) (A) (A) (A) (A) (A) (A)
                 (A) (A) (A) (A) (A) (A) (A) (A) (A) (A) (A) (A)
                 (A) (A) (A) (A) (A) (A) (A) (A) (A) (A) (A) (A)
                 (A) (A) (A) (A) (A) (A) (A) (A) (A) (A) (A) (A)
                 (A) (A) (A) (A) (A) (A) (A) (A)
 The electronic state is 1-A.
 Alpha  occ. eigenvalues --  -19.17302 -19.00285 -10.23241 -10.18511 -10.17731
 Alpha  occ. eigenvalues --  -10.17482 -10.17226 -10.17159 -10.16893 -10.15765
 Alpha  occ. eigenvalues --  -10.15471 -10.15174 -10.14718 -10.14170 -10.13900
 Alpha  occ. eigenvalues --  -10.11970 -10.11857  -1.07045  -0.88885  -0.84213
 Alpha  occ. eigenvalues --   -0.80429  -0.77146  -0.73121  -0.71263  -0.69177
 Alpha  occ. eigenvalues --   -0.66443  -0.66420  -0.61505  -0.59006  -0.56042
 Alpha  occ. eigenvalues --   -0.55256  -0.53308  -0.51432  -0.46921  -0.46169
 Alpha  occ. eigenvalues --   -0.43669  -0.43225  -0.41845  -0.41375  -0.40243
 Alpha  occ. eigenvalues --   -0.39907  -0.39185  -0.38857  -0.38100  -0.37332
 Alpha  occ. eigenvalues --   -0.36429  -0.35551  -0.33492  -0.32480  -0.32264
 Alpha  occ. eigenvalues --   -0.31914  -0.30841  -0.30017  -0.28508  -0.27632
 Alpha  occ. eigenvalues --   -0.24785  -0.23583  -0.20506  -0.19931  -0.15620
 Alpha  occ. eigenvalues --   -0.12983
 Alpha virt. eigenvalues --    0.00570   0.02372   0.04425   0.07831   0.09163
 Alpha virt. eigenvalues --    0.10821   0.12770   0.14552   0.14933   0.15204
 Alpha virt. eigenvalues --    0.16004   0.17413   0.18011   0.18539   0.19297
 Alpha virt. eigenvalues --    0.20472   0.21407   0.21622   0.22836   0.23579
 Alpha virt. eigenvalues --    0.24567   0.25571   0.25987   0.27316   0.28339
 Alpha virt. eigenvalues --    0.29176   0.32423   0.33156   0.33882   0.36180
 Alpha virt. eigenvalues --    0.37037   0.38929   0.39718   0.41000   0.43610
 Alpha virt. eigenvalues --    0.49668   0.51492   0.52314   0.53621   0.54427
 Alpha virt. eigenvalues --    0.54588   0.55637   0.55934   0.56818   0.58846
 Alpha virt. eigenvalues --    0.59683   0.60181   0.61176   0.61642   0.62240
 Alpha virt. eigenvalues --    0.63738   0.64115   0.64385   0.64900   0.65142
 Alpha virt. eigenvalues --    0.65350   0.66246   0.68183   0.69085   0.69842
 Alpha virt. eigenvalues --    0.70151   0.71720   0.72970   0.73933   0.76423
 Alpha virt. eigenvalues --    0.77089   0.77446   0.78425   0.79841   0.80156
 Alpha virt. eigenvalues --    0.82225   0.83819   0.84834   0.85820   0.86194
 Alpha virt. eigenvalues --    0.87822   0.88592   0.88909   0.89469   0.90778
 Alpha virt. eigenvalues --    0.91598   0.91971   0.94089   0.94172   0.94588
 Alpha virt. eigenvalues --    0.96300   0.97012   0.97557   0.98235   0.99037
 Alpha virt. eigenvalues --    1.00520   1.00895   1.02631   1.04111   1.05464
 Alpha virt. eigenvalues --    1.05651   1.07414   1.08319   1.09065   1.11044
 Alpha virt. eigenvalues --    1.12863   1.14732   1.15210   1.17897   1.18199
 Alpha virt. eigenvalues --    1.20286   1.22080   1.24616   1.25127   1.27691
 Alpha virt. eigenvalues --    1.28921   1.30785   1.33895   1.35368   1.36792
 Alpha virt. eigenvalues --    1.39764   1.42331   1.43354   1.45149   1.46649
 Alpha virt. eigenvalues --    1.48531   1.49047   1.52042   1.54580   1.56489
 Alpha virt. eigenvalues --    1.58591   1.59915   1.63622   1.66243   1.68326
 Alpha virt. eigenvalues --    1.70898   1.72598   1.74127   1.75911   1.78642
 Alpha virt. eigenvalues --    1.81520   1.82177   1.84532   1.85663   1.87064
 Alpha virt. eigenvalues --    1.88992   1.89908   1.91540   1.92275   1.94011
 Alpha virt. eigenvalues --    1.95259   1.97665   1.98606   1.99357   2.00572
 Alpha virt. eigenvalues --    2.01994   2.02881   2.04483   2.04914   2.07134
 Alpha virt. eigenvalues --    2.08594   2.10253   2.12130   2.14354   2.14999
 Alpha virt. eigenvalues --    2.16818   2.19190   2.20315   2.22868   2.24086
 Alpha virt. eigenvalues --    2.24565   2.26057   2.27604   2.30713   2.31693
 Alpha virt. eigenvalues --    2.33056   2.33284   2.33916   2.35867   2.37819
 Alpha virt. eigenvalues --    2.38593   2.40046   2.42555   2.43204   2.46167
 Alpha virt. eigenvalues --    2.51432   2.55043   2.59165   2.60710   2.61892
 Alpha virt. eigenvalues --    2.63586   2.65254   2.65925   2.67844   2.69150
 Alpha virt. eigenvalues --    2.73016   2.75181   2.76347   2.79013   2.82632
 Alpha virt. eigenvalues --    2.83667   2.85103   2.89808   2.93777   2.95577
 Alpha virt. eigenvalues --    2.98371   3.03508   3.04970   3.16899   3.25221
 Alpha virt. eigenvalues --    3.39384   3.47180   3.96377   4.02038   4.12934
 Alpha virt. eigenvalues --    4.13744   4.16614   4.18826   4.26061   4.28892
 Alpha virt. eigenvalues --    4.34015   4.34659   4.35604   4.41366   4.49382
 Alpha virt. eigenvalues --    4.55093   4.71436   4.77489   4.81065
          Condensed to atoms (all electrons):
               1          2          3          4          5          6
     1  C    5.224368   0.352228   0.359915   0.356685   0.345390  -0.088167
     2  H    0.352228   0.605514  -0.032800  -0.033248  -0.022438  -0.010062
     3  H    0.359915  -0.032800   0.578152  -0.020269  -0.028673  -0.004777
     4  H    0.356685  -0.033248  -0.020269   0.589054  -0.030929   0.009161
     5  C    0.345390  -0.022438  -0.028673  -0.030929   5.018853   0.362893
     6  C   -0.088167  -0.010062  -0.004777   0.009161   0.362893   5.203695
     7  H    0.010668   0.000086  -0.000195  -0.000460  -0.040834   0.351690
     8  H   -0.006527   0.000065   0.003961  -0.000005  -0.016286   0.363318
     9  H   -0.008501   0.005317  -0.000173  -0.000006  -0.023948   0.362407
    10  C   -0.045117  -0.004582   0.005199  -0.008931   0.350608  -0.052413
    11  C   -0.012179   0.000895   0.000327   0.003923  -0.048925   0.001197
    12  C    0.000132   0.000041  -0.000004   0.000194   0.004818  -0.000064
    13  C   -0.000017   0.000001   0.000000  -0.000016   0.000446   0.000054
    14  O   -0.000000   0.000000  -0.000000  -0.000000   0.000001  -0.000000
    15  H    0.000000  -0.000000   0.000000   0.000000  -0.000000   0.000000
    16  C   -0.000211  -0.000006   0.000002   0.000018   0.006752   0.000045
    17  C    0.007146  -0.000260  -0.000141  -0.000211  -0.050666  -0.011539
    18  H    0.000316  -0.000007  -0.000010  -0.000012  -0.009533  -0.000774
    19  H    0.000002  -0.000000  -0.000000   0.000000  -0.000139  -0.000003
    20  H    0.000006  -0.000002  -0.000000   0.000003  -0.000138   0.000001
    21  H    0.006665   0.002344  -0.000143  -0.000026  -0.011499   0.000047
    22  C   -0.052122   0.005444  -0.001486  -0.008151   0.357521  -0.040548
    23  C    0.001795  -0.000053   0.001448  -0.000273  -0.043770  -0.011380
    24  H    0.000389  -0.000016  -0.000075  -0.000016  -0.015004   0.006777
    25  C   -0.000114   0.000001  -0.000035   0.000013   0.005162   0.000013
    26  H    0.000001  -0.000000   0.000001   0.000000  -0.000123   0.000003
    27  C   -0.000005   0.000000  -0.000014  -0.000008   0.000279  -0.000004
    28  O   -0.000000   0.000000   0.000000  -0.000000   0.000000   0.000000
    29  C    0.000201   0.000001  -0.000090   0.000035   0.004291  -0.000108
    30  H    0.000003  -0.000000   0.000000   0.000001  -0.000107   0.000001
    31  C   -0.007066   0.000138   0.000232   0.004651  -0.053689   0.005648
    32  H   -0.000858  -0.000074   0.000175   0.002894  -0.010331   0.000263
               7          8          9         10         11         12
     1  C    0.010668  -0.006527  -0.008501  -0.045117  -0.012179   0.000132
     2  H    0.000086   0.000065   0.005317  -0.004582   0.000895   0.000041
     3  H   -0.000195   0.003961  -0.000173   0.005199   0.000327  -0.000004
     4  H   -0.000460  -0.000005  -0.000006  -0.008931   0.003923   0.000194
     5  C   -0.040834  -0.016286  -0.023948   0.350608  -0.048925   0.004818
     6  C    0.351690   0.363318   0.362407  -0.052413   0.001197  -0.000064
     7  H    0.600977  -0.026726  -0.029491  -0.009809  -0.000343  -0.000026
     8  H   -0.026726   0.573587  -0.040764   0.004990  -0.000037   0.000000
     9  H   -0.029491  -0.040764   0.595933  -0.001991   0.001799  -0.000062
    10  C   -0.009809   0.004990  -0.001991   4.791565   0.502539  -0.022624
    11  C   -0.000343  -0.000037   0.001799   0.502539   5.051262   0.508592
    12  C   -0.000026   0.000000  -0.000062  -0.022624   0.508592   5.032822
    13  C   -0.000039  -0.000000  -0.000012  -0.035329  -0.017698   0.529727
    14  O    0.000000   0.000000   0.000000   0.000161   0.003413  -0.060543
    15  H   -0.000000  -0.000000  -0.000000  -0.000006  -0.000235   0.006730
    16  C   -0.000222   0.000001  -0.000034  -0.025323  -0.041451  -0.070749
    17  C    0.008582   0.000149  -0.000200   0.533612  -0.062989  -0.044635
    18  H    0.003163  -0.000083   0.000046  -0.043847   0.006553   0.000423
    19  H    0.000011  -0.000000   0.000000   0.004215   0.000322   0.006309
    20  H    0.000001  -0.000000   0.000003   0.004119  -0.042549   0.343052
    21  H    0.000003  -0.000014   0.000067  -0.041569   0.352652  -0.043382
    22  C   -0.008351  -0.005662   0.004215  -0.052632   0.001963  -0.000055
    23  C    0.003006   0.001185   0.000401  -0.001692  -0.000221   0.000001
    24  H    0.002019   0.001201  -0.000092   0.000040  -0.000000   0.000000
    25  C   -0.000047   0.000165  -0.000004   0.000037   0.000001  -0.000000
    26  H    0.000001   0.000002  -0.000000   0.000000  -0.000000   0.000000
    27  C   -0.000002  -0.000006   0.000000   0.000019   0.000000  -0.000000
    28  O    0.000000   0.000000  -0.000000  -0.000000  -0.000000   0.000000
    29  C    0.000001   0.000001   0.000001   0.000215   0.000012   0.000000
    30  H    0.000000   0.000000  -0.000000  -0.000004  -0.000000   0.000000
    31  C   -0.000257  -0.000171  -0.000076  -0.005627   0.000774   0.000007
    32  H   -0.000005  -0.000007  -0.000006   0.005939   0.000313  -0.000012
              13         14         15         16         17         18
     1  C   -0.000017  -0.000000   0.000000  -0.000211   0.007146   0.000316
     2  H    0.000001   0.000000  -0.000000  -0.000006  -0.000260  -0.000007
     3  H    0.000000  -0.000000   0.000000   0.000002  -0.000141  -0.000010
     4  H   -0.000016  -0.000000   0.000000   0.000018  -0.000211  -0.000012
     5  C    0.000446   0.000001  -0.000000   0.006752  -0.050666  -0.009533
     6  C    0.000054  -0.000000   0.000000   0.000045  -0.011539  -0.000774
     7  H   -0.000039   0.000000  -0.000000  -0.000222   0.008582   0.003163
     8  H   -0.000000   0.000000  -0.000000   0.000001   0.000149  -0.000083
     9  H   -0.000012   0.000000  -0.000000  -0.000034  -0.000200   0.000046
    10  C   -0.035329   0.000161  -0.000006  -0.025323   0.533612  -0.043847
    11  C   -0.017698   0.003413  -0.000235  -0.041451  -0.062989   0.006553
    12  C    0.529727  -0.060543   0.006730  -0.070749  -0.044635   0.000423
    13  C    4.508947   0.300369  -0.035944   0.497227  -0.007139   0.004229
    14  O    0.300369   8.214596   0.249912  -0.068212   0.004596  -0.000072
    15  H   -0.035944   0.249912   0.346688  -0.005895   0.000448  -0.000021
    16  C    0.497227  -0.068212  -0.005895   5.151021   0.453569  -0.046362
    17  C   -0.007139   0.004596   0.000448   0.453569   5.033186   0.354655
    18  H    0.004229  -0.000072  -0.000021  -0.046362   0.354655   0.596168
    19  H   -0.050581  -0.004101   0.006328   0.346152  -0.033137  -0.007940
    20  H   -0.039531  -0.001172  -0.000450   0.008153   0.000525   0.000016
    21  H    0.004271  -0.000060   0.000006   0.000290   0.006658  -0.000191
    22  C   -0.000033   0.000000   0.000000   0.000573  -0.005632   0.006588
    23  C   -0.000000   0.000000  -0.000000   0.000059   0.001267   0.003100
    24  H   -0.000000   0.000000   0.000000   0.000000  -0.000089   0.000003
    25  C    0.000000  -0.000000   0.000000  -0.000001  -0.000194   0.000317
    26  H    0.000000  -0.000000   0.000000   0.000000   0.000001  -0.000004
    27  C    0.000000  -0.000000   0.000000  -0.000000   0.000008  -0.000022
    28  O   -0.000000   0.000000   0.000000   0.000000   0.000000   0.000000
    29  C    0.000000   0.000000  -0.000000  -0.000015  -0.000185  -0.000170
    30  H   -0.000000   0.000000   0.000000  -0.000000  -0.000000   0.000000
    31  C   -0.000010  -0.000000  -0.000000   0.000038  -0.001840   0.000110
    32  H   -0.000003   0.000000   0.000000  -0.000053   0.001768  -0.000090
              19         20         21         22         23         24
     1  C    0.000002   0.000006   0.006665  -0.052122   0.001795   0.000389
     2  H   -0.000000  -0.000002   0.002344   0.005444  -0.000053  -0.000016
     3  H   -0.000000  -0.000000  -0.000143  -0.001486   0.001448  -0.000075
     4  H    0.000000   0.000003  -0.000026  -0.008151  -0.000273  -0.000016
     5  C   -0.000139  -0.000138  -0.011499   0.357521  -0.043770  -0.015004
     6  C   -0.000003   0.000001   0.000047  -0.040548  -0.011380   0.006777
     7  H    0.000011   0.000001   0.000003  -0.008351   0.003006   0.002019
     8  H   -0.000000  -0.000000  -0.000014  -0.005662   0.001185   0.001201
     9  H    0.000000   0.000003   0.000067   0.004215   0.000401  -0.000092
    10  C    0.004215   0.004119  -0.041569  -0.052632  -0.001692   0.000040
    11  C    0.000322  -0.042549   0.352652   0.001963  -0.000221  -0.000000
    12  C    0.006309   0.343052  -0.043382  -0.000055   0.000001   0.000000
    13  C   -0.050581  -0.039531   0.004271  -0.000033  -0.000000  -0.000000
    14  O   -0.004101  -0.001172  -0.000060   0.000000   0.000000   0.000000
    15  H    0.006328  -0.000450   0.000006   0.000000  -0.000000   0.000000
    16  C    0.346152   0.008153   0.000290   0.000573   0.000059   0.000000
    17  C   -0.033137   0.000525   0.006658  -0.005632   0.001267  -0.000089
    18  H   -0.007940   0.000016  -0.000191   0.006588   0.003100   0.000003
    19  H    0.601579  -0.000221   0.000016   0.000012  -0.000000   0.000000
    20  H   -0.000221   0.609468  -0.006534   0.000001  -0.000000  -0.000000
    21  H    0.000016  -0.006534   0.599913   0.000171   0.000002   0.000000
    22  C    0.000012   0.000001   0.000171   4.797332   0.521426  -0.043195
    23  C   -0.000000  -0.000000   0.000002   0.521426   5.152002   0.341120
    24  H    0.000000  -0.000000   0.000000  -0.043195   0.341120   0.644769
    25  C   -0.000000  -0.000000  -0.000000  -0.028246   0.389164  -0.040924
    26  H   -0.000000  -0.000000  -0.000000   0.004971  -0.051647  -0.006537
    27  C   -0.000000   0.000000   0.000000  -0.033503   0.014814   0.002713
    28  O    0.000000   0.000000   0.000000   0.000149   0.006729  -0.000071
    29  C   -0.000000   0.000000  -0.000000  -0.028132  -0.053721   0.000202
    30  H    0.000000  -0.000000  -0.000000   0.004440  -0.000172   0.000025
    31  C    0.000004   0.000000  -0.000050   0.520941  -0.051058   0.007142
    32  H   -0.000001  -0.000001  -0.000039  -0.054735   0.007113  -0.000271
              25         26         27         28         29         30
     1  C   -0.000114   0.000001  -0.000005  -0.000000   0.000201   0.000003
     2  H    0.000001  -0.000000   0.000000   0.000000   0.000001  -0.000000
     3  H   -0.000035   0.000001  -0.000014   0.000000  -0.000090   0.000000
     4  H    0.000013   0.000000  -0.000008  -0.000000   0.000035   0.000001
     5  C    0.005162  -0.000123   0.000279   0.000000   0.004291  -0.000107
     6  C    0.000013   0.000003  -0.000004   0.000000  -0.000108   0.000001
     7  H   -0.000047   0.000001  -0.000002   0.000000   0.000001   0.000000
     8  H    0.000165   0.000002  -0.000006   0.000000   0.000001   0.000000
     9  H   -0.000004  -0.000000   0.000000  -0.000000   0.000001  -0.000000
    10  C    0.000037   0.000000   0.000019  -0.000000   0.000215  -0.000004
    11  C    0.000001  -0.000000   0.000000  -0.000000   0.000012  -0.000000
    12  C   -0.000000   0.000000  -0.000000   0.000000   0.000000   0.000000
    13  C    0.000000   0.000000   0.000000  -0.000000   0.000000  -0.000000
    14  O   -0.000000  -0.000000  -0.000000   0.000000   0.000000   0.000000
    15  H    0.000000   0.000000   0.000000   0.000000  -0.000000   0.000000
    16  C   -0.000001   0.000000  -0.000000   0.000000  -0.000015  -0.000000
    17  C   -0.000194   0.000001   0.000008   0.000000  -0.000185  -0.000000
    18  H    0.000317  -0.000004  -0.000022   0.000000  -0.000170   0.000000
    19  H   -0.000000  -0.000000  -0.000000   0.000000  -0.000000   0.000000
    20  H   -0.000000  -0.000000   0.000000   0.000000   0.000000  -0.000000
    21  H   -0.000000  -0.000000   0.000000   0.000000  -0.000000  -0.000000
    22  C   -0.028246   0.004971  -0.033503   0.000149  -0.028132   0.004440
    23  C    0.389164  -0.051647   0.014814   0.006729  -0.053721  -0.000172
    24  H   -0.040924  -0.006537   0.002713  -0.000071   0.000202   0.000025
    25  C    5.349319   0.311991   0.456351  -0.081504  -0.065850   0.012554
    26  H    0.311991   0.701109  -0.039714   0.003505   0.013311  -0.000353
    27  C    0.456351  -0.039714   4.300238   0.446545   0.446510  -0.037872
    28  O   -0.081504   0.003505   0.446545   8.562083  -0.090543   0.003585
    29  C   -0.065850   0.013311   0.446510  -0.090543   5.344962   0.319812
    30  H    0.012554  -0.000353  -0.037872   0.003585   0.319812   0.681819
    31  C   -0.061381  -0.000191   0.012211   0.009837   0.370961  -0.050219
    32  H    0.000564   0.000035   0.003316  -0.000139  -0.038007  -0.007128
              31         32
     1  C   -0.007066  -0.000858
     2  H    0.000138  -0.000074
     3  H    0.000232   0.000175
     4  H    0.004651   0.002894
     5  C   -0.053689  -0.010331
     6  C    0.005648   0.000263
     7  H   -0.000257  -0.000005
     8  H   -0.000171  -0.000007
     9  H   -0.000076  -0.000006
    10  C   -0.005627   0.005939
    11  C    0.000774   0.000313
    12  C    0.000007  -0.000012
    13  C   -0.000010  -0.000003
    14  O   -0.000000   0.000000
    15  H   -0.000000   0.000000
    16  C    0.000038  -0.000053
    17  C   -0.001840   0.001768
    18  H    0.000110  -0.000090
    19  H    0.000004  -0.000001
    20  H    0.000000  -0.000001
    21  H   -0.000050  -0.000039
    22  C    0.520941  -0.054735
    23  C   -0.051058   0.007113
    24  H    0.007142  -0.000271
    25  C   -0.061381   0.000564
    26  H   -0.000191   0.000035
    27  C    0.012211   0.003316
    28  O    0.009837  -0.000139
    29  C    0.370961  -0.038007
    30  H   -0.050219  -0.007128
    31  C    5.185930   0.332015
    32  H    0.332015   0.672299
 Mulliken charges:
               1
     1  C   -0.445026
     2  H    0.131472
     3  H    0.139472
     4  H    0.135932
     5  C   -0.049982
     6  C   -0.447375
[...]
 Alpha virt. eigenvalues --    2.74059   2.75788   2.77757   2.78320   2.80158
 Alpha virt. eigenvalues --    2.82317   2.84425   2.86817   2.87991   2.88203
 Alpha virt. eigenvalues --    2.90481   2.91044   2.91832   2.95595   2.96869
 Alpha virt. eigenvalues --    2.99037   2.99752   3.01688   3.02388   3.03829
 Alpha virt. eigenvalues --    3.06228   3.07358   3.09127   3.12443   3.14164
 Alpha virt. eigenvalues --    3.16139   3.17129   3.20107   3.21798   3.23727
 Alpha virt. eigenvalues --    3.25303   3.25717   3.27484   3.28260   3.33884
 Alpha virt. eigenvalues --    3.35077   3.36239   3.38315   3.43672   3.50095
 Alpha virt. eigenvalues --    3.51164   3.53677   3.58948   3.59796   3.61574
 Alpha virt. eigenvalues --    3.77487   3.82071   3.83908   3.85212   3.85534
 Alpha virt. eigenvalues --    3.93027   3.96041   3.99312   4.01959   4.03275
 Alpha virt. eigenvalues --    4.04148   4.04244   4.16644   4.25191   4.28924
 Alpha virt. eigenvalues --    4.36035   4.48336   4.80402   5.06778   5.15276
          Condensed to atoms (all electrons):
               1          2          3          4          5          6
     1  C    7.914831   0.382439  -0.229543   0.422970  -1.976981  -1.669078
     2  H    0.382439   1.567688  -0.436066  -0.271507  -0.005568   0.055081
     3  H   -0.229543  -0.436066   1.895317  -0.373228  -0.261986  -0.169882
     4  H    0.422970  -0.271507  -0.373228   1.441236   0.199555  -0.017923
     5  C   -1.976981  -0.005568  -0.261986   0.199555  32.479127  -1.769009
     6  C   -1.669078   0.055081  -0.169882  -0.017923  -1.769009   8.033796
     7  H   -0.024064   0.017356  -0.006737  -0.007841   0.441252   0.315343
     8  H   -0.019678   0.002253  -0.026480   0.010682  -0.097743   0.369677
     9  H   -0.049581  -0.042782   0.029977   0.005315  -0.277976  -0.340678
    10  C    1.904914  -0.054164   0.383162  -0.055009  -6.866931  -1.082262
    11  C   -0.170610  -0.133891  -0.122518   0.006728  -1.997645  -0.533928
    12  C    0.286963   0.180522  -0.062153   0.036905   0.104675  -0.009428
    13  C    0.160792  -0.021996   0.005090   0.010608  -0.646139  -0.174607
    14  O    0.000261   0.001131  -0.000125   0.000585   0.018113   0.004648
    15  H    0.001497  -0.000418   0.000108  -0.000118  -0.009704  -0.002730
    16  C   -0.551452  -0.008145   0.008360  -0.044432  -0.520229   0.721181
    17  C   -0.123385  -0.088067   0.085699   0.001757  -0.634662  -0.150908
    18  H    0.059636  -0.007393   0.005497   0.002318  -0.195918  -0.083190
    19  H   -0.012016   0.001265  -0.000566  -0.000393   0.035772   0.014569
    20  H    0.023223   0.000673   0.000265   0.001643  -0.016834   0.001998
    21  H    0.033701  -0.045356   0.043529  -0.045407  -0.269784   0.033309
    22  C   -1.415133   0.139434   0.048405  -0.077558  -6.831191   2.224793
    23  C   -0.126937  -0.159008   0.302548  -0.046092  -1.519967  -0.501940
    24  H   -0.025181  -0.008475   0.014001  -0.001000  -0.568979   0.084841
    25  C   -0.349183  -0.015786  -0.021431   0.004078  -0.951094   0.442086
    26  H    0.002316   0.000974  -0.003122   0.000861   0.036999   0.025237
    27  C    0.013528  -0.003174   0.016175  -0.007584  -0.143972   0.045115
    28  O    0.002709   0.000283  -0.000281   0.000431  -0.001591  -0.001200
    29  C    0.630515   0.032865   0.002153   0.010302  -1.021154  -0.429184
    30  H   -0.007371  -0.000867   0.001513  -0.000510   0.019142  -0.002240
    31  C   -0.208371  -0.002002   0.057298  -0.114276   0.086373  -0.298380
    32  H    0.056609  -0.002666   0.019567  -0.048242  -0.192146  -0.009608
               7          8          9         10         11         12
     1  C   -0.024064  -0.019678  -0.049581   1.904914  -0.170610   0.286963
     2  H    0.017356   0.002253  -0.042782  -0.054164  -0.133891   0.180522
     3  H   -0.006737  -0.026480   0.029977   0.383162  -0.122518  -0.062153
     4  H   -0.007841   0.010682   0.005315  -0.055009   0.006728   0.036905
     5  C    0.441252  -0.097743  -0.277976  -6.866931  -1.997645   0.104675
     6  C    0.315343   0.369677  -0.340678  -1.082262  -0.533928  -0.009428
     7  H    1.464820  -0.256194  -0.414722  -0.310333  -0.082298   0.027594
     8  H   -0.256194   1.439436  -0.393888   0.270897  -0.186722  -0.005570
     9  H   -0.414722  -0.393888   1.966048   0.030781   0.406495  -0.036903
    10  C   -0.310333   0.270897   0.030781  31.375321 -15.842035   5.470766
    11  C   -0.082298  -0.186722   0.406495 -15.842035  34.191271 -10.705853
    12  C    0.027594  -0.005570  -0.036903   5.470766 -10.705853  18.576644
    13  C   -0.020921  -0.009503   0.042762  -6.050877   6.547625  -5.547865
    14  O    0.000822   0.000280  -0.000897   0.242174  -0.258270   0.041865
    15  H   -0.000690  -0.000150   0.000452  -0.050989   0.097763  -0.140152
    16  C    0.055521   0.037180  -0.045477   4.097736  -7.398173   4.453783
    17  C    0.053213  -0.036545   0.025377 -11.203844   2.820291  -6.110206
    18  H   -0.064105  -0.010103   0.026486   1.046672   0.120727  -0.012925
    19  H    0.001157   0.000544  -0.000784  -0.305768   0.008452   0.016669
    20  H    0.000446   0.000950  -0.004370  -0.423943   0.586204  -1.600463
    21  H    0.011742  -0.009415  -0.000425   1.726719  -2.720155   0.676620
    22  C   -0.132656   0.048672   0.272254   0.562881  -0.477848   0.192831
    23  C   -0.040749  -0.078185  -0.074346   0.549510   0.428299  -0.167313
    24  H   -0.047735  -0.028501   0.048603   0.136687  -0.030492  -0.012384
    25  C    0.055637   0.133843  -0.057308  -0.002372  -0.168390  -0.029053
    26  H    0.002897   0.000174   0.000066  -0.013336   0.000982   0.000361
    27  C    0.000831   0.001580  -0.000662  -0.062392   0.036301   0.003236
    28  O    0.000310   0.000299  -0.000079   0.004037  -0.000207  -0.000014
    29  C   -0.030547  -0.036827   0.019573   0.232997   0.208692   0.092629
    30  H   -0.000097   0.000182   0.000102  -0.015533  -0.008862   0.000504
    31  C   -0.000863  -0.071299   0.072306  -0.621855  -0.104803   0.050544
    32  H   -0.000920  -0.004293   0.002029  -0.058114   0.220628   0.003144
              13         14         15         16         17         18
     1  C    0.160792   0.000261   0.001497  -0.551452  -0.123385   0.059636
     2  H   -0.021996   0.001131  -0.000418  -0.008145  -0.088067  -0.007393
     3  H    0.005090  -0.000125   0.000108   0.008360   0.085699   0.005497
     4  H    0.010608   0.000585  -0.000118  -0.044432   0.001757   0.002318
     5  C   -0.646139   0.018113  -0.009704  -0.520229  -0.634662  -0.195918
     6  C   -0.174607   0.004648  -0.002730   0.721181  -0.150908  -0.083190
     7  H   -0.020921   0.000822  -0.000690   0.055521   0.053213  -0.064105
     8  H   -0.009503   0.000280  -0.000150   0.037180  -0.036545  -0.010103
     9  H    0.042762  -0.000897   0.000452  -0.045477   0.025377   0.026486
    10  C   -6.050877   0.242174  -0.050989   4.097736 -11.203844   1.046672
    11  C    6.547625  -0.258270   0.097763  -7.398173   2.820291   0.120727
    12  C   -5.547865   0.041865  -0.140152   4.453783  -6.110206  -0.012925
    13  C   11.433016  -0.678550  -0.009520  -4.327573   3.940462  -0.254387
    14  O   -0.678550   9.104233   0.307093   0.331863  -0.023381   0.005378
    15  H   -0.009520   0.307093   0.603233  -0.016766   0.046398   0.001421
    16  C   -4.327573   0.331863  -0.016766  18.022621  -8.787265   0.279669
    17  C    3.940462  -0.023381   0.046398  -8.787265  27.887903  -1.591611
    18  H   -0.254387   0.005378   0.001421   0.279669  -1.591611   2.523106
    19  H    0.578151  -0.108469   0.004563  -1.192220   0.705859  -0.124158
    20  H    1.033049  -0.034773  -0.002968   0.005042   0.205809   0.007869
    21  H   -0.575759  -0.007031  -0.000405   0.242628  -0.014578  -0.033793
    22  C   -0.259237   0.002644  -0.001269   0.679344  -1.123148  -0.209895
    23  C    0.069878  -0.000313   0.001163  -0.190371  -0.278776   0.241012
    24  H    0.010084  -0.000203   0.000160   0.036571   0.113297   0.008398
    25  C    0.007908   0.000202  -0.000355   0.212318   0.150046  -0.052712
    26  H   -0.000644   0.000008  -0.000018   0.000596  -0.018906  -0.001907
    27  C    0.003332  -0.000072   0.000106  -0.032754   0.032301   0.032295
    28  O   -0.000008  -0.000000   0.000006  -0.001157  -0.000474   0.000162
    29  C   -0.018451  -0.000470   0.000232  -0.256534   0.077825  -0.034850
    30  H   -0.000246   0.000025  -0.000016   0.004188   0.026851   0.001501
    31  C    0.059937  -0.001231   0.000213   0.192163   0.124438   0.005820
    32  H    0.017683  -0.000489   0.000159  -0.039775  -0.013767   0.015760
              19         20         21         22         23         24
     1  C   -0.012016   0.023223   0.033701  -1.415133  -0.126937  -0.025181
     2  H    0.001265   0.000673  -0.045356   0.139434  -0.159008  -0.008475
     3  H   -0.000566   0.000265   0.043529   0.048405   0.302548   0.014001
     4  H   -0.000393   0.001643  -0.045407  -0.077558  -0.046092  -0.001000
     5  C    0.035772  -0.016834  -0.269784  -6.831191  -1.519967  -0.568979
     6  C    0.014569   0.001998   0.033309   2.224793  -0.501940   0.084841
     7  H    0.001157   0.000446   0.011742  -0.132656  -0.040749  -0.047735
     8  H    0.000544   0.000950  -0.009415   0.048672  -0.078185  -0.028501
     9  H   -0.000784  -0.004370  -0.000425   0.272254  -0.074346   0.048603
    10  C   -0.305768  -0.423943   1.726719   0.562881   0.549510   0.136687
    11  C    0.008452   0.586204  -2.720155  -0.477848   0.428299  -0.030492
    12  C    0.016669  -1.600463   0.676620   0.192831  -0.167313  -0.012384
    13  C    0.578151   1.033049  -0.575759  -0.259237   0.069878   0.010084
    14  O   -0.108469  -0.034773  -0.007031   0.002644  -0.000313  -0.000203
    15  H    0.004563  -0.002968  -0.000405  -0.001269   0.001163   0.000160
    16  C   -1.192220   0.005042   0.242628   0.679344  -0.190371   0.036571
    17  C    0.705859   0.205809  -0.014578  -1.123148  -0.278776   0.113297
    18  H   -0.124158   0.007869  -0.033793  -0.209895   0.241012   0.008398
    19  H    1.966585  -0.017414   0.013168   0.013777  -0.013514   0.000409
    20  H   -0.017414   1.875433  -0.102062  -0.007678  -0.001035  -0.000197
    21  H    0.013168  -0.102062   2.696462   0.201083  -0.016980   0.000267
    22  C    0.013777  -0.007678   0.201083  26.460853 -10.488065   1.202043
    23  C   -0.013514  -0.001035  -0.016980 -10.488065  26.665425  -2.156318
    24  H    0.000409  -0.000197   0.000267   1.202043  -2.156318   2.651247
    25  C    0.006731   0.000042   0.000468   2.100141  -5.580386   0.704015
    26  H    0.000053   0.000010  -0.000170   0.032575   0.713048  -0.111805
    27  C   -0.003013  -0.000091   0.001547  -2.742346   2.067396  -0.061837
    28  O   -0.000094  -0.000001  -0.000084   0.168677  -0.095652  -0.003564
    29  C   -0.002011  -0.000776   0.018724   1.404554  -2.778246   0.071442
    30  H   -0.000244  -0.000025   0.001238  -0.153535   0.151992   0.006300
    31  C    0.008770  -0.003139   0.004339  -7.572520  -1.429656  -0.110553
    32  H    0.000062  -0.001558   0.001517   0.713871  -0.127269  -0.017576
              25         26         27         28         29         30
     1  C   -0.349183   0.002316   0.013528   0.002709   0.630515  -0.007371
     2  H   -0.015786   0.000974  -0.003174   0.000283   0.032865  -0.000867
     3  H   -0.021431  -0.003122   0.016175  -0.000281   0.002153   0.001513
     4  H    0.004078   0.000861  -0.007584   0.000431   0.010302  -0.000510
     5  C   -0.951094   0.036999  -0.143972  -0.001591  -1.021154   0.019142
     6  C    0.442086   0.025237   0.045115  -0.001200  -0.429184  -0.002240
     7  H    0.055637   0.002897   0.000831   0.000310  -0.030547  -0.000097
     8  H    0.133843   0.000174   0.001580   0.000299  -0.036827   0.000182
     9  H   -0.057308   0.000066  -0.000662  -0.000079   0.019573   0.000102
    10  C   -0.002372  -0.013336  -0.062392   0.004037   0.232997  -0.015533
    11  C   -0.168390   0.000982   0.036301  -0.000207   0.208692  -0.008862
    12  C   -0.029053   0.000361   0.003236  -0.000014   0.092629   0.000504
    13  C    0.007908  -0.000644   0.003332  -0.000008  -0.018451  -0.000246
    14  O    0.000202   0.000008  -0.000072  -0.000000  -0.000470   0.000025
    15  H   -0.000355  -0.000018   0.000106   0.000006   0.000232  -0.000016
    16  C    0.212318   0.000596  -0.032754  -0.001157  -0.256534   0.004188
    17  C    0.150046  -0.018906   0.032301  -0.000474   0.077825   0.026851
    18  H   -0.052712  -0.001907   0.032295   0.000162  -0.034850   0.001501
    19  H    0.006731   0.000053  -0.003013  -0.000094  -0.002011  -0.000244
    20  H    0.000042   0.000010  -0.000091  -0.000001  -0.000776  -0.000025
    21  H    0.000468  -0.000170   0.001547  -0.000084   0.018724   0.001238
    22  C    2.100141   0.032575  -2.742346   0.168677   1.404554  -0.153535
    23  C   -5.580386   0.713048   2.067396  -0.095652  -2.778246   0.151992
    24  H    0.704015  -0.111805  -0.061837  -0.003564   0.071442   0.006300
    25  C   12.461776  -0.976410  -1.609713   0.126908   1.897062  -0.171070
    26  H   -0.976410   1.805587   0.138793  -0.021337  -0.171844  -0.011012
    27  C   -1.609713   0.138793   8.348218  -0.353658  -1.456509   0.182861
    28  O    0.126908  -0.021337  -0.353658   9.330779   0.121787  -0.034445
    29  C    1.897062  -0.171844  -1.456509   0.121787  12.557270  -0.868056
    30  H   -0.171070  -0.011012   0.182861  -0.034445  -0.868056   1.816668
    31  C   -2.533322   0.113627   1.240689  -0.093121  -5.376346   0.756216
    32  H    0.090449   0.003387  -0.115469  -0.000888   0.915156  -0.145808
              31         32
     1  C   -0.208371   0.056609
     2  H   -0.002002  -0.002666
     3  H    0.057298   0.019567
     4  H   -0.114276  -0.048242
     5  C    0.086373  -0.192146
     6  C   -0.298380  -0.009608
     7  H   -0.000863  -0.000920
     8  H   -0.071299  -0.004293
     9  H    0.072306   0.002029
    10  C   -0.621855  -0.058114
    11  C   -0.104803   0.220628
    12  C    0.050544   0.003144
    13  C    0.059937   0.017683
    14  O   -0.001231  -0.000489
    15  H    0.000213   0.000159
    16  C    0.192163  -0.039775
    17  C    0.124438  -0.013767
    18  H    0.005820   0.015760
    19  H    0.008770   0.000062
    20  H   -0.003139  -0.001558
    21  H    0.004339   0.001517
    22  C   -7.572520   0.713871
    23  C   -1.429656  -0.127269
    24  H   -0.110553  -0.017576
    25  C   -2.533322   0.090449
    26  H    0.113627   0.003387
    27  C    1.240689  -0.115469
    28  O   -0.093121  -0.000888
    29  C   -5.376346   0.915156
    30  H    0.756216  -0.145808
    31  C   23.589893  -2.031294
    32  H   -2.031294   2.575491
 Mulliken charges:
               1
     1  C    1.061661
     2  H   -0.074630
     3  H   -0.204547
     4  H   -0.044853
     5  C   -0.643806
     6  C    0.874498
     7  H   -0.007469
     8  H   -0.045553
     9  H   -0.207749
    10  C    0.984504
    11  C    1.262243
    12  C    0.224029
    13  C    0.675908
    14  O   -0.947052
    15  H    0.171699
    16  C    0.031557
    17  C   -0.098001
    18  H   -0.706781
    19  H   -0.595890
    20  H   -0.525330
    21  H   -0.865661
    22  C    1.023246
    23  C    0.680845
    24  H   -0.903565
    25  C    0.124872
    26  H   -0.548040
    27  C    0.428943
    28  O   -1.148534
    29  C    0.188023
    30  H   -0.549344
    31  C    0.210407
    32  H   -0.825631
 Sum of Mulliken charges =  -1.00000
 Mulliken charges with hydrogens summed into heavy atoms:
               1
     1  C    0.737631
     5  C   -0.643806
     6  C    0.613727
    10  C    0.984504
    11  C    0.396582
    12  C   -0.301301
    13  C    0.675908
    14  O   -0.775353
    16  C   -0.564333
    17  C   -0.804782
    22  C    1.023246
    23  C   -0.222720
    25  C   -0.423168
    27  C    0.428943
    28  O   -1.148534
    29  C   -0.361321
    31  C   -0.615224
 Electronic spatial extent (au):  <R**2>=           4860.2158
 Charge=             -1.0000 electrons
 Dipole moment (field-independent basis, Debye):
    X=             14.5944    Y=              4.5352    Z=              1.6203  Tot=             15.3685
 Quadrupole moment (field-independent basis, Debye-Ang):
   XX=           -196.5362   YY=           -115.5264   ZZ=           -106.6166
   XY=            -29.1069   XZ=             -1.3652   YZ=             -5.8597
 Traceless Quadrupole moment (field-independent basis, Debye-Ang):
   XX=            -56.9764   YY=             24.0333   ZZ=             32.9431
   XY=            -29.1069   XZ=             -1.3652   YZ=             -5.8597
 Octapole moment (field-independent basis, Debye-Ang**2):
  XXX=            330.3419  YYY=             -7.8990  ZZZ=              1.1532  XYY=             83.2452
  XXY=            124.4198  XXZ=             31.8671  XZZ=             15.9507  YZZ=             -7.5321
  YYZ=             13.0855  XYZ=            -17.7316
 Hexadecapole moment (field-independent basis, Debye-Ang**3):
 XXXX=          -7027.5774 YYYY=          -1329.0487 ZZZZ=           -645.6870 XXXY=           -687.6828
 XXXZ=            -34.4617 YYYX=           -222.2543 YYYZ=            -39.5608 ZZZX=             -3.7352
 ZZZY=             -4.1913 XXYY=          -1225.7129 XXZZ=           -909.0093 YYZZ=           -320.0058
 XXYZ=           -110.9090 YYXZ=             34.6335 ZZXY=            -25.4276
 N-N= 1.129465567956D+03 E-N=-3.973006122864D+03  KE= 7.258532293718D+02
 Leave Link  601 at Mon Jul 12 14:32:34 2021, MaxMem=   262144000 cpu:               0.4 elap:               0.3
 (Enter /dades/curu/g16A03_MST/g16/l9999.exe)
 1\1\GINC-PIRINEUS26\SP\RMP2-FC\Aug-CC-pVDZ\C15H15O2(1-)\UBATOR02\12-Ju
 l-2021\0\\#p mp2/aug-cc-pVDZ scf=tight maxdisk=180GB geom=allcheck\\SE
 T_328_BBB212_conf1.geo_135_120 geometry\\-1,1\C,0,-0.0375085558,-1.875
 8517701,1.5928247527\H,0,0.8179696675,-2.5467787517,1.7253274422\H,0,-
 0.949625059,-2.4752793238,1.6600844033\H,0,-0.0437064726,-1.1599734479
 ,2.4189439786\C,0,-0.0000356356,-1.1538476914,0.2296860742\C,0,0.05460
 04533,-2.2384641768,-0.8656059231\H,0,0.0803403046,-1.7993685563,-1.86
 76049353\H,0,-0.8176439099,-2.8957856244,-0.8066552031\H,0,0.953427325
 3,-2.8499548403,-0.7407015538\C,0,1.2695173392,-0.2970158533,0.0891630
 827\C,0,2.3922979965,-0.4489857379,0.9121311881\C,0,3.5515551745,0.306
 4561689,0.7267952522\C,0,3.6150947163,1.2400359577,-0.3091337149\O,0,4
 .7731309248,1.9577827639,-0.4516600402\H,0,4.6776985517,2.5716436949,-
 1.1972871239\C,0,2.5076191653,1.4084315891,-1.1476590475\C,0,1.3585422
 342,0.6509060154,-0.9397799776\H,0,0.4971036521,0.8062168022,-1.580103
 6755\H,0,2.5407034946,2.1358553569,-1.9539243771\H,0,4.409844106,0.181
 3985045,1.3793534855\H,0,2.3697094022,-1.1683007224,1.7210896428\C,0,-
 1.255474614,-0.28276386,0.1016306399\C,0,-2.2764126715,-0.5173328774,-
 0.8317590134\H,0,-2.1752255425,-1.3383561143,-1.5362858365\C,0,-3.4265
 14455,0.2635010277,-0.8889348629\H,0,-4.1917955047,0.0438329338,-1.629
 8845556\C,0,-3.662743177,1.3649039927,-0.0005462591\O,0,-4.7224249146,
 2.089442394,-0.0397601865\C,0,-2.5987738817,1.5854207563,0.9439913551\
 H,0,-2.7152213062,2.410043496,1.6448038409\C,0,-1.4598821029,0.7953665
 873,0.9847509288\H,0,-0.6911667053,1.0178213071,1.723710219\\Version=E
 S64L-G16RevA.03\State=1-A\HF=-726.5713371\MP2=-729.0727222\RMSD=6.658e
 -09\PG=C01 [X(C15H15O2)]\\@


 ARTHROPOD AXIOM: A COMPUTER SYSTEM IS LIKE A SPIDER'S WEB.
 YOU CANNOT PULL ON ONE END WITHOUT MAKING THE OTHER END MOVE.
     -- GREG WETTSTEIN
 Job cpu time:       0 days  2 hours 49 minutes 31.8 seconds.
 Elapsed time:       0 days  0 hours 56 minutes 22.2 seconds.
 File lengths (MBytes):  RWF=  69190 Int=      0 D2E=      0 Chk=     23 Scr=      1
 Normal termination of Gaussian 16 at Mon Jul 12 14:32:35 2021.
